Membrane in water
40347
    1TMC1    C1    1   3.948   4.164  11.568 -0.4501  0.4327 -0.5911
    1TMC1    C2    2   3.984   4.167  11.438  0.4923  0.2267 -0.1274
    1TMC1    C3    3   4.046   4.285  11.391 -0.0324  0.0648 -0.9595
    1TMC1    C4    4   3.952   4.275  11.654  0.2930  0.5502  0.0388
    1TMC1    C5    5   3.991   4.391  11.594 -0.3765 -0.2163  0.2141
    1TMC1    C6    6   4.046   4.397  11.471  0.1709 -0.6711  0.1479
    1TMC1     C    7   3.924   4.033  11.622 -0.0348 -1.3252  0.3594
    1TMC1     O    8   3.879   3.940  11.553 -0.0470  0.2722 -0.0491
    1TMC1     H    9   3.992   4.066  11.399  1.3229  0.0463  0.4887
    1TMC1    H1   10   3.902   4.269  11.750  0.4655  0.9610  0.1536
    1TMC1    H2   11   4.089   4.491  11.438 -2.5130  0.1751 -0.9393
    1TMC1    C7   12   3.980   4.513  11.678 -0.4499  0.5526  0.6143
    1TMC1    C8   13   4.144   4.278  11.284  0.5918  0.2318  0.0260
    1TMC1    O1   14   3.954   4.628  11.645  0.3453 -0.0214  0.3801
    1TMC1    O2   15   4.259   4.313  11.300  0.2552  0.0752 -0.5195
    1TMC1    O3   16   4.008   4.479  11.805 -0.5175 -0.0609 -0.3028
    1TMC1    H3   17   4.037   4.386  11.816  0.0032  0.1026 -0.2953
    1TMC1    O5   18   4.102   4.176  11.214  0.1655  0.3174 -0.2354
    1TMC1    H5   19   4.004   4.180  11.207  0.0810 -0.7744  0.2587
    2MPD2     C   20   3.946   3.675  11.995  0.1147 -0.1254  0.6888
    2MPD2    C1   21   3.854   3.696  11.890  0.2106 -0.4071 -0.2062
    2MPD2    C2   22   3.859   3.808  11.807  0.4736  0.0836 -0.5715
    2MPD2    C3   23   3.962   3.900  11.832  0.7313 -0.5080 -0.6799
    2MPD2    C4   24   4.061   3.875  11.926 -0.2961 -0.2304 -0.1309
    2MPD2    C5   25   4.049   3.768  12.014 -0.2658 -0.4169 -0.2939
    2MPD2     H   26   3.775   3.826  11.741 -0.8765  2.5931  1.8309
    2MPD2    H1   27   4.146   3.942  11.936 -0.6019  0.3190 -1.2561
    2MPD2    H2   28   3.954   3.591  12.063  0.9635  0.7406  1.6568
    2MPD2    H3   29   4.128   3.764  12.088  0.6828 -0.2899 -1.2958
    2MPD2     N   30   3.972   4.017  11.748 -0.4564 -0.2113 -0.1808
    2MPD2    H5   31   4.038   4.087  11.781 -2.4129  0.6154  1.9827
    2MPD2    N1   32   3.748   3.606  11.868  0.3056  0.6501 -0.3174
    2MPD2    H7   33   3.696   3.624  11.782  0.0111 -1.8064 -0.6546
    3TMC1    C1   34   2.855   3.749  11.594 -0.3863 -0.6538  0.1333
    3TMC1    C2   35   2.851   3.614  11.624 -0.0873  1.2466  0.0496
    3TMC1    C3   36   2.948   3.533  11.572 -0.3202 -0.0137  0.1915
    3TMC1    C4   37   2.967   3.801  11.534 -0.6618 -0.5472 -0.1452
    3TMC1    C5   38   3.061   3.716  11.494 -0.0026 -0.1411 -0.7238
    3TMC1    C6   39   3.051   3.589  11.509 -0.0463 -1.2313 -0.1323
    3TMC1     C   40   2.733   3.829  11.613 -0.5102  0.9596 -0.7051
    3TMC1     O   41   2.649   3.773  11.680 -0.2063  0.2311 -0.1711
    3TMC1     H   42   2.768   3.578  11.685  0.8732  0.0109  0.6266
    3TMC1    H1   43   2.988   3.907  11.526 -4.3092  0.3734  2.2571
    3TMC1    H2   44   3.124   3.523  11.463 -0.8054 -2.8465  0.9631
    3TMC1    C7   45   3.161   3.776  11.400  0.0816 -0.4797  0.0841
    3TMC1    C8   46   2.919   3.390  11.579 -0.1984 -0.4741  0.1425
    3TMC1    O1   47   3.132   3.849  11.302 -0.5024 -0.7338 -0.5359
    3TMC1    O2   48   2.811   3.344  11.586 -0.1709 -1.1420 -0.1062
    3TMC1    O3   49   3.274   3.700  11.428  0.3321 -0.1884  0.1250
    3TMC1    H3   50   3.275   3.660  11.518 -0.7730 -1.9469 -0.6482
    3TMC1    O5   51   3.035   3.325  11.549  0.7377  0.2982  0.3627
    3TMC1    H5   52   3.017   3.231  11.530 -1.6899  0.4012  2.2196
    4MPD2     C   53   2.468   4.258  11.645 -0.0774 -0.4213 -0.1561
    4MPD2    C1   54   2.587   4.286  11.585  0.3421 -0.4045  0.0095
    4MPD2    C2   55   2.680   4.191  11.554  0.6562 -0.2315 -0.1261
    4MPD2    C3   56   2.639   4.057  11.573  0.4216 -0.4709  0.5271
    4MPD2    C4   57   2.517   4.031  11.627  0.7730 -0.5338  0.2048
    4MPD2    C5   58   2.435   4.131  11.666  0.1964  0.1924 -0.4014
    4MPD2     H   59   2.779   4.214  11.517  0.8846 -0.7877  0.1457
    4MPD2    H1   60   2.478   3.934  11.657 -0.0617  0.0158  0.9093
    4MPD2    H2   61   2.389   4.322  11.683  0.8343  0.1916  0.7075
    4MPD2    H3   62   2.351   4.097  11.725  0.7791  1.1813  0.9894
    4MPD2     N   63   2.738   3.962  11.560 -0.0394  0.2848  0.3343
    4MPD2    H5   64   2.814   3.991  11.501  1.2226 -1.8979  0.8868
    4MPD2    N1   65   2.614   4.420  11.560  0.1219  0.6085  0.0715
    4MPD2    H7   66   2.712   4.435  11.536 -0.5034  2.4127 -1.3686
    5TCq1    O1   67   0.048   1.098  11.982  0.2056 -0.2241  0.6170
    5TCq1    C1   68   4.695   1.154  11.892  0.3561  0.5501 -0.4204
    5TCq1    O2   69   4.715   1.196  11.780  0.1243  0.7518 -0.4706
    5TCq1    C2   70   4.552   1.112  11.921  0.1574  0.2677 -0.7838
    5TCq1    C3   71   4.513   1.128  12.050  0.8029  0.2580  0.4335
    5TCq1    C4   72   4.377   1.149  12.073 -0.6480 -0.0856 -0.3752
    5TCq1    C5   73   4.290   1.163  11.967 -0.2743 -0.2153 -0.5166
    5TCq1    C6   74   4.332   1.147  11.836  0.2805 -0.3587 -0.3591
    5TCq1    C7   75   4.464   1.120  11.812  0.3243 -0.2660 -0.2788
    5TCq1    C8   76   4.255   1.196  11.721 -0.5538 -0.0008  0.8963
    5TCq1    O4   77   4.262   1.136  11.618  0.3154 -0.3621  0.3385
    5TCq1    C9   78   4.330   1.167  12.208  0.1721 -0.5916  0.6109
    5TCq1    O5   79   4.223   1.226  12.226  0.5599  0.1383 -0.1158
    5TCq1    O6   80   4.417   1.166  12.305  0.2483 -0.3754 -0.3930
    5TCq1    H1   81   0.002   1.041  12.047  0.9096 -1.1483  0.3103
    5TCq1    H2   82   4.577   1.137  12.137  1.4171  0.1062 -0.0065
    5TCq1    H3   83   4.186   1.187  11.984 -0.0595  0.6139 -0.3657
    5TCq1    H4   84   4.503   1.123  11.711  0.0835  0.7867 -0.3352
    6MPD2     C   85   4.061   1.509  11.725  0.3047  0.4986 -0.9400
    6MPD2    C1   86   4.115   1.391  11.669  0.8075 -0.7361  0.4375
    6MPD2    C2   87   4.085   1.363  11.542 -0.1244  0.3017 -0.3615
    6MPD2    C3   88   4.009   1.449  11.461 -0.5791 -0.4018  0.5729
    6MPD2    C4   89   3.973   1.568  11.502 -0.0539  0.4612 -0.3621
    6MPD2    C5   90   3.994   1.594  11.638  0.2808  0.0767  0.7416
    6MPD2     H   91   4.135   1.280  11.493 -3.3544 -0.7992 -1.7903
    6MPD2    H1   92   3.925   1.637  11.434 -0.9514 -1.6004 -1.8280
    6MPD2    H2   93   4.076   1.542  11.828 -1.0591  1.9022 -1.1942
    6MPD2    H3   94   3.951   1.680  11.688  0.2162  1.1222 -1.1065
    6MPD2     N   95   3.982   1.406  11.329  0.3857 -0.1877  0.8907
    6MPD2    H5   96   4.033   1.322  11.304  0.7497  0.0029  0.9950
    6MPD2    N1   97   4.190   1.308  11.758 -0.1877  0.5727 -0.3442
    6MPD2    H7   98   4.209   1.344  11.851 -0.0947 -0.7174  0.1284
    7TCq1    O1   99   1.259   0.926  13.064 -0.4211 -0.1064  0.4630
    7TCq1    C1  100   1.277   0.794  13.034 -0.3939 -0.0568 -0.7183
    7TCq1    O2  101   1.367   0.748  12.962 -0.8929  0.4927  0.1219
    7TCq1    C2  102   1.213   0.707  13.128 -0.2015  0.1786  0.2658
    7TCq1    C3  103   1.094   0.739  13.183 -0.1429 -0.4593 -0.2343
    7TCq1    C4  104   1.013   0.638  13.241 -0.4752  0.4496 -0.0690
    7TCq1    C5  105   1.056   0.513  13.259 -0.0738 -0.5371 -0.6123
    7TCq1    C6  106   1.183   0.487  13.217 -0.2062 -0.6079  0.3335
    7TCq1    C7  107   1.257   0.578  13.143  0.4338  0.3067  0.4053
    7TCq1    C8  108   1.236   0.363  13.267 -0.0145  0.1560  0.7313
    7TCq1    O4  109   1.198   0.308  13.370 -0.0024  0.3502 -0.3835
    7TCq1    C9  110   0.869   0.659  13.272 -0.3227  0.0395 -0.2530
    7TCq1    O5  111   0.817   0.770  13.256 -0.4774 -0.5121 -0.5304
    7TCq1    O6  112   0.808   0.562  13.320 -0.8903 -0.4627 -0.2011
    7TCq1    H1  113   1.195   0.942  13.137  3.6638 -2.4054  4.5866
    7TCq1    H2  114   1.040   0.832  13.170 -1.9340 -1.1897  2.1531
    7TCq1    H3  115   1.009   0.439  13.323 -1.2968  1.3334  0.6471
    7TCq1    H4  116   1.361   0.562  13.117  0.2671  0.7720 -0.5817
    8MPD2     C  117   1.521   4.665  13.206  0.1571 -1.0450  0.9013
    8MPD2    C1  118   1.408   4.695  13.275 -0.3238  0.1664  0.2161
    8MPD2    C2  119   1.341   0.078  13.267 -1.0348 -0.1943  0.0600
    8MPD2    C3  120   1.392   0.179  13.191  0.6689  0.2086  0.1677
    8MPD2    C4  121   1.500   0.147  13.108 -0.4035 -0.5732  0.8060
    8MPD2    C5  122   1.564   0.029  13.116 -0.3084  0.3697 -0.1177
    8MPD2     H  123   1.245   0.094  13.315 -1.4880 -2.1278 -0.1843
    8MPD2    H1  124   1.548   0.222  13.045 -1.1991 -0.1636  0.6853
    8MPD2    H2  125   1.575   4.571  13.205  1.9755  0.0302 -2.4459
    8MPD2    H3  126   1.647   0.008  13.050 -2.5988 -0.8212 -2.6508
    8MPD2     N  127   1.335   0.307  13.180 -0.1981 -0.3314  0.4065
    8MPD2    H5  128   1.358   0.375  13.107 -0.8518 -0.3665  0.1641
    8MPD2    N1  129   1.366   4.592  13.364 -0.2551  0.2275  0.4791
    8MPD2    H7  130   1.418   4.504  13.367  0.0486  0.3719 -0.4859
    9TMC1    C1  131   3.620   4.704  11.255 -0.4662  0.3398 -0.3424
    9TMC1    C2  132   3.575   0.063  11.349  0.4032  0.1002 -0.0420
    9TMC1    C3  133   3.564   0.188  11.306 -0.2077 -0.2685 -0.0070
    9TMC1    C4  134   3.670   0.004  11.129  0.3672  0.0425 -0.5772
    9TMC1    C5  135   3.659   0.142  11.099  0.2282 -0.5029 -0.8530
    9TMC1    C6  136   3.598   0.232  11.177 -0.0136 -0.6437 -0.0268
    9TMC1     C  137   3.648   4.567  11.293 -0.1176 -0.5914 -0.1115
    9TMC1     O  138   3.630   4.478  11.211 -0.0973  0.5235 -0.3876
    9TMC1     H  139   3.522   0.024  11.436  1.1543 -1.4841 -0.2994
    9TMC1    H1  140   3.729   4.667  11.078 -1.0378 -0.3478 -1.6322
    9TMC1    H2  141   3.579   0.331  11.137 -1.5574 -0.3105  1.5145
    9TMC1    C7  142   3.724   0.195  10.980  0.3928 -0.2793  0.9864
    9TMC1    C8  143   3.551   0.295  11.401  0.6179  0.4477 -0.0201
    9TMC1    O1  144   3.746   0.317  10.963 -0.0888 -0.7221 -0.0757
    9TMC1    O2  145   3.507   0.403  11.370  0.9785 -0.5794 -0.5712
    9TMC1    O3  146   3.730   0.098  10.888  0.3588 -0.4112  0.2194
    9TMC1    H3  147   3.688   0.014  10.917  0.2928 -0.2587  0.5718
    9TMC1    O5  148   3.606   0.264  11.512 -0.0292 -0.1211  0.0473
    9TMC1    H5  149   3.684   0.205  11.503 -0.5634 -0.9717  0.9954
   10MPD2     C  150   3.652   4.308  11.427 -0.0888  0.2271 -0.0754
   10MPD2    C1  151   3.633   4.429  11.493  0.0410  0.2706  0.4221
   10MPD2    C2  152   3.603   4.420  11.629  0.0153  0.6673 -0.3128
   10MPD2    C3  153   3.580   4.293  11.683 -0.3115 -0.1987 -0.1863
   10MPD2    C4  154   3.592   4.176  11.610  0.9266 -1.0850 -0.1302
   10MPD2    C5  155   3.627   4.183  11.478  0.8304 -0.5879  0.4294
   10MPD2     H  156   3.564   4.510  11.675 -0.4709 -0.0220  0.6054
   10MPD2    H1  157   3.563   4.081  11.653  2.5889 -2.2134 -1.5247
   10MPD2    H2  158   3.674   4.305  11.321 -0.2772 -2.8875 -0.0222
   10MPD2    H3  159   3.626   4.105  11.403 -0.5520  0.1133 -0.2896
   10MPD2     N  160   3.523   4.278  11.809  0.1847  0.0667  0.1959
   10MPD2    H5  161   3.516   4.181  11.838 -0.7045 -0.0595 -0.4318
   10MPD2    N1  162   3.640   4.554  11.430 -0.1185  0.9062  0.0334
   10MPD2    H7  163   3.649   4.637  11.488  0.9574  1.3395 -0.7480
   11TCq1    O1  164   4.407   0.254  14.363  0.0157 -0.0925  0.2959
   11TCq1    C1  165   4.295   0.290  14.294 -0.0902  0.3847 -0.0457
   11TCq1    O2  166   4.288   0.390  14.222 -0.8258  0.1897  0.6646
   11TCq1    C2  167   4.192   0.195  14.319  0.0076  0.4047 -0.2951
   11TCq1    C3  168   4.206   0.127  14.443  0.2189  0.1048  0.8246
   11TCq1    C4  169   4.137   0.009  14.458 -0.3991  0.1792  0.4565
   11TCq1    C5  170   4.043   4.706  14.364 -0.2917 -0.3942  0.2106
   11TCq1    C6  171   4.020   0.052  14.250  0.1504 -0.5250  0.0782
   11TCq1    C7  172   4.088   0.169  14.237 -0.5657  0.1254  0.3308
   11TCq1    C8  173   3.889   0.055  14.201  0.0986  0.2973  0.1764
   11TCq1    O4  174   3.833   0.162  14.201 -0.2676 -0.3236 -0.1054
   11TCq1    C9  175   4.136   4.684  14.587  0.1646  0.0135 -0.0579
   11TCq1    O5  176   4.241   4.693  14.660  0.5466 -0.1300 -0.0484
   11TCq1    O6  177   4.035   4.615  14.617 -0.8497  0.3878 -0.1398
   11TCq1    H1  178   4.389   0.175  14.417  1.4499 -0.8795 -0.3707
   11TCq1    H2  179   4.263   0.164  14.528  2.0834  1.3918 -0.9822
   11TCq1    H3  180   3.981   4.619  14.378  0.6717 -1.2424 -0.7537
   11TCq1    H4  181   4.073   0.231  14.149 -0.4224 -0.2102  0.0711
   12MPD2     C  182   3.606   4.699  14.181  0.8419  0.2071 -0.3887
   12MPD2    C1  183   3.717   4.641  14.117  0.5683 -0.7733 -0.5656
   12MPD2    C2  184   3.698   4.529  14.048 -0.9459  0.4494  0.5293
   12MPD2    C3  185   3.566   4.479  14.018 -0.3548 -0.4681  0.3350
   12MPD2    C4  186   3.461   4.552  14.067 -0.1688 -0.4547  1.0456
   12MPD2    C5  187   3.484   4.655  14.147 -0.0333  0.1531 -0.5969
   12MPD2     H  188   3.781   4.482  13.996 -1.6616  0.6682 -0.8160
   12MPD2    H1  189   3.362   4.515  14.041  0.1774  0.7675 -2.0478
   12MPD2    H2  190   3.614   0.048  14.245 -0.7446 -1.1767  1.6683
   12MPD2    H3  191   3.395   4.695  14.194  0.6100  0.4578  0.3414
   12MPD2     N  192   3.550   4.354  13.968  0.1235 -0.2313  0.0700
   12MPD2    H5  193   3.451   4.330  13.966 -0.3729  1.8653 -0.3485
   12MPD2    N1  194   3.850   4.671  14.152 -0.3753  0.4677  0.5357
   12MPD2    H7  195   3.922   4.600  14.145 -0.7955  0.0610  0.3902
   13TCq1    O1  196   4.274   0.065  10.701 -0.4200 -0.2276  0.0659
   13TCq1    C1  197   4.161   0.051  10.771 -0.5858  0.1247  0.5528
   13TCq1    O2  198   4.122   0.134  10.851  0.1685 -0.0437  1.0351
   13TCq1    C2  199   4.084   4.685  10.697  0.1607  0.6134 -0.3386
   13TCq1    C3  200   4.127   4.630  10.577  0.2404 -0.1608 -0.2148
   13TCq1    C4  201   4.049   4.531  10.519 -0.5413 -0.5270  0.0784
   13TCq1    C5  202   3.938   4.486  10.586 -0.2716 -0.7330  0.6224
   13TCq1    C6  203   3.904   4.538  10.712  0.5319 -0.5631 -0.5358
   13TCq1    C7  204   3.971   4.643  10.762 -0.4277 -0.2657  0.0672
   13TCq1    C8  205   3.791   4.493  10.792 -0.5567  0.5305  0.5339
   13TCq1    O4  206   3.765   4.564  10.888 -0.0033 -0.2799  0.0185
   13TCq1    C9  207   4.084   4.458  10.401 -0.2832  0.1521  0.3467
   13TCq1    O5  208   4.142   4.518  10.308 -0.1681  0.2946  0.3678
   13TCq1    O6  209   4.067   4.334  10.403  0.0667 -0.4845 -0.4554
   13TCq1    H1  210   4.303   4.719  10.658 -2.2134 -0.7023 -0.2142
   13TCq1    H2  211   4.213   4.662  10.518  0.3441 -0.3497 -0.1669
   13TCq1    H3  212   3.865   4.417  10.545 -1.1018  1.9858 -2.4665
   13TCq1    H4  213   3.947   4.681  10.861  0.0154  0.0397  0.0583
   14MPD2     C  214   3.688   4.139  10.788  0.2056  0.0870  0.3011
   14MPD2    C1  215   3.694   4.268  10.837  0.5637 -0.4902 -0.0290
   14MPD2    C2  216   3.627   4.305  10.951 -0.2417  0.8171 -0.5343
   14MPD2    C3  217   3.550   4.213  11.020 -0.1929 -0.0215  0.1459
   14MPD2    C4  218   3.548   4.082  10.971  0.0993  0.3694  0.3359
   14MPD2    C5  219   3.626   4.044  10.867  0.3811  0.6643 -0.6987
   14MPD2     H  220   3.637   4.407  10.985 -1.6165  0.9095 -0.4094
   14MPD2    H1  221   3.510   4.000  11.031 -0.1700  1.1874  1.2790
   14MPD2    H2  222   3.756   4.117  10.706  0.0007  2.4017 -0.5099
   14MPD2    H3  223   3.647   3.941  10.844  1.2016  0.7857 -0.5180
   14MPD2     N  224   3.476   4.255  11.128 -0.0119 -0.2102  0.3251
   14MPD2    H5  225   3.491   4.350  11.160  0.3889 -0.3340  0.5126
   14MPD2    N1  226   3.772   4.357  10.766 -0.3237 -0.1446  0.4252
   14MPD2    H7  227   3.828   4.317  10.692  1.6452  1.8938  0.8037
   15TCq1    O1  228   1.005   2.871   2.502  0.4071  0.4567 -0.3363
   15TCq1    C1  229   1.033   2.907   2.374 -0.2655 -0.9705 -0.1025
   15TCq1    O2  230   1.139   2.875   2.323 -0.2561 -0.3344  0.0343
   15TCq1    C2  231   0.907   2.903   2.303 -0.2608 -0.2843 -0.0300
   15TCq1    C3  232   0.795   2.968   2.353  0.0446 -0.6863  0.3399
   15TCq1    C4  233   0.688   2.975   2.272 -0.1997 -0.2582  0.3807
   15TCq1    C5  234   0.686   2.926   2.145 -0.2254 -0.0279 -0.6326
   15TCq1    C6  235   0.805   2.859   2.101 -0.0686 -0.6042 -0.2010
   15TCq1    C7  236   0.915   2.854   2.176 -0.0366 -0.2239 -0.2296
   15TCq1    C8  237   0.808   2.789   1.976 -0.2668 -0.5643  0.0020
   15TCq1    O4  238   0.897   2.710   1.963 -0.5912 -0.0868 -0.5149
   15TCq1    C9  239   0.572   3.053   2.321 -0.0546 -0.4762 -0.9140
   15TCq1    O5  240   0.579   3.114   2.433  0.1871  0.8651 -0.2014
   15TCq1    O6  241   0.467   3.047   2.250 -0.0076  0.4275  0.3066
   15TCq1    H1  242   0.913   2.873   2.534  0.6777  0.4965  0.4415
   15TCq1    H2  243   0.799   3.022   2.448 -0.8733  1.3772 -0.7808
   15TCq1    H3  244   0.597   2.940   2.085 -0.9472  0.4009  0.5575
   15TCq1    H4  245   1.000   2.794   2.145  0.2818  0.8044 -1.3430
   16MPD2     C  246   0.552   2.784   1.718  0.0834  0.0399  0.6524
   16MPD2    C1  247   0.679   2.756   1.770 -0.3077  0.0183  0.1479
   16MPD2    C2  248   0.757   2.665   1.705 -0.3513 -0.0708  0.4233
   16MPD2    C3  249   0.719   2.609   1.581 -0.1272 -0.5881  0.2662
   16MPD2    C4  250   0.600   2.657   1.522 -0.0027  0.2716 -0.6989
   16MPD2    C5  251   0.518   2.749   1.591 -0.0966  0.6830 -0.0622
   16MPD2     H  252   0.857   2.645   1.740  0.6303  1.3328 -1.5527
   16MPD2    H1  253   0.572   2.606   1.430  0.2671  1.0185 -1.1956
   16MPD2    H2  254   0.479   2.835   1.780 -1.2856  0.4907 -1.3559
   16MPD2    H3  255   0.420   2.776   1.554  0.2289  2.5979  0.4794
   16MPD2     N  256   0.800   2.510   1.523 -0.8986  0.5055  0.3446
   16MPD2    H5  257   0.882   2.484   1.576 -0.8123 -1.3300 -0.7137
   16MPD2    N1  258   0.701   2.811   1.899  0.3325  0.0704  0.5088
   16MPD2    H7  259   0.652   2.899   1.917  0.3028  0.5575 -1.9780
   17TMC1    C1  260   2.402   3.240  11.539 -0.5069 -0.6461 -0.3012
   17TMC1    C2  261   2.488   3.137  11.535 -0.2132 -0.3215 -0.4311
   17TMC1    C3  262   2.495   3.051  11.648 -0.6340  0.0485 -0.4225
   17TMC1    C4  263   2.329   3.264  11.653 -0.9111  0.4710 -0.1277
   17TMC1    C5  264   2.340   3.184  11.763  0.5339 -0.1950 -0.3468
   17TMC1    C6  265   2.428   3.084  11.765  0.5180 -0.1549 -0.2844
   17TMC1     C  266   2.423   3.351  11.446 -0.3427  0.6146 -0.2940
   17TMC1     O  267   2.326   3.424  11.438  0.1084  0.1128  0.0865
   17TMC1     H  268   2.550   3.119  11.448 -0.1477 -1.4819 -0.1473
   17TMC1    H1  269   2.269   3.355  11.657 -1.8028 -0.1095 -0.1703
   17TMC1    H2  270   2.426   3.009  11.844  0.7283  1.0609  0.8894
   17TMC1    C7  271   2.268   3.216  11.887 -0.5864 -0.2324  0.5669
   17TMC1    C8  272   2.603   2.966  11.651  0.5415 -0.0744  0.3895
   17TMC1    O1  273   2.330   3.236  11.994 -0.5242  0.3861 -0.2976
   17TMC1    O2  274   2.676   2.940  11.552 -0.4903  0.5910 -0.1767
   17TMC1    O3  275   2.139   3.243  11.848 -0.0890  0.0175 -0.2426
   17TMC1    H3  276   2.121   3.224  11.753 -0.9910 -0.4178  0.0179
   17TMC1    O5  277   2.645   2.946  11.779  0.6306 -1.0099  0.7251
   17TMC1    H5  278   2.605   3.017  11.834 -0.1986 -0.4389 -0.6059
   18MPD2     C  279   2.511   3.558  11.249  0.7630 -0.6100 -0.2955
   18MPD2    C1  280   2.595   3.464  11.305 -0.0592 -0.2102 -0.1742
   18MPD2    C2  281   2.732   3.474  11.284  0.0464 -0.0631  0.2964
   18MPD2    C3  282   2.784   3.564  11.195  0.4537  0.4270 -0.2567
   18MPD2    C4  283   2.699   3.660  11.147  0.2321 -0.5924  0.0422
   18MPD2    C5  284   2.564   3.658  11.174 -0.2435 -0.0417 -0.0313
   18MPD2     H  285   2.797   3.394  11.317 -0.4957 -1.0027 -0.9061
   18MPD2    H1  286   2.745   3.739  11.087  2.6689 -0.0899  2.6005
   18MPD2    H2  287   2.403   3.550  11.262  0.5554 -0.1664 -1.7844
   18MPD2    H3  288   2.503   3.733  11.124  0.4651 -0.4351 -1.4773
   18MPD2     N  289   2.914   3.560  11.151  0.3529  0.3928 -0.1469
   18MPD2    H5  290   2.945   3.637  11.092  1.0962  0.5257  0.4236
   18MPD2    N1  291   2.548   3.357  11.392 -0.4596  0.5060  0.2685
   18MPD2    H7  292   2.619   3.290  11.420  1.1506  1.4592 -1.5029
   19TMC2    C1  293   0.356   4.304  13.767  0.4280  0.3003  0.2760
   19TMC2    C2  294   0.326   4.438  13.758  0.7278 -0.7736 -0.3217
   19TMC2    C3  295   0.199   4.467  13.799 -0.7891 -1.1891  0.0020
   19TMC2    C4  296   0.267   4.203  13.800  0.1210  0.7451 -0.4372
   19TMC2    C5  297   0.143   4.237  13.825  0.4577 -0.4922  0.0593
   19TMC2    C6  298   0.110   4.376  13.834  0.1862  0.1965  0.3876
   19TMC2     C  299   0.501   4.276  13.774 -0.1646  0.0358 -0.4800
   19TMC2     O  300   0.583   4.334  13.698  0.0769 -0.0210  0.6538
   19TMC2     H  301   0.400   4.509  13.722  0.8821 -0.0863  1.3428
   19TMC2    H1  302   0.293   4.099  13.780  1.0575  1.0946 -1.0105
   19TMC2    H2  303   0.016   4.417  13.868  0.3728 -0.3399  1.5290
   19TMC2    C7  304   0.040   4.142  13.863 -0.4079  0.1639  0.5122
   19TMC2    C8  305   0.175   4.608  13.832  0.5782 -0.2130 -1.0829
   19TMC2    O1  306   0.083   4.026  13.866  0.1873  0.3505  0.2111
   19TMC2    O2  307   0.261   4.687  13.873 -0.2537  0.2363 -0.4911
   19TMC2    O5  308   0.049   4.640  13.793  0.2319  0.4163  0.1762
   19TMC2    H5  309   0.005   4.563  13.751  1.3042 -0.4322  0.6018
   20MPD2     C  310   0.776   4.195  13.865  0.3762 -0.5383 -0.1244
   20MPD2    C1  311   0.655   4.166  13.922  0.0363  0.4199 -0.4926
   20MPD2    C2  312   0.652   4.092  14.043 -0.4557  0.8413  0.1930
   20MPD2    C3  313   0.768   4.064  14.113 -0.5452  0.9815  0.2973
   20MPD2    C4  314   0.881   4.118  14.066 -0.9902  0.0568  0.2794
   20MPD2    C5  315   0.888   4.179  13.942  1.1102  0.6731  0.3429
   20MPD2     H  316   0.554   4.055  14.070  0.1276 -1.6643 -1.0439
   20MPD2    H1  317   0.977   4.091  14.108 -0.8124  1.4152  0.7622
   20MPD2    H2  318   0.784   4.252  13.773  1.7435 -0.9086 -0.2422
   20MPD2    H3  319   0.985   4.216  13.911  0.7978 -0.6152 -2.1999
   20MPD2     N  320   0.772   4.003  14.238 -0.4663 -0.8586  0.4170
   20MPD2    H5  321   0.860   4.018  14.285 -0.0496  2.1733 -1.3298
   20MPD2    N1  322   0.528   4.195  13.880  0.1843  0.6044  0.3316
   20MPD2    H7  323   0.452   4.173  13.944 -0.2825 -1.0295 -0.7567
   21TMC2    C1  324   2.806   3.952  14.439  0.2599 -0.5653  0.0925
   21TMC2    C2  325   2.858   3.823  14.420 -0.1034 -0.1720  0.5597
   21TMC2    C3  326   2.844   3.732  14.516 -0.5577 -0.0077  0.5429
   21TMC2    C4  327   2.714   3.971  14.540  0.3044  0.1955  0.8869
   21TMC2    C5  328   2.691   3.866  14.633 -0.6452  0.5407 -0.3509
   21TMC2    C6  329   2.767   3.751  14.627 -0.0928 -0.0874  0.6280
   21TMC2     C  330   2.900   4.055  14.385  0.1866  0.7131 -0.0976
   21TMC2     O  331   2.999   4.011  14.326 -0.2719  0.1838  0.5372
   21TMC2     H  332   2.928   3.799  14.341  0.2226 -0.0819  0.8186
   21TMC2    H1  333   2.664   4.067  14.550 -0.4226 -0.3426  2.3663
   21TMC2    H2  334   2.757   3.673  14.701  0.0964 -2.1265 -1.4945
   21TMC2    C7  335   2.623   3.896  14.761 -0.1833 -0.2315 -0.0621
   21TMC2    C8  336   2.909   3.607  14.491 -0.2704  0.8533 -0.1665
   21TMC2    O1  337   2.670   3.846  14.859 -0.3306  0.3126 -0.1127
   21TMC2    O2  338   2.940   3.556  14.381  0.3169  0.7710  0.0526
   21TMC2    O5  339   3.004   3.613  14.592  0.0318 -0.0737  0.1650
   21TMC2    H5  340   2.969   3.647  14.677 -1.8151 -0.5084 -0.4182
   22MPD2     C  341   3.138   4.507  14.478 -0.1340  0.5760 -0.2112
   22MPD2    C1  342   3.184   4.395  14.419 -0.0740 -0.4507 -0.0405
   22MPD2    C2  343   3.095   4.283  14.414  0.1778 -0.6155 -0.6103
   22MPD2    C3  344   2.968   4.282  14.469 -0.0547  0.3775  0.5597
   22MPD2    C4  345   2.929   4.399  14.529  0.0744 -0.0855  1.1551
   22MPD2    C5  346   3.008   4.512  14.531 -0.0049  0.5984 -0.0492
   22MPD2     H  347   3.129   4.195  14.361  0.3059 -1.2596  0.5483
   22MPD2    H1  348   2.835   4.411  14.582  1.0549  1.1576  2.5941
   22MPD2    H2  349   3.205   4.591  14.489 -1.5777  1.6827  0.0487
   22MPD2    H3  350   2.972   4.608  14.567  1.2418  0.1706  2.3090
   22MPD2     N  351   2.877   4.178  14.451 -0.0587 -0.0553  0.3311
   22MPD2    H5  352   2.780   4.183  14.482  0.2569  0.6042  1.1875
   22MPD2    N1  353   3.317   4.376  14.383  0.6949 -0.2345 -0.3112
   22MPD2    H7  354   3.339   4.285  14.342 -0.7608 -1.1894  1.0073
   23TMC2    C1  355   3.909   0.760  14.701  0.3405  0.1386  0.9303
   23TMC2    C2  356   3.931   0.884  14.658 -0.0608  0.0651  0.3216
   23TMC2    C3  357   3.828   0.935  14.591 -0.2729  0.5211 -0.7910
   23TMC2    C4  358   3.808   0.679  14.662 -0.0057  0.1042  0.1689
   23TMC2    C5  359   3.704   0.736  14.600 -0.0290  0.1643  0.3862
   23TMC2    C6  360   3.709   0.867  14.558 -0.0735 -0.7171 -0.2483
   23TMC2     C  361   3.983   0.717  14.813 -0.2529  0.7287 -0.3313
   23TMC2     O  362   3.933   0.627  14.879  0.2360  0.1863  0.3283
   23TMC2     H  363   4.001   0.958  14.695 -1.1294  0.1939  2.0885
   23TMC2    H1  364   3.806   0.577  14.698  1.2287  0.6166  1.7293
   23TMC2    H2  365   3.626   0.923  14.519  0.7910  0.2121 -0.7510
   23TMC2    C7  366   3.587   0.658  14.563  0.6450 -0.0739  0.1411
   23TMC2    C8  367   3.829   1.079  14.564 -0.4570 -0.1136 -0.1391
   23TMC2    O1  368   3.596   0.539  14.587 -0.5337  0.2440 -0.2924
   23TMC2    O2  369   3.727   1.124  14.523 -0.0298 -0.1488 -0.1528
   23TMC2    O5  370   3.953   1.100  14.513 -0.6148  1.2919  0.1869
   23TMC2    H5  371   3.996   1.017  14.485 -1.6019  0.2033  1.8980
   24MPD2     C  372   4.431   0.574  15.001 -0.0012 -0.6150 -0.2322
   24MPD2    C1  373   4.304   0.538  15.033 -0.2230  0.6403 -0.4256
   24MPD2    C2  374   4.203   0.606  14.972  0.2639  0.4285  0.2435
   24MPD2    C3  375   4.219   0.701  14.877  0.2883  0.0055  0.4668
   24MPD2    C4  376   4.346   0.737  14.843 -0.0374  0.0848  0.5820
   24MPD2    C5  377   4.450   0.678  14.911 -0.1131 -0.3422 -0.4515
   24MPD2     H  378   4.104   0.586  15.013  0.6001 -0.0260  0.8427
   24MPD2    H1  379   4.370   0.816  14.773  0.4936  0.9500  1.7501
   24MPD2    H2  380   4.522   0.546  15.052  0.4730  0.2074 -0.6253
   24MPD2    H3  381   4.552   0.701  14.883  0.0718 -2.7057 -1.7380
   24MPD2     N  382   4.106   0.770  14.816  0.0453  0.5672  0.4556
   24MPD2    H5  383   4.132   0.841  14.748  1.3178 -0.9419 -0.6316
   24MPD2    N1  384   4.274   0.437  15.137  0.0757 -0.4659 -0.3375
   24MPD2    H7  385   4.181   0.435  15.177 -0.4680 -1.4989 -1.6480
   25TMC2    C1  386   3.187   2.202  11.856  0.0613  0.1786  0.5831
   25TMC2    C2  387   3.297   2.143  11.912 -0.3965 -0.5519  0.4189
   25TMC2    C3  388   3.331   2.200  12.033 -0.0224  0.1598 -0.1568
   25TMC2    C4  389   3.125   2.319  11.904  0.0256  0.2223  0.5317
   25TMC2    C5  390   3.171   2.365  12.024  0.4926 -0.9236 -0.1018
   25TMC2    C6  391   3.271   2.302  12.090 -0.1901  0.4836  0.2936
   25TMC2     C  392   3.146   2.143  11.729  0.4913 -0.4980  0.1453
   25TMC2     O  393   3.225   2.076  11.668  0.2282  0.6509 -0.2603
   25TMC2     H  394   3.346   2.054  11.874  3.8493  0.8726  2.6136
   25TMC2    H1  395   3.038   2.351  11.848 -0.6597  0.7033  1.8693
   25TMC2    H2  396   3.315   2.334  12.185 -2.2357  0.7585  1.1548
   25TMC2    C7  397   3.101   2.454  12.109  0.1116  0.2437  0.7232
   25TMC2    C8  398   3.412   2.123  12.124  0.1008  1.3516  0.1581
   25TMC2    O1  399   3.156   2.483  12.215 -0.1098  0.4331 -0.0776
   25TMC2    O2  400   3.395   2.125  12.243 -0.2771  0.0754 -0.0297
   25TMC2    O5  401   3.515   2.058  12.056 -0.6681  0.8110  0.4226
   25TMC2    H5  402   3.520   2.093  11.964 -0.0664  1.8772  0.8570
   26MPD2     C  403   2.790   1.998  11.381 -0.9072 -0.1182 -0.0994
   26MPD2    C1  404   2.730   2.064  11.481 -1.0710 -0.0397  0.3438
   26MPD2    C2  405   2.807   2.107  11.591  0.7300  0.3299  0.1388
   26MPD2    C3  406   2.943   2.098  11.593 -0.2201  0.1734 -0.6573
   26MPD2    C4  407   2.999   2.027  11.489 -0.6681 -0.8622 -0.1233
   26MPD2    C5  408   2.927   1.988  11.382 -0.3914 -0.1038 -0.6395
   26MPD2     H  409   2.768   2.155  11.679 -0.0539 -0.8842  0.4610
   26MPD2    H1  410   3.103   1.999  11.492  0.3608  2.8665 -1.4096
   26MPD2    H2  411   2.730   1.967  11.296  0.5449 -2.2695 -0.3259
   26MPD2    H3  412   2.986   1.937  11.307  0.3831 -1.3350  0.7959
   26MPD2     N  413   3.010   2.153  11.708 -0.3303 -0.8027  0.1691
   26MPD2    H5  414   2.955   2.188  11.786 -0.7730 -1.2226  0.0470
   26MPD2    N1  415   2.587   2.053  11.484 -0.3748  1.1177 -0.2116
   26MPD2    H7  416   2.545   2.011  11.402 -0.4954 -1.8160  1.3598
   27TMC2    C1  417   1.943   4.408  12.584  0.1444  0.2263 -0.0824
   27TMC2    C2  418   2.037   4.327  12.527 -0.3947  0.1302  0.2527
   27TMC2    C3  419   2.097   4.371  12.415 -0.1464  0.5886  0.0852
   27TMC2    C4  420   1.906   4.524  12.525 -0.4934  0.3267 -0.3136
   27TMC2    C5  421   1.968   4.559  12.408  0.1866 -0.2647  0.3445
   27TMC2    C6  422   2.068   4.487  12.347 -0.4421 -0.5286  1.0062
   27TMC2     C  423   1.872   4.357  12.696  0.0798 -0.4798 -0.1483
   27TMC2     O  424   1.919   4.252  12.735  0.0455 -0.2667  0.0235
   27TMC2     H  425   2.064   4.235  12.578 -0.1413 -0.6795 -1.3472
   27TMC2    H1  426   1.842   4.589  12.584  0.0259 -0.8488  1.5283
   27TMC2    H2  427   2.124   4.506  12.256 -1.0615  0.9563  0.9300
   27TMC2    C7  428   1.921   4.677  12.334 -0.4350 -0.8586  0.0845
   27TMC2    C8  429   2.202   4.281  12.362 -1.0390 -0.9151 -0.4860
   27TMC2    O1  430   1.826   0.004  12.379 -0.0495 -0.0622  0.3187
   27TMC2    O2  431   2.223   4.277  12.245 -0.1803 -0.3366 -0.3509
   27TMC2    O5  432   2.298   4.264  12.453  0.1480 -0.1769  0.2857
   27TMC2    H5  433   2.278   4.296  12.544  0.0628 -0.2944  0.3086
   28MPD2     C  434   1.527   4.323  13.064 -0.0447  0.3186 -0.1495
   28MPD2    C1  435   1.482   4.416  12.985 -0.2905 -0.1465 -0.2435
   28MPD2    C2  436   1.567   4.450  12.876  0.7311 -0.1876 -0.0379
   28MPD2    C3  437   1.693   4.402  12.858 -0.0292  0.4571 -0.0112
   28MPD2    C4  438   1.743   4.318  12.961 -0.5186 -0.3394  0.3194
   28MPD2    C5  439   1.655   4.276  13.059  0.5092  0.1995 -0.4823
   28MPD2     H  440   1.527   4.517  12.801  1.6387  0.5132  0.1078
   28MPD2    H1  441   1.848   4.291  12.959 -0.1157  1.2720 -0.0027
   28MPD2    H2  442   1.459   4.288  13.141  0.8086 -1.9457 -0.4236
   28MPD2    H3  443   1.688   4.209  13.137  1.7731 -0.1401 -1.3105
   28MPD2     N  444   1.767   4.432  12.742  0.1341  0.4534  0.0049
   28MPD2    H5  445   1.721   4.490  12.672  0.3058 -2.5628 -2.6206
   28MPD2    N1  446   1.347   4.455  13.001  0.5768  0.0255 -0.4608
   28MPD2    H7  447   1.297   4.414  13.079 -1.2050 -1.3212 -2.3375
   29TMC2    C1  448   1.498   2.645  14.573 -0.2051 -0.0922 -0.2056
   29TMC2    C2  449   1.503   2.649  14.710 -0.3753 -0.5204 -0.1682
   29TMC2    C3  450   1.479   2.770  14.767  0.0362  0.4185 -0.3146
   29TMC2    C4  451   1.487   2.757  14.497 -0.0115  0.1788  0.1213
   29TMC2    C5  452   1.476   2.880  14.561 -0.3966 -0.3818  0.5782
   29TMC2    C6  453   1.456   2.888  14.700  0.6600  0.7055  0.1420
   29TMC2     C  454   1.477   2.518  14.507  0.5741 -0.4894 -0.9860
   29TMC2     O  455   1.562   2.432  14.538 -0.2744 -0.3891  0.0688
   29TMC2     H  456   1.511   2.560  14.771  0.3848 -0.9805 -0.9491
   29TMC2    H1  457   1.490   2.752  14.389 -1.9904  0.2322  0.0754
   29TMC2    H2  458   1.410   2.978  14.740  1.3722  0.4254  1.5828
   29TMC2    C7  459   1.472   3.006  14.485  0.9230  0.4944  0.5551
   29TMC2    C8  460   1.422   2.757  14.899 -0.8590  0.4532 -0.2887
   29TMC2    O1  461   1.460   3.001  14.365 -0.2583  0.4529 -0.2629
   29TMC2    O2  462   1.348   2.659  14.920 -0.2368 -0.0860  0.0226
   29TMC2    O5  463   1.405   2.875  14.967  0.0483  0.1434 -0.4070
   29TMC2    H5  464   1.483   2.934  14.970 -1.5890  2.3322 -0.2069
   30MPD2     C  465   1.212   2.149  14.267 -0.1472 -0.0636  0.6183
   30MPD2    C1  466   1.340   2.150  14.326  0.3596  0.6189  0.4962
   30MPD2    C2  467   1.392   2.259  14.391  0.1613  0.0089  0.0281
   30MPD2    C3  468   1.318   2.378  14.387  0.0865 -0.0936 -0.1977
   30MPD2    C4  469   1.195   2.379  14.327  0.4371  0.8443 -0.6948
   30MPD2    C5  470   1.139   2.263  14.274 -0.9253 -0.7152  0.3299
   30MPD2     H  471   1.494   2.260  14.430  0.9713 -0.7045 -2.0952
   30MPD2    H1  472   1.128   2.464  14.325 -0.4447  0.2300  2.5314
   30MPD2    H2  473   1.165   2.065  14.216  1.8443 -0.5168 -0.4698
   30MPD2    H3  474   1.042   2.263  14.227  0.0223  0.8870 -1.6494
   30MPD2     N  475   1.356   2.500  14.447 -0.2000  0.3549 -0.5291
   30MPD2    H5  476   1.287   2.574  14.442  1.0055  1.5857  1.1806
   30MPD2    N1  477   1.414   2.026  14.345  0.4441  0.0848  0.3106
   30MPD2    H7  478   1.504   2.019  14.391  0.5859  1.6354  0.2751
   31TMC2    C1  479   4.183   0.861  15.269  0.1958  0.0064 -0.4474
   31TMC2    C2  480   4.277   0.762  15.268  0.5810  0.0582  0.1804
   31TMC2    C3  481   4.327   0.705  15.385 -0.0787 -0.0006 -0.4027
   31TMC2    C4  482   4.112   0.883  15.386  0.2866 -0.2685 -0.9041
   31TMC2    C5  483   4.152   0.815  15.497  0.7852  0.1968  0.0560
   31TMC2    C6  484   4.265   0.733  15.505  0.1014 -0.1125 -0.1201
   31TMC2     C  485   4.221   0.977  15.195 -0.2428  0.2995 -0.0769
   31TMC2     O  486   4.134   1.060  15.168 -0.2942  0.5734  0.1846
   31TMC2     H  487   4.348   0.747  15.187 -0.4615 -0.7748 -0.5902
   31TMC2    H1  488   4.028   0.951  15.392  2.3709  2.2355  0.2259
   31TMC2    H2  489   4.276   0.674  15.595 -0.7055  1.3181  0.9121
   31TMC2    C7  490   4.086   0.835  15.626 -0.6857  0.0947  0.5456
   31TMC2    C8  491   4.461   0.651  15.377  0.0942  0.4435  0.5875
   31TMC2    O1  492   4.153   0.803  15.724  0.0496 -0.2616  0.4826
   31TMC2    O2  493   4.545   0.682  15.294  0.3727 -0.3628  0.1491
   31TMC2    O5  494   4.449   0.533  15.441 -0.3096  0.0984 -0.2807
   31TMC2    H5  495   4.378   0.544  15.509 -1.2478 -2.5893 -0.8193
   32MPD2     C  496   4.582   1.220  14.926 -0.1196 -0.1828  0.0858
   32MPD2    C1  497   4.454   1.256  14.950 -0.2021  0.1097 -1.0277
   32MPD2    C2  498   4.376   1.174  15.024  0.0727 -0.2276 -0.4130
   32MPD2    C3  499   4.424   1.053  15.080  0.2105 -0.5244 -0.0004
   32MPD2    C4  500   4.555   1.018  15.046  0.7423 -0.6524 -0.4767
   32MPD2    C5  501   4.633   1.102  14.975  0.0713 -0.3154 -0.0436
   32MPD2     H  502   4.273   1.197  15.046 -0.0975 -0.4443 -0.9835
   32MPD2    H1  503   4.598   0.926  15.085 -3.0939 -1.6892  1.3446
   32MPD2    H2  504   4.647   1.292  14.878 -0.4468  0.5548  0.7370
   32MPD2    H3  505   4.738   1.080  14.960  0.5364  1.8926 -0.1729
   32MPD2     N  506   4.353   0.969  15.168  0.6229  0.1808 -0.0717
   32MPD2    H5  507   4.405   0.889  15.203 -0.0546 -0.4970 -0.6191
   32MPD2    N1  508   4.418   1.383  14.903 -0.2605 -0.4427  0.2719
   32MPD2    H7  509   4.492   1.428  14.850 -2.0980  2.0477 -0.2067
   33TMC2    C1  510   3.416   4.130  10.404 -0.5811 -0.3910 -0.5319
   33TMC2    C2  511   3.296   4.150  10.338 -0.0251  0.0914 -0.3825
   33TMC2    C3  512   3.282   4.255  10.263  0.1433 -0.8190  0.0154
   33TMC2    C4  513   3.527   4.206  10.377 -0.0373  0.1585 -0.7801
   33TMC2    C5  514   3.510   4.317  10.294 -0.2265  0.3675  0.2728
   33TMC2    C6  515   3.388   4.340  10.232  0.5299  0.4283 -0.0506
   33TMC2     C  516   3.423   4.021  10.501  0.2048 -0.9016 -0.8720
   33TMC2     O  517   3.316   3.978  10.550 -0.1089  0.6999 -0.2443
   33TMC2     H  518   3.209   4.089  10.358  0.3293 -0.2061  0.2484
   33TMC2    H1  519   3.623   4.183  10.420 -0.1344 -0.5412 -0.9407
   33TMC2    H2  520   3.361   4.431  10.181  0.3515  0.3894 -0.0276
   33TMC2    C7  521   3.629   4.394  10.252  0.0971 -0.0619 -0.2262
   33TMC2    C8  522   3.171   4.270  10.177 -0.0951 -0.3695  0.8221
   33TMC2    O1  523   3.732   4.378  10.315 -0.0237 -0.1892  0.0561
   33TMC2    O2  524   3.175   4.324  10.068  0.0371  0.7981 -0.5048
   33TMC2    O5  525   3.064   4.215  10.239 -0.5014  0.6047  0.4737
   33TMC2    H5  526   3.077   4.212  10.336  0.5993  0.0829  0.3081
   34MPD2     C  527   3.680   3.655  10.753  0.1538 -0.8635  0.2129
   34MPD2    C1  528   3.549   3.698  10.772 -0.2066  0.7947  0.3311
   34MPD2    C2  529   3.497   3.803  10.689 -0.5482 -0.0579  0.5432
   34MPD2    C3  530   3.580   3.851  10.583  0.2673 -0.2769 -1.0027
   34MPD2    C4  531   3.703   3.801  10.566  0.0968 -0.7745 -0.4441
   34MPD2    C5  532   3.753   3.697  10.643  0.3444  0.2124 -0.4551
   34MPD2     H  533   3.400   3.846  10.712  0.3892  2.7911 -0.9202
   34MPD2    H1  534   3.777   3.844  10.500 -0.0059  0.3985  0.2046
   34MPD2    H2  535   3.735   3.589  10.819  1.9667 -3.0903 -3.5063
   34MPD2    H3  536   3.856   3.666  10.643  0.6883  1.3467  1.8519
   34MPD2     N  537   3.547   3.960  10.502  0.3453 -0.2534 -0.1868
   34MPD2    H5  538   3.616   3.984  10.431 -1.2825 -3.3002 -2.7586
   34MPD2    N1  539   3.486   3.650  10.885  0.3345 -0.2510  0.5878
   34MPD2    H7  540   3.548   3.594  10.943  0.2637 -0.9252  0.0194
   35TMC2    C1  541   0.486   0.365  11.727  0.2667  0.8893 -0.4652
   35TMC2    C2  542   0.427   0.457  11.651  0.2920  0.4632  0.4009
   35TMC2    C3  543   0.293   0.449  11.640 -0.8496  0.2359  0.2215
   35TMC2    C4  544   0.416   0.257  11.779 -0.4772  0.0607  0.1402
   35TMC2    C5  545   0.281   0.250  11.763 -0.7569 -0.1224 -0.0154
   35TMC2    C6  546   0.215   0.343  11.689  0.0156 -1.0818 -0.0151
   35TMC2     C  547   0.632   0.366  11.730 -0.6218  0.0552  0.4867
   35TMC2     O  548   0.683   0.389  11.619  0.5027 -0.0080 -0.5924
   35TMC2     H  549   0.485   0.541  11.614  2.1999 -1.0877 -0.1226
   35TMC2    H1  550   0.472   0.169  11.810  1.0316  0.1190 -2.5043
   35TMC2    H2  551   0.111   0.322  11.667 -0.0836 -1.9416  1.2785
   35TMC2    C7  552   0.211   0.142  11.830 -1.3697  1.1033 -0.5181
   35TMC2    C8  553   0.231   0.566  11.578  0.3507  0.3030  0.0783
   35TMC2    O1  554   0.118   0.089  11.771  0.0035  0.5344  0.0586
   35TMC2    O2  555   0.296   0.659  11.538 -0.4537 -0.1247 -0.3135
   35TMC2    O5  556   0.112   0.524  11.524  0.2096  0.3185  0.2654
   35TMC2    H5  557   0.060   0.470  11.588 -0.2650 -0.0091 -0.4045
   36MPD2     C  558   1.089   0.417  11.948 -0.0581 -0.0623 -0.8319
   36MPD2    C1  559   1.004   0.355  12.036 -0.2767  0.3203 -0.2251
   36MPD2    C2  560   0.875   0.333  12.002 -0.5367 -0.6791 -0.4436
   36MPD2    C3  561   0.821   0.365  11.881  0.6162  0.1770 -0.6813
   36MPD2    C4  562   0.911   0.426  11.795 -0.2000  0.1580  0.6757
   36MPD2    C5  563   1.040   0.452  11.828 -0.2757  0.2720 -0.1207
   36MPD2     H  564   0.809   0.288  12.075  2.1222 -2.4647  0.8945
   36MPD2    H1  565   0.874   0.462  11.700 -0.3748  2.3159  1.5695
   36MPD2    H2  566   1.193   0.443  11.967  0.1151  0.6671 -2.8317
   36MPD2    H3  567   1.099   0.505  11.754  1.2172 -0.0827  0.8246
   36MPD2     N  568   0.684   0.339  11.853 -0.4609 -0.2172  0.1355
   36MPD2    H5  569   0.616   0.309  11.922 -0.5123 -0.9334 -0.2318
   36MPD2    N1  570   1.057   0.342  12.168 -0.1369  0.9706  0.0644
   36MPD2    H7  571   1.143   0.392  12.189  0.9464 -0.1046 -1.8520
   37TMC2    C1  572   2.853   1.192  11.325  0.0512 -0.4495  0.0051
   37TMC2    C2  573   2.854   1.273  11.214 -0.6550  0.2482  0.0722
   37TMC2    C3  574   2.950   1.246  11.121  0.2565  0.7941  0.2515
   37TMC2    C4  575   2.951   1.098  11.349 -0.0310 -0.4481 -0.6576
   37TMC2    C5  576   3.060   1.101  11.266 -0.0852 -0.5879 -0.5073
   37TMC2    C6  577   3.062   1.171  11.146  0.1891  0.1828  0.7329
   37TMC2     C  578   2.737   1.200  11.415  0.5053  0.3018  0.5167
   37TMC2     O  579   2.646   1.279  11.387  0.1055 -0.2201  0.4348
   37TMC2     H  580   2.769   1.335  11.186  1.0018  2.5497  0.1407
   37TMC2    H1  581   2.945   1.033  11.435 -1.7119  1.2130  0.4706
   37TMC2    H2  582   3.138   1.150  11.071  0.0643  4.1387 -0.4712
   37TMC2    C7  583   3.181   1.034  11.314  0.8280 -0.7221  0.4322
   37TMC2    C8  584   2.944   1.341  11.011  0.7564  0.3488 -0.4996
   37TMC2    O1  585   3.172   0.959  11.408  0.2085 -0.1044  0.4010
   37TMC2    O2  586   2.902   1.459  11.015 -0.2852 -0.0509  0.0872
   37TMC2    O5  587   2.992   1.271  10.906  0.0404  0.0899 -0.5278
   37TMC2    H5  588   3.004   1.182  10.944  0.6590  1.1600  1.7818
   38MPD2     C  589   2.460   1.075  11.835  0.5619 -0.0113  0.6882
   38MPD2    C1  590   2.579   1.014  11.838 -0.4285 -0.3993 -0.5604
   38MPD2    C2  591   2.677   1.033  11.739 -0.3182 -0.5138  0.0581
   38MPD2    C3  592   2.651   1.105  11.624  0.8458  0.1816 -0.2813
   38MPD2    C4  593   2.519   1.155  11.616 -0.7789 -0.5541 -0.6202
   38MPD2    C5  594   2.427   1.144  11.722  0.4228  0.0370 -0.2310
   38MPD2     H  595   2.774   0.986  11.752  0.9940  2.0910 -0.2732
   38MPD2    H1  596   2.482   1.200  11.525 -0.4089  2.4581  0.7106
   38MPD2    H2  597   2.385   1.058  11.912  0.5511 -0.2710  0.6193
   38MPD2    H3  598   2.328   1.187  11.714  1.4709  2.4932  0.0157
   38MPD2     N  599   2.753   1.126  11.533 -0.2250 -0.2123  0.0555
   38MPD2    H5  600   2.843   1.089  11.560 -0.2434 -0.6142 -0.4278
   38MPD2    N1  601   2.622   0.945  11.951  0.8115  1.1415  0.1163
   38MPD2    H7  602   2.720   0.919  11.954  0.5511  0.3255  1.7111
   39TMC2    C1  603   1.335   2.269   1.873 -0.3145  0.1686 -0.4144
   39TMC2    C2  604   1.281   2.353   1.966  0.1838  0.4406  0.2238
   39TMC2    C3  605   1.363   2.420   2.050 -0.1728  0.5760 -1.2013
   39TMC2    C4  606   1.468   2.244   1.868 -0.7203 -0.5085 -0.3947
   39TMC2    C5  607   1.546   2.314   1.952 -0.2719  0.8883  0.2671
   39TMC2    C6  608   1.493   2.406   2.040 -0.3251  0.6950  0.0535
   39TMC2     C  609   1.243   2.185   1.791  0.6694 -0.2346 -0.3244
   39TMC2     O  610   1.131   2.173   1.836 -0.9095 -0.2813  0.4074
   39TMC2     H  611   1.176   2.378   1.951  0.4629  1.0535 -0.7001
   39TMC2    H1  612   1.510   2.185   1.787 -0.6168 -1.5858  0.4368
   39TMC2    H2  613   1.552   2.448   2.120 -1.2980  0.8075  0.7125
   39TMC2    C7  614   1.686   2.295   1.943  0.0765 -0.5985 -0.6549
   39TMC2    C8  615   1.302   2.475   2.168  0.3289 -0.0364 -0.1515
   39TMC2    O1  616   1.737   2.193   1.898  0.9984  0.1695 -0.0922
   39TMC2    O2  617   1.349   2.551   2.247  0.2375 -0.4253  0.4916
   39TMC2    O5  618   1.199   2.391   2.200 -0.1236  0.6142  0.2876
   39TMC2    H5  619   1.178   2.325   2.130  0.9190  2.4123 -1.7235
   40MPD2     C  620   1.292   1.974   1.506  0.1838  0.0372 -0.0801
   40MPD2    C1  621   1.217   2.042   1.597  0.1541 -0.0200  0.6817
   40MPD2    C2  622   1.081   2.048   1.578 -0.7927  0.6651 -0.1532
   40MPD2    C3  623   1.017   1.962   1.492  0.0672 -0.5405 -0.2970
   40MPD2    C4  624   1.096   1.876   1.411  0.8544 -0.0409  0.0230
   40MPD2    C5  625   1.233   1.883   1.421  0.2929  0.6102  0.0181
   40MPD2     H  626   1.022   2.111   1.643  0.6976  0.9075  0.9686
   40MPD2    H1  627   1.056   1.817   1.330  0.6762 -0.5507  0.4782
   40MPD2    H2  628   1.400   1.966   1.505  0.1775  0.1669 -1.1768
   40MPD2    H3  629   1.294   1.839   1.343 -1.1607 -0.4691 -0.5149
   40MPD2     N  630   0.876   1.969   1.455 -0.0645 -0.3329 -0.0985
   40MPD2    H5  631   0.850   1.915   1.373 -1.2758  0.9915 -0.5846
   40MPD2    N1  632   1.294   2.120   1.684 -0.1723 -0.4021 -0.9318
   40MPD2    H7  633   1.395   2.109   1.688 -0.0383  1.0635 -0.3561
   41TMC2    C1  634   4.660   0.812  14.035  0.0046  0.2335 -0.0108
   41TMC2    C2  635   4.696   0.873  14.156 -0.7387  0.2308  0.7180
   41TMC2    C3  636   4.662   1.010  14.172 -0.2971 -0.3283 -0.2007
   41TMC2    C4  637   4.583   0.881  13.944 -0.8675 -0.5635  0.5422
   41TMC2    C5  638   4.560   1.017  13.965 -0.0604  0.0800 -0.6257
   41TMC2    C6  639   4.599   1.086  14.075 -0.6498 -0.2141  0.7036
   41TMC2     C  640   4.682   0.675  14.000  0.0589  0.3262 -0.5014
   41TMC2     O  641   4.673   0.653  13.883 -0.2011 -0.4187  0.3271
   41TMC2     H  642   0.002   0.818  14.239  0.0700  1.4644  1.0931
   41TMC2    H1  643   4.545   0.825  13.859  1.6883  0.3197 -1.1611
   41TMC2    H2  644   4.569   1.188  14.095 -2.0569 -0.2734 -1.1405
   41TMC2    C7  645   4.504   1.086  13.855  0.3405  0.2157 -0.6899
   41TMC2    C8  646   4.709   1.071  14.295 -0.1730 -0.7098 -0.2561
   41TMC2    O1  647   4.448   1.196  13.863 -0.6577 -0.3298 -0.5677
   41TMC2    O2  648   0.081   1.039  14.340 -0.1824  0.5582  0.3805
   41TMC2    O5  649   4.592   1.070  14.368  0.2356 -0.1904  0.0597
   41TMC2    H5  650   4.508   1.086  14.320  0.7143 -1.2909 -1.1569
   42MPD2     C  651   0.037   0.387  13.972  0.2964 -0.1427  0.1046
   42MPD2    C1  652   0.020   0.462  14.092 -0.1940  0.2227 -1.3564
   42MPD2    C2  653   0.065   0.402  14.206  0.8844  0.4084 -0.3350
   42MPD2    C3  654   0.121   0.277  14.209 -0.5544  0.1673  0.4069
   42MPD2    C4  655   0.130   0.208  14.089 -0.2204 -0.3047 -0.3678
   42MPD2    C5  656   0.085   0.260  13.973  0.2481 -0.1940 -0.0784
   42MPD2     H  657   0.059   0.463  14.295  2.2590  1.5809 -1.0574
   42MPD2    H1  658   0.183   0.114  14.095  1.4773  0.7169  0.6535
   42MPD2    H2  659   0.017   0.430  13.875  1.1731 -0.6566 -0.2987
   42MPD2    H3  660   0.093   0.208  13.878 -2.3850 -0.7170 -0.0320
   42MPD2     N  661   0.166   0.211  14.332 -0.0598  0.7156 -0.7407
   42MPD2    H5  662   0.216   0.125  14.313  1.4396  1.0976  1.4081
   42MPD2    N1  663   4.712   0.594  14.107 -0.6775 -0.0623 -0.2178
   42MPD2    H7  664   4.720   0.639  14.197 -1.5141  0.0373 -0.1961
   43TMC2    C1  665   1.339   2.966   0.993  0.1949  0.5412  0.1100
   43TMC2    C2  666   1.230   3.026   1.049 -0.2451  0.1101  0.0365
   43TMC2    C3  667   1.239   3.070   1.178 -0.0762 -0.5646  0.2744
   43TMC2    C4  668   1.453   2.944   1.061  0.6927 -0.2511 -0.0556
   43TMC2    C5  669   1.452   2.972   1.194  0.1554  0.8543 -0.2913
   43TMC2    C6  670   1.346   3.039   1.256 -0.5956 -0.5245  0.3351
   43TMC2     C  671   1.360   2.957   0.845 -0.5754 -0.1945 -0.4886
   43TMC2     O  672   1.447   2.880   0.805 -0.1947  0.5945 -0.1132
   43TMC2     H  673   1.134   3.039   1.001 -1.4222 -3.1450  1.5819
   43TMC2    H1  674   1.539   2.906   1.009  0.8322  2.5256 -1.8749
   43TMC2    H2  675   1.344   3.075   1.358  0.7877  0.8662 -0.1311
   43TMC2    C7  676   1.568   2.932   1.270  0.1918  0.1261 -0.5071
   43TMC2    C8  677   1.129   3.141   1.236 -0.3407  0.1096  0.1903
   43TMC2    O1  678   1.667   2.896   1.200 -0.1083 -0.0815 -0.2484
   43TMC2    O2  679   1.098   3.125   1.353  0.4933  0.3488  0.0119
   43TMC2    O5  680   1.113   3.244   1.154  0.1948 -0.4942 -0.9462
   43TMC2    H5  681   1.155   3.238   1.066 -0.4665  2.2365 -1.4452
   44MPD2     C  682   1.329   3.175   0.391  0.3226  0.0813  0.6331
   44MPD2    C1  683   1.410   3.070   0.439  0.2361 -0.7079 -0.3360
   44MPD2    C2  684   1.382   3.015   0.559 -0.1590  0.4311  0.4281
   44MPD2    C3  685   1.297   3.083   0.645 -0.4036  0.2355  0.4300
   44MPD2    C4  686   1.218   3.185   0.600  0.6107 -0.1862 -0.1307
   44MPD2    C5  687   1.236   3.231   0.473  0.7893  0.3907 -0.2954
   44MPD2     H  688   1.447   2.934   0.591 -0.6510 -0.2592 -0.3113
   44MPD2    H1  689   1.132   3.221   0.655  0.8273 -0.4609  0.3804
   44MPD2    H2  690   1.341   3.228   0.297 -1.3899  0.5290  0.6693
   44MPD2    H3  691   1.179   3.319   0.447  0.8591  1.1259  2.0383
   44MPD2     N  692   1.277   3.041   0.779  0.2832 -0.3602  0.0390
   44MPD2    H5  693   1.216   3.097   0.838 -0.8882 -0.3262 -1.2033
   44MPD2    N1  694   1.525   3.035   0.373 -0.1235  0.3437  0.4800
   44MPD2    H7  695   1.589   2.971   0.418  1.3497  1.4102 -0.0904
   45TMC2    C1  696   2.235   0.603  10.073  0.0084 -0.4228 -0.0342
   45TMC2    C2  697   2.362   0.568  10.029 -0.5472 -0.3968  0.2058
   45TMC2    C3  698   2.457   0.664  10.052 -0.7479  0.2661 -0.5657
   45TMC2    C4  699   2.210   0.716  10.153 -0.2230 -0.0696 -0.0295
   45TMC2    C5  700   2.305   0.812  10.163  0.0494  0.0600 -0.3151
   45TMC2    C6  701   2.436   0.776  10.135 -0.1709  0.1273  0.1735
   45TMC2     C  702   2.132   0.505  10.073 -0.0645 -0.7171 -0.1207
   45TMC2     O  703   2.168   0.391  10.073  0.0368 -0.0808  0.4590
   45TMC2     H  704   2.372   0.481   9.965  3.0016  1.1337 -1.3275
   45TMC2    H1  705   2.116   0.736  10.203  0.2601  0.3407  0.7170
   45TMC2    H2  706   2.514   0.851  10.141 -0.4381  0.4506 -0.3461
   45TMC2    C7  707   2.272   0.953  10.199 -0.1447 -0.0422  0.1265
   45TMC2    C8  708   2.593   0.615  10.062 -0.2858  0.2855 -0.0288
   45TMC2    O1  709   2.368   1.025  10.233 -0.0892  1.4292  0.0737
   45TMC2    O2  710   2.678   0.672  10.136  0.0600  0.1086 -0.4687
   45TMC2    O5  711   2.616   0.523   9.966  0.1992  0.0621 -0.8058
   45TMC2    H5  712   2.540   0.506   9.906 -0.1515  1.2179 -0.6904
   46MPD2     C  713   1.899   0.335  10.099 -0.5341 -0.0914  0.0070
   46MPD2    C1  714   1.887   0.472  10.075  0.2714 -0.2392  0.0733
   46MPD2    C2  715   1.766   0.526  10.039  0.4881 -0.2644  0.1251
   46MPD2    C3  716   1.655   0.444  10.014  0.0437 -0.1367  0.0308
   46MPD2    C4  717   1.659   0.313  10.055  0.2034  0.6162  0.2794
   46MPD2    C5  718   1.781   0.265  10.099 -0.5264  0.5248  0.4241
   46MPD2     H  719   1.756   0.632  10.017 -1.3113 -0.4099  0.2044
   46MPD2    H1  720   1.572   0.249  10.050  1.1966 -0.4987 -2.8697
   46MPD2    H2  721   1.989   0.290  10.139 -0.4788  1.3445  1.5193
   46MPD2    H3  722   1.786   0.159  10.123 -0.1154 -0.1083 -2.4662
   46MPD2     N  723   1.536   0.502   9.961 -0.0732  0.2539 -0.3088
   46MPD2    H5  724   1.539   0.599   9.932  1.5966 -0.2228 -1.6714
   46MPD2    N1  725   2.002   0.552  10.080  0.9804  0.2829  0.3143
   46MPD2    H7  726   1.990   0.652  10.064 -0.2002  0.2019  0.7498
   47TMC2    C1  727   4.571   0.402   9.331 -0.2596  0.2587 -0.2739
   47TMC2    C2  728   4.556   0.275   9.290 -0.4655 -0.1543  0.1937
   47TMC2    C3  729   4.438   0.213   9.301  0.5508 -0.0685 -0.5816
   47TMC2    C4  730   4.470   0.467   9.400 -0.4698 -0.6239  0.3291
   47TMC2    C5  731   4.354   0.398   9.419 -0.4558 -0.2273  0.2920
   47TMC2    C6  732   4.336   0.270   9.370  0.0944 -0.1538  0.3944
   47TMC2     C  733   4.706   0.471   9.320  0.1904  0.3779 -0.2618
   47TMC2     O  734   4.702   0.597   9.317  0.6278 -0.2954 -0.5581
   47TMC2     H  735   4.641   0.224   9.245  1.4180  0.2500  3.2925
   47TMC2    H1  736   4.497   0.565   9.439 -3.1550  0.3968 -0.3679
   47TMC2    H2  737   4.249   0.209   9.394 -0.0805  0.1899  0.6325
   47TMC2    C7  738   4.246   0.455   9.496 -0.5811 -0.5852  0.4192
   47TMC2    C8  739   4.433   0.071   9.265  0.4103 -0.4522  0.0610
   47TMC2    O1  740   4.278   0.555   9.557 -0.2669  0.6897 -0.1995
   47TMC2    O2  741   4.365   4.732   9.334  0.0472 -0.1189  0.3244
   47TMC2    O5  742   4.473   0.055   9.133 -0.3263 -0.2381  0.1910
   47TMC2    H5  743   4.497   0.141   9.093 -2.0155 -0.0100 -0.3159
   48MPD2     C  744   0.294   0.313   9.353  0.4224  0.1200 -0.2085
   48MPD2    C1  745   0.199   0.403   9.380  0.2101  0.1823 -0.4055
   48MPD2    C2  746   0.224   0.516   9.457  0.0813  0.5459 -0.6246
   48MPD2    C3  747   0.343   0.524   9.522  0.1481 -0.1678 -0.3876
   48MPD2    C4  748   0.444   0.434   9.487  0.9410 -0.4421 -0.2648
   48MPD2    C5  749   0.418   0.325   9.404 -0.1383 -0.2450  0.5129
   48MPD2     H  750   0.143   0.585   9.475 -1.7860 -1.0867 -2.7488
   48MPD2    H1  751   0.548   0.445   9.512  0.3395  0.1019  2.0117
   48MPD2    H2  752   0.281   0.230   9.284 -3.0775  0.4748  0.0218
   48MPD2    H3  753   0.497   0.252   9.385  1.4991  1.0569  2.2515
   48MPD2     N  754   0.356   0.626   9.619 -0.7718  0.3703 -0.1479
   48MPD2    H5  755   0.273   0.680   9.639 -1.8118 -0.2729 -2.6425
   48MPD2    N1  756   0.070   0.377   9.327 -0.5634 -0.2196 -0.2209
   48MPD2    H7  757   0.054   0.278   9.311 -0.7660 -0.4966  1.6746
   49TMC2    C1  758   2.971   3.470  10.340  0.2418  0.3488 -0.0300
   49TMC2    C2  759   2.940   3.603  10.361 -0.0691 -0.3579  0.3096
   49TMC2    C3  760   2.990   3.699  10.266 -0.5917  0.0604 -0.2617
   49TMC2    C4  761   3.054   3.436  10.239 -1.1013  0.8315 -0.2721
   49TMC2    C5  762   3.095   3.527  10.142 -0.1246  0.0725 -0.5961
   49TMC2    C6  763   3.060   3.662  10.155  0.9453 -0.2686 -0.2736
   49TMC2     C  764   2.992   3.389  10.463  0.7144  0.2161 -0.5160
   49TMC2     O  765   3.095   3.324  10.482 -0.1673 -0.3681  0.2570
   49TMC2     H  766   2.886   3.643  10.446 -1.5787 -0.1591 -0.7381
   49TMC2    H1  767   3.098   3.337  10.242  0.8099  1.6360 -2.8032
   49TMC2    H2  768   3.089   3.731  10.077 -1.0660  1.2093  0.2809
   49TMC2    C7  769   3.211   3.490  10.068  0.3423  0.3586  0.3422
   49TMC2    C8  770   2.981   3.840  10.293  0.0190 -0.6616  0.5407
   49TMC2    O1  771   3.252   3.373  10.087 -0.0063 -0.0548  0.1393
   49TMC2    O2  772   2.981   3.909  10.194 -0.3526 -0.6519 -0.8515
   49TMC2    O5  773   3.067   3.852  10.398 -0.3527  0.1114  0.1471
   49TMC2    H5  774   3.089   3.765  10.437 -3.5722 -1.4655 -1.5001
   50MPD2     C  775   2.968   3.319  10.746 -0.2568 -0.1182  0.0375
   50MPD2    C1  776   2.860   3.343  10.665 -0.1412  0.2496 -0.3809
   50MPD2    C2  777   2.731   3.339  10.717 -0.0703  0.0162  0.2054
   50MPD2    C3  778   2.710   3.315  10.852  0.0570  0.2184 -0.3298
   50MPD2    C4  779   2.820   3.267  10.927 -0.2623  0.3508  0.3659
   50MPD2    C5  780   2.942   3.287  10.875 -0.0680  0.0309 -0.3332
   50MPD2     H  781   2.646   3.360  10.653  0.1175 -2.3117 -0.7870
   50MPD2    H1  782   2.805   3.247  11.032 -1.1917 -0.6430  0.0390
   50MPD2    H2  783   3.070   3.339  10.716 -0.4336 -0.7473 -0.9836
   50MPD2    H3  784   3.030   3.272  10.936 -1.0999 -0.4176  1.0610
   50MPD2     N  785   2.587   3.334  10.915 -0.6161 -0.0004  0.2520
   50MPD2    H5  786   2.573   3.294  11.007 -0.2588  1.5106  0.9720
   50MPD2    N1  787   2.879   3.396  10.541  0.0603  0.1988  0.5973
   50MPD2    H7  788   2.798   3.434  10.493  3.0325  3.5788 -1.7067
   51TMC2    C1  789   2.821   2.788   1.308 -0.8824  0.1914  0.5464
   51TMC2    C2  790   2.698   2.756   1.267  0.3750 -0.6322 -0.3140
   51TMC2    C3  791   2.627   2.846   1.185  0.5910  0.4283 -1.0492
   51TMC2    C4  792   2.888   2.899   1.259 -0.1670 -0.5152  0.0560
   51TMC2    C5  793   2.825   2.967   1.164  0.1609  0.2702 -0.2433
   51TMC2    C6  794   2.696   2.946   1.121  0.2556  0.2087 -0.2509
   51TMC2     C  795   2.904   2.688   1.366 -0.3423  0.3511  0.0835
   51TMC2     O  796   2.882   2.573   1.330  0.4402  0.4912  0.2439
   51TMC2     H  797   2.648   2.667   1.302 -0.6724  0.3116  0.5885
   51TMC2    H1  798   2.989   2.921   1.289  0.3353 -2.5420 -0.1495
   51TMC2    H2  799   2.650   3.009   1.046 -2.3579 -2.1703 -0.6709
   51TMC2    C7  800   2.916   3.004   1.054  0.4044  0.8585  0.1841
   51TMC2    C8  801   2.488   2.825   1.155 -0.4727  0.5409  0.2153
   51TMC2    O1  802   3.026   3.038   1.093  0.6637 -0.4076 -0.1446
   51TMC2    O2  803   2.453   2.778   1.047  0.6315 -0.2397 -0.3874
   51TMC2    O5  804   2.440   2.783   1.274 -0.3406  0.6157 -0.3109
   51TMC2    H5  805   2.474   2.831   1.352 -0.1823 -0.3368  0.2116
   52MPD2     C  806   3.361   2.559   1.560  0.4762  0.0885 -0.4193
   52MPD2    C1  807   3.267   2.481   1.500  0.0340 -0.1252 -0.0395
   52MPD2    C2  808   3.146   2.538   1.467  0.0767 -0.5720  0.5928
   52MPD2    C3  809   3.125   2.669   1.483 -0.1128  0.2414  0.4077
   52MPD2    C4  810   3.217   2.746   1.543 -0.1062  0.0741  0.1568
   52MPD2    C5  811   3.336   2.692   1.571 -0.4479  0.1682 -0.3774
   52MPD2     H  812   3.067   2.483   1.417  2.1989 -1.7975 -1.4679
   52MPD2    H1  813   3.192   2.852   1.550 -1.1351 -0.0289 -2.0272
   52MPD2    H2  814   3.446   2.519   1.615 -1.0821 -0.3974  1.6631
   52MPD2    H3  815   3.398   2.754   1.635  0.3778  0.0355 -1.0561
   52MPD2     N  816   3.012   2.737   1.436 -0.3116  0.0056 -0.0885
   52MPD2    H5  817   3.000   2.835   1.460 -1.7574 -0.6868  1.9512
   52MPD2    N1  818   3.273   2.338   1.483 -0.0840  1.1014  0.1879
   52MPD2    H7  819   3.187   2.291   1.455  1.1290 -0.3014 -1.1643
   53TMC2    C1  820   3.765   0.610  11.516  0.5888 -0.3460  0.1341
   53TMC2    C2  821   3.883   0.545  11.514 -0.5392  0.0213  0.4244
   53TMC2    C3  822   3.915   0.481  11.633  0.1855 -0.5332  0.0226
   53TMC2    C4  823   3.671   0.590  11.616 -0.2806 -0.2759  0.1756
   53TMC2    C5  824   3.702   0.512  11.727 -0.1987 -0.6112 -0.0153
   53TMC2    C6  825   3.835   0.479  11.742 -0.0312 -0.5692  0.2364
   53TMC2     C  826   3.749   0.701  11.408  0.0841  0.1140  0.1760
   53TMC2     O  827   3.846   0.728  11.333 -0.4258 -0.0429  0.2998
   53TMC2     H  828   3.969   0.570  11.454 -1.6667  3.2231  0.1681
   53TMC2    H1  829   3.574   0.638  11.612 -0.2910 -0.2321  0.9564
   53TMC2    H2  830   3.866   0.447  11.841  1.5247  0.5181  0.0971
   53TMC2    C7  831   3.606   0.511  11.831 -0.4124  0.6703 -0.2725
   53TMC2    C8  832   4.054   0.444  11.654  0.2119 -0.1296  0.3476
   53TMC2    O1  833   3.515   0.596  11.828 -0.1454  0.5104 -0.3084
   53TMC2    O2  834   4.116   0.458  11.759  0.1152  0.0840 -0.2771
   53TMC2    O5  835   4.111   0.404  11.539  0.5148 -0.2091  0.1854
   53TMC2    H5  836   4.039   0.401  11.472 -0.5332  1.0802  1.2447
   54MPD2     C  837   3.685   0.958  11.265  0.3539  0.2478  0.3270
   54MPD2    C1  838   3.592   0.881  11.329  0.4594 -0.9658  0.3120
   54MPD2    C2  839   3.459   0.921  11.323  0.0889  0.1306 -0.0465
   54MPD2    C3  840   3.420   1.027  11.245  0.6251  0.2212 -0.1293
   54MPD2    C4  841   3.508   1.081  11.158  0.4368  0.1002 -0.1203
   54MPD2    C5  842   3.638   1.052  11.177  0.4069 -0.6252 -0.0809
   54MPD2     H  843   3.386   0.864  11.379 -0.7152 -2.0948 -3.3292
   54MPD2    H1  844   3.492   1.156  11.081 -1.6017  0.9607  1.1396
   54MPD2    H2  845   3.793   0.952  11.270  0.4424  2.7977  1.5186
   54MPD2    H3  846   3.716   1.093  11.114  0.1221 -0.0195 -0.0408
   54MPD2     N  847   3.287   1.076  11.236 -0.1905 -0.5761 -0.2833
   54MPD2    H5  848   3.264   1.137  11.158  1.3502  1.5507  0.9367
   54MPD2    N1  849   3.631   0.764  11.412  0.2282  0.5065  0.3099
   54MPD2    H7  850   3.560   0.723  11.473  1.6173  1.9792  2.9062
   55TMC2    C1  851   3.724   4.384   1.156 -0.4691  0.1378  0.5155
   55TMC2    C2  852   3.726   4.514   1.200 -0.5066  0.0886  0.2791
   55TMC2    C3  853   3.845   4.573   1.233 -0.1352  0.0943  0.4339
   55TMC2    C4  854   3.836   4.310   1.156  0.1665 -0.1042 -0.2842
   55TMC2    C5  855   3.954   4.369   1.192 -0.3282  1.0680 -0.0787
   55TMC2    C6  856   3.968   4.502   1.224  0.1807  0.2193  0.4711
   55TMC2     C  857   3.617   4.319   1.084  0.4636 -0.4552 -0.4164
   55TMC2     O  858   3.611   4.196   1.092  0.4050  0.7259  0.0150
   55TMC2     H  859   3.643   4.584   1.197 -0.0025  0.6704 -0.1316
   55TMC2    H1  860   3.829   4.218   1.098 -1.0458  0.5545 -1.1921
   55TMC2    H2  861   4.066   4.546   1.236  1.0128 -1.5790  0.2116
   55TMC2    C7  862   4.078   4.299   1.191 -0.3184 -0.0034 -0.7041
   55TMC2    C8  863   3.836   4.703   1.296 -0.4646 -0.5865 -0.1545
   55TMC2    O1  864   4.185   4.352   1.168 -0.4972  0.6607 -0.0496
   55TMC2    O2  865   3.724   0.002   1.327 -0.5615  0.1295 -0.1477
   55TMC2    O5  866   3.939   4.726   1.372  0.0504 -0.2697  0.0546
   55TMC2    H5  867   4.028   4.693   1.346  0.8088  0.7339  1.3897
   56MPD2     C  868   3.403   4.442   0.822  0.4736 -0.6302  0.0987
   56MPD2    C1  869   3.433   4.368   0.937  1.0157 -0.0967  0.0157
   56MPD2    C2  870   3.346   4.279   0.992  0.1980  0.3656  0.5729
   56MPD2    C3  871   3.231   4.247   0.927  0.1256  0.3125  0.4078
   56MPD2    C4  872   3.204   4.312   0.809  0.1059  0.2888  0.1263
   56MPD2    C5  873   3.291   4.403   0.755 -0.3699 -0.4383  0.1627
   56MPD2     H  874   3.382   4.226   1.079 -3.5014 -1.3479  1.0674
   56MPD2    H1  875   3.118   4.282   0.751  1.2921 -0.4509 -1.2447
   56MPD2    H2  876   3.466   4.514   0.771 -0.3208  0.0884  0.1429
   56MPD2    H3  877   3.266   4.445   0.658  3.4093 -0.4910 -0.8439
   56MPD2     N  878   3.153   4.139   0.978 -0.2358 -0.8023  0.0288
   56MPD2    H5  879   3.186   4.091   1.061  3.6279  0.2236 -0.9231
   56MPD2    N1  880   3.547   4.406   1.008 -0.2457 -0.3279 -0.1950
   56MPD2    H7  881   3.584   4.495   0.976 -0.5038 -0.5761 -1.1839
   57TMC2    C1  882   3.114   3.962  13.367 -0.9778 -0.7480 -0.1680
   57TMC2    C2  883   3.064   3.838  13.360  0.2163  0.0728 -0.5623
   57TMC2    C3  884   3.156   3.737  13.358  0.6180 -0.7891 -0.0862
   57TMC2    C4  885   3.247   3.992  13.358  0.2301  0.8592  0.1767
   57TMC2    C5  886   3.333   3.890  13.353  0.3235 -0.7160  0.5510
   57TMC2    C6  887   3.288   3.763  13.353 -0.1970 -0.4047  0.1261
   57TMC2     C  888   3.029   4.076  13.377 -1.0947  0.7225 -0.0960
   57TMC2     O  889   2.913   4.054  13.351 -0.3506  0.1894 -0.3237
   57TMC2     H  890   2.958   3.824  13.377  0.7224 -0.3603  2.2549
   57TMC2    H1  891   3.283   4.094  13.350  1.6906  0.4561  1.6171
   57TMC2    H2  892   3.358   3.681  13.369 -0.2632 -0.1401  1.7558
   57TMC2    C7  893   3.472   3.925  13.390  0.5779  0.0738 -0.1921
   57TMC2    C8  894   3.126   3.599  13.377 -0.2637  0.4992  0.0613
   57TMC2    O1  895   3.475   4.038  13.445  0.2723 -0.3342 -0.8101
   57TMC2    O2  896   3.205   3.519  13.421 -0.0522 -0.2426 -0.0334
   57TMC2    O5  897   2.999   3.573  13.340  0.9693  1.0095  0.0768
   57TMC2    H5  898   2.948   3.646  13.299 -0.2725  0.3634  0.4451
   58MPD2     C  899   2.893   4.502  13.628  0.3339 -0.5154 -0.2040
   58MPD2    C1  900   2.829   4.434  13.528  0.2534 -0.7364 -0.6466
   58MPD2    C2  901   2.889   4.323  13.469 -0.1810 -0.1581  0.4418
   58MPD2    C3  902   3.015   4.285  13.507  0.2560 -0.2111 -0.3349
   58MPD2    C4  903   3.076   4.358  13.605  0.1103 -0.3345  0.4982
   58MPD2    C5  904   3.021   4.466  13.662  0.1571  0.0991 -0.3462
   58MPD2     H  905   2.839   4.272  13.388  1.2211 -0.5819 -0.1502
   58MPD2    H1  906   3.175   4.339  13.643  0.0357 -0.7907  0.4692
   58MPD2    H2  907   2.857   4.596  13.669 -0.3696 -0.8199 -0.1122
   58MPD2    H3  908   3.070   4.527  13.736 -2.7598 -2.0711  3.3518
   58MPD2     N  909   3.079   4.171  13.458 -0.1602  0.4590  0.3071
   58MPD2    H5  910   3.175   4.151  13.487  0.6225  0.8185 -2.0402
   58MPD2    N1  911   2.700   4.471  13.480  0.0863  0.0472  0.1210
   58MPD2    H7  912   2.659   4.419  13.403  1.9338 -0.4203 -0.5536
   59TMC2    C1  913   1.110   4.095  13.103 -0.7207  0.4564  0.5921
   59TMC2    C2  914   1.095   3.963  13.068 -0.1663 -0.2297  0.1645
   59TMC2    C3  915   0.972   3.923  13.023 -0.6692 -0.2247  1.3159
   59TMC2    C4  916   1.012   4.184  13.066 -0.0807  0.0466 -0.3412
   59TMC2    C5  917   0.894   4.139  13.014  0.1283 -0.6881 -0.7363
   59TMC2    C6  918   0.868   4.007  12.993 -0.9388 -0.1023  1.0881
   59TMC2     C  919   1.205   4.130  13.205 -0.1736  0.4312 -0.4768
   59TMC2     O  920   1.231   4.255  13.206 -0.1219 -0.0941 -0.1696
   59TMC2     H  921   1.164   3.889  13.107  0.4818  0.3139  0.0366
   59TMC2    H1  922   1.023   4.290  13.087 -1.2435  0.7274 -3.2205
   59TMC2    H2  923   0.767   3.973  12.976 -0.5975 -1.2375  1.3267
   59TMC2    C7  924   0.787   4.239  12.992 -0.3274  0.4162 -0.1265
   59TMC2    C8  925   0.956   3.783  13.019 -0.0275  1.0671  0.6183
   59TMC2    O1  926   0.672   4.196  12.989 -0.2009 -0.2738  0.1246
   59TMC2    O2  927   1.015   3.700  13.089  0.4372  0.0754  0.1204
   59TMC2    O5  928   0.889   3.747  12.909  0.5662 -0.0374 -0.1115
   59TMC2    H5  929   0.838   3.815  12.860  1.5313 -1.2488 -2.7487
   60MPD2     C  930   1.318   3.942  13.502  0.0001  0.0501  0.2909
   60MPD2    C1  931   1.317   4.044  13.406 -0.0488 -0.4381  0.1071
   60MPD2    C2  932   1.404   4.150  13.429 -0.5776 -0.5112  0.0235
   60MPD2    C3  933   1.483   4.162  13.544  0.1511  0.1595 -0.3594
   60MPD2    C4  934   1.462   4.064  13.640  0.5292  0.4474 -0.0457
   60MPD2    C5  935   1.388   3.952  13.617 -0.0147  0.1224 -0.0086
   60MPD2     H  936   1.411   4.222  13.348  1.2043 -0.9172 -0.1705
   60MPD2    H1  937   1.517   4.060  13.733  0.9815  0.8329 -0.2939
   60MPD2    H2  938   1.248   3.859  13.499 -0.4583  0.4466 -0.0292
   60MPD2    H3  939   1.397   3.865  13.680  1.7912  0.3016 -0.0419
   60MPD2     N  940   1.572   4.266  13.573 -0.2532  0.1902 -0.1222
   60MPD2    H5  941   1.621   4.272  13.662 -0.5106 -3.5874  0.2685
   60MPD2    N1  942   1.237   4.031  13.295 -1.0121  0.1298  0.1545
   60MPD2    H7  943   1.184   3.944  13.293 -0.3025 -0.3146  0.5646
   61TMC2    C1  944   4.718   1.286  15.589 -0.1714 -0.5437 -0.1512
   61TMC2    C2  945   4.629   1.267  15.692 -0.0205 -0.0319  0.0747
   61TMC2    C3  946   4.621   1.374  15.781  1.2005 -0.0877  0.7464
   61TMC2    C4  947   0.047   1.399  15.565 -0.5202 -0.1496  0.4726
   61TMC2    C5  948   0.032   1.506  15.644  0.2744  0.3181 -0.3267
   61TMC2    C6  949   4.683   1.496  15.754 -0.6544  0.5660  0.0741
   61TMC2     C  950   4.719   1.164  15.500  0.2103  0.1136  0.0782
   61TMC2     O  951   4.650   1.067  15.529  0.9371 -0.1400  0.1589
   61TMC2     H  952   4.565   1.181  15.706  0.0731  0.0111  0.7801
   61TMC2    H1  953   0.122   1.401  15.486 -0.1124 -0.0337  0.8621
   61TMC2    H2  954   4.651   1.584  15.808  2.5303  1.1464  1.0601
   61TMC2    C7  955   0.126   1.610  15.644 -0.1070  0.2778  0.6164
   61TMC2    C8  956   4.509   1.379  15.876  0.1535  0.6822  0.2981
   61TMC2    O1  957   0.187   1.627  15.540  0.3632 -0.2458  0.3715
   61TMC2    O2  958   4.427   1.471  15.883 -0.3215 -0.7394  0.8019
   61TMC2    O5  959   4.486   1.261  15.925 -0.0774  0.1167 -0.2283
   61TMC2    H5  960   4.562   1.201  15.909 -1.0209 -0.6296 -1.8588
   62MPD2     C  961   0.056   0.960  15.301 -0.1645  0.3069  0.7051
   62MPD2    C1  962   0.099   1.093  15.295 -0.2272 -0.6619 -0.1819
   62MPD2    C2  963   0.195   1.125  15.201  0.2985  0.2754 -0.1898
   62MPD2    C3  964   0.231   1.028  15.106 -0.4613 -0.5526  0.4902
   62MPD2    C4  965   0.170   0.900  15.106  0.2046 -0.7023 -0.3447
   62MPD2    C5  966   0.086   0.866  15.209 -0.1003 -0.1717  0.1638
   62MPD2     H  967   0.240   1.223  15.196  0.0496  0.3774 -0.4555
   62MPD2    H1  968   0.202   0.822  15.038  1.5671 -1.9869  1.7842
   62MPD2    H2  969   4.726   0.920  15.376 -0.4526  0.4164  0.4988
   62MPD2    H3  970   0.048   0.765  15.223  0.1400 -0.0212  1.9763
   62MPD2     N  971   0.337   1.051  15.007 -0.3786  0.1939 -0.1376
   62MPD2    H5  972   0.356   0.974  14.943 -1.7386  0.9755 -1.4616
   62MPD2    N1  973   0.064   1.188  15.394  0.0813 -0.2199  0.5468
   62MPD2    H7  974   0.116   1.275  15.387 -1.1558  0.3483 -1.4648
   63TMC2    C1  975   4.666   1.664  10.423 -0.5598  0.5552  0.0871
   63TMC2    C2  976   0.056   1.618  10.427 -0.3099  0.5727 -0.4298
   63TMC2    C3  977   0.151   1.676  10.354  0.3770  0.1157 -0.1044
   63TMC2    C4  978   4.635   1.771  10.340  0.2621  0.1310  0.1528
   63TMC2    C5  979   0.001   1.817  10.260  0.2565 -0.1435  0.1533
   63TMC2    C6  980   0.126   1.772  10.263 -0.8872 -0.1147 -0.7834
   63TMC2     C  981   4.552   1.579  10.479 -0.0925  0.5990  0.1188
   63TMC2     O  982   4.441   1.630  10.495  0.0807  0.3269  0.4942
   63TMC2     H  983   0.083   1.531  10.486 -0.8131 -0.5786 -1.8974
   63TMC2    H1  984   4.534   1.805  10.320  0.4778 -0.1949 -1.5427
   63TMC2    H2  985   0.211   1.807  10.206 -0.3469 -1.4805 -0.8134
   63TMC2    C7  986   4.696   1.896  10.147 -1.0769 -0.4013  0.3274
   63TMC2    C8  987   0.283   1.640  10.398 -0.9045  0.1000  0.1783
   63TMC2    O1  988   4.584   1.943  10.147 -0.2635 -0.0323 -0.5477
   63TMC2    O2  989   0.320   1.615  10.513  0.6611  0.1481  0.3498
   63TMC2    O5  990   0.343   1.589  10.290 -0.6173 -0.0541  0.5384
   63TMC2    H5  991   0.290   1.589  10.207  2.0807  0.2918 -1.1970
   64MPD2     C  992   4.308   1.138  10.566  0.2437 -0.2287 -0.0239
   64MPD2    C1  993   4.437   1.110  10.549  0.4831 -0.6014  0.1734
   64MPD2    C2  994   4.528   1.217  10.529  0.4370 -0.7795  0.3148
   64MPD2    C3  995   4.488   1.347  10.535  0.4189 -0.2143 -0.3424
   64MPD2    C4  996   4.356   1.367  10.564 -0.0950 -0.4646 -0.1249
   64MPD2    C5  997   4.269   1.266  10.581  0.0313 -0.5301 -0.3956
   64MPD2     H  998   4.633   1.196  10.512  0.8950  1.2026  0.7485
   64MPD2    H1  999   4.310   1.465  10.561 -1.4161 -1.1258 -1.9433
   64MPD2    H2 1000   4.228   1.064  10.576  0.6852 -0.9501 -1.9322
   64MPD2    H3 1001   4.163   1.283  10.595 -0.0798 -0.4550 -1.3468
   64MPD2     N 1002   4.582   1.450  10.497  0.1029 -0.5144 -0.0182
   64MPD2    H5 1003   4.673   1.423  10.461  1.0029  0.0708  1.8611
   64MPD2    N1 1004   4.493   0.985  10.530  0.1044 -0.1012 -0.3468
   64MPD2    H7 1005   4.594   0.977  10.525  0.0894 -0.1610 -0.5677
   65TMC2    C1 1006   1.554   0.925  15.539 -0.8822  0.1238 -0.4237
   65TMC2    C2 1007   1.523   0.888  15.410  0.1420  0.3275  0.3236
   65TMC2    C3 1008   1.501   0.983  15.309  0.4499  0.0524 -0.3254
   65TMC2    C4 1009   1.577   1.056  15.565 -0.0951  0.2336 -0.3991
   65TMC2    C5 1010   1.570   1.148  15.463 -0.4751  0.4100  0.5745
   65TMC2    C6 1011   1.538   1.112  15.336 -0.0940 -0.2353  0.5092
   65TMC2     C 1012   1.529   0.837  15.650  0.2651  0.0383 -1.0479
   65TMC2     O 1013   1.594   0.856  15.753  0.5524 -0.6713 -0.4281
   65TMC2     H 1014   1.523   0.783  15.381 -0.2542  0.0109  1.4861
   65TMC2    H1 1015   1.575   1.098  15.666 -1.8916 -0.7278 -0.0321
   65TMC2    H2 1016   1.530   1.184  15.255  1.9266  0.3925  0.8499
   65TMC2    C7 1017   1.503   1.269  15.503  0.1207  0.2388 -0.4664
   65TMC2    C8 1018   1.498   0.932  15.178  0.2228  0.7294  0.1687
   65TMC2    O1 1019   1.546   1.371  15.452  0.2147 -0.5196 -0.0912
   65TMC2    O2 1020   1.554   0.824  15.145  0.6464  0.6879 -0.0229
   65TMC2    O5 1021   1.404   0.995  15.119  0.6266  0.2846 -0.1940
   65TMC2    H5 1022   1.352   1.054  15.177 -0.4162 -1.9486  1.0909
   66MPD2     C 1023   1.416   0.615  15.829  0.2279 -0.2219 -0.5060
   66MPD2    C1 1024   1.398   0.629  15.697  0.2673 -0.2516 -0.5486
   66MPD2    C2 1025   1.318   0.538  15.640  0.2539 -0.1554 -0.1318
   66MPD2    C3 1026   1.261   0.427  15.701  0.3633  0.4428 -0.1694
   66MPD2    C4 1027   1.297   0.413  15.834  0.1109 -0.9459 -0.2847
   66MPD2    C5 1028   1.376   0.495  15.899  0.2738 -0.1009 -0.1993
   66MPD2     H 1029   1.288   0.559  15.538  1.1685 -0.2856 -0.4289
   66MPD2    H1 1030   1.258   0.331  15.893  0.0470 -0.6204  0.1230
   66MPD2    H2 1031   1.466   0.696  15.880  1.9097  0.5499 -3.3744
   66MPD2    H3 1032   1.407   0.479  16.002 -4.1040  2.6801  1.5722
   66MPD2     N 1033   1.185   0.327  15.636  0.3092  0.2782  0.6641
   66MPD2    H5 1034   1.140   0.247  15.679  1.5842  0.1211  1.7040
   66MPD2    N1 1035   1.436   0.742  15.617  0.1670 -0.3043 -0.2278
   66MPD2    H7 1036   1.402   0.749  15.521 -1.9363 -2.5874  0.3655
   67TMC2    C1 1037   1.384   4.677  14.392  0.8477  0.4555  0.0284
   67TMC2    C2 1038   1.377   0.075  14.385 -0.3779 -0.1811 -0.0521
   67TMC2    C3 1039   1.479   0.144  14.446 -0.4522  0.2146 -0.4554
   67TMC2    C4 1040   1.488   4.607  14.454  0.0059  0.3704  0.1551
   67TMC2    C5 1041   1.582   4.682  14.522 -0.4960  0.5359 -0.6878
   67TMC2    C6 1042   1.579   0.078  14.523 -0.1396  0.0020  0.1607
   67TMC2     C 1043   1.273   4.602  14.339 -0.2631 -0.1585 -0.8168
   67TMC2     O 1044   1.283   4.482  14.317  0.1189 -0.1617 -0.0743
   67TMC2     H 1045   1.301   0.130  14.332  1.8751  1.0696 -1.9780
   67TMC2    H1 1046   1.501   4.499  14.451 -0.8387  0.2756  0.0471
   67TMC2    H2 1047   1.666   0.137  14.551 -1.1354  1.1581  0.8266
   67TMC2    C7 1048   1.662   4.616  14.627  0.5361  0.1874  0.3049
   67TMC2    C8 1049   1.477   0.291  14.442  0.5668  0.0089  1.6935
   67TMC2    O1 1050   1.707   4.505  14.606  0.0394 -0.3999  0.1203
   67TMC2    O2 1051   1.391   0.349  14.376  0.8630 -0.2396  0.6312
   67TMC2    O5 1052   1.511   0.344  14.561 -0.4363  0.5542  0.5537
   67TMC2    H5 1053   1.564   0.283  14.616 -0.2398 -1.8452 -2.3312
   68MPD2     C 1054   1.057   4.538  14.145  0.4710 -0.5574  0.4061
   68MPD2    C1 1055   1.058   4.650  14.221  0.4315  0.3339  0.3744
   68MPD2    C2 1056   0.946   4.731  14.224  0.4302  0.3866 -0.8194
   68MPD2    C3 1057   0.834   4.695  14.151  0.1118  0.5215 -0.2250
   68MPD2    C4 1058   0.828   4.580  14.078 -0.7158  0.0586  0.2915
   68MPD2    C5 1059   0.947   4.513  14.067  1.0164 -0.0587 -0.2044
   68MPD2     H 1060   0.949   0.087  14.278 -0.2744  1.4824 -2.6788
   68MPD2    H1 1061   0.745   4.552  14.015  0.2419 -0.6891 -0.6323
   68MPD2    H2 1062   1.142   4.472  14.130  0.8591  0.1161 -0.3612
   68MPD2    H3 1063   0.951   4.425  14.004 -0.5461  0.8960 -1.6411
   68MPD2     N 1064   0.723   0.048  14.136  0.1255  0.2393 -0.3005
   68MPD2    H5 1065   0.657   0.028  14.061 -1.0340  0.6011  0.6192
   68MPD2    N1 1066   1.164   4.681  14.316  0.3823 -0.1312 -0.4390
   68MPD2    H7 1067   1.158   0.035  14.359 -0.8108  0.5906 -2.1699
   69TMC2    C1 1068   3.685   0.805  12.413  0.1682  0.0567 -0.0506
   69TMC2    C2 1069   3.619   0.922  12.428  0.4275  0.5885  0.1609
   69TMC2    C3 1070   3.613   0.998  12.321 -0.4272  0.7589 -0.2903
   69TMC2    C4 1071   3.727   0.753  12.295 -0.5768  0.1413  0.6762
   69TMC2    C5 1072   3.706   0.830  12.183  0.2832  0.6624 -0.1311
   69TMC2    C6 1073   3.662   0.955  12.198  0.4633  0.0875 -0.1463
   69TMC2     C 1074   3.690   0.716  12.527 -0.7788 -0.2091 -0.6211
   69TMC2     O 1075   3.589   0.721  12.601  0.2888 -0.0310  0.1295
   69TMC2     H 1076   3.585   0.953  12.526  1.2527  0.2448  0.5560
   69TMC2    H1 1077   3.764   0.651  12.288 -0.7665  0.1724 -0.7075
   69TMC2    H2 1078   3.663   1.024  12.115 -0.1694  1.2304  0.7958
   69TMC2    C7 1079   3.778   0.788  12.060 -0.1544  0.8863  0.6692
   69TMC2    C8 1080   3.500   1.095  12.319 -0.4905  0.4859 -0.4812
   69TMC2    O1 1081   3.883   0.727  12.076  0.3641  0.7924  0.0361
   69TMC2    O2 1082   3.442   1.112  12.428  0.5493 -0.0771 -0.9103
   69TMC2    O5 1083   3.428   1.084  12.199  0.1066 -0.1407 -0.2860
   69TMC2    H5 1084   3.484   1.070  12.119  0.3574  1.2596 -0.3627
   70MPD2     C 1085   4.005   0.595  12.677  0.0614 -0.0662  0.4717
   70MPD2    C1 1086   3.873   0.596  12.650  0.0239  0.1542  0.4045
   70MPD2    C2 1087   3.790   0.519  12.733  1.0792  0.3679  0.4450
   70MPD2    C3 1088   3.836   0.444  12.843  0.6709  0.2941  0.3395
   70MPD2    C4 1089   3.972   0.445  12.863  0.6920  0.2610 -0.4217
   70MPD2    C5 1090   4.050   0.522  12.785  0.3248  0.2865 -0.0287
   70MPD2     H 1091   3.684   0.529  12.712  0.7019  0.3117  2.3210
   70MPD2    H1 1092   4.019   0.388  12.942 -2.9212 -3.8922 -1.2316
   70MPD2    H2 1093   4.072   0.642  12.606  0.1738  1.8110  1.8185
   70MPD2    H3 1094   4.156   0.510  12.806  0.0288 -2.1528  0.0369
   70MPD2     N 1095   3.756   0.376  12.940  0.6125 -0.5533 -0.0215
   70MPD2    H5 1096   3.807   0.325  13.011  1.2113 -0.0541 -0.0917
   70MPD2    N1 1097   3.821   0.677  12.544  0.3857 -0.2161 -0.3898
   70MPD2    H7 1098   3.891   0.717  12.483  0.9843  2.0931  1.7978
   71TMC2    C1 1099   0.643   1.485   1.820  0.0756 -0.6871 -0.1381
   71TMC2    C2 1100   0.754   1.461   1.899  0.4342 -0.4584  0.1292
   71TMC2    C3 1101   0.756   1.514   2.026  0.4589  0.7791 -0.1812
   71TMC2    C4 1102   0.535   1.561   1.865  0.4495  0.0277 -0.0043
   71TMC2    C5 1103   0.541   1.606   1.993  0.1514 -0.4410 -0.0276
   71TMC2    C6 1104   0.652   1.587   2.073 -0.3239  0.7367 -0.5537
   71TMC2     C 1105   0.626   1.422   1.688 -0.3302 -0.2463 -0.2287
   71TMC2     O 1106   0.727   1.431   1.619 -0.6035 -0.1676  0.1479
   71TMC2     H 1107   0.841   1.409   1.860 -0.7590 -0.4820 -2.5333
   71TMC2    H1 1108   0.462   1.584   1.789 -0.8658 -2.6474  0.4468
   71TMC2    H2 1109   0.651   1.623   2.176 -0.0596  0.0154 -0.2989
   71TMC2    C7 1110   0.428   1.674   2.046  0.3408  1.0047 -0.0902
   71TMC2    C8 1111   0.885   1.531   2.080 -0.2028  0.3949 -0.0915
   71TMC2    O1 1112   0.432   1.684   2.167  0.2564  0.1375 -0.0536
   71TMC2    O2 1113   0.985   1.562   2.012  0.5692 -0.1820  0.5996
   71TMC2    O5 1114   0.896   1.483   2.206 -0.4501  0.1727  0.0336
   71TMC2    H5 1115   0.809   1.450   2.237  0.1370  1.3865  2.9804
   72MPD2     C 1116   0.321   1.296   1.314 -0.3471 -0.1488 -0.2472
   72MPD2    C1 1117   0.454   1.323   1.315 -0.0963 -0.0153  0.0012
   72MPD2    C2 1118   0.515   1.336   1.437 -0.1401 -0.1048  0.5324
   72MPD2    C3 1119   0.445   1.316   1.550  0.6212 -0.0548  0.5591
   72MPD2    C4 1120   0.314   1.275   1.549 -0.5659 -0.2981  0.1921
   72MPD2    C5 1121   0.253   1.259   1.430 -0.4063  1.0144 -0.2397
   72MPD2     H 1122   0.611   1.386   1.437  0.3386 -1.0399  2.2087
   72MPD2    H1 1123   0.270   1.256   1.647 -0.3137 -0.9663  0.1804
   72MPD2    H2 1124   0.270   1.297   1.218 -0.2358 -0.7854 -0.3170
   72MPD2    H3 1125   0.147   1.239   1.429 -0.1711 -0.3355  3.3109
   72MPD2     N 1126   0.493   1.369   1.668  0.1513  0.4876  0.7935
   72MPD2    H5 1127   0.428   1.358   1.744 -0.9562 -0.1627 -0.2610
   72MPD2    N1 1128   0.534   1.363   1.201 -0.6480 -0.7565 -0.4118
   72MPD2    H7 1129   0.633   1.376   1.220 -1.2220  0.7138  1.5769
   73TMC2    C1 1130   1.069   3.328  14.705 -0.1227  0.1053  0.1156
   73TMC2    C2 1131   1.047   3.360  14.834 -0.3331  0.5307  0.1192
   73TMC2    C3 1132   1.103   3.479  14.871  0.5606  0.1824  0.7263
   73TMC2    C4 1133   1.154   3.396  14.627  0.3227  0.7066 -0.7794
   73TMC2    C5 1134   1.220   3.507  14.675  0.7536  0.3929  0.2456
   73TMC2    C6 1135   1.196   3.557  14.796 -0.1096  0.3277 -0.6419
   73TMC2     C 1136   0.945   3.324  14.630 -0.4693 -0.0366 -0.5333
   73TMC2     O 1137   0.953   3.376  14.517 -0.1887  0.3082  0.1291
   73TMC2     H 1138   0.965   3.317  14.889 -0.7451  0.3278 -0.6637
   73TMC2    H1 1139   1.198   3.359  14.535  1.8686 -0.2041  0.3462
   73TMC2    H2 1140   1.241   3.653  14.820  1.4209 -0.2785 -1.0831
   73TMC2    C7 1141   1.238   3.604  14.575 -0.5916  0.5941 -0.3732
   73TMC2    C8 1142   1.040   3.534  14.991 -0.8144  0.0147 -0.0511
   73TMC2    O1 1143   1.323   3.691  14.586  0.7846 -0.3025 -0.8269
   73TMC2    O2 1144   0.983   3.464  15.073 -0.3099 -0.5459 -0.5166
   73TMC2    O5 1145   1.070   3.662  14.999 -0.0439  0.4358  0.6268
   73TMC2    H5 1146   1.124   3.704  14.929 -0.1491 -1.5323 -0.6297
   74MPD2     C 1147   0.491   3.162  14.460  0.4179  0.1771  0.5961
   74MPD2    C1 1148   0.571   3.263  14.425  0.0234  0.4140  1.2950
   74MPD2    C2 1149   0.685   3.297  14.495  0.2934 -0.3678 -0.4854
   74MPD2    C3 1150   0.728   3.216  14.601  0.1019 -0.1568 -0.4385
   74MPD2    C4 1151   0.641   3.115  14.637 -0.0534  0.3913 -1.0850
   74MPD2    C5 1152   0.526   3.083  14.562 -0.8491  0.0173  0.2174
   74MPD2     H 1153   0.743   3.380  14.458 -2.0898  1.0011 -1.1268
   74MPD2    H1 1154   0.663   3.050  14.721  2.3118  1.2252 -1.0626
   74MPD2    H2 1155   0.410   3.118  14.403 -0.8115  1.2286  1.5493
   74MPD2    H3 1156   0.460   3.001  14.585 -0.2138 -0.9649 -1.4694
   74MPD2     N 1157   0.854   3.233  14.671 -0.2625  0.0791 -0.4275
   74MPD2    H5 1158   0.873   3.168  14.747  0.1902  1.1017  0.3196
   74MPD2    N1 1159   0.529   3.340  14.314 -0.3371  0.0177  0.6890
   74MPD2    H7 1160   0.453   3.306  14.257  0.0022  0.3371  0.0386
   75TMC2    C1 1161   0.578   0.229  14.188 -0.5723 -0.8037  0.4084
   75TMC2    C2 1162   0.532   0.308  14.288 -0.5115 -0.2675  1.1327
   75TMC2    C3 1163   0.448   0.412  14.261 -0.8341 -0.4722 -0.1460
   75TMC2    C4 1164   0.540   0.250  14.059  0.4354 -0.2832  0.0833
   75TMC2    C5 1165   0.444   0.344  14.039  0.2219 -0.4696  0.3483
   75TMC2    C6 1166   0.401   0.426  14.135 -0.4585  0.2324  0.6126
   75TMC2     C 1167   0.694   0.149  14.222  0.1109 -0.3446  0.1203
   75TMC2     O 1168   0.739   0.156  14.333 -0.2003 -0.5157  0.0737
   75TMC2     H 1169   0.575   0.298  14.387 -0.7521 -0.2980  1.2338
   75TMC2    H1 1170   0.591   0.194  13.981 -0.7922  1.4319 -1.9466
   75TMC2    H2 1171   0.320   0.495  14.112  0.8484  1.3811 -0.5264
   75TMC2    C7 1172   0.403   0.352  13.898 -0.5372  0.3407 -0.3605
   75TMC2    C8 1173   0.416   0.496  14.367 -0.0089 -0.0140 -0.8089
   75TMC2    O1 1174   0.437   0.258  13.827  1.0156  0.6339 -0.4573
   75TMC2    O2 1175   0.459   0.493  14.478 -0.0922  0.7164 -0.3670
   75TMC2    O5 1176   0.399   0.608  14.292 -0.3520  0.1943  0.7299
   75TMC2    H5 1177   0.396   0.599  14.195 -0.9957 -0.6726  0.8289
   76TMC2    C1 1178   4.657   0.110  12.272  0.0462  0.2857  0.1211
   76TMC2    C2 1179   4.586   4.736  12.252  0.1961  0.6255  0.3392
   76TMC2    C3 1180   4.612   4.630  12.334  0.4574  0.3473 -0.8721
   76TMC2    C4 1181   0.005   0.125  12.382 -0.3252 -0.0894  0.1886
   76TMC2    C5 1182   0.024   0.022  12.464 -0.1483  0.1106  0.2209
   76TMC2    C6 1183   4.702   4.646  12.434  0.6539  0.0897  0.1014
   76TMC2     C 1184   4.653   0.219  12.181  0.0874  0.0408 -0.0747
   76TMC2     O 1185   4.554   0.225  12.109  0.1750  0.0054 -0.1577
   76TMC2     H 1186   4.528   4.726  12.161  2.0964 -2.1609 -0.5702
   76TMC2    H1 1187   0.064   0.214  12.397 -1.6070  0.5202  1.6492
   76TMC2    H2 1188   4.701   4.564  12.504  2.4914 -0.7128 -0.8268
   76TMC2    C7 1189   0.109   0.034  12.584  0.1394  0.1333  0.4702
   76TMC2    C8 1190   4.548   4.501  12.322  0.1810  0.3612  0.4736
   76TMC2    O1 1191   0.154   4.662  12.611 -0.2647  0.3866  1.1802
   76TMC2    O2 1192   4.600   4.397  12.358 -0.1925 -0.6575  0.1005
   76TMC2    O5 1193   4.413   4.517  12.318  0.0921  0.4352 -1.2486
   76TMC2    H5 1194   4.406   4.603  12.271 -0.5720  0.8605 -0.3721
   77MPD2     C 1195   0.152   0.603  11.941 -0.5301  0.4018  0.3059
   77MPD2    C1 1196   0.016   0.578  11.951 -0.1462 -0.0028 -0.5652
   77MPD2    C2 1197   4.708   0.478  12.035  0.5621  0.0485  0.1708
   77MPD2    C3 1198   0.066   0.397  12.096 -0.2736 -0.5605  0.3228
   77MPD2    C4 1199   0.198   0.426  12.082 -0.6437  0.2998 -0.0262
   77MPD2    C5 1200   0.241   0.524  12.001  0.1708 -0.6736 -0.4950
   77MPD2     H 1201   4.603   0.461  12.052  0.5903 -0.7537 -0.4333
   77MPD2    H1 1202   0.280   0.374  12.130 -1.9932 -0.3337  1.6360
   77MPD2    H2 1203   0.188   0.688  11.886  3.3415 -0.9303  0.7901
   77MPD2    H3 1204   0.346   0.544  11.981 -0.1502  0.9101 -0.5775
   77MPD2     N 1205   0.032   0.283  12.177  0.1929  0.7000  0.1877
   77MPD2    H5 1206   0.109   0.240  12.226  1.2124 -0.3406 -2.3167
   77MPD2    N1 1207   4.658   0.649  11.881  0.1118 -0.0304  0.1721
   77MPD2    H7 1208   4.560   0.629  11.900  0.4910 -0.5664  1.5813
   78TMC2    C1 1209   0.645   1.037   1.239  0.5929 -0.9882 -0.4638
   78TMC2    C2 1210   0.525   0.980   1.204 -0.0890 -0.1128 -0.0836
   78TMC2    C3 1211   0.509   0.975   1.064 -0.3938  0.0710  0.0873
   78TMC2    C4 1212   0.743   1.066   1.152  0.3013 -0.6810 -0.6775
   78TMC2    C5 1213   0.720   1.054   1.019 -0.0677 -0.3092 -0.4233
   78TMC2    C6 1214   0.606   0.997   0.970  0.0431 -0.1772 -0.2890
   78TMC2     C 1215   0.681   1.043   1.379  0.4605 -0.0354  0.0354
   78TMC2     O 1216   0.627   0.965   1.454  0.3248 -0.2718  0.1359
   78TMC2     H 1217   0.447   0.955   1.275 -0.9758  1.5966 -0.4713
   78TMC2    H1 1218   0.835   1.107   1.194  0.6616 -0.2953 -1.8532
   78TMC2    H2 1219   0.580   1.002   0.865  0.7925  1.1313 -0.4180
   78TMC2    C7 1220   0.831   1.093   0.934 -0.0990  0.4889  0.2637
   78TMC2    C8 1221   0.397   0.900   1.021 -0.0149  0.1899 -0.0513
   78TMC2    O1 1222   0.920   1.161   0.978 -0.3313 -0.4188 -0.1707
   78TMC2    O2 1223   0.296   0.897   1.088  0.2438  0.1518  0.3777
   78TMC2    O5 1224   0.440   0.800   0.944 -0.4159 -0.3647 -0.4649
   78TMC2    H5 1225   0.537   0.809   0.946 -0.5565  1.2479 -1.0018
   79MPD1     C 1226   0.973   1.180   1.777  0.0351  0.2559 -0.1601
   79MPD1    C1 1227   0.853   1.113   1.770  0.0374  0.1124  0.8476
   79MPD1    C2 1228   0.796   1.097   1.652  0.2126 -0.3152 -0.0621
   79MPD1    C3 1229   0.850   1.148   1.535 -0.4398 -0.0165 -0.5232
   79MPD1    C4 1230   0.961   1.236   1.550 -0.1745  0.5472 -0.2536
   79MPD1    C5 1231   1.024   1.243   1.670 -0.2354  0.5980 -0.1589
   79MPD1     H 1232   0.704   1.040   1.646 -0.3767  0.4848  1.3609
   79MPD1    H1 1233   1.001   1.297   1.470  1.5449 -0.5791 -0.2675
   79MPD1    H2 1234   1.040   1.190   1.863 -0.1452  0.2976 -0.0242
   79MPD1    H3 1235   1.113   1.303   1.687 -0.6854  1.1439  0.2590
   79MPD1     N 1236   0.787   1.128   1.407  0.0961 -0.3325  0.7724
   79MPD1    H5 1237   0.834   1.176   1.331 -2.0882  0.6549  0.0436
   79MPD1    N1 1238   0.812   1.040   1.875 -0.3151  0.3613 -0.1302
   79MPD1    H6 1239   0.839   1.089   1.961 -0.6837 -0.6838  0.5861
   79MPD1    H7 1240   0.712   1.032   1.861 -0.1562 -1.7478 -0.0339
   80TMC2    C1 1241   3.372   0.131  12.030  0.1385 -0.9095  0.0845
   80TMC2    C2 1242   3.354   0.214  11.919  0.5936  0.5731 -0.8214
   80TMC2    C3 1243   3.288   0.165  11.809  0.4331 -0.3243 -0.2921
   80TMC2    C4 1244   3.357   4.737  12.009 -0.0090  0.7435 -0.4170
   80TMC2    C5 1245   3.281   4.697  11.905  0.3425 -0.0751  0.3377
   80TMC2    C6 1246   3.236   0.040  11.802  0.0255  0.0385  0.8128
   80TMC2     C 1247   3.323   0.163  12.158  0.8390  0.0297 -0.1165
   80TMC2     O 1248   3.319   0.072  12.239 -0.2333  0.2148  0.8357
   80TMC2     H 1249   3.382   0.317  11.936  0.7381  0.5939 -1.1778
   80TMC2    H1 1250   3.392   4.657  12.075  0.9642  0.8442 -0.8039
   80TMC2    H2 1251   3.171   0.006  11.722  0.5981  1.2394 -0.1684
   80TMC2    C7 1252   3.178   4.603  11.942 -0.4350 -0.0011 -0.1149
   80TMC2    C8 1253   3.251   0.255  11.697  0.2609 -1.0365  0.4115
   80TMC2    O1 1254   3.131   4.544  11.847 -0.4062  0.4537  0.0492
   80TMC2    O2 1255   3.265   0.380  11.718 -0.4049 -0.4398  0.4701
   80TMC2    O5 1256   3.311   0.194  11.592 -0.1580 -0.1998  0.0391
   80TMC2    H5 1257   3.326   0.097  11.599 -0.3200 -0.1272  1.4241
   81MPD2     C 1258   3.144   0.266  12.382 -0.1903 -0.6541 -0.0689
   81MPD2    C1 1259   3.171   0.333  12.263  0.3983 -0.0465  0.4773
   81MPD2    C2 1260   3.106   0.454  12.245 -0.2267  0.6707 -0.9477
   81MPD2    C3 1261   3.008   0.498  12.341 -0.5661  0.4498  0.8755
   81MPD2    C4 1262   2.999   0.436  12.464 -0.5633  0.1228  0.6663
   81MPD2    C5 1263   3.067   0.321  12.483  0.0894  0.7557 -0.3317
   81MPD2     H 1264   3.096   0.493  12.144  1.9716 -0.5169 -1.6080
   81MPD2    H1 1265   2.945   0.490  12.541 -0.6776 -1.1861  1.5042
   81MPD2    H2 1266   3.197   0.175  12.406  0.3055 -0.4652 -0.4552
   81MPD2    H3 1267   3.051   0.275  12.579  1.0959 -1.1548 -1.0733
   81MPD2     N 1268   2.928   0.608  12.321  0.0341  0.2387 -0.2409
   81MPD2    H5 1269   2.854   0.629  12.388  0.5389 -2.4864  1.1527
   81MPD2    N1 1270   3.256   0.284  12.160 -0.2645 -0.8993 -0.5437
   81MPD2    H7 1271   3.259   0.342  12.077 -0.1376 -2.8616 -1.9017
   82TMC2    C1 1272   1.505   4.312  11.392  0.4037 -0.5837 -0.3327
   82TMC2    C2 1273   1.608   4.337  11.477 -0.1252 -0.0045  0.5506
   82TMC2    C3 1274   1.662   4.219  11.529 -0.3518  1.1839 -0.2726
   82TMC2    C4 1275   1.467   4.183  11.356 -0.1092  0.3284 -0.0855
   82TMC2    C5 1276   1.531   4.073  11.408  0.3161 -0.3004  0.3286
   82TMC2    C6 1277   1.617   4.091  11.508 -0.0487 -0.7328 -0.1986
   82TMC2     C 1278   1.386   4.401  11.385  0.1214  0.3163  0.0395
   82TMC2     O 1279   1.303   4.367  11.301  0.1937 -0.4959  0.6990
   82TMC2     H 1280   1.623   4.437  11.515  1.0426  0.1826 -0.3942
   82TMC2    H1 1281   1.380   4.171  11.293  0.6724 -1.4912 -0.8199
   82TMC2    H2 1282   1.654   4.008  11.566 -1.0539 -0.4866  0.7909
   82TMC2    C7 1283   1.453   3.953  11.416 -0.9894 -0.5714  0.2042
   82TMC2    C8 1284   1.734   4.233  11.647 -0.5803  0.5075 -0.1534
   82TMC2    O1 1285   1.459   3.896  11.524  0.0723  0.2399  0.1123
   82TMC2    O2 1286   1.718   4.163  11.745  0.0287 -0.9429 -0.1559
   82TMC2    O5 1287   1.798   4.350  11.660 -0.1292  0.2779  0.1276
   82TMC2    H5 1288   1.820   4.385  11.571  0.8372 -0.5491  0.0417
   83MPD2     C 1289   1.096   0.075  11.524 -0.6191 -0.2504 -0.3403
   83MPD2    C1 1290   1.065   4.697  11.458 -0.0067 -0.1091  0.1738
   83MPD2    C2 1291   1.163   4.608  11.425 -0.5627 -0.4585 -0.4209
   83MPD2    C3 1292   1.294   4.620  11.476  0.1743 -0.3783  0.2285
   83MPD2    C4 1293   1.322   4.730  11.550 -0.1541 -0.0866 -0.1816
   83MPD2    C5 1294   1.222   0.092  11.567  0.1429  0.0934  0.5550
   83MPD2     H 1295   1.144   4.519  11.367 -2.7345 -0.0996 -0.2385
   83MPD2    H1 1296   1.419   4.737  11.597 -1.2636 -0.6145  2.2168
   83MPD2    H2 1297   1.020   0.148  11.553  1.0473  0.8354  1.2944
   83MPD2    H3 1298   1.251   0.178  11.628 -0.0827 -1.9631  3.5375
   83MPD2     N 1299   1.385   4.510  11.470  0.3720 -0.0945  0.2053
   83MPD2    H5 1300   1.469   4.514  11.527  1.0430 -0.0434 -0.7974
   83MPD2    N1 1301   0.930   4.679  11.421 -0.3156 -0.0726  0.4831
   83MPD2    H7 1302   0.868   0.021  11.423 -0.3293 -0.0545 -0.5290
   84TMC2    C1 1303   2.185   3.463  11.065  0.7758 -0.7528  1.4973
   84TMC2    C2 1304   2.168   3.345  11.134  0.2692 -0.7880 -0.0152
   84TMC2    C3 1305   2.259   3.243  11.122 -0.3439 -0.4521 -0.4370
   84TMC2    C4 1306   2.283   3.466  10.968  0.7584  0.2297 -0.3728
   84TMC2    C5 1307   2.363   3.362  10.947  0.0385  0.4312  0.8079
   84TMC2    C6 1308   2.360   3.249  11.027  0.3459  0.1365 -0.2718
   84TMC2     C 1309   2.130   3.583  11.120  0.4157  0.3561 -0.0338
   84TMC2     O 1310   2.041   3.577  11.203  0.1657 -0.0791  0.4405
   84TMC2     H 1311   2.102   3.346  11.220  0.5265  1.2235  0.1744
   84TMC2    H1 1312   2.295   3.553  10.905  2.2767  1.1604  1.2199
   84TMC2    H2 1313   2.431   3.169  11.013 -2.6772 -2.6350  0.2412
   84TMC2    C7 1314   2.472   3.381  10.855 -0.7623  0.0464 -1.0738
   84TMC2    C8 1315   2.242   3.139  11.228 -0.4996 -0.3385  0.9091
   84TMC2    O1 1316   2.449   3.427  10.743  0.1008 -0.1676  0.5072
   84TMC2    O2 1317   2.140   3.135  11.293 -0.4162 -0.4184 -0.2746
   84TMC2    O5 1318   2.342   3.050  11.220  0.6551  0.3131 -0.0793
   84TMC2    H5 1319   2.429   3.073  11.179  0.1789 -1.8780 -2.3493
   85TMC2    C1 1320   3.515   1.876  16.097  0.0898 -0.1574  1.0144
   85TMC2    C2 1321   3.496   2.014  16.071  0.3332 -0.3169  0.0845
   85TMC2    C3 1322   3.581   2.083  15.990  0.2580  0.8283 -0.4499
   85TMC2    C4 1323   3.612   1.804  16.030 -0.5101 -0.4881 -0.4111
   85TMC2    C5 1324   3.692   1.877  15.941  0.1095 -0.2824 -0.8081
   85TMC2    C6 1325   3.673   2.015  15.919 -0.1692  1.0327  0.9926
   85TMC2     C 1326   3.428   1.817  16.192 -0.2540 -0.3699  0.0886
   85TMC2     O 1327   3.393   1.899  16.273  0.3466 -0.8881  0.5908
   85TMC2     H 1328   3.414   2.067  16.118 -0.1003  0.2716 -1.3348
   85TMC2    H1 1329   3.633   1.698  16.043  1.4410 -0.3579 -2.4791
   85TMC2    H2 1330   3.719   2.072  15.840  0.6087  0.7063  1.2120
   85TMC2    C7 1331   3.772   1.801  15.851  1.0662  0.2990  1.0067
   85TMC2    C8 1332   3.551   2.215  15.938  0.2045 -0.0214 -0.0105
   85TMC2    O1 1333   3.818   1.695  15.892  0.4241  0.6046  0.1897
   85TMC2    O2 1334   3.609   2.260  15.839  0.1661  0.4865  0.0853
   85TMC2    O5 1335   3.516   2.288  16.049 -0.2727 -0.7487  0.1807
   85TMC2    H5 1336   3.471   2.234  16.118 -0.6572  0.1881  0.6570
   86MPD2     C 1337   3.087   1.489  16.365  0.5059 -0.4624  0.2278
   86MPD2    C1 1338   3.153   1.423  16.259 -0.6600 -1.0460 -0.7239
   86MPD2    C2 1339   3.259   1.492  16.203  0.3236  0.2974  0.0541
   86MPD2    C3 1340   3.294   1.620  16.242  0.4343 -0.2275  0.3049
   86MPD2    C4 1341   3.226   1.679  16.347 -0.4460 -0.6404  1.3603
   86MPD2    C5 1342   3.122   1.615  16.403 -0.3090 -0.3828  0.5186
   86MPD2     H 1343   3.300   1.450  16.112 -0.6254 -1.9221  0.6451
   86MPD2    H1 1344   3.246   1.776  16.393  0.0933  0.4851 -1.2219
   86MPD2    H2 1345   3.001   1.448  16.417 -0.8900  0.8258 -1.0502
   86MPD2    H3 1346   3.068   1.666  16.482  0.1294 -1.3605  1.4473
   86MPD2     N 1347   3.397   1.684  16.171 -0.0023  0.1428 -0.1932
   86MPD2    H5 1348   3.440   1.630  16.097  1.1837  0.1000  0.5367
   86MPD2    N1 1349   3.117   1.299  16.196  0.4456 -0.0933  0.4087
   86MPD2    H7 1350   3.162   1.270  16.109 -2.3748 -0.8390 -0.8206
   87TMC2    C1 1351   0.956   4.611   0.219 -0.2724 -0.0690  0.5866
   87TMC2    C2 1352   0.941   4.692   0.109  0.0713  0.2258  0.0610
   87TMC2    C3 1353   0.887   0.075   0.134  0.6975  0.6814  0.8214
   87TMC2    C4 1354   0.901   4.641   0.342  0.3618  0.2926  0.3767
   87TMC2    C5 1355   0.837   0.020   0.357  0.1649 -0.6546  0.1242
   87TMC2    C6 1356   0.839   0.112   0.253  0.3049  0.5143 -0.6193
   87TMC2     C 1357   1.027   4.485   0.197 -0.2160  0.5980  0.0451
   87TMC2     O 1358   1.024   4.460   0.077 -0.1996 -0.1741  0.0878
   87TMC2     H 1359   1.003   4.678   0.021 -1.6489  1.7766 -1.3940
   87TMC2    H1 1360   0.901   4.563   0.418 -0.2521 -0.4462 -0.3889
   87TMC2    H2 1361   0.798   0.208   0.283  0.6211  0.3379  0.3944
   87TMC2    C7 1362   0.727   0.046   0.446 -0.4569 -0.4302  0.1539
   87TMC2    C8 1363   0.871   0.160   0.022 -0.3430  0.5371  0.2520
   87TMC2    O1 1364   0.707   0.161   0.475 -0.3190 -1.6487  0.1898
   87TMC2    O2 1365   0.963   0.187  17.695 -0.5635 -0.1045  0.2801
   87TMC2    O5 1366   0.769   0.244   0.046 -0.0343 -0.2427 -0.5730
   87TMC2    H5 1367   0.696   0.190   0.084 -2.1370  1.6572 -1.8771
   88MPD2     C 1368   0.450   4.530   0.462 -0.2082  0.8074  0.1242
   88MPD2    C1 1369   0.505   4.660   0.466 -0.5870 -0.3978  0.0270
   88MPD2    C2 1370   0.423   0.034   0.455 -0.5574 -0.6697 -0.5102
   88MPD2    C3 1371   0.285   0.011   0.448  0.4089 -0.3749 -0.3415
   88MPD2    C4 1372   0.230   4.622   0.441 -0.5323  0.2017 -0.7588
   88MPD2    C5 1373   0.311   4.510   0.446 -0.3274  0.2309  0.4180
   88MPD2     H 1374   0.465   0.133   0.443  1.5304 -1.5051 -0.1734
   88MPD2    H1 1375   0.127   4.604   0.414 -1.2088 -1.4115  2.8731
   88MPD2    H2 1376   0.513   4.446   0.489 -1.8907 -0.0164  1.5053
   88MPD2    H3 1377   0.282   4.406   0.437  1.0426 -0.0394 -0.9181
   88MPD2     N 1378   0.199   0.111   0.405  0.1032  0.9506 -1.1201
   88MPD2    H5 1379   0.102   0.089   0.386  0.4089 -0.6458 -0.8028
   88MPD2    N1 1380   0.646   4.668   0.459 -0.3925 -0.9159  0.6348
   88MPD2    H7 1381   0.684   4.577   0.439  0.9641 -0.2977  0.3752
   89TMC2    C1 1382   2.177   2.983   1.988 -0.2104 -1.0577  0.3619
   89TMC2    C2 1383   2.258   3.053   2.071 -0.2493 -0.2828  0.2400
   89TMC2    C3 1384   2.238   3.190   2.074 -0.3675 -0.0253 -0.1241
   89TMC2    C4 1385   2.088   3.044   1.901  0.1735 -0.2109  0.2385
   89TMC2    C5 1386   2.079   3.179   1.910  0.2014 -0.1996 -0.6067
   89TMC2    C6 1387   2.146   3.256   1.998  0.4597 -0.4013  0.1211
   89TMC2     C 1388   2.183   2.838   2.001 -0.0337  0.1203  0.3899
   89TMC2     O 1389   2.276   2.807   2.070 -0.5275  0.2497 -0.0757
   89TMC2     H 1390   2.334   3.003   2.130  1.4337  3.3003  1.1071
   89TMC2    H1 1391   2.021   2.978   1.847 -1.3656  1.8824 -0.4240
   89TMC2    H2 1392   2.139   3.365   1.998 -3.1499 -0.6397 -0.4870
   89TMC2    C7 1393   1.983   3.248   1.833 -0.2090  0.2104 -0.0220
   89TMC2    C8 1394   2.301   3.258   2.181  0.0072  0.0146 -0.3155
   89TMC2    O1 1395   1.965   3.365   1.862 -0.0134  0.1286  0.0310
   89TMC2    O2 1396   2.251   3.353   2.238  1.1330  0.5288  0.1866
   89TMC2    O5 1397   2.435   3.255   2.161 -0.1734  0.4711 -0.3851
   89TMC2    H5 1398   2.476   3.185   2.105 -1.6374  0.2071 -1.1206
   90MPD2     C 1399   1.982   2.364   1.965  0.2890  0.1275  0.5131
   90MPD2    C1 1400   1.876   2.457   1.975  0.5898  0.8261  0.5756
   90MPD2    C2 1401   1.908   2.598   1.994  0.0040  0.1207 -0.9340
   90MPD2    C3 1402   2.039   2.641   1.993 -0.1164  0.1219 -0.0544
   90MPD2    C4 1403   2.140   2.546   1.988 -0.1242  0.7762 -0.0186
   90MPD2    C5 1404   2.107   2.412   1.985  0.0639  0.2353 -0.4190
   90MPD2     H 1405   1.832   2.675   2.008 -0.3850 -0.2487 -1.0170
   90MPD2    H1 1406   2.246   2.565   1.990  0.0282 -0.1725  0.9378
   90MPD2    H2 1407   1.965   2.260   1.937  0.1645 -0.5448  3.1417
   90MPD2    H3 1408   2.186   2.340   2.000 -0.0881  0.3876  1.1720
   90MPD2     N 1409   2.063   2.777   1.990 -0.8381  0.1321 -0.2181
   90MPD2    H5 1410   1.984   2.839   1.982  0.9585  2.4255 -0.1905
   90MPD2    N1 1411   1.741   2.417   1.969  0.1531 -0.1199 -0.2689
   90MPD2    H7 1412   1.675   2.491   1.989 -1.3479 -1.4241 -0.4494
   91TMC2    C1 1413   3.337   2.625  16.426 -0.0393 -0.7537  0.8508
   91TMC2    C2 1414   3.339   2.692  16.548 -0.4584 -0.7836  0.4786
   91TMC2    C3 1415   3.231   2.679  16.621  0.2929  0.8014 -0.1518
   91TMC2    C4 1416   3.235   2.553  16.375 -0.0388  0.7906 -0.1341
   91TMC2    C5 1417   3.126   2.540  16.459  0.4896  0.2594 -0.0640
   91TMC2    C6 1418   3.126   2.595  16.585 -0.2564  0.5355 -0.4094
   91TMC2     C 1419   3.465   2.608  16.355 -0.1053  0.2559 -0.2478
   91TMC2     O 1420   3.455   2.610  16.232 -0.2748  0.2657 -0.5028
   91TMC2     H 1421   3.425   2.748  16.584 -0.5070 -0.4700  0.1039
   91TMC2    H1 1422   3.243   2.504  16.278  2.2216 -0.8250  0.8730
   91TMC2    H2 1423   3.037   2.581  16.645  0.8630  1.1886  1.4037
   91TMC2    C7 1424   3.021   2.454  16.414  0.1590 -0.7583  0.5305
   91TMC2    C8 1425   3.253   2.694  16.765 -0.5354 -0.1888  0.4721
   91TMC2    O1 1426   2.957   2.400  16.505  0.0816  0.1789  0.0062
   91TMC2    O2 1427   3.199   2.624  16.843  0.2183 -0.2889 -0.0604
   91TMC2    O5 1428   3.267   2.828  16.787  0.1612 -0.2635 -0.1101
   91TMC2    H5 1429   3.285   2.885  16.710  1.1483 -0.9772 -0.4097
   92MPD2     C 1430   3.740   2.621  16.257 -0.0529 -0.2171  0.3685
   92MPD2    C1 1431   3.706   2.579  16.384  0.9834  0.7412 -0.2323
   92MPD2    C2 1432   3.799   2.540  16.476  0.0488 -0.5372  0.1960
   92MPD2    C3 1433   3.935   2.533  16.437 -0.3375  0.4671 -0.4209
   92MPD2    C4 1434   3.967   2.569  16.307  0.3632 -0.3197  0.0825
   92MPD2    C5 1435   3.868   2.622  16.220 -0.0056 -0.3785  0.1583
   92MPD2     H 1436   3.763   2.495  16.568  1.1869 -0.7407  0.5498
   92MPD2    H1 1437   4.069   2.564  16.270  0.9132  0.2433  1.5255
   92MPD2    H2 1438   3.676   2.684  16.196  0.3247 -1.3418 -1.2149
   92MPD2    H3 1439   3.896   2.649  16.119  1.5473 -2.2841  0.0766
   92MPD2     N 1440   4.037   2.501  16.528  0.6814  0.2230 -0.1810
   92MPD2    H5 1441   4.012   2.506  16.627  0.8186 -0.2312 -0.1227
   92MPD2    N1 1442   3.570   2.590  16.438 -0.1574 -0.1377 -0.1268
   92MPD2    H7 1443   3.551   2.576  16.536  3.0346 -1.3887  0.3299
   93TMC2    C1 1444   1.106   2.280  13.802  0.5364 -0.0418 -0.5766
   93TMC2    C2 1445   1.059   2.312  13.677  0.1116  0.9991 -0.0439
   93TMC2    C3 1446   1.142   2.372  13.586  0.0581 -0.0890 -0.0051
   93TMC2    C4 1447   1.237   2.302  13.842 -0.6846  0.3621 -0.7089
   93TMC2    C5 1448   1.318   2.362  13.750 -0.3348 -0.2942 -0.1817
   93TMC2    C6 1449   1.273   2.398  13.621 -0.0397 -0.0494  0.0526
   93TMC2     C 1450   1.030   2.190  13.885  0.1907  0.1540 -0.2640
   93TMC2     O 1451   1.092   2.132  13.974 -0.5792 -0.3583  0.0270
   93TMC2     H 1452   0.956   2.285  13.652  0.8128 -0.9716 -0.8560
   93TMC2    H1 1453   1.267   2.281  13.944  0.8316 -1.0966 -1.4620
   93TMC2    H2 1454   1.343   2.437  13.549  1.6448 -0.9297  1.2145
   93TMC2    C7 1455   1.458   2.388  13.782 -0.1266 -0.4189 -0.1472
   93TMC2    C8 1456   1.088   2.428  13.456 -0.3490 -0.7167 -0.2201
   93TMC2    O1 1457   1.537   2.393  13.688 -0.2361 -0.3742  0.0500
   93TMC2    O2 1458   0.976   2.387  13.414 -0.3714  0.0909  0.2304
   93TMC2    O5 1459   1.130   2.557  13.447 -0.2799  0.4662 -0.3214
   93TMC2    H5 1460   1.184   2.581  13.526 -0.8174 -1.6847  0.6975
   94MPD2     C 1461   0.802   2.026  14.008  0.3255 -0.9802 -0.2165
   94MPD2    C1 1462   0.787   2.149  13.932  0.2552 -0.1332 -0.5659
   94MPD2    C2 1463   0.667   2.211  13.914  0.1893  0.1018  0.0634
   94MPD2    C3 1464   0.555   2.146  13.968 -0.5459  0.0767 -0.8882
   94MPD2    C4 1465   0.566   2.023  14.038 -0.2701 -0.3035  0.4966
   94MPD2    C5 1466   0.688   1.967  14.058 -0.6640  0.4588 -0.1451
   94MPD2     H 1467   0.661   2.306  13.862 -1.6868  0.4123  0.8409
   94MPD2    H1 1468   0.477   1.968  14.067 -0.7871  0.3677  0.2041
   94MPD2    H2 1469   0.898   1.978  14.027  0.3508 -0.3324  1.3684
   94MPD2    H3 1470   0.693   1.878  14.120 -1.3372  0.9413  0.6038
   94MPD2     N 1471   0.423   2.197  13.948 -0.2092  0.3665  0.4230
   94MPD2    H5 1472   0.345   2.134  13.961  1.4129 -1.9835 -0.9634
   94MPD2    N1 1473   0.897   2.212  13.870 -0.0036  0.6254  0.6753
   94MPD2    H7 1474   0.867   2.291  13.813 -0.5654  1.2860  1.8780
   95TMC2    C1 1475   0.248   0.617  15.571 -1.3086 -0.0949  0.1286
   95TMC2    C2 1476   0.116   0.600  15.597 -0.1531  0.2661 -0.6654
   95TMC2    C3 1477   0.041   0.723  15.632  0.4738  0.5325 -0.1278
   95TMC2    C4 1478   0.305   0.746  15.575 -0.1170  0.1281  0.0830
   95TMC2    C5 1479   0.229   0.852  15.617 -0.3385  0.0391 -0.5904
   95TMC2    C6 1480   0.098   0.845  15.642 -0.4261  0.3592 -0.3019
   95TMC2     C 1481   0.329   0.500  15.559 -0.6235  0.2090 -0.6094
   95TMC2     O 1482   0.439   0.507  15.615 -0.1498 -0.3981 -0.4672
   95TMC2     H 1483   0.066   0.505  15.614 -0.5118  0.7454  1.0257
   95TMC2    H1 1484   0.413   0.758  15.572 -0.1151  0.4046  1.1710
   95TMC2    H2 1485   0.053   0.936  15.681 -0.3885  1.0079 -1.7830
   95TMC2    C7 1486   0.278   0.990  15.596 -0.1261 -0.0401 -0.2524
   95TMC2    C8 1487   4.653   0.715  15.672 -0.2823  0.8471 -0.2528
   95TMC2    O1 1488   0.231   1.078  15.669  0.4131  0.6491  0.2641
   95TMC2    O2 1489   4.604   0.605  15.698 -0.1686  0.2022  0.4111
   95TMC2    O5 1490   4.587   0.815  15.613  0.3720 -0.3364 -0.2166
   95TMC2    H5 1491   4.645   0.890  15.589 -1.0152  0.1015 -2.1691
   96MPD2     C 1492   0.429   0.039  15.377 -0.2649  0.3578 -0.1286
   96MPD2    C1 1493   0.513   0.139  15.421  0.2364 -0.9237 -0.8740
   96MPD2    C2 1494   0.463   0.265  15.450  0.1899 -0.5881 -0.0646
   96MPD2    C3 1495   0.327   0.279  15.446  0.2386  0.4034  0.2994
   96MPD2    C4 1496   0.243   0.182  15.398 -0.0470 -0.5104  0.2149
   96MPD2    C5 1497   0.299   0.062  15.351 -0.7081  0.3102 -0.4980
   96MPD2     H 1498   0.524   0.345  15.490 -0.9160  0.1706  0.0787
   96MPD2    H1 1499   0.135   0.194  15.397 -0.0304 -0.0141  2.7358
   96MPD2    H2 1500   0.472   4.685  15.340 -1.1713 -1.1121  2.4443
   96MPD2    H3 1501   0.239   4.725  15.302 -0.0181 -1.2231  1.0013
   96MPD2     N 1502   0.263   0.401  15.491 -0.0380 -0.3884  0.6500
   96MPD2    H5 1503   0.169   0.411  15.456  0.7210  0.5640 -1.1358
   96MPD2    N1 1504   0.649   0.107  15.430 -0.5290 -0.1010  0.3937
   96MPD2    H7 1505   0.665   0.013  15.395 -2.7275 -0.4730  0.3741
   97TMC2    C1 1506   3.397   2.243   0.383  0.0834 -0.0445 -0.8126
   97TMC2    C2 1507   3.343   2.153   0.291  0.1110  0.1392 -0.1209
   97TMC2    C3 1508   3.356   2.183   0.158 -0.1248  0.0765 -0.3411
   97TMC2    C4 1509   3.449   2.361   0.345 -0.3977  0.0120  0.8043
   97TMC2    C5 1510   3.447   2.393   0.210 -0.1390  0.3633  0.2907
   97TMC2    C6 1511   3.398   2.304   0.113 -0.1198 -0.4494 -0.1379
   97TMC2     C 1512   3.379   2.202   0.519  0.4574  0.0333  0.1037
   97TMC2     O 1513   3.296   2.115   0.539  0.0313  0.2680 -0.0007
   97TMC2     H 1514   3.309   2.054   0.320 -2.4158  1.7108  2.1974
   97TMC2    H1 1515   3.479   2.427   0.426 -0.3891 -0.1150  0.9043
   97TMC2    H2 1516   3.401   2.323   0.006  0.1162  0.1053 -0.0300
   97TMC2    C7 1517   3.450   2.534   0.175 -0.2071 -0.2424  0.0931
   97TMC2    C8 1518   3.302   2.082   0.072 -0.9518 -0.6557  0.4871
   97TMC2    O1 1519   3.522   2.611   0.241 -0.4626  0.2392  0.0468
   97TMC2    O2 1520   3.331   1.964   0.084 -0.1146 -0.2201  0.8160
   97TMC2    O5 1521   3.192   2.124   0.009 -0.3156 -0.2936 -0.2707
   97TMC2    H5 1522   3.177   2.219   0.025  0.2268 -0.5476  1.7617
   98MPD2     C 1523   3.553   2.159   1.010  0.4268  0.6871 -0.1708
   98MPD2    C1 1524   3.436   2.106   0.958  0.0778 -1.0841 -0.1072
   98MPD2    C2 1525   3.418   2.124   0.817 -0.0108  0.3324 -0.4546
   98MPD2    C3 1526   3.501   2.208   0.742 -0.0852  0.2489 -0.0650
   98MPD2    C4 1527   3.612   2.250   0.804 -0.6240  0.1060 -0.7072
   98MPD2    C5 1528   3.642   2.225   0.935 -0.1701 -0.0049 -0.4617
   98MPD2     H 1529   3.331   2.085   0.764  0.3254  0.3853 -1.0460
   98MPD2    H1 1530   3.682   2.309   0.746  0.2333  0.9245  1.1728
   98MPD2    H2 1531   3.577   2.146   1.115  1.6217 -1.5879 -0.7349
   98MPD2    H3 1532   3.736   2.262   0.975 -0.3582  1.4461 -1.3646
   98MPD2     N 1533   3.475   2.245   0.605  0.2073  0.1122  0.4811
   98MPD2    H5 1534   3.547   2.309   0.571 -0.6448  0.1308 -1.3087
   98MPD2    N1 1535   3.339   2.037   1.036  0.1947 -0.0730 -0.5092
   98MPD2    H7 1536   3.365   2.030   1.133 -0.7258 -0.7012 -0.3090
   99TMC2    C1 1537   1.675   3.057   2.081 -0.6436 -0.4484 -0.0946
   99TMC2    C2 1538   1.773   3.098   2.166  0.0257 -0.1881  1.3628
   99TMC2    C3 1539   1.731   3.174   2.272  1.0588  0.0201 -0.5060
   99TMC2    C4 1540   1.541   3.080   2.103  0.5061  0.4669 -0.2457
   99TMC2    C5 1541   1.507   3.163   2.205  0.4542  0.1238  0.5990
   99TMC2    C6 1542   1.602   3.212   2.283  0.0538 -0.5966  0.6371
   99TMC2     C 1543   1.726   2.989   1.962  0.1300  0.1413  0.3510
   99TMC2     O 1544   1.839   2.945   1.981 -1.0182  0.1918  0.5635
   99TMC2     H 1545   1.877   3.093   2.137 -0.3498  2.8186 -0.5034
   99TMC2    H1 1546   1.470   3.037   2.034  0.1776 -0.5497  0.7162
   99TMC2    H2 1547   1.580   3.284   2.362 -0.2970 -0.1692  0.1494
   99TMC2    C7 1548   1.370   3.202   2.222  0.4712 -0.4072  0.6032
   99TMC2    C8 1549   1.835   3.258   2.332  1.2439  0.0026  0.4006
   99TMC2    O1 1550   1.331   3.249   2.332  0.1021  0.3439  0.2748
   99TMC2    O2 1551   1.821   3.383   2.339 -0.2072 -0.3035  0.3687
   99TMC2    O5 1552   1.952   3.188   2.350  0.1752  0.7883 -0.0210
   99TMC2    H5 1553   1.941   3.091   2.345  1.6409  0.5726  0.7831
  100MPD2     C 1554   1.794   2.847   1.711  0.4744  0.6452 -0.1972
  100MPD2    C1 1555   1.684   2.931   1.727  0.4792 -0.1703  0.1878
  100MPD2    C2 1556   1.612   2.963   1.623 -0.4759  0.4037 -0.1377
  100MPD2    C3 1557   1.652   2.919   1.496  0.3004 -0.7909 -0.0517
  100MPD2    C4 1558   1.756   2.836   1.481  0.1301 -0.3471  0.6276
  100MPD2    C5 1559   1.827   2.805   1.587  0.3343 -0.5213  0.1658
  100MPD2     H 1560   1.513   3.005   1.634  0.3839  2.1090  1.1453
  100MPD2    H1 1561   1.773   2.779   1.390 -0.0507  0.9118 -0.2100
  100MPD2    H2 1562   1.837   2.797   1.797 -1.1647 -0.0798  0.1829
  100MPD2    H3 1563   1.908   2.734   1.576 -0.1513 -1.2973  1.5577
  100MPD2     N 1564   1.556   2.952   1.403 -0.0104  0.1402  0.1529
  100MPD2    H5 1565   1.469   2.996   1.431  0.6111  2.0320 -0.8591
  100MPD2    N1 1566   1.644   2.990   1.848 -0.1615  0.6493  0.3115
  100MPD2    H7 1567   1.564   3.052   1.859 -0.7740 -0.0820 -0.0612
  101TMC2    C1 1568   2.284   0.440  13.129 -0.9974  0.3626 -1.1314
  101TMC2    C2 1569   2.218   0.543  13.201  0.0884 -0.4207  0.0819
  101TMC2    C3 1570   2.271   0.668  13.186  0.3213 -0.2575  0.0307
  101TMC2    C4 1571   2.387   0.458  13.036 -0.0702 -0.4839 -0.1554
  101TMC2    C5 1572   2.419   0.594  13.010 -0.3317 -0.2280  0.6044
  101TMC2    C6 1573   2.366   0.698  13.090 -0.0082  0.0218  0.1308
  101TMC2     C 1574   2.217   0.317  13.158 -0.4306  0.1876  0.7507
  101TMC2     O 1575   2.155   0.310  13.267 -0.1371 -0.5489 -0.2072
  101TMC2     H 1576   2.138   0.521  13.271 -0.1113 -0.5815 -0.2029
  101TMC2    H1 1577   2.434   0.378  12.980  0.9658  0.9615 -1.3153
  101TMC2    H2 1578   2.413   0.795  13.101  0.1751 -0.1514  0.8326
  101TMC2    C7 1579   2.528   0.624  12.921  0.0374  0.1720  0.6432
  101TMC2    C8 1580   2.192   0.772  13.255 -1.2795  0.2338 -0.3584
  101TMC2    O1 1581   2.613   0.541  12.897 -0.7861 -0.2974 -0.3516
  101TMC2    O2 1582   2.104   0.740  13.338  0.3728 -0.5566 -0.1580
  101TMC2    O5 1583   2.238   0.890  13.215  0.1852  0.1612  0.8392
  101TMC2    H5 1584   2.303   0.908  13.143 -1.6292  1.8315 -0.3546
  102MPD2     C 1585   2.180   0.014  12.941  0.1429  0.7641  1.0706
  102MPD2    C1 1586   2.161   0.097  13.055 -0.0497 -0.2505  0.0014
  102MPD2    C2 1587   2.059   0.061  13.141  0.1105  0.1797  0.3047
  102MPD2    C3 1588   2.003   4.675  13.143  0.6554 -0.0048  0.4128
  102MPD2    C4 1589   2.015   4.599  13.029 -0.0289  0.1590 -0.7048
  102MPD2    C5 1590   2.105   4.638  12.929 -0.1005  0.1300 -0.2531
  102MPD2     H 1591   2.034   0.135  13.216 -0.6195  1.0979 -0.8401
  102MPD2    H1 1592   1.972   4.501  13.013  0.6477 -0.6107  2.2247
  102MPD2    H2 1593   2.262   0.027  12.871  0.4729 -1.5557  1.0512
  102MPD2    H3 1594   2.121   4.564  12.852  1.1304 -1.3931  1.4674
  102MPD2     N 1595   1.940   4.627  13.256  0.1914  0.4398 -0.2009
  102MPD2    H5 1596   1.892   4.538  13.248 -0.9194  0.9711  0.4194
  102MPD2    N1 1597   2.238   0.213  13.062 -0.4772 -0.0333  0.2033
  102MPD2    H7 1598   2.303   0.239  12.989 -0.2762 -0.6690  0.1634
  103TMC2    C1 1599   0.144   0.734  12.951 -0.1955 -0.1353  0.4623
  103TMC2    C2 1600   0.160   0.848  12.881  0.2962 -0.1882  0.3287
  103TMC2    C3 1601   0.124   0.972  12.937 -0.5828 -0.4773  0.5271
  103TMC2    C4 1602   0.088   0.740  13.081 -0.7761  0.5913  0.0336
  103TMC2    C5 1603   0.038   0.865  13.124  1.2982  0.0790 -0.6798
  103TMC2    C6 1604   0.060   0.979  13.053 -0.1888  0.8396 -0.3863
  103TMC2     C 1605   0.180   0.613  12.890  0.4475  0.3305 -0.6880
  103TMC2     O 1606   0.167   0.610  12.770  0.3961 -0.1614  0.0413
  103TMC2     H 1607   0.220   0.848  12.791 -0.9006  3.6482 -0.4715
  103TMC2    H1 1608   0.066   0.655  13.145  0.2928  1.7603  1.9671
  103TMC2    H2 1609   0.016   1.071  13.089  0.9580  1.1721  0.1597
  103TMC2    C7 1610   4.700   0.871  13.248  0.5776  0.2827  0.3918
  103TMC2    C8 1611   0.152   1.088  12.865 -1.1151 -0.0142 -0.0717
  103TMC2    O1 1612   4.723   0.785  13.332  0.6423  0.3823  0.2569
  103TMC2    O2 1613   0.173   1.080  12.744 -0.0210  0.4907 -0.6314
  103TMC2    O5 1614   0.202   1.183  12.949  0.3209  0.6345 -0.2099
  103TMC2    H5 1615   0.188   1.166  13.045  3.4823 -0.5912  0.0439
  104MPD2     C 1616   0.295   0.284  13.005  0.0602 -0.1493 -0.3819
  104MPD2    C1 1617   0.231   0.377  12.924  0.1594  0.4746  0.3644
  104MPD2    C2 1618   0.202   0.330  12.793 -0.3512 -0.3816  0.4936
  104MPD2    C3 1619   0.200   0.196  12.756  0.0069 -0.7034  0.2606
  104MPD2    C4 1620   0.269   0.107  12.835  0.4532  0.5500  0.0273
  104MPD2    C5 1621   0.318   0.153  12.955  0.1383 -0.0537  0.5519
  104MPD2     H 1622   0.166   0.401  12.719 -2.2982 -1.5206  0.3348
  104MPD2    H1 1623   0.289   0.003  12.811  0.0664  0.1236  1.5668
  104MPD2    H2 1624   0.335   0.325  13.097 -0.2502 -0.6387 -0.0296
  104MPD2    H3 1625   0.366   0.074  13.013 -0.1726 -0.5474  0.1375
  104MPD2     N 1626   0.133   0.161  12.630  0.4312 -0.0264  0.2957
  104MPD2    H5 1627   0.087   0.238  12.581  0.0337 -0.4187  0.0465
  104MPD2    N1 1628   0.207   0.509  12.971 -0.3879  1.0631 -0.3826
  104MPD2    H7 1629   0.234   0.529  13.067  1.4758  0.1346 -0.7073
  105TMC2    C1 1630   1.645   3.983  17.462 -0.0075 -1.1509 -1.1621
  105TMC2    C2 1631   1.535   3.922  17.404  0.0214  0.2650 -0.0734
  105TMC2    C3 1632   1.418   3.918  17.475 -0.1788  0.1936 -0.5989
  105TMC2    C4 1633   1.634   4.041  17.585  0.8913 -0.4407  0.5689
  105TMC2    C5 1634   1.513   4.057  17.638  0.6403  0.0312  0.2758
  105TMC2    C6 1635   1.406   3.986  17.593  0.4065 -0.1335  0.3258
  105TMC2     C 1636   1.752   4.026  17.373 -0.6580  0.2217  0.3663
  105TMC2     O 1637   1.856   3.971  17.393 -0.2545  0.0001 -0.6985
  105TMC2     H 1638   1.539   3.898  17.298 -1.8561  1.2506 -0.3706
  105TMC2    H1 1639   1.715   4.097  17.630  0.2506 -0.1596  1.3668
  105TMC2    H2 1640   1.318   3.963  17.651 -0.7885 -0.1767 -1.4851
  105TMC2    C7 1641   1.509   4.089   0.028 -0.2199 -0.3166 -0.7827
  105TMC2    C8 1642   1.310   3.822  17.439 -0.8661 -0.0061  0.4083
  105TMC2    O1 1643   1.605   4.054   0.094  0.6958  0.1060  0.0040
  105TMC2    O2 1644   1.210   3.804  17.512 -0.1944 -0.1573  0.2987
  105TMC2    O5 1645   1.348   3.740  17.339 -0.0199 -0.0728  0.1290
  105TMC2    H5 1646   1.416   3.770  17.275  1.0056  0.1672  1.3602
  106MPD2     C 1647   1.932   4.180  16.915  0.0591 -0.0639  0.2267
  106MPD2    C1 1648   1.805   4.235  16.927  0.5177 -0.2630  0.2149
  106MPD2    C2 1649   1.732   4.202  17.043  0.0102  0.1315  0.1079
  106MPD2    C3 1650   1.782   4.127  17.147  0.0394 -0.0527  0.2233
  106MPD2    C4 1651   1.913   4.084  17.134 -0.2488  0.5829  0.1106
  106MPD2    C5 1652   1.976   4.102  17.016  0.2421 -0.2834  0.6077
  106MPD2     H 1653   1.631   4.240  17.055 -0.8953 -2.2581 -0.0911
  106MPD2    H1 1654   1.969   4.030  17.210 -0.4115  1.4846  0.8740
  106MPD2    H2 1655   1.989   4.198  16.824 -0.3373 -0.2953 -0.0671
  106MPD2    H3 1656   2.082   4.084  17.021  0.4048  0.7984  1.2079
  106MPD2     N 1657   1.706   4.095  17.264 -0.4274  0.1247 -0.4253
  106MPD2    H5 1658   1.611   4.127  17.276  0.2685  2.1317 -0.2523
  106MPD2    N1 1659   1.740   4.318  16.829 -0.3755 -0.3667 -0.0200
  106MPD2    H7 1660   1.651   4.362  16.851 -0.4772  0.2282 -1.6346
  107TMC2    C1 1661   2.070   4.019  11.963  0.1525 -0.5004  0.4124
  107TMC2    C2 1662   2.138   3.909  12.013  0.9532 -0.3946 -0.2858
  107TMC2    C3 1663   2.201   3.826  11.924  0.6822  0.4216  0.2834
  107TMC2    C4 1664   2.051   4.039  11.833  0.7615  0.2855 -0.3083
  107TMC2    C5 1665   2.099   3.946  11.752 -0.1882 -0.4785 -0.1124
  107TMC2    C6 1666   2.187   3.840  11.790  0.1828 -0.2616 -0.3743
  107TMC2     C 1667   1.979   4.088  12.058  0.3575  0.1116 -0.0966
  107TMC2     O 1668   1.966   4.027  12.164 -0.0566  0.5713 -0.2222
  107TMC2     H 1669   2.146   3.894  12.120  1.3870 -1.0410 -0.4095
  107TMC2    H1 1670   1.982   4.113  11.795 -1.0790 -1.6423 -0.7642
  107TMC2    H2 1671   2.246   3.781  11.721  0.7819  2.2147 -1.9761
  107TMC2    C7 1672   2.118   4.004  11.618  0.4495 -0.9607 -0.4335
  107TMC2    C8 1673   2.301   3.738  11.984 -1.0233 -0.1896  0.3146
  107TMC2    O1 1674   2.121   4.130  11.608  0.0013 -0.2803 -0.3188
  107TMC2    O2 1675   2.341   3.629  11.937 -0.5177 -0.8716 -0.4704
  107TMC2    O5 1676   2.352   3.800  12.088  0.3730 -0.6118 -0.4449
  107TMC2    H5 1677   2.323   3.893  12.089 -0.3188 -0.8141 -3.7948
  108MPD2     C 1678   1.774   4.401  12.034 -0.1513 -0.0428  0.5349
  108MPD2    C1 1679   1.817   4.278  12.082 -0.0107 -0.4982  0.0544
  108MPD2    C2 1680   1.755   4.222  12.193 -0.0579 -0.1212 -0.3510
  108MPD2    C3 1681   1.672   4.303  12.266 -0.0186 -0.3188 -0.7172
  108MPD2    C4 1682   1.645   4.434  12.222 -0.1262 -0.2497 -0.0629
  108MPD2    C5 1683   1.689   4.480  12.100  0.2252  0.4308 -0.6295
  108MPD2     H 1684   1.766   4.120  12.226 -1.2597 -0.1507 -0.0415
  108MPD2    H1 1685   1.572   4.497  12.271 -0.3309 -1.7246  1.5204
  108MPD2    H2 1686   1.830   4.433  11.948 -1.4645  1.7678  0.3555
  108MPD2    H3 1687   1.672   4.581  12.065 -1.0509 -0.1268 -1.6112
  108MPD2     N 1688   1.602   4.264  12.378  0.4586 -0.0755  0.1233
  108MPD2    H5 1689   1.528   4.321  12.416 -0.2019 -2.2725  2.1338
  108MPD2    N1 1690   1.914   4.203  12.010  0.3875  0.1301 -0.0174
  108MPD2    H7 1691   1.958   4.250  11.932  0.6344 -2.3592 -1.3764
  109TMC2    C1 1692   2.045   2.080   0.836 -0.0813 -0.3001  0.5141
  109TMC2    C2 1693   2.066   2.201   0.780 -1.1186 -0.3697 -0.0774
  109TMC2    C3 1694   2.170   2.208   0.697  0.0888  0.7594 -0.5858
  109TMC2    C4 1695   2.132   1.975   0.813  0.2084 -0.2408  0.0073
  109TMC2    C5 1696   2.236   1.990   0.731  0.2456  0.5713 -0.7433
  109TMC2    C6 1697   2.264   2.106   0.680 -0.2818  0.3518 -0.2354
  109TMC2     C 1698   1.912   2.056   0.884  0.5440 -0.5936  0.1844
  109TMC2     O 1699   1.852   2.152   0.929 -0.0450  0.3698 -0.3169
  109TMC2     H 1700   1.986   2.274   0.775 -0.2708  0.5612 -0.1066
  109TMC2    H1 1701   2.131   1.877   0.859 -1.5604 -0.2876 -0.1279
  109TMC2    H2 1702   2.359   2.126   0.632 -0.7322 -2.3996 -2.2052
  109TMC2    C7 1703   2.354   1.900   0.762 -0.0313  0.0483  0.1532
  109TMC2    C8 1704   2.207   2.341   0.681  0.7837  0.4174  1.0196
  109TMC2    O1 1705   2.371   1.870   0.879  0.6462 -0.4517  0.3462
  109TMC2    O2 1706   2.167   2.414   0.588 -0.3026  0.6837 -0.3596
  109TMC2    O5 1707   2.209   2.378   0.809  0.1090  0.4859  0.1284
  109TMC2    H5 1708   2.246   2.301   0.857  1.5392  0.2106 -1.3926
  110MPD2     C 1709   1.567   1.718   1.092  0.5302  0.2677  0.7355
  110MPD2    C1 1710   1.656   1.655   1.009  1.1559 -0.4209 -0.1434
  110MPD2    C2 1711   1.756   1.724   0.949 -0.7996  0.6962 -0.4648
  110MPD2    C3 1712   1.773   1.860   0.958 -0.5586 -0.0160 -0.0738
  110MPD2    C4 1713   1.682   1.920   1.031 -0.5355  0.2863 -0.1063
  110MPD2    C5 1714   1.586   1.851   1.107 -0.1144  0.3884  0.4006
  110MPD2     H 1715   1.814   1.684   0.867  2.1593 -0.2099  2.0862
  110MPD2    H1 1716   1.678   2.027   1.046 -3.6493 -0.0008  1.0931
  110MPD2    H2 1717   1.481   1.672   1.139  0.5814 -0.0557  0.5175
  110MPD2    H3 1718   1.521   1.907   1.173 -1.9633  2.5922 -3.2807
  110MPD2     N 1719   1.886   1.924   0.893  0.4520 -0.9006  0.1346
  110MPD2    H5 1720   1.937   1.864   0.829 -1.4756 -0.8360 -1.4545
  110MPD2    N1 1721   1.628   1.519   0.988 -0.2955 -0.2820  0.2976
  110MPD2    H7 1722   1.536   1.490   1.018 -1.6215  2.0520 -1.5256
  111TMC2    C1 1723   2.273   1.254  12.192 -0.0126 -0.3788  1.0947
  111TMC2    C2 1724   2.205   1.215  12.306 -0.4004 -0.7357  0.0492
  111TMC2    C3 1725   2.285   1.190  12.412 -0.4488  0.3403  0.9684
  111TMC2    C4 1726   2.407   1.265  12.172 -0.1932 -0.2655 -0.2673
  111TMC2    C5 1727   2.479   1.236  12.288  0.4822 -0.4448 -0.5298
  111TMC2    C6 1728   2.419   1.196  12.398 -0.1063  0.9349 -0.5023
  111TMC2     C 1729   2.201   1.242  12.065 -0.0474 -0.2259  0.0773
  111TMC2     O 1730   2.229   1.325  11.980  0.5447 -0.6556 -0.0276
  111TMC2     H 1731   2.097   1.204  12.302 -0.4039 -0.6040 -0.2199
  111TMC2    H1 1732   2.440   1.311  12.079 -1.4139  0.1708 -0.4852
  111TMC2    H2 1733   2.475   1.184  12.490  0.8450 -1.0215 -1.3336
  111TMC2    C7 1734   2.623   1.223  12.291  0.2034  0.0544 -0.6806
  111TMC2    C8 1735   2.247   1.090  12.505 -0.0839  0.9469 -0.3220
  111TMC2    O1 1736   2.675   1.189  12.395  0.4338 -0.1351  0.0220
  111TMC2    O2 1737   2.317   0.993  12.532  0.4598  0.0819  0.1084
  111TMC2    O5 1738   2.127   1.117  12.554 -0.3513 -0.0116  0.2545
  111TMC2    H5 1739   2.088   1.202  12.523 -2.7584 -1.3227 -0.2879
  112MPD2     C 1740   1.987   0.925  11.715  0.0893  0.1576 -0.2273
  112MPD2    C1 1741   2.047   1.046  11.702 -0.4712 -0.2205  0.0817
  112MPD2    C2 1742   2.083   1.112  11.817  0.0329  0.4501  0.4744
  112MPD2    C3 1743   2.066   1.057  11.945 -0.1375  0.5460  0.4947
  112MPD2    C4 1744   2.002   0.938  11.959 -0.0031  0.2011 -0.1372
  112MPD2    C5 1745   1.953   0.879  11.847  0.3702 -0.3245 -0.1167
  112MPD2     H 1746   2.137   1.205  11.812 -2.0178  1.6842  1.1629
  112MPD2    H1 1747   1.990   0.888  12.055  1.9671  0.7325  0.3861
  112MPD2    H2 1748   1.950   0.865  11.632  0.1019 -1.2936  0.8257
  112MPD2    H3 1749   1.916   0.778  11.857 -4.4137  1.4859  0.4576
  112MPD2     N 1750   2.117   1.128  12.061 -0.2712  0.0623 -0.7206
  112MPD2    H5 1751   2.098   1.086  12.151  0.3574 -0.3353 -0.7728
  112MPD2    N1 1752   2.066   1.121  11.581  0.9449 -0.2887 -0.3747
  112MPD2    H7 1753   2.070   1.221  11.595 -6.4169 -0.1903  0.9759
  113TMC2    C1 1754   4.733   3.545   0.552 -0.3229  0.4482  0.0951
  113TMC2    C2 1755   4.608   3.574   0.501  0.0587 -0.3516 -0.3320
  113TMC2    C3 1756   4.542   3.465   0.449  0.3569  0.1064  0.3395
  113TMC2    C4 1757   0.039   3.417   0.572 -0.4457 -0.6269  0.3934
  113TMC2    C5 1758   4.700   3.317   0.521  0.5173  0.3586 -0.2928
  113TMC2    C6 1759   4.590   3.339   0.452 -0.5266 -0.4963 -0.0944
  113TMC2     C 1760   0.074   3.664   0.590 -0.1000 -0.1117 -0.1344
  113TMC2     O 1761   0.027   3.775   0.563 -0.5781 -0.2123 -0.0830
  113TMC2     H 1762   4.578   3.677   0.483 -1.9308 -0.8658  0.0178
  113TMC2    H1 1763   0.136   3.395   0.616  0.1502 -1.5639 -1.3678
  113TMC2    H2 1764   4.548   3.256   0.397 -0.9912  0.8422 -1.7838
  113TMC2    C7 1765   0.010   3.178   0.540  0.3941  0.3231  0.0744
  113TMC2    C8 1766   4.436   3.508   0.356 -0.4044 -0.3203 -0.7473
  113TMC2    O1 1767   4.720   3.099   0.452  0.6053  0.5820 -0.3560
  113TMC2    O2 1768   4.439   3.610   0.286 -0.3008 -0.1808 -0.3814
  113TMC2    O5 1769   4.357   3.398   0.331  0.0522 -0.4280  0.0009
  113TMC2    H5 1770   4.362   3.329   0.401 -1.2649  2.1175  2.6004
  114MPD2     C 1771   0.508   3.879   0.800 -0.0043 -0.1312 -0.0174
  114MPD2    C1 1772   0.392   3.934   0.745  0.0598  0.2100  0.1210
  114MPD2    C2 1773   0.290   3.857   0.690 -0.3038  0.8325  0.1246
  114MPD2    C3 1774   0.291   3.721   0.704  0.7425 -0.8917  0.4118
  114MPD2    C4 1775   0.404   3.663   0.761 -0.6033  0.0725 -0.4876
  114MPD2    C5 1776   0.502   3.743   0.819  0.1634  0.4889 -0.6042
  114MPD2     H 1777   0.208   3.903   0.637 -0.1050 -0.7750 -1.6222
  114MPD2    H1 1778   0.418   3.557   0.779 -0.6560  0.1777  0.1693
  114MPD2    H2 1779   0.583   3.936   0.853 -0.9258 -0.9406  2.1472
  114MPD2    H3 1780   0.583   3.693   0.870 -0.2218 -0.3897 -0.8571
  114MPD2     N 1781   0.189   3.632   0.663 -0.2935  0.8524  0.1254
  114MPD2    H5 1782   0.206   3.533   0.674 -0.3112  0.6273 -1.9074
  114MPD2    N1 1783   0.379   4.078   0.747 -0.8597 -0.3393  0.4148
  114MPD2    H7 1784   0.309   4.119   0.686 -0.4690  1.9694  1.5175
  115TMC2    C1 1785   1.441   1.624   0.066  0.2232 -0.2809  0.9786
  115TMC2    C2 1786   1.571   1.584   0.088 -0.1692 -0.0943  0.2120
  115TMC2    C3 1787   1.663   1.688   0.082  0.1826 -0.6541  0.7694
  115TMC2    C4 1788   1.405   1.755   0.044 -0.6441  0.2177 -0.3550
  115TMC2    C5 1789   1.497   1.852   0.050 -0.2862 -0.4379 -0.6172
  115TMC2    C6 1790   1.629   1.823   0.068 -0.9378 -0.3363  0.3457
  115TMC2     C 1791   1.327   1.534   0.073 -0.7050 -0.0687  0.1831
  115TMC2     O 1792   1.351   1.417   0.064  0.2218  0.3941  0.4342
  115TMC2     H 1793   1.590   1.479   0.104 -3.5508 -1.0968 -2.3414
  115TMC2    H1 1794   1.304   1.787   0.020 -0.0122  1.1456 -1.7259
  115TMC2    H2 1795   1.711   1.894   0.066 -2.0962  0.9749 -1.0455
  115TMC2    C7 1796   1.458   1.995   0.038  0.1241 -0.5993 -0.2592
  115TMC2    C8 1797   1.791   1.663   0.123 -0.2955  0.4611  0.5344
  115TMC2    O1 1798   1.338   2.021   0.063 -0.5876 -0.0492  0.1985
  115TMC2    O2 1799   1.879   1.748   0.110 -0.0170 -0.5175 -0.0809
  115TMC2    O5 1800   1.764   1.616   0.248 -0.0403 -0.6548 -0.6131
  115TMC2    H5 1801   1.694   1.547   0.252  0.1379 -0.7866  0.2509
  116MPD2     C 1802   0.832   1.398   0.128  0.5661 -0.1878  0.3807
  116MPD2    C1 1803   0.928   1.332   0.065 -0.3121  0.3206  1.1116
  116MPD2    C2 1804   1.054   1.391   0.054  0.4286  0.4194  0.2814
  116MPD2    C3 1805   1.080   1.527   0.090 -0.1340  0.8021  0.1635
  116MPD2    C4 1806   0.972   1.593   0.138  0.1279 -0.0390 -0.6548
  116MPD2    C5 1807   0.854   1.529   0.152 -0.7556 -1.3310  0.1608
  116MPD2     H 1808   1.136   1.335   0.009  0.2299 -0.2154  0.7040
  116MPD2    H1 1809   0.982   1.698   0.161  1.5749 -0.0169 -1.4021
  116MPD2    H2 1810   0.730   1.363   0.136 -0.1265  1.6842 -0.3570
  116MPD2    H3 1811   0.762   1.585   0.167  0.2715 -0.0350  1.5575
  116MPD2     N 1812   1.206   1.591   0.092  0.8871 -0.3125 -0.8507
  116MPD2    H5 1813   1.198   1.689   0.117  0.0766 -0.5065 -0.3686
  116MPD2    N1 1814   0.888   1.214  17.748 -0.1401 -0.6846  0.3500
  116MPD2    H7 1815   0.787   1.202   0.000 -0.1829 -0.3291  0.4153
  117TMC2    C1 1816   4.271   3.383  13.985  0.5865 -0.1916 -0.7714
  117TMC2    C2 1817   4.355   3.303  14.056 -0.4965  0.3709 -0.5342
  117TMC2    C3 1818   4.485   3.339  14.069 -0.0306 -0.3076  0.4162
  117TMC2    C4 1819   4.312   3.502  13.939  0.2055  0.3652 -0.4821
  117TMC2    C5 1820   4.447   3.545  13.961 -0.2732  0.4266 -0.7546
  117TMC2    C6 1821   4.534   3.462  14.030  0.3606  0.0639  0.2708
  117TMC2     C 1822   4.156   3.327  13.904 -0.1427  0.3315  0.3595
  117TMC2     O 1823   4.162   3.219  13.851 -0.1773  0.0665  0.7729
  117TMC2     H 1824   4.318   3.204  14.084  0.2473  0.7279  1.7488
  117TMC2    H1 1825   4.247   3.560  13.873  0.2555  1.2609  0.2502
  117TMC2    H2 1826   4.629   3.504  14.062 -0.1854  1.0326  0.6390
  117TMC2    C7 1827   4.496   3.681  13.933 -0.6710 -0.4605  0.2284
  117TMC2    C8 1828   4.572   3.253  14.148 -0.0293  0.8134  0.0833
  117TMC2    O1 1829   4.615   3.693  13.922  0.5868 -0.1974  0.1421
  117TMC2    O2 1830   4.655   3.319  14.207 -0.2841  0.4870  0.6781
  117TMC2    O5 1831   4.558   3.127  14.114  0.4595  0.1634 -0.2756
  117TMC2    H5 1832   4.510   3.120  14.029 -0.5439 -2.0535  0.4737
  118MPD2     C 1833   4.311   3.998  13.998 -0.1641  0.4436 -0.1001
  118MPD2    C1 1834   4.412   3.919  13.955  0.1853  0.2847  0.1145
  118MPD2    C2 1835   4.532   3.985  13.917  0.2640 -0.3959 -0.2095
  118MPD2    C3 1836   4.541   4.122  13.937 -1.0284 -0.8745 -0.2252
  118MPD2    C4 1837   4.431   4.196  13.973 -0.1446  0.0343 -0.3161
  118MPD2    C5 1838   4.314   4.129  13.998  0.1550 -0.0696  0.8725
  118MPD2     H 1839   4.614   3.926  13.878  2.5066  0.8299  2.6502
  118MPD2    H1 1840   4.424   4.304  13.982 -0.0373 -0.0745  1.1467
  118MPD2    H2 1841   4.228   3.958  14.056  0.4799 -2.3283 -1.1051
  118MPD2    H3 1842   4.222   4.173  14.035  1.4842  2.1425  1.5689
  118MPD2     N 1843   4.660   4.202  13.903  0.5602  0.9340 -0.3962
  118MPD2    H5 1844   4.656   4.303  13.911  0.1906  1.0337 -1.7663
  118MPD2    N1 1845   4.401   3.779  13.961  0.3914 -0.0557  0.5770
  118MPD2    H7 1846   4.304   3.755  13.979  0.3482 -2.0118 -2.2672
  119TMC2    C1 1847   2.287   3.863  13.272  0.1442  0.5965 -0.0397
  119TMC2    C2 1848   2.343   3.736  13.275 -0.0319  0.1271  0.3030
  119TMC2    C3 1849   2.355   3.679  13.393 -0.6850 -0.7710  0.3000
  119TMC2    C4 1850   2.216   3.904  13.385  0.1056  0.2356 -0.8185
  119TMC2    C5 1851   2.215   3.835  13.502 -0.4280 -0.3851 -0.0967
  119TMC2    C6 1852   2.283   3.721  13.506 -0.0692 -0.4716 -0.5022
  119TMC2     C 1853   2.317   3.957  13.166 -0.3655 -0.0014 -0.4407
  119TMC2     O 1854   2.229   4.043  13.143 -0.2292 -0.0621  0.2026
  119TMC2     H 1855   2.397   3.699  13.188 -1.4784 -0.3448 -0.3815
  119TMC2    H1 1856   2.169   4.002  13.379  0.9364  0.7927  1.5491
  119TMC2    H2 1857   2.295   3.670  13.601 -0.4380 -0.5289 -0.4892
  119TMC2    C7 1858   2.238   3.921  13.622 -0.2587 -0.0025 -0.2862
  119TMC2    C8 1859   2.422   3.557  13.409 -0.4159 -0.2281 -0.6005
  119TMC2    O1 1860   2.282   4.034  13.588  0.1218  0.1011  0.0347
  119TMC2    O2 1861   2.423   3.467  13.325 -0.3891 -0.3624  0.4546
  119TMC2    O5 1862   2.474   3.555  13.531  0.6037 -0.2414  0.4287
  119TMC2    H5 1863   2.500   3.644  13.563  0.2740  0.6906 -1.8920
  120MPD2     C 1864   2.696   4.269  13.041  0.6901  0.2758 -0.0936
  120MPD2    C1 1865   2.567   4.298  13.081  0.4261 -0.0962  0.8977
  120MPD2    C2 1866   2.485   4.194  13.102  0.6299  0.7936 -0.0016
  120MPD2    C3 1867   2.523   4.061  13.086 -0.3801 -0.2056  0.6752
  120MPD2    C4 1868   2.650   4.030  13.049 -0.3933  0.6444  0.2039
  120MPD2    C5 1869   2.728   4.132  13.023  0.3919 -0.2194 -0.1765
  120MPD2     H 1870   2.388   4.210  13.148  0.3782 -1.1923  0.1572
  120MPD2    H1 1871   2.693   3.930  13.046  1.5973  1.5583 -1.1104
  120MPD2    H2 1872   2.762   4.354  13.032  0.0962  0.8323  0.8676
  120MPD2    H3 1873   2.830   4.102  13.003  0.2898 -2.2126  2.2568
  120MPD2     N 1874   2.444   3.952  13.129 -1.0610 -0.1582  0.2168
  120MPD2    H5 1875   2.505   3.875  13.150 -1.6661 -0.7843 -0.3078
  120MPD2    N1 1876   2.534   4.434  13.102 -0.1278 -0.5966 -0.2583
  120MPD2    H7 1877   2.605   4.503  13.081 -0.1066 -0.7106 -0.5521
  121TMC2    C1 1878   4.517   1.383  14.498  0.2761  0.0433  0.4238
  121TMC2    C2 1879   4.487   1.284  14.587  0.5901  0.3833  0.4404
  121TMC2    C3 1880   4.356   1.233  14.593 -0.3235  0.0689  0.1984
  121TMC2    C4 1881   4.422   1.448  14.433  0.5881 -0.2743 -0.1788
  121TMC2    C5 1882   4.295   1.400  14.443 -0.0572  0.2609  0.3787
  121TMC2    C6 1883   4.259   1.284  14.513 -0.5816  0.2168 -0.5799
  121TMC2     C 1884   4.650   1.386  14.449 -0.0737 -0.3157 -0.5626
  121TMC2     O 1885   4.727   1.328  14.522  0.1471 -0.4357  0.7511
  121TMC2     H 1886   4.557   1.215  14.631 -1.4975 -1.6550  0.5610
  121TMC2    H1 1887   4.442   1.530  14.365  2.0240 -0.1800  0.3457
  121TMC2    H2 1888   4.162   1.237  14.501  0.1031 -1.1547 -0.7707
  121TMC2    C7 1889   4.192   1.459  14.356 -0.1605  0.3626  0.0396
  121TMC2    C8 1890   4.333   1.089  14.623 -0.2952 -0.2565  0.5996
  121TMC2    O1 1891   4.228   1.528  14.258 -0.2508  0.4429 -0.0434
  121TMC2    O2 1892   4.426   1.009  14.610  0.4418 -0.0312  0.2022
  121TMC2    O5 1893   4.213   1.068  14.669 -0.7732 -0.5606 -0.8488
  121TMC2    H5 1894   4.164   1.152  14.683  1.7972  1.0667 -1.6704
  122MPD2     C 1895   0.171   1.353  14.297 -0.4895 -0.1232 -0.3861
  122MPD2    C1 1896   0.064   1.434  14.253  0.1016 -0.9159  0.1454
  122MPD2    C2 1897   0.076   1.490  14.129 -0.2178  0.5915  0.6067
  122MPD2    C3 1898   0.200   1.493  14.059 -0.1707 -0.6740 -0.6628
  122MPD2    C4 1899   0.305   1.416  14.106 -0.2357  0.0155 -0.5318
  122MPD2    C5 1900   0.286   1.354  14.229 -0.0745  0.0332  0.0343
  122MPD2     H 1901   4.729   1.548  14.095 -0.4343 -1.3962 -2.2273
  122MPD2    H1 1902   0.407   1.416  14.068  0.3344  1.9980  1.0479
  122MPD2    H2 1903   0.165   1.297  14.390 -1.1725  1.5240  0.5634
  122MPD2    H3 1904   0.371   1.298  14.267  0.5925  1.6808  0.9538
  122MPD2     N 1905   0.214   1.549  13.937  0.4510 -0.1488  0.2355
  122MPD2    H5 1906   0.307   1.543  13.897  0.2866 -0.4725 -0.1070
  122MPD2    N1 1907   4.682   1.447  14.332  0.1908 -0.2246  0.3973
  122MPD2    H7 1908   4.613   1.508  14.289  0.0925  1.5068  2.9852
  123TMC2    C1 1909   2.891   4.728  11.102 -0.2454  0.0892  0.0611
  123TMC2    C2 1910   2.851   0.116  11.120  0.7434  0.4245  0.4079
  123TMC2    C3 1911   2.874   0.207  11.018  0.4778  0.5579  0.2019
  123TMC2    C4 1912   2.953   4.687  10.984  0.1848 -0.2117 -0.6501
  123TMC2    C5 1913   2.986   0.044  10.891 -0.0888 -0.0092  0.5417
  123TMC2    C6 1914   2.939   0.173  10.906 -1.0391  0.0825 -0.0875
  123TMC2     C 1915   2.836   4.623  11.178 -0.6847  0.7995  0.4439
  123TMC2     O 1916   2.810   4.646  11.297  0.4997  0.4444 -0.1235
  123TMC2     H 1917   2.798   0.141  11.211 -1.4941  0.3641 -0.8744
  123TMC2    H1 1918   2.999   4.589  10.974  0.2328  0.0961 -3.5911
  123TMC2    H2 1919   2.929   0.244  10.825 -0.8907  0.3854  0.1550
  123TMC2    C7 1920   3.016   4.723  10.765  0.0143  0.9880 -0.4822
  123TMC2    C8 1921   2.881   0.350  11.052  0.4052 -0.4379  0.3585
  123TMC2    O1 1922   2.982   4.605  10.756 -0.1825 -0.3553 -0.0929
  123TMC2    O2 1923   2.817   0.405  11.141 -0.1907 -0.5146  0.4184
  123TMC2    O5 1924   2.964   0.416  10.975 -0.2697 -0.4115 -0.1785
  123TMC2    H5 1925   3.011   0.364  10.906  0.5817  1.9990 -1.4415
  124MPD2     C 1926   2.488   4.248  11.144 -0.0774  0.0280  0.2474
  124MPD2    C1 1927   2.559   4.246  11.030  0.0083  0.8093 -0.7174
  124MPD2    C2 1928   2.666   4.336  11.010  0.5739 -0.1996  0.3114
  124MPD2    C3 1929   2.693   4.424  11.111  0.7942  0.5846  0.1938
  124MPD2    C4 1930   2.621   4.426  11.227  0.5149  1.2552 -0.0566
  124MPD2    C5 1931   2.517   4.338  11.245  0.0351  0.2300  0.7231
  124MPD2     H 1932   2.725   4.342  10.920 -0.5166  1.2635 -0.3074
  124MPD2    H1 1933   2.643   4.501  11.301 -1.1591  2.0717 -0.3883
  124MPD2    H2 1934   2.409   4.179  11.173  0.8963 -0.1105  2.5784
  124MPD2    H3 1935   2.473   4.330  11.344  1.8208  2.6788  1.7264
  124MPD2     N 1936   2.800   4.519  11.095  0.5820  0.0539  0.2805
  124MPD2    H5 1937   2.847   4.526  11.005  0.9462 -0.0373  0.4665
  124MPD2    N1 1938   2.507   4.160  10.927  0.3891  0.0410 -0.0036
  124MPD2    H7 1939   2.419   4.119  10.958  0.8957 -2.6365 -2.0994
  125TMC2    C1 1940   3.877   0.998  10.016 -0.2381  0.5114 -0.2014
  125TMC2    C2 1941   3.830   1.008  10.143  0.1042  0.0695 -0.4078
  125TMC2    C3 1942   3.753   0.903  10.184 -0.3532 -0.4017  0.1979
  125TMC2    C4 1943   3.871   0.892   9.931  0.2396 -0.5108  0.2846
  125TMC2    C5 1944   3.791   0.793   9.976  0.6193  0.9682  0.5115
  125TMC2    C6 1945   3.732   0.794  10.099 -0.1069 -0.2728 -0.8696
  125TMC2     C 1946   3.934   1.114   9.945 -0.0238  0.3643 -0.1304
  125TMC2     O 1947   3.999   1.099   9.846  0.6440 -0.6114  0.2832
  125TMC2     H 1948   3.852   1.097  10.201  0.3635  0.0352 -0.4519
  125TMC2    H1 1949   3.909   0.882   9.830  2.0763 -0.0024  0.9263
  125TMC2    H2 1950   3.661   0.720  10.134 -0.6629 -0.2644 -1.9594
  125TMC2    C7 1951   3.776   0.661   9.913  0.2926 -0.5315  0.3150
  125TMC2    C8 1952   3.697   0.898  10.317  0.0362 -0.1599 -0.0675
  125TMC2    O1 1953   3.670   0.601   9.938  1.3659  0.0951  0.3294
  125TMC2    O2 1954   3.665   0.802  10.386 -0.0476 -0.3176  0.2198
  125TMC2    O5 1955   3.636   1.021  10.331 -0.6151  0.0800  0.3863
  125TMC2    H5 1956   3.653   1.084  10.258  1.6492 -0.1950  0.6711
  126MPD1     C 1957   3.986   1.630   9.881  0.2191  0.8928  1.0339
  126MPD1    C1 1958   3.904   1.607   9.994  0.1575  0.1308  0.4481
  126MPD1    C2 1959   3.867   1.475  10.032  0.6016  0.6638 -0.1828
  126MPD1    C3 1960   3.929   1.370   9.963 -0.1518  0.3085 -0.1716
  126MPD1    C4 1961   4.023   1.396   9.865  1.0479 -0.0529 -0.8830
  126MPD1    C5 1962   4.048   1.525   9.819 -1.2787  0.3164 -0.7839
  126MPD1     H 1963   3.791   1.450  10.105 -0.5309  2.4464 -0.7697
  126MPD1    H1 1964   4.076   1.312   9.823  0.4838 -1.2891  0.8831
  126MPD1    H2 1965   4.009   1.727   9.837 -2.4374  1.2018  0.2836
  126MPD1    H3 1966   4.124   1.544   9.744  0.2628 -2.5744  0.0206
  126MPD1     N 1967   3.891   1.238   9.994  0.0203  0.6687 -0.2012
  126MPD1    H5 1968   3.813   1.236  10.058  0.7643 -0.6489  0.6571
  126MPD1    N1 1969   3.832   1.712  10.054 -0.4042  0.2919 -0.2442
  126MPD1    H6 1970   3.810   1.701  10.153  0.1138 -1.1513 -0.2945
  126MPD1    H7 1971   3.890   1.795  10.061 -3.3132  2.2861 -0.0452
  127TMC2    C1 1972   4.487   0.111  10.066 -0.0297 -0.4574 -0.4329
  127TMC2    C2 1973   4.544   0.008  10.132 -0.2237 -0.1045  0.6919
  127TMC2    C3 1974   4.466   4.639  10.164 -0.0596  0.1196  0.1525
  127TMC2    C4 1975   4.358   0.117  10.022  0.6394  0.1713  0.4790
  127TMC2    C5 1976   4.290   0.002  10.050  0.0881 -0.2135  0.3536
  127TMC2    C6 1977   4.341   4.629  10.114 -0.9383 -0.3205 -0.7933
  127TMC2     C 1978   4.575   0.228  10.064  0.1315 -0.0518  0.7103
  127TMC2     O 1979   4.697   0.215  10.065  0.5721 -0.7587  0.3257
  127TMC2     H 1980   4.650   4.736  10.151  0.3454  1.4980 -1.6373
  127TMC2    H1 1981   4.323   0.201   9.964  2.4810 -0.1509 -1.0853
  127TMC2    H2 1982   4.274   4.545  10.130 -1.7716  0.8452  1.8030
  127TMC2    C7 1983   4.153   4.735   9.995 -0.5045 -0.3214 -0.0752
  127TMC2    C8 1984   4.505   4.541  10.255  0.2865 -0.1233  0.0300
  127TMC2    O1 1985   4.132   0.093   9.922 -0.3729 -0.3055  0.0170
  127TMC2    O2 1986   4.615   4.522  10.295 -0.5597  0.3759  0.7056
  127TMC2    O5 1987   4.400   4.495  10.332 -0.2852 -0.4130  0.2758
  127TMC2    H5 1988   4.306   4.497  10.306 -0.7277  2.3727  2.0803
  128MPD2     C 1989   4.482   0.571  10.134 -0.1543  0.4695  0.5456
  128MPD2    C1 1990   4.570   0.475  10.084  0.1213 -0.1084 -0.4068
  128MPD2    C2 1991   4.700   0.504  10.058 -0.2414  0.0904  0.2678
  128MPD2    C3 1992   0.009   0.629  10.096  0.2608 -0.1196 -0.5702
  128MPD2    C4 1993   4.663   0.722  10.156 -0.5036 -0.1692 -0.1086
  128MPD2    C5 1994   4.531   0.693  10.164  0.4446  0.3558 -0.2141
  128MPD2     H 1995   0.021   0.425  10.013 -0.4554  0.4622 -0.6820
  128MPD2    H1 1996   4.699   0.823  10.171  0.2345 -0.0937 -2.4347
  128MPD2    H2 1997   4.374   0.564  10.128 -0.1593  0.8900  0.1016
  128MPD2    H3 1998   4.453   0.762  10.191  0.3636  0.9371 -1.9077
  128MPD2     N 1999   0.138   0.663  10.055  0.1645  0.0859  0.5952
  128MPD2    H5 2000   0.191   0.586  10.014  0.7073 -0.7091  2.8318
  128MPD2    N1 2001   4.504   0.351  10.070  0.6067 -0.2789 -0.3977
  128MPD2    H7 2002   4.404   0.339  10.083  0.0849  2.3057 -2.0796
  129TMC2    C1 2003   2.546   1.684   1.300 -0.3212 -0.4986  0.2621
  129TMC2    C2 2004   2.435   1.754   1.254  0.1706 -0.1040  1.2290
  129TMC2    C3 2005   2.331   1.698   1.187 -0.4858 -0.0397  0.7295
  129TMC2    C4 2006   2.540   1.546   1.292 -0.2970  0.7265  0.6174
  129TMC2    C5 2007   2.422   1.494   1.238 -0.0370  0.1329  0.2967
  129TMC2    C6 2008   2.316   1.562   1.190  0.4625 -0.1076 -0.2606
  129TMC2     C 2009   2.661   1.750   1.365 -0.3191  0.0861 -0.9442
  129TMC2     O 2010   2.773   1.702   1.362  0.1385 -0.4575  0.4355
  129TMC2     H 2011   2.435   1.862   1.255 -0.0583 -0.1036  1.1494
  129TMC2    H1 2012   2.633   1.492   1.309  0.1077  1.5036  0.8481
  129TMC2    H2 2013   2.232   1.516   1.138 -1.2855  0.6822  1.8396
  129TMC2    C7 2014   2.414   1.350   1.237  0.9289 -0.4979 -0.4811
  129TMC2    C8 2015   2.211   1.772   1.164  0.4061 -0.1408 -0.0546
  129TMC2    O1 2016   2.359   1.290   1.143 -0.5205  0.2544 -0.0265
  129TMC2    O2 2017   2.192   1.888   1.208 -0.2093 -0.0125 -0.3559
  129TMC2    O5 2018   2.147   1.712   1.063 -0.0312  0.0930 -0.0267
  129TMC2    H5 2019   2.201   1.640   1.023  2.2188  3.1847 -2.6098
  130MPD2     C 2020   2.610   1.994   1.644 -0.5089  0.5403  0.4369
  130MPD2    C1 2021   2.682   1.917   1.556 -1.0552 -0.1714  0.1437
  130MPD2    C2 2022   2.820   1.921   1.570 -0.1294  0.3695 -0.1155
  130MPD2    C3 2023   2.881   1.988   1.674  0.7256 -0.3231  0.0562
  130MPD2    C4 2024   2.804   2.058   1.765  0.0863 -0.2197 -0.4727
  130MPD2    C5 2025   2.666   2.062   1.743  0.2046 -0.5453  0.0208
  130MPD2     H 2026   2.879   1.873   1.493 -0.8596 -4.1320  2.0570
  130MPD2    H1 2027   2.835   2.129   1.841  0.1259  1.5311 -2.1172
  130MPD2    H2 2028   2.504   2.005   1.628 -0.1709  1.5655 -1.1000
  130MPD2    H3 2029   2.606   2.119   1.813  0.2370  1.5304 -1.6431
  130MPD2     N 2030   3.025   1.998   1.682  0.1868 -0.1637 -0.0396
  130MPD2    H5 2031   3.070   2.063   1.746  0.6590  0.4937 -1.0379
  130MPD2    N1 2032   2.615   1.846   1.452  0.7097  0.0004 -0.1675
  130MPD2    H7 2033   2.514   1.850   1.444  0.8029  0.0398 -1.2826
  131TMC2    C1 2034   2.676   0.088  10.234  0.5863 -0.3305 -0.5265
  131TMC2    C2 2035   2.655   0.204  10.300  0.5003 -0.7936 -0.1451
  131TMC2    C3 2036   2.727   0.317  10.262  0.5484 -0.0341  0.4384
  131TMC2    C4 2037   2.752   0.078  10.119  0.2562  0.1158 -0.6686
  131TMC2    C5 2038   2.823   0.191  10.082 -0.0914 -0.5736 -0.1799
  131TMC2    C6 2039   2.809   0.312  10.151 -0.2409  0.6746  0.2030
  131TMC2     C 2040   2.579   4.721  10.266 -0.0572 -0.0878  0.0212
  131TMC2     O 2041   2.555   4.698  10.380  0.4332 -0.4071 -0.1911
  131TMC2     H 2042   2.587   0.205  10.384  0.7429 -1.4615  0.0573
  131TMC2    H1 2043   2.763   4.720  10.070  0.1328 -1.1341  1.7631
  131TMC2    H2 2044   2.852   0.406  10.121  0.1956  1.3097  2.8485
  131TMC2    C7 2045   2.891   0.192   9.949  0.5659 -0.0999 -0.2726
  131TMC2    C8 2046   2.745   0.430  10.354  0.4209  0.0263  0.1517
  131TMC2    O1 2047   2.858   0.101   9.879 -0.0010  0.8229 -0.8829
  131TMC2    O2 2048   2.856   0.471  10.379 -0.5023 -0.2831  0.1125
  131TMC2    O5 2049   2.622   0.492  10.372 -0.6153 -0.7503  0.0898
  131TMC2    H5 2050   2.544   0.437  10.351 -1.8565  0.1215  2.3953
  132MPD2     C 2051   2.389   4.511  10.045 -0.1020 -0.5455  0.0568
  132MPD2    C1 2052   2.450   4.548  10.160 -0.4791  0.7072  0.0229
  132MPD2    C2 2053   2.432   4.468  10.273  0.3112  0.1003  0.3144
  132MPD2    C3 2054   2.343   4.366  10.275  1.4018 -0.4933 -0.7743
  132MPD2    C4 2055   2.271   4.329  10.160  0.2196 -0.6670  0.4205
  132MPD2    C5 2056   2.304   4.400  10.043 -0.0621  0.2532  0.2066
  132MPD2     H 2057   2.484   4.487  10.367  0.6743  0.7879 -0.0238
  132MPD2    H1 2058   2.209   4.241  10.154  0.4990 -0.8176 -0.2623
  132MPD2    H2 2059   2.407   4.571   9.956 -1.1618  0.3288  0.4362
  132MPD2    H3 2060   2.257   4.364   9.953 -1.2807  0.2646  0.8373
  132MPD2     N 2061   2.348   4.280  10.386 -0.6735  0.3846  0.3164
  132MPD2    H5 2062   2.415   4.293  10.461  2.7329  0.5577 -2.7466
  132MPD2    N1 2063   2.543   4.654  10.157 -0.2304  1.3628 -0.2129
  132MPD2    H7 2064   2.560   4.701  10.068  2.1686  3.0557  1.1416
  133TMC2    C1 2065   2.095   1.185   9.766  0.7157 -0.6374  0.7248
  133TMC2    C2 2066   2.201   1.089   9.759 -0.5252  0.2749 -0.2297
  133TMC2    C3 2067   2.326   1.122   9.807  0.4278 -0.0778 -0.8558
  133TMC2    C4 2068   2.123   1.314   9.804 -0.4162 -0.5704 -0.2914
  133TMC2    C5 2069   2.255   1.337   9.847  0.0176  0.1176 -0.7392
  133TMC2    C6 2070   2.356   1.251   9.855 -0.6064 -0.7119 -0.3001
  133TMC2     C 2071   1.960   1.138   9.777 -0.2900  0.4536  0.5185
  133TMC2     O 2072   1.940   1.017   9.761 -0.4953  0.0152 -0.2304
  133TMC2     H 2073   2.176   0.988   9.732  1.2295  0.4169 -2.3470
  133TMC2    H1 2074   2.050   1.394   9.801 -1.0614 -1.2050 -1.4904
  133TMC2    H2 2075   2.460   1.277   9.870  0.0519 -3.7461  0.3414
  133TMC2    C7 2076   2.278   1.478   9.887  0.1888  0.1732  0.0282
  133TMC2    C8 2077   2.417   1.014   9.843  0.2659  0.1305  0.4241
  133TMC2    O1 2078   2.200   1.563   9.853  0.1586  0.2045  0.2144
  133TMC2    O2 2079   2.514   1.037   9.917  0.0480 -0.8924 -0.0175
  133TMC2    O5 2080   2.346   0.904   9.867 -0.1345 -0.1584 -0.4037
  133TMC2    H5 2081   2.282   0.882   9.795 -1.2585  0.2175  0.4747
  134MPD2     C 2082   1.659   1.344   9.837  0.0306  0.3342 -0.7246
  134MPD2    C1 2083   1.727   1.223   9.837  0.1069  0.2474 -0.3352
  134MPD2    C2 2084   1.659   1.103   9.855  0.4166  0.4217 -0.1718
  134MPD2    C3 2085   1.522   1.104   9.860  0.9319  0.0433 -0.5545
  134MPD2    C4 2086   1.458   1.228   9.871 -0.2497  0.5962  0.6633
  134MPD2    C5 2087   1.525   1.349   9.871  0.3744 -0.1904  0.5501
  134MPD2     H 2088   1.714   1.010   9.848  0.2785  0.3051  0.2780
  134MPD2    H1 2089   1.352   1.240   9.888 -0.4948  2.1314 -1.9236
  134MPD2    H2 2090   1.714   1.436   9.822  3.2605 -1.6030 -0.8896
  134MPD2    H3 2091   1.475   1.445   9.875 -1.8740 -1.2076 -2.7570
  134MPD2     N 2092   1.444   0.989   9.873 -0.0441  0.1077  0.3853
  134MPD2    H5 2093   1.344   1.000   9.885 -0.1835 -1.9266  1.1109
  134MPD2    N1 2094   1.872   1.231   9.818  0.3434 -0.2982 -0.1268
  134MPD2    H7 2095   1.913   1.323   9.820  1.1126 -0.6534  0.4478
  135TMC2    C1 2096   4.027   2.117   9.392 -0.3686 -0.2009  0.0145
  135TMC2    C2 2097   3.958   2.013   9.329  0.6882 -0.3647  0.4263
  135TMC2    C3 2098   3.825   2.018   9.360  0.3819 -0.1165  0.0420
  135TMC2    C4 2099   3.966   2.220   9.461 -0.1922 -0.2147  0.6477
  135TMC2    C5 2100   3.830   2.216   9.473  0.1410  0.1491  0.3429
  135TMC2    C6 2101   3.757   2.109   9.431 -0.5113  0.5333 -0.5076
  135TMC2     C 2102   4.178   2.107   9.395  0.1414  0.3875 -0.4318
  135TMC2     O 2103   4.235   2.206   9.437 -0.0821  0.3063 -0.6553
  135TMC2     H 2104   3.993   1.937   9.260  1.7833 -0.2876  0.8961
  135TMC2    H1 2105   4.012   2.306   9.508 -0.7122  0.1755  0.4422
  135TMC2    H2 2106   3.649   2.108   9.422 -0.5343  1.3397 -0.3631
  135TMC2    C7 2107   3.785   2.276   9.595 -0.1241 -0.0001  0.8269
  135TMC2    C8 2108   3.742   1.926   9.286 -0.0358  0.1517 -0.3082
  135TMC2    O1 2109   3.825   2.390   9.612 -0.1554 -0.2230  0.0984
  135TMC2    O2 2110   3.755   1.883   9.174 -0.2707 -0.2775 -0.4044
  135TMC2    O5 2111   3.672   1.866   9.382  0.4571 -0.9539  0.6164
  135TMC2    H5 2112   3.695   1.902   9.470 -1.3449  1.6114  0.0357
  136MPD2     C 2113   4.465   2.038   9.324 -0.1150  0.0411  0.4613
  136MPD2    C1 2114   4.359   1.949   9.341  0.3510 -0.3782 -0.1697
  136MPD2    C2 2115   4.386   1.816   9.320  0.2843 -0.3664  0.4176
  136MPD2    C3 2116   4.510   1.774   9.287  0.1618 -0.4127  0.0045
  136MPD2    C4 2117   4.611   1.860   9.269 -0.6941 -0.4943  0.1966
  136MPD2    C5 2118   4.588   1.992   9.285 -0.5195 -0.5811  0.1009
  136MPD2     H 2119   4.312   1.749   9.362 -0.8304  0.5579 -0.1086
  136MPD2    H1 2120   4.713   1.835   9.245 -0.2641  0.9869  0.5190
  136MPD2    H2 2121   4.460   2.146   9.333  0.2151  0.2266 -1.7045
  136MPD2    H3 2122   4.661   2.072   9.283  0.0617 -1.1442 -1.1173
  136MPD2     N 2123   4.544   1.639   9.279 -0.4278 -0.4274 -0.3424
  136MPD2    H5 2124   4.642   1.615   9.270 -0.2258 -0.2624  1.3454
  136MPD2    N1 2125   4.222   1.980   9.363 -0.0741  0.3530  0.1457
  136MPD2    H7 2126   4.153   1.910   9.337  0.1515  0.6728 -1.3047
  137TMC2    C1 2127   4.470   0.824   9.278  0.0876  0.3261  0.2957
  137TMC2    C2 2128   4.556   0.816   9.167  0.1044 -0.0022 -0.3900
  137TMC2    C3 2129   4.531   0.733   9.066 -0.0094  0.5737  0.4093
  137TMC2    C4 2130   4.351   0.757   9.272  0.0690  0.7019 -0.0119
  137TMC2    C5 2131   4.334   0.666   9.167 -0.3437  0.3268 -0.0993
  137TMC2    C6 2132   4.421   0.645   9.062 -0.2348  0.3423  0.4049
  137TMC2     C 2133   4.490   0.906   9.390 -0.1230 -0.2023  0.0626
  137TMC2     O 2134   4.407   0.895   9.478 -0.4599  0.3786 -0.2216
  137TMC2     H 2135   4.646   0.878   9.164 -0.6941  1.1492 -0.5066
  137TMC2    H1 2136   4.287   0.757   9.360  1.2447 -1.3754  0.8374
  137TMC2    H2 2137   4.417   0.566   8.987 -2.6195  0.1024  0.8027
  137TMC2    C7 2138   4.216   0.579   9.168 -0.7209 -0.4780 -0.3563
  137TMC2    C8 2139   4.628   0.751   8.961 -0.6757  0.3904 -0.1245
  137TMC2    O1 2140   4.204   0.497   9.073 -0.3905  0.3345 -0.0340
  137TMC2    O2 2141   0.009   0.773   8.979 -0.2326 -0.4826  0.2770
  137TMC2    O5 2142   4.574   0.714   8.846 -0.2683 -0.3587  0.5100
  137TMC2    H5 2143   4.477   0.702   8.851 -0.0259 -2.7556 -0.3683
  138MPD2     C 2144   0.025   1.126   9.510 -0.8295 -0.0068 -0.3073
  138MPD2    C1 2145   4.629   1.084   9.487 -0.7768  0.0110 -0.0695
  138MPD2    C2 2146   4.527   1.140   9.570  0.9518 -0.1517  0.0156
  138MPD2    C3 2147   4.553   1.238   9.662 -0.1214  0.3328  1.0976
  138MPD2    C4 2148   4.684   1.278   9.682  0.1170  1.1560  0.3727
  138MPD2    C5 2149   0.048   1.218   9.612  0.7559 -0.1132 -0.4585
  138MPD2     H 2150   4.424   1.105   9.565  0.7109  0.2454  1.8835
  138MPD2    H1 2151   4.723   1.353   9.749  3.0999 -0.2706  0.1963
  138MPD2    H2 2152   0.110   1.093   9.450 -1.5316  1.8177 -2.3082
  138MPD2    H3 2153   0.148   1.252   9.633 -0.2280  1.8076  1.1499
  138MPD2     N 2154   4.454   1.290   9.748 -0.2067 -0.1175 -0.1322
  138MPD2    H5 2155   4.368   1.237   9.750  0.3786 -0.9474  2.6042
  138MPD2    N1 2156   4.609   0.982   9.391 -0.0829  0.3947  0.1172
  138MPD2    H7 2157   4.685   0.963   9.328 -0.2692 -1.1504  0.3565
  139TMC2    C1 2158   4.309   4.205  13.637 -0.5093  0.4414 -0.0041
  139TMC2    C2 2159   4.416   4.290  13.649 -0.6845  0.6935  0.5391
  139TMC2    C3 2160   4.399   4.422  13.678 -0.4929  0.2243  0.0347
  139TMC2    C4 2161   4.175   4.247  13.652  0.9912  0.2350  0.1694
  139TMC2    C5 2162   4.165   4.378  13.692  0.3785 -0.3448  0.3035
  139TMC2    C6 2163   4.275   4.463  13.706  0.1142  0.5098 -0.2962
  139TMC2     C 2164   4.345   4.066  13.610 -0.2289 -0.3766  0.4234
  139TMC2     O 2165   4.465   4.044  13.604  0.4954  0.3036  0.0930
  139TMC2     H 2166   4.517   4.252  13.650 -0.7545  0.5121  0.7052
  139TMC2    H1 2167   4.100   4.171  13.634  1.2705  0.2522 -1.0577
  139TMC2    H2 2168   4.266   4.565  13.742 -1.0352 -0.4131  2.0257
  139TMC2    C7 2169   4.030   4.440  13.714 -0.0260 -0.2725 -0.2852
  139TMC2    C8 2170   4.509   4.488  13.733 -0.6153 -0.2836 -0.9533
  139TMC2    O1 2171   4.029   4.547  13.772 -0.0332 -0.2976 -0.0010
  139TMC2    O2 2172   4.526   4.490  13.855  0.0404 -0.2699 -0.4246
  139TMC2    O5 2173   4.613   4.485  13.650  0.0722 -0.1996 -0.4011
  139TMC2    H5 2174   4.579   4.444  13.567  1.2995 -1.2791 -0.3726
  140MPD2     C 2175   4.141   3.767  13.622 -0.1106 -0.0666 -0.6628
  140MPD2    C1 2176   4.261   3.832  13.615 -0.3062  0.4582  0.6675
  140MPD2    C2 2177   4.379   3.766  13.604  0.1203 -0.1336 -0.4635
  140MPD2    C3 2178   4.378   3.625  13.610  0.3443 -0.5530  0.8054
  140MPD2    C4 2179   4.258   3.558  13.627 -0.0823  0.2995  0.1184
  140MPD2    C5 2180   4.146   3.630  13.611  0.4078 -0.7349 -0.1728
  140MPD2     H 2181   4.471   3.822  13.593 -1.2279  2.2017  0.4102
  140MPD2    H1 2182   4.242   3.451  13.623  0.6045  0.1580  1.3915
  140MPD2    H2 2183   4.045   3.817  13.616  0.6846  1.8806  3.1568
  140MPD2    H3 2184   4.050   3.579  13.610 -0.3962  0.8217 -1.7535
  140MPD2     N 2185   4.507   3.567  13.605 -0.0044 -0.0901  0.2783
  140MPD2    H5 2186   4.583   3.630  13.581  0.2761 -0.7793 -0.6272
  140MPD2    N1 2187   4.244   3.972  13.617 -0.9202  0.1490 -0.8725
  140MPD2    H7 2188   4.150   3.995  13.646 -1.0646 -1.0590 -0.3646
  141TMC2    C1 2189   0.238   0.174  14.549 -0.2054  0.7442  0.2024
  141TMC2    C2 2190   0.228   0.040  14.531  0.1485  0.0398  0.2064
  141TMC2    C3 2191   0.280   4.697  14.633 -0.4698  0.3250 -0.1595
  141TMC2    C4 2192   0.302   0.226  14.652 -0.1158 -0.1124  0.0541
  141TMC2    C5 2193   0.353   0.144  14.751 -0.9153 -0.0547  0.2865
  141TMC2    C6 2194   0.343   0.003  14.738 -0.5497 -0.4703 -0.0379
  141TMC2     C 2195   0.177   0.268  14.453 -0.4908 -0.2972 -0.8084
  141TMC2     O 2196   0.154   0.384  14.485 -0.0130  0.9076  0.4097
  141TMC2     H 2197   0.172   4.730  14.452  2.0989 -1.0449 -0.5200
  141TMC2    H1 2198   0.305   0.333  14.663  0.4468 -0.3427  2.1469
  141TMC2    H2 2199   0.392   4.675  14.809 -2.1144 -1.1597  0.3922
  141TMC2    C7 2200   0.404   0.197  14.875 -0.4514  0.2998 -0.2907
  141TMC2    C8 2201   0.258   4.552  14.629 -0.4556 -0.3373  0.5692
  141TMC2    O1 2202   0.411   0.110  14.966  0.4185 -0.3151 -0.6005
  141TMC2    O2 2203   0.339   4.474  14.678 -0.0988  0.3370  0.9118
  141TMC2    O5 2204   0.125   4.531  14.618  0.5272  0.0336  0.3818
  141TMC2    H5 2205   0.077   4.616  14.608 -0.0843 -0.5639 -1.6953
  142TMC2    C1 2206   2.698   4.172  10.232  0.1345 -0.1267  1.1069
  142TMC2    C2 2207   2.669   4.195  10.100 -0.5309 -1.4692  0.2261
  142TMC2    C3 2208   2.703   4.324  10.061  0.0118 -0.4093 -0.6230
  142TMC2    C4 2209   2.767   4.259  10.314  0.3491 -0.3470 -0.6405
  142TMC2    C5 2210   2.801   4.375  10.258  0.2207  0.7305 -0.0428
  142TMC2    C6 2211   2.765   4.418  10.139 -0.0180  0.0175 -0.2126
  142TMC2     C 2212   2.669   4.040  10.285 -0.8481  0.1095  0.3120
  142TMC2     O 2213   2.594   3.972  10.215  0.1347  0.7558  0.1286
  142TMC2     H 2214   2.626   4.117  10.037  0.0671 -2.4763  1.0632
  142TMC2    H1 2215   2.796   4.228  10.414 -0.0829  0.3161 -0.3115
  142TMC2    H2 2216   2.764   4.520  10.103 -0.4079  0.2759  0.5245
  142TMC2    C7 2217   2.880   4.462  10.346  0.0894  0.2496 -0.1193
  142TMC2    C8 2218   2.706   4.355   9.920 -0.2308  0.0173 -0.4361
  142TMC2    O1 2219   2.878   4.431  10.465 -0.2953  0.1388 -0.5448
  142TMC2    O2 2220   2.673   4.470   9.883 -0.3232  0.3284 -0.2799
  142TMC2    O5 2221   2.809   4.282   9.863  0.4159  0.0262  0.3396
  142TMC2    H5 2222   2.823   4.195   9.906 -0.2593 -0.1232  0.2634
  143MPD2     C 2223   2.639   3.694  10.657  0.2549 -0.0100 -0.2984
  143MPD2    C1 2224   2.549   3.724  10.554  0.0012  0.2149 -0.2879
  143MPD2    C2 2225   2.575   3.818  10.462  0.6958 -0.5765 -0.3217
  143MPD2    C3 2226   2.691   3.893  10.479  0.0932 -0.1714 -0.0677
  143MPD2    C4 2227   2.776   3.871  10.591  0.2804 -0.5562 -0.8811
  143MPD2    C5 2228   2.753   3.768  10.678 -0.5327 -0.5665  0.2912
  143MPD2     H 2229   2.511   3.834  10.376 -0.7847 -0.8651  0.7152
  143MPD2    H1 2230   2.859   3.935  10.622  0.7741 -0.5502 -2.2021
  143MPD2    H2 2231   2.617   3.614  10.727 -1.0349  1.2106  0.6714
  143MPD2    H3 2232   2.819   3.752  10.763  1.3068  0.4117 -0.9323
  143MPD2     N 2233   2.729   4.003  10.401  0.1978 -0.3217 -0.2118
  143MPD2    H5 2234   2.806   4.062  10.430  0.9166 -1.4101  0.1311
  143MPD2    N1 2235   2.433   3.643  10.539 -0.4517 -0.4734 -0.2191
  143MPD2    H7 2236   2.431   3.555  10.590  0.8004  0.1813  0.9590
  144TMC2    C1 2237   0.942   2.299   0.631 -0.7546 -0.5280 -0.9796
  144TMC2    C2 2238   1.022   2.236   0.542 -0.0506 -0.3066 -0.1223
  144TMC2    C3 2239   1.157   2.217   0.575  0.6202  0.3976 -0.2374
  144TMC2    C4 2240   0.988   2.351   0.755  0.1305  0.4096  0.0823
  144TMC2    C5 2241   1.124   2.327   0.779  0.0736  0.0235 -0.0274
  144TMC2    C6 2242   1.213   2.260   0.692  0.5381 -0.1346 -0.1142
  144TMC2     C 2243   0.800   2.320   0.594  0.9012 -0.5806 -0.4188
  144TMC2     O 2244   0.771   2.267   0.485 -0.0309  0.3947  0.4102
  144TMC2     H 2245   0.989   2.201   0.445  1.9460 -1.2333 -0.4562
  144TMC2    H1 2246   0.914   2.371   0.831 -0.3753 -0.7865 -0.0847
  144TMC2    H2 2247   1.320   2.260   0.711  0.1899  0.8760  1.8015
  144TMC2    C7 2248   1.190   2.389   0.896  0.0484  0.2183 -0.2340
  144TMC2    C8 2249   1.241   2.190   0.464  0.6910 -0.0628  0.8643
  144TMC2    O1 2250   1.296   2.332   0.929  0.2726 -0.1531  0.3313
  144TMC2    O2 2251   1.196   2.150   0.358  0.1266  0.1506  0.3030
  144TMC2    O5 2252   1.349   2.268   0.479  0.0221  0.3544 -0.0110
  144TMC2    H5 2253   1.403   2.239   0.556  0.3758  3.3460  0.8496
  145MPD2     C 2254   0.307   2.500   0.604  0.1318  0.2452  0.1724
  145MPD2    C1 2255   0.390   2.466   0.502 -0.1140 -0.9042 -0.1916
  145MPD2    C2 2256   0.524   2.427   0.527  0.0292  0.4239 -0.4288
  145MPD2    C3 2257   0.574   2.417   0.657 -0.1023  0.2042  0.2828
  145MPD2    C4 2258   0.493   2.471   0.757  0.2423 -0.2097 -0.1198
  145MPD2    C5 2259   0.360   2.514   0.731  0.2181  0.7363 -0.0793
  145MPD2     H 2260   0.590   2.405   0.444  0.5417  0.7941 -0.1192
  145MPD2    H1 2261   0.535   2.461   0.856 -0.5497 -2.2186  0.0244
  145MPD2    H2 2262   0.206   2.526   0.576 -0.2095 -0.1278  1.0627
  145MPD2    H3 2263   0.290   2.553   0.803 -1.8761  0.0450 -1.7546
  145MPD2     N 2264   0.710   2.379   0.683  0.6241 -0.0491 -0.1363
  145MPD2    H5 2265   0.754   2.423   0.764  2.1767 -2.5317  0.3845
  145MPD2    N1 2266   0.355   2.454   0.364  0.1743 -0.0349 -0.2058
  145MPD2    H7 2267   0.419   2.394   0.313  0.6623  1.3561 -1.2420
  146TMC2    C1 2268   3.069   1.485  12.194 -0.3523 -0.1846 -0.1586
  146TMC2    C2 2269   3.134   1.452  12.076  0.2885  0.0929 -0.3627
  146TMC2    C3 2270   3.268   1.406  12.087 -0.8556  0.3051  0.4012
  146TMC2    C4 2271   3.128   1.474  12.315  0.2315  0.9846  0.0359
  146TMC2    C5 2272   3.258   1.433  12.322  0.0174  0.4056  0.7526
  146TMC2    C6 2273   3.326   1.399  12.212  0.1427  0.2500 -0.2459
  146TMC2     C 2274   2.935   1.551  12.175 -0.0270 -0.4910 -0.8017
  146TMC2     O 2275   2.910   1.594  12.067 -0.3181 -0.9027 -0.0752
  146TMC2     H 2276   3.086   1.443  11.979  0.3215  1.5497 -0.5099
  146TMC2    H1 2277   3.090   1.529  12.401 -0.0060 -2.3496  2.0870
  146TMC2    H2 2278   3.430   1.372  12.225  0.1597  1.7239  2.7388
  146TMC2    C7 2279   3.324   1.448  12.448 -0.3498 -0.3243 -0.2495
  146TMC2    C8 2280   3.342   1.347  11.982 -0.1041  0.9125  0.7319
  146TMC2    O1 2281   3.447   1.454  12.445  0.3963 -0.1144  0.1379
  146TMC2    O2 2282   3.450   1.288  11.996  0.5413  0.2500  0.0907
  146TMC2    O5 2283   3.262   1.336  11.876  0.4560 -0.7248  0.2727
  146TMC2    H5 2284   3.178   1.387  11.874  0.6890 -0.3603 -0.4243
  147MPD2     C 2285   3.353   1.356  12.957 -0.0581  0.0354  0.4930
  147MPD2    C1 2286   3.236   1.303  12.906  1.0298  0.1588 -0.2955
  147MPD2    C2 2287   3.209   1.326  12.772 -0.5469  0.0879 -0.3240
  147MPD2    C3 2288   3.288   1.398  12.686  0.0608 -0.3619  0.2366
  147MPD2    C4 2289   3.407   1.445  12.735 -0.3689 -0.0828 -0.1669
  147MPD2    C5 2290   3.439   1.432  12.877 -0.1660 -0.3806  0.1435
  147MPD2     H 2291   3.114   1.292  12.734 -1.5735  0.9403  1.4525
  147MPD2    H1 2292   3.468   1.511  12.674 -0.2723  0.3757  0.4209
  147MPD2    H2 2293   3.370   1.346  13.064  1.1081 -0.7327  0.2322
  147MPD2    H3 2294   3.524   1.487  12.915  0.4538 -0.7952 -0.6433
  147MPD2     N 2295   3.241   1.413  12.550  0.7524 -0.0427  0.0761
  147MPD2    H5 2296   3.143   1.392  12.536  1.0084 -1.1173 -0.0625
  147MPD2    N1 2297   3.171   1.213  12.992 -0.2822 -0.5088  0.3278
  147MPD2    H7 2298   3.206   1.209  13.087 -0.6033  0.4652  0.4850
  148TMC2    C1 2299   2.363   0.737  11.020  0.8138  0.2466 -0.3799
  148TMC2    C2 2300   2.428   0.817  11.103  0.3453  0.6975 -0.5626
  148TMC2    C3 2301   2.560   0.824  11.084 -0.2058  0.1483 -0.1738
  148TMC2    C4 2302   2.431   0.653  10.933  0.6877 -0.3708  0.4882
  148TMC2    C5 2303   2.565   0.648  10.932  0.2254 -0.0919  0.2324
  148TMC2    C6 2304   2.630   0.733  11.010 -0.1555  0.6172  0.7711
  148TMC2     C 2305   2.218   0.752  11.004 -0.1943 -0.4179  0.0697
  148TMC2     O 2306   2.163   0.849  11.055  0.1030 -0.2990  0.2600
  148TMC2     H 2307   2.364   0.885  11.158  0.2735 -0.9405  1.3878
  148TMC2    H1 2308   2.388   0.597  10.851  1.4084  0.0404 -0.1725
  148TMC2    H2 2309   2.739   0.733  11.006 -0.1534 -2.3613  0.6543
  148TMC2    C7 2310   2.638   0.553  10.848 -0.3914  0.4508  0.0796
  148TMC2    C8 2311   2.634   0.872  11.196  0.0375  0.5403  0.1546
  148TMC2    O1 2312   2.735   0.608  10.795  0.0108  0.0609 -0.1191
  148TMC2    O2 2313   2.722   0.804  11.245  0.7308  0.0557  0.3019
  148TMC2    O5 2314   2.652   0.999  11.157  0.0713 -0.2601 -0.4826
  148TMC2    H5 2315   2.566   1.039  11.133 -1.2323 -2.0972  1.1446
  149MPD2     C 2316   1.960   0.744  10.892  0.0818  0.7267  0.1456
  149MPD2    C1 2317   2.030   0.629  10.922  0.1059  0.0901 -0.2574
  149MPD2    C2 2318   1.976   0.506  10.890 -0.1682 -0.1278 -0.3813
  149MPD2    C3 2319   1.840   0.494  10.857 -0.0360  0.3618  0.3458
  149MPD2    C4 2320   1.768   0.610  10.845  0.5758 -0.2547  0.2641
  149MPD2    C5 2321   1.829   0.736  10.854  0.1210  0.3557 -0.4632
  149MPD2     H 2322   2.028   0.412  10.896  1.9531  0.9653 -1.5775
  149MPD2    H1 2323   1.664   0.617  10.815  0.8327 -0.9233 -0.8032
  149MPD2    H2 2324   2.001   0.844  10.893  0.0955  0.7441 -1.9797
  149MPD2    H3 2325   1.771   0.826  10.839 -1.3194 -0.7345 -1.5105
  149MPD2     N 2326   1.767   0.371  10.832 -0.3201 -0.2952  0.3672
  149MPD2    H5 2327   1.668   0.387  10.818  0.1782  1.0139 -1.6851
  149MPD2    N1 2328   2.161   0.634  10.961  0.0054 -0.1926  0.5187
  149MPD2    H7 2329   2.223   0.554  10.955  1.0856  0.8357 -1.8588
  150TMC2    C1 2330   4.172   4.637  12.629  0.2093  0.3095  0.1293
  150TMC2    C2 2331   4.153   4.726  12.530 -0.1392  0.0784  0.6202
  150TMC2    C3 2332   4.250   0.089  12.518 -0.0432 -0.4251  0.6238
  150TMC2    C4 2333   4.287   4.629  12.704 -0.0534  0.4899 -0.2032
  150TMC2    C5 2334   4.381   4.728  12.683  0.0628  0.0586  0.1543
  150TMC2    C6 2335   4.368   0.083  12.585  0.2844 -0.1163 -0.1810
  150TMC2     C 2336   4.074   4.537  12.653 -0.7600  0.3000 -0.3907
  150TMC2     O 2337   4.103   4.455  12.740 -0.0969  0.5656  0.1734
  150TMC2     H 2338   4.063   4.730  12.471  0.3522 -1.8970 -0.2717
  150TMC2    H1 2339   4.295   4.580  12.801  0.5928 -0.0582 -0.5324
  150TMC2    H2 2340   4.435   0.168  12.570 -2.2093  1.5619 -1.6922
  150TMC2    C7 2341   4.500   4.722  12.762 -0.1938 -0.5062  0.3258
  150TMC2    C8 2342   4.231   0.195  12.427 -0.4671 -0.5168 -0.0056
  150TMC2    O1 2343   4.575   0.082  12.768  0.2594  0.0122  0.2714
  150TMC2    O2 2344   4.326   0.256  12.388 -0.7712 -0.0789  0.0548
  150TMC2    O5 2345   4.105   0.249  12.436 -0.8410  0.1277  0.3646
  150TMC2    H5 2346   4.037   0.192  12.477 -2.0442  0.3547 -1.3088
  151MPD2     C 2347   3.623   4.296  12.576  0.0051 -0.0785 -0.5459
  151MPD2    C1 2348   3.643   4.388  12.474  0.2194 -0.7363  0.0571
  151MPD2    C2 2349   3.763   4.458  12.465  0.3724  0.0064 -0.5538
  151MPD2    C3 2350   3.863   4.441  12.559  0.3382  0.0104 -0.1141
  151MPD2    C4 2351   3.844   4.349  12.655 -0.1972 -0.6920  0.1816
  151MPD2    C5 2352   3.732   4.270  12.657  0.0952  0.0129  1.0475
  151MPD2     H 2353   3.777   4.537  12.391  0.3546  0.4480 -0.0873
  151MPD2    H1 2354   3.913   4.337  12.738 -0.5065  1.3235  0.7165
  151MPD2    H2 2355   3.536   4.234  12.595 -1.1980  1.5470 -0.8531
  151MPD2    H3 2356   3.732   4.203  12.742 -0.5824  0.7383  1.6242
  151MPD2     N 2357   3.965   4.539  12.563 -0.7381 -0.1207 -0.0439
  151MPD2    H5 2358   3.967   4.612  12.493 -0.3434 -3.0895 -3.1269
  151MPD2    N1 2359   3.544   4.411  12.380  0.2957 -0.5681  0.2359
  151MPD2    H7 2360   3.573   4.455  12.293 -0.0938 -1.1811 -0.2101
  152TMC2    C1 2361   3.582   4.483  12.972  0.8138  1.0378 -0.2699
  152TMC2    C2 2362   3.627   4.372  13.038 -0.1904  0.2324 -1.1277
  152TMC2    C3 2363   3.760   4.365  13.057  0.5175  0.1899  0.4562
  152TMC2    C4 2364   3.668   4.587  12.934 -0.6571 -0.2005  0.2407
  152TMC2    C5 2365   3.803   4.578  12.962  0.8875  0.1343  0.8890
  152TMC2    C6 2366   3.848   4.460  13.022  0.5431  0.1896 -0.1834
  152TMC2     C 2367   3.438   4.501  12.962 -0.0847 -0.2082 -0.5024
  152TMC2     O 2368   3.398   4.543  12.857 -0.1853 -0.2487 -0.2812
  152TMC2     H 2369   3.552   4.295  13.052 -0.0659 -0.2806 -3.3702
  152TMC2    H1 2370   3.632   4.664  12.868 -0.7952 -0.9645 -0.5841
  152TMC2    H2 2371   3.954   4.438  13.026 -0.0012 -1.7885  4.3482
  152TMC2    C7 2372   3.896   4.691  12.926 -0.0810 -0.7207  0.2684
  152TMC2    C8 2373   3.812   4.250  13.128  0.1435  0.2043  0.5357
  152TMC2    O1 2374   3.845   0.024  12.842  0.1851 -0.0058  0.8825
  152TMC2    O2 2375   3.933   4.225  13.132  0.6409 -0.4999 -0.0158
  152TMC2    O5 2376   3.728   4.251  13.239 -0.6503  0.2312 -0.6719
  152TMC2    H5 2377   3.634   4.277  13.230 -0.2729  2.2914  1.4452
  153MPD2     C 2378   3.197   4.520  13.242 -0.7684 -0.1442 -0.0233
  153MPD2    C1 2379   3.231   4.505  13.105 -0.1604  0.2147  0.0006
  153MPD2    C2 2380   3.140   4.538  12.999  0.1186 -0.6790  0.1236
  153MPD2    C3 2381   3.016   4.577  13.037 -0.8737 -0.3611 -0.4409
  153MPD2    C4 2382   2.977   4.577  13.168 -0.4209  0.7239  0.0881
  153MPD2    C5 2383   3.068   4.547  13.270 -0.0828  0.0759 -0.2137
  153MPD2     H 2384   3.158   4.539  12.892  2.8370 -0.0883  0.5660
  153MPD2    H1 2385   2.879   4.611  13.203 -1.0405 -1.0062  0.0262
  153MPD2    H2 2386   3.266   4.500  13.324  0.3251 -0.4210 -1.0073
  153MPD2    H3 2387   3.037   4.564  13.373 -0.2013  0.7503 -0.3565
  153MPD2     N 2388   2.932   4.624  12.936  0.3860 -0.2207 -0.6487
  153MPD2    H5 2389   2.970   4.638  12.842 -1.1670  3.3651 -0.7344
  153MPD2    N1 2390   3.374   4.498  13.083  0.0482 -0.4658  0.2466
  153MPD2    H7 2391   3.440   4.485  13.158  0.8806  0.5031 -0.3161
  154TMC2    C1 2392   0.601   4.080   0.465  0.0816 -0.4038 -0.1275
  154TMC2    C2 2393   0.646   4.197   0.493 -0.0162  0.0096 -0.2400
  154TMC2    C3 2394   0.748   4.205   0.580  0.6224  0.2688 -0.2727
  154TMC2    C4 2395   0.652   3.972   0.530 -0.2786  0.2229  0.3212
  154TMC2    C5 2396   0.755   3.981   0.621  0.3086 -0.7624 -0.2517
  154TMC2    C6 2397   0.815   4.101   0.634  0.5630 -0.4810 -0.5804
  154TMC2     C 2398   0.488   4.064   0.378 -0.1180 -0.9345  0.3647
  154TMC2     O 2399   0.423   4.163   0.345 -0.4226  0.3408 -0.2217
  154TMC2     H 2400   0.622   4.289   0.441  0.1733 -0.3137 -0.9081
  154TMC2    H1 2401   0.612   3.871   0.523  1.6424 -0.4072 -1.7363
  154TMC2    H2 2402   0.894   4.125   0.704  1.4003 -0.4272 -1.5427
  154TMC2    C7 2403   0.817   3.856   0.680 -0.9521  0.1327  0.2526
  154TMC2    C8 2404   0.811   4.333   0.591  0.2738  0.1252 -0.0334
  154TMC2    O1 2405   0.759   3.750   0.656 -0.4812 -0.3733 -0.0397
  154TMC2    O2 2406   0.755   4.443   0.598  0.1239 -0.1492  0.5036
  154TMC2    O5 2407   0.935   4.314   0.551  0.2774  0.2509  0.0527
  154TMC2    H5 2408   0.941   4.218   0.532  0.1001  0.4712 -1.1320
  155MPD2     C 2409   0.406   3.788   0.148  0.0115  0.1171  0.1218
  155MPD2    C1 2410   0.387   3.905   0.217  0.1151 -0.2718 -0.1241
  155MPD2    C2 2411   0.275   3.986   0.187 -0.6447 -0.2773 -0.2835
  155MPD2    C3 2412   0.201   3.955   0.077  0.2330  0.8420  0.3124
  155MPD2    C4 2413   0.229   3.841   0.009  0.8199  0.3895  0.3631
  155MPD2    C5 2414   0.333   3.767   0.040 -0.0567 -0.3575  0.0583
  155MPD2     H 2415   0.267   4.087   0.224  0.5597  0.2085 -1.3567
  155MPD2    H1 2416   0.180   3.804  17.670  0.6128 -0.1356  0.6981
  155MPD2    H2 2417   0.479   3.713   0.177 -1.0106 -0.5732  0.9333
  155MPD2    H3 2418   0.351   3.681  17.727  1.0651  1.0169 -1.4826
  155MPD2     N 2419   0.092   4.044   0.050 -0.2762  0.4303 -0.9244
  155MPD2    H5 2420   0.074   4.121   0.113  2.0648  0.0599  0.2208
  155MPD2    N1 2421   0.471   3.937   0.327 -0.2798 -0.3778 -0.6635
  155MPD2    H7 2422   0.541   3.867   0.349  0.3088 -0.0816 -1.5727
  156TMC2    C1 2423   4.409   1.849  11.528  0.1097 -0.3294 -0.0909
  156TMC2    C2 2424   4.365   1.755  11.441  0.6507  0.4074 -1.1398
  156TMC2    C3 2425   4.282   1.792  11.337 -0.2995 -0.1096 -0.7334
  156TMC2    C4 2426   4.376   1.980  11.513  0.3016  0.2269  0.2276
  156TMC2    C5 2427   4.300   2.019  11.406 -0.4918 -0.2024 -0.0848
  156TMC2    C6 2428   4.249   1.926  11.318  0.0476  0.5512  0.7837
  156TMC2     C 2429   4.382   1.811  11.666  1.2181  0.0588  0.4641
  156TMC2     O 2430   4.305   1.873  11.733  0.3188 -0.4131  0.6395
  156TMC2     H 2431   4.410   1.657  11.453  0.6558  0.7451  1.6254
  156TMC2    H1 2432   4.410   2.045  11.593  1.3640 -1.8311  1.4520
  156TMC2    H2 2433   4.182   1.958  11.239 -2.1190  1.8229  3.1363
  156TMC2    C7 2434   4.204   2.116  11.448 -0.5727  0.9665  0.0543
  156TMC2    C8 2435   4.223   1.687  11.258 -0.0546  0.8552 -0.0937
  156TMC2    O1 2436   4.152   2.185  11.360 -0.7169  0.8145 -0.0049
  156TMC2    O2 2437   4.275   1.575  11.243  0.3161  0.7426  0.0120
  156TMC2    O5 2438   4.100   1.725  11.220  0.0926  0.0800 -0.4263
  156TMC2    H5 2439   4.080   1.791  11.289 -2.6707 -2.5282  1.2825
  157MPD2     C 2440   4.538   1.540  11.863 -0.0239  0.0268  0.3586
  157MPD2    C1 2441   4.435   1.621  11.814 -0.2281 -0.0979 -0.0519
  157MPD2    C2 2442   4.317   1.629  11.890  0.2976  0.3385 -0.1986
  157MPD2    C3 2443   4.309   1.574  12.016 -0.5912  0.3684 -0.2456
  157MPD2    C4 2444   4.416   1.501  12.060 -0.1731 -0.3075 -0.1601
  157MPD2    C5 2445   4.532   1.491  11.990 -0.7325 -0.3079  0.3697
  157MPD2     H 2446   4.236   1.687  11.847 -0.0192  1.3443  1.7498
  157MPD2    H1 2447   4.416   1.463  12.161  1.1583 -2.0575 -0.8206
  157MPD2    H2 2448   4.633   1.543  11.810  0.5417 -2.1509  1.3000
  157MPD2    H3 2449   4.617   1.440  12.035 -1.2553 -1.5231 -0.0172
  157MPD2     N 2450   4.192   1.598  12.096  0.1515 -0.5519 -0.2106
  157MPD2    H5 2451   4.121   1.661  12.058  1.1950  1.5844  1.3415
  157MPD2    N1 2452   4.456   1.701  11.696 -0.4461 -0.1914  0.6528
  157MPD2    H7 2453   4.539   1.678  11.643  0.7019 -0.5447  2.5797
  158TMC2    C1 2454   3.808   1.101  13.298 -0.5862 -0.8253 -1.3135
  158TMC2    C2 2455   3.817   1.205  13.208 -0.0716 -0.5061  0.6268
  158TMC2    C3 2456   3.732   1.210  13.108  0.4933 -0.4744 -0.0615
  158TMC2    C4 2457   3.704   1.009  13.286  0.4362 -0.2572 -0.0463
  158TMC2    C5 2458   3.623   1.020  13.176 -0.7382 -0.1904 -0.1124
  158TMC2    C6 2459   3.632   1.122  13.088  1.0106  0.1226 -0.0506
  158TMC2     C 2460   3.921   1.075  13.387 -0.3966 -0.3588 -0.2887
  158TMC2     O 2461   4.028   1.116  13.341  1.2558 -0.0140 -0.3403
  158TMC2     H 2462   3.905   1.268  13.212 -0.8995  0.5949  1.6072
  158TMC2    H1 2463   3.696   0.921  13.348 -3.1291  0.7887  0.9446
  158TMC2    H2 2464   3.562   1.129  13.006  1.3824 -0.2780 -0.3976
  158TMC2    C7 2465   3.525   0.913  13.144  0.2178  0.7390  1.0008
  158TMC2    C8 2466   3.753   1.297  12.997 -0.2492  0.4231 -0.8169
  158TMC2    O1 2467   3.432   0.934  13.067  0.9284 -0.4525  0.0068
  158TMC2    O2 2468   3.823   1.398  13.005 -0.4654 -0.0285  0.4417
  158TMC2    O5 2469   3.767   1.222  12.890 -0.2735 -0.2664 -0.0903
  158TMC2    H5 2470   3.742   1.128  12.902  0.9504 -0.4470  1.0665
  159MPD2     C 2471   4.114   0.849  13.804 -0.2038  0.0079 -0.3891
  159MPD2    C1 2472   3.985   0.814  13.800  0.2374  0.1188 -0.4228
  159MPD2    C2 2473   3.910   0.865  13.693  0.0872  0.2836 -0.6033
  159MPD2    C3 2474   3.975   0.932  13.590 -0.1218 -0.1866 -0.3319
  159MPD2    C4 2475   4.108   0.937  13.588 -0.0944 -0.2480  0.2376
  159MPD2    C5 2476   4.179   0.900  13.693  0.1034  0.2264 -0.9908
  159MPD2     H 2477   3.803   0.848  13.688  1.0334 -4.9689 -2.8887
  159MPD2    H1 2478   4.160   0.981  13.503 -2.1548  0.8888 -0.4256
  159MPD2    H2 2479   4.164   0.816  13.894 -1.5355  0.3287  0.4557
  159MPD2    H3 2480   4.287   0.906  13.696  0.3311 -4.4017  0.0162
  159MPD2     N 2481   3.892   0.998  13.495 -0.5497  0.3773  0.4965
  159MPD2    H5 2482   3.792   0.991  13.515 -0.2873 -1.0461  1.3737
  159MPD2    N1 2483   3.933   0.730  13.898 -0.1205 -0.1427  0.1155
  159MPD2    H7 2484   4.004   0.694  13.961 -0.0359  0.5223  0.4033
  160TMC2    C1 2485   4.015   3.878   1.592 -0.2232 -0.0970  0.3550
  160TMC2    C2 2486   3.924   3.831   1.683 -0.2900 -0.0075 -0.3214
  160TMC2    C3 2487   3.921   3.697   1.715  0.3375  0.0949 -0.7511
  160TMC2    C4 2488   4.124   3.799   1.556 -0.3983 -0.1311 -0.4983
  160TMC2    C5 2489   4.120   3.667   1.591 -0.2480  0.8011 -0.1466
  160TMC2    C6 2490   4.018   3.612   1.666 -0.3646  0.4927  0.3631
  160TMC2     C 2491   4.028   4.019   1.568 -0.0439  0.5682 -0.2505
  160TMC2     O 2492   4.141   4.068   1.578  0.5348  0.2746 -0.2244
  160TMC2     H 2493   3.841   3.896   1.709  0.2656  0.1895  0.9598
  160TMC2    H1 2494   4.191   3.845   1.483  1.8515 -0.2786  1.4805
  160TMC2    H2 2495   4.031   3.510   1.701  1.8597  0.2963 -1.0716
  160TMC2    C7 2496   4.214   3.580   1.530 -0.4335  0.0013  0.7518
  160TMC2    C8 2497   3.793   3.651   1.762  0.0428 -0.3003 -0.1767
  160TMC2    O1 2498   4.176   3.459   1.536 -0.1626  0.4824  0.5193
  160TMC2    O2 2499   3.738   3.688   1.862 -0.7505 -0.4821  0.2369
  160TMC2    O5 2500   3.794   3.525   1.719  0.1580  0.0407 -0.1601
  160TMC2    H5 2501   3.844   3.512   1.635 -1.5891 -1.5208 -0.9782
  161MPD2     C 2502   3.985   4.307   1.558  0.3587 -0.1835  0.2809
  161MPD2    C1 2503   3.886   4.218   1.541  0.9619  0.0912 -0.7078
  161MPD2    C2 2504   3.755   4.266   1.548  0.3582  0.0635 -0.1676
  161MPD2    C3 2505   3.726   4.397   1.561  0.7285  0.1198 -0.2051
  161MPD2    C4 2506   3.829   4.488   1.577 -0.3583  1.1675 -0.9009
  161MPD2    C5 2507   3.956   4.440   1.582  0.4598  0.0398  0.3853
  161MPD2     H 2508   3.682   4.186   1.541 -0.1770  0.4844  0.5715
  161MPD2    H1 2509   3.812   4.593   1.596 -1.5301  0.8438 -0.1494
  161MPD2    H2 2510   4.091   4.286   1.558  0.2012 -0.9880  1.9320
  161MPD2    H3 2511   4.036   4.508   1.611 -1.0862  0.5856  3.3800
  161MPD2     N 2512   3.594   4.449   1.534 -0.2506 -0.5461 -0.3153
  161MPD2    H5 2513   3.592   4.550   1.546  1.4616 -0.8894  2.8938
  161MPD2    N1 2514   3.906   4.077   1.547  0.1966 -0.4888 -0.1587
  161MPD2    H7 2515   3.823   4.020   1.532 -0.9844  1.4586 -1.1886
  162TMC2    C1 2516   1.075   0.626   0.880  0.3481 -0.4653  0.1398
  162TMC2    C2 2517   0.949   0.633   0.930  0.2474 -0.7901  0.1595
  162TMC2    C3 2518   0.928   0.717   1.036 -0.4065 -0.7929  0.0322
  162TMC2    C4 2519   1.173   0.713   0.927  0.2320 -0.1836  0.4602
  162TMC2    C5 2520   1.141   0.799   1.029  0.1177 -0.0286 -0.1438
  162TMC2    C6 2521   1.022   0.790   1.097 -0.1826  0.0947 -0.5097
  162TMC2     C 2522   1.105   0.559   0.750 -0.8198  0.4549 -0.2879
  162TMC2     O 2523   1.226   0.551   0.730  0.4753  0.2676 -0.2127
  162TMC2     H 2524   0.881   0.556   0.895  0.2343 -1.6013  1.9728
  162TMC2    H1 2525   1.267   0.719   0.873  0.3810  1.4793  0.9117
  162TMC2    H2 2526   0.999   0.851   1.183 -1.6685 -1.2004  0.0138
  162TMC2    C7 2527   1.240   0.880   1.091  0.3287  0.5779  0.0865
  162TMC2    C8 2528   0.797   0.725   1.084  0.4223  0.7386  0.2654
  162TMC2    O1 2529   1.204   0.969   1.166  0.3631  0.3944 -0.1478
  162TMC2    O2 2530   0.695   0.713   1.023  0.1627 -0.0088 -0.5011
  162TMC2    O5 2531   0.803   0.739   1.218 -0.3842 -0.1763  0.0633
  162TMC2    H5 2532   0.889   0.726   1.264 -0.5783 -0.5389  0.3227
  163MPD2     C 2533   1.018   0.417   0.271  0.3187  0.3191  0.4421
  163MPD2    C1 2534   1.129   0.400   0.345 -0.1749 -0.3234  0.2618
  163MPD2    C2 2535   1.124   0.418   0.479 -0.2806 -0.1782 -0.0213
  163MPD2    C3 2536   1.004   0.462   0.541  0.5771 -0.5039  0.4373
  163MPD2    C4 2537   0.889   0.463   0.468 -0.0215 -0.4494 -0.0543
  163MPD2    C5 2538   0.902   0.445   0.332  0.4576 -0.0320 -0.5851
  163MPD2     H 2539   1.218   0.422   0.533 -1.3018 -2.6277  1.9892
  163MPD2    H1 2540   0.803   0.501   0.520 -0.9932 -1.1960 -1.1076
  163MPD2    H2 2541   1.015   0.401   0.163 -0.7754 -0.2625  0.5662
  163MPD2    H3 2542   0.808   0.453   0.278 -0.8224  0.8234  1.7515
  163MPD2     N 2543   1.000   0.518   0.673 -0.3341  0.8318  0.0410
  163MPD2    H5 2544   0.905   0.535   0.704 -0.0430 -0.6891  1.7152
  163MPD2    N1 2545   1.244   0.364   0.276  0.4598 -0.3528  0.1686
  163MPD2    H7 2546   1.240   0.358   0.175 -0.0249 -0.3340  0.1842
  164TMC2    C1 2547   2.567   4.657  11.538 -0.3389 -0.1872  0.3022
  164TMC2    C2 2548   2.693   4.686  11.578  0.4107 -0.0686 -0.1281
  164TMC2    C3 2549   2.747   0.065  11.544  1.0260 -0.0136  0.0113
  164TMC2    C4 2550   2.494   0.015  11.469 -0.0486 -0.4345  0.1751
  164TMC2    C5 2551   2.556   0.128  11.427  0.7900  0.4401  0.0642
  164TMC2    C6 2552   2.681   0.160  11.467 -0.0059  1.0991 -0.1859
  164TMC2     C 2553   2.519   4.520  11.562 -0.3937  0.0993 -0.2529
  164TMC2     O 2554   2.401   4.513  11.536 -0.0370  0.2292  0.0730
  164TMC2     H 2555   2.753   4.624  11.644  1.9647  1.6360  0.0641
  164TMC2    H1 2556   2.390   0.006  11.442 -0.3825  0.3810  1.1811
  164TMC2    H2 2557   2.747   0.225  11.409 -1.2677  1.9079 -0.7187
  164TMC2    C7 2558   2.474   0.232  11.366 -0.5100 -0.3071  0.9080
  164TMC2    C8 2559   2.887   0.089  11.569  0.8284 -0.5263 -0.0640
  164TMC2    O1 2560   2.377   0.193  11.302  0.1967 -0.2242  0.4451
  164TMC2    O2 2561   2.927   0.204  11.559 -0.2238 -0.7530  0.5821
  164TMC2    O5 2562   2.958   4.720  11.545 -0.3530  0.1696 -0.3686
  164TMC2    H5 2563   2.901   4.643  11.524  1.2651 -1.0314 -0.4020
  165TMC2    C1 2564   3.519   2.847   0.818  0.4842  0.1914  0.0368
  165TMC2    C2 2565   3.549   2.756   0.720  0.2024 -0.9865 -0.2866
  165TMC2    C3 2566   3.673   2.701   0.721  0.1859 -0.2453 -0.2914
  165TMC2    C4 2567   3.604   2.893   0.915  0.4707  0.2525  0.3566
  165TMC2    C5 2568   3.724   2.829   0.913 -0.4809  0.3154 -0.3551
  165TMC2    C6 2569   3.763   2.735   0.822  0.3928  0.1549  1.0808
  165TMC2     C 2570   3.384   2.895   0.838  0.2248 -0.1357  0.3432
  165TMC2     O 2571   3.347   2.967   0.930  0.4324  0.1546  0.3816
  165TMC2     H 2572   3.477   2.723   0.645 -0.5797  2.6823 -1.1550
  165TMC2    H1 2573   3.577   2.970   0.987 -0.4404 -1.3686  1.7519
  165TMC2    H2 2574   3.863   2.694   0.827  0.5249  0.2039 -1.0607
  165TMC2    C7 2575   3.826   2.875   1.012  0.8872 -0.0806 -0.1339
  165TMC2    C8 2576   3.679   2.572   0.656  0.0956 -0.2219 -0.0465
  165TMC2    O1 2577   3.941   2.834   0.995  0.7726 -0.1043 -0.1987
  165TMC2    O2 2578   3.578   2.517   0.622  0.0291  0.3867 -0.3690
  165TMC2    O5 2579   3.797   2.517   0.662 -0.2631  0.0394  0.6200
  165TMC2    H5 2580   3.857   2.594   0.662 -0.1231 -0.0331  4.3181
  166MPD2     C 2581   2.883   2.901   0.708 -0.1231 -0.7587  0.1342
  166MPD2    C1 2582   2.950   2.922   0.823 -0.6876  0.5790  0.4844
  166MPD2    C2 2583   3.082   2.907   0.839  0.2887 -0.0462  0.1795
  166MPD2    C3 2584   3.165   2.890   0.725 -0.0834  0.8424 -0.5123
  166MPD2    C4 2585   3.099   2.854   0.605  0.2327  0.6333  0.1352
  166MPD2    C5 2586   2.963   2.866   0.605 -0.2045  0.2083 -0.3510
  166MPD2     H 2587   3.135   2.917   0.933 -2.1340 -2.6319  1.8336
  166MPD2    H1 2588   3.152   2.840   0.512  0.4381 -0.9317  0.4870
  166MPD2    H2 2589   2.776   2.915   0.696  0.6046  2.4091 -2.9729
  166MPD2    H3 2590   2.920   2.850   0.507 -0.2118  1.2056 -0.5105
  166MPD2     N 2591   3.307   2.885   0.723  0.0958  0.2515 -0.1775
  166MPD2    H5 2592   3.354   2.858   0.638  0.2770  0.4267 -0.1319
  166MPD2    N1 2593   2.870   2.956   0.934  0.6026  0.2340  0.1763
  166MPD2    H7 2594   2.772   2.936   0.915  1.0391  1.4798 -3.3772
  167TMC2    C1 2595   1.904   0.626  12.129 -0.4909  0.7040 -0.4216
  167TMC2    C2 2596   1.776   0.671  12.148  0.0017  1.0331  0.5943
  167TMC2    C3 2597   1.732   0.702  12.274  0.3978 -0.1798 -0.1709
  167TMC2    C4 2598   1.979   0.592  12.238  0.7030  0.1809 -0.2710
  167TMC2    C5 2599   1.929   0.604  12.364 -0.0463 -0.2403 -0.4068
  167TMC2    C6 2600   1.810   0.665  12.386  0.8777  0.8211  0.8124
  167TMC2     C 2601   1.906   0.511  12.037  0.1093  0.6008 -0.1789
  167TMC2     O 2602   1.957   0.525  11.928 -0.4991  0.1673  0.0983
  167TMC2     H 2603   1.711   0.687  12.062 -1.3281 -0.2864  1.3619
  167TMC2    H1 2604   2.079   0.554  12.222  0.4384 -2.1869  3.6013
  167TMC2    H2 2605   1.754   0.656  12.479 -0.7381  1.1800 -0.1094
  167TMC2    C7 2606   1.960   0.490  12.454  0.1893  0.5387  0.0246
  167TMC2    C8 2607   1.587   0.717  12.287  0.6105  0.1015 -0.0069
  167TMC2    O1 2608   1.882   0.471  12.547  0.7580  0.4429 -0.0954
  167TMC2    O2 2609   1.524   0.635  12.224 -0.0034  0.0470  0.5520
  167TMC2    O5 2610   1.563   0.850  12.275 -0.2014  0.2189  0.1276
  167TMC2    H5 2611   1.639   0.909  12.292 -0.7922  1.5279 -1.6865
  168MPD2     C 2612   1.919   0.239  11.924  0.6311  0.0608 -0.5878
  168MPD2    C1 2613   1.893   0.266  12.058 -0.1481 -0.3324  0.4133
  168MPD2    C2 2614   1.893   0.163  12.147 -0.4838  0.3691 -0.4695
  168MPD2    C3 2615   1.939   0.037  12.108  0.8348 -0.2690  0.3078
  168MPD2    C4 2616   1.975   0.008  11.980 -0.2956 -0.0654 -0.1237
  168MPD2    C5 2617   1.961   0.113  11.887  0.1862 -0.1252  0.9450
  168MPD2     H 2618   1.886   0.192  12.252  2.6676  1.2921 -0.5046
  168MPD2    H1 2619   2.030   4.659  11.943 -2.4768 -2.3473  2.0570
  168MPD2    H2 2620   1.930   0.319  11.851  0.0732  1.2513  0.6342
  168MPD2    H3 2621   1.995   0.094  11.786  0.5835  0.7373  0.9123
  168MPD2     N 2622   1.963   4.676  12.203  0.1215 -0.3843 -0.5543
  168MPD2    H5 2623   2.024   4.599  12.179  0.7465 -0.1679  0.3362
  168MPD2    N1 2624   1.858   0.400  12.095  0.5187  0.8545  0.3205
  168MPD2    H7 2625   1.817   0.405  12.188 -2.0516  0.3648 -0.7933
  169MPD1     C 2626   3.431   0.186   9.362  0.1238 -1.0806 -0.2124
  169MPD1    C1 2627   3.350   0.078   9.396 -0.1085  0.2221  0.1395
  169MPD1    C2 2628   3.418   4.708   9.453  0.4947  0.0755  0.0680
  169MPD1    C3 2629   3.554   4.697   9.478 -0.6723  0.1574 -0.2460
  169MPD1    C4 2630   3.627   0.069   9.445 -0.8869  0.3222 -0.3909
  169MPD1    C5 2631   3.568   0.174   9.382  1.2156 -0.7279  0.4492
  169MPD1     H 2632   3.352   4.630   9.490 -0.3693  0.1832 -1.2427
  169MPD1    H1 2633   3.732   0.080   9.471 -0.8388 -0.0542 -0.4125
  169MPD1    H2 2634   3.396   0.266   9.297 -0.9666 -0.8007  0.7315
  169MPD1    H3 2635   3.630   0.259   9.355 -0.3280  0.0481 -0.6926
  169MPD1     N 2636   3.612   4.592   9.549  0.0890  0.1109  0.4740
  169MPD1    H5 2637   3.546   4.524   9.586 -0.5836 -0.3592 -1.5955
  169MPD1    N1 2638   3.218   0.060   9.343  0.2903  0.8725  0.6403
  169MPD1    H6 2639   3.165   4.729   9.396  0.9200 -1.0936 -1.2851
  169MPD1    H7 2640   3.166   0.139   9.306  2.1357  0.8994 -1.8995
  170MPD1     C 2641   3.487   2.144  13.420  0.0700  0.8598  0.0336
  170MPD1    C1 2642   3.483   2.134  13.555  1.0965 -0.8246  0.1732
  170MPD1    C2 2643   3.419   2.230  13.626  0.0677 -0.5321 -0.5843
  170MPD1    C3 2644   3.363   2.337  13.570 -0.4470  0.2613  0.2340
  170MPD1    C4 2645   3.371   2.355  13.436 -0.6929 -0.9357 -0.1578
  170MPD1    C5 2646   3.429   2.253  13.362  0.3465  0.4497 -0.4697
  170MPD1     H 2647   3.401   2.216  13.732 -1.3523 -3.2558 -1.1855
  170MPD1    H1 2648   3.352   2.448  13.386 -0.8093 -0.6080  0.4939
  170MPD1    H2 2649   3.544   2.071  13.362 -0.4486 -0.6147  1.3820
  170MPD1    H3 2650   3.428   2.274  13.256 -3.2820  0.9367 -0.3480
  170MPD1     N 2651   3.298   2.429  13.646  0.4150  0.4211 -0.4502
  170MPD1    H5 2652   3.315   2.416  13.745 -0.8437 -2.4623 -0.6003
  170MPD1    N1 2653   3.510   2.015  13.621 -0.1324 -0.0516  0.4142
  170MPD1    H6 2654   3.555   2.032  13.711  1.0804  0.8422 -0.3742
  170MPD1    H7 2655   3.558   1.942  13.570 -0.9441 -1.8086  2.1797
  171MPD1     C 2656   1.234   3.558  15.413  0.3401  0.1902 -0.4124
  171MPD1    C1 2657   1.274   3.440  15.360  0.1074  0.7150 -0.1900
  171MPD1    C2 2658   1.327   3.350  15.455  0.4421  0.3984  0.7372
  171MPD1    C3 2659   1.336   3.376  15.595 -0.5159  0.0756  0.4303
  171MPD1    C4 2660   1.291   3.498  15.636  0.7232  0.2296  0.3838
  171MPD1    C5 2661   1.247   3.590  15.549  0.6076  0.1311  0.9659
  171MPD1     H 2662   1.350   3.251  15.417  2.5388  0.5992  1.5022
  171MPD1    H1 2663   1.291   3.526  15.740  0.6393  1.1363  0.1341
  171MPD1    H2 2664   1.180   3.627  15.350 -0.1947 -0.5505 -0.7606
  171MPD1    H3 2665   1.215   3.690  15.576 -2.3240 -0.9008  1.3161
  171MPD1     N 2666   1.373   3.281  15.693  0.3057 -0.2556  0.0147
  171MPD1    H5 2667   1.357   3.304  15.790 -4.7755 -1.6853 -0.4841
  171MPD1    N1 2668   1.256   3.394  15.233  0.4611 -0.4005  0.7649
  171MPD1    H6 2669   1.166   3.435  15.211  0.4631 -0.7484  0.1084
  171MPD1    H7 2670   1.256   3.292  15.232  1.3511 -0.4123  1.6835
  172MPD1     C 2671   1.044   2.417   0.072  0.6141  0.0649  0.3861
  172MPD1    C1 2672   0.910   2.422   0.062  0.1212  0.5222  0.9268
  172MPD1    C2 2673   0.840   2.493   0.155 -0.3966 -0.7850 -0.1077
  172MPD1    C3 2674   0.907   2.536   0.267  0.4030  0.9901 -1.1951
  172MPD1    C4 2675   1.037   2.514   0.287  0.4586  0.3381 -0.0994
  172MPD1    C5 2676   1.108   2.454   0.186  0.4626  1.1744  0.8696
  172MPD1     H 2677   0.733   2.507   0.146  0.0306  2.3464 -0.3849
  172MPD1    H1 2678   1.096   2.543   0.374  0.0512  1.7251 -0.2819
  172MPD1    H2 2679   1.108   2.375  17.745 -1.0047 -2.2388  0.2915
  172MPD1    H3 2680   1.214   2.435   0.196 -0.0509 -2.0792  0.0286
  172MPD1     N 2681   0.838   2.608   0.368 -0.1594 -0.0872  0.1345
  172MPD1    H5 2682   0.890   2.653   0.443 -0.9135 -1.0107  1.2158
  172MPD1    N1 2683   0.859   2.419  17.685 -0.1543 -0.0705 -0.4902
  172MPD1    H6 2684   0.900   2.350  17.622  1.1127 -0.3984  0.6844
  172MPD1    H7 2685   0.758   2.412  17.678 -0.3325  1.5901  0.2543
  173MPD1     C 2686   2.322   3.293  14.591  0.5795 -0.4893 -0.3293
  173MPD1    C1 2687   2.281   3.237  14.710 -0.6782  0.2975  0.2808
  173MPD1    C2 2688   2.227   3.114  14.705 -0.0071 -0.3768 -0.2968
  173MPD1    C3 2689   2.210   3.042  14.584 -0.2043  0.1420 -0.8626
  173MPD1    C4 2690   2.247   3.105  14.469 -0.2394  0.1848 -0.0862
  173MPD1    C5 2691   2.306   3.229  14.471 -0.5080 -0.1449  0.3490
  173MPD1     H 2692   2.189   3.072  14.798 -1.2223 -1.8143 -1.4271
  173MPD1    H1 2693   2.245   3.059  14.371 -2.5362 -0.2591  0.1737
  173MPD1    H2 2694   2.361   3.395  14.585 -0.4490  0.0035  1.1601
  173MPD1    H3 2695   2.339   3.271  14.376  0.8530  1.2799  1.4468
  173MPD1     N 2696   2.163   2.910  14.595 -0.1317 -0.3607  0.7731
  173MPD1    H5 2697   2.143   2.871  14.687  1.9793 -1.1172  0.9323
  173MPD1    N1 2698   2.261   3.310  14.825  0.0963 -0.1038 -0.1619
  173MPD1    H6 2699   2.249   3.247  14.905 -0.8546  1.3552  0.8440
  173MPD1    H7 2700   2.330   3.384  14.839  0.1897  0.1607 -2.0470
  174MPD1     C 2701   2.293   2.206  13.968 -0.1891 -0.4261 -0.5788
  174MPD1    C1 2702   2.166   2.164  14.016 -0.0869 -0.3127  0.1868
  174MPD1    C2 2703   2.102   2.231  14.121  0.0897 -0.2317 -0.3955
  174MPD1    C3 2704   2.180   2.328  14.189  1.0446  0.2057  0.2124
  174MPD1    C4 2705   2.304   2.367  14.138 -0.1926  0.6482  0.0844
  174MPD1    C5 2706   2.368   2.303  14.029 -0.0133 -0.4475 -0.0067
  174MPD1     H 2707   1.999   2.219  14.151  0.3454  1.0669  1.0108
  174MPD1    H1 2708   2.358   2.443  14.194  0.6462 -1.1488  1.6970
  174MPD1    H2 2709   2.342   2.151  13.888  0.4113  1.3809 -1.4356
  174MPD1    H3 2710   2.468   2.337  14.005 -0.9464  0.8610 -1.9941
  174MPD1     N 2711   2.135   2.392  14.307 -0.4035  0.6778  0.1136
  174MPD1    H5 2712   2.209   2.446  14.351  0.3425 -0.1257 -0.1509
  174MPD1    N1 2713   2.091   2.077  13.935  0.4340 -0.0583 -0.5067
  174MPD1    H6 2714   2.138   1.999  13.891 -0.0837 -0.2448 -0.7369
  174MPD1    H7 2715   2.019   2.031  13.990  0.1897  1.8660  0.7892
  175MPD1     C 2716   4.672   4.477  15.852  0.1554  0.1390 -0.4246
  175MPD1    C1 2717   0.032   4.381  15.864  0.3335  0.8918 -0.0144
  175MPD1    C2 2718   0.028   4.294  15.975 -0.6464 -0.4548  0.0994
  175MPD1    C3 2719   4.667   4.302  16.067  0.0154 -0.0580 -0.7406
  175MPD1    C4 2720   4.566   4.391  16.046  0.1811 -0.0081  0.4003
  175MPD1    C5 2721   4.567   4.477  15.940 -0.4851 -1.0684  1.0150
  175MPD1     H 2722   0.106   4.220  15.987 -1.1296 -0.7189  1.7033
  175MPD1    H1 2723   4.483   4.392  16.116 -0.0264 -0.9990  0.1682
  175MPD1    H2 2724   4.666   4.548  15.770  0.7417  1.1431  0.4206
  175MPD1    H3 2725   4.482   4.536  15.908 -0.4336 -1.2018  0.6374
  175MPD1     N 2726   4.662   4.226  16.189  0.0359  0.0216  0.3447
  175MPD1    H5 2727   4.570   4.223  16.232 -0.4696 -0.1591 -0.7464
  175MPD1    N1 2728   0.149   4.386  15.775  0.6995 -0.8081  0.0563
  175MPD1    H6 2729   0.186   4.292  15.760  1.8498 -0.5341  1.2861
  175MPD1    H7 2730   0.124   4.442  15.694  1.2278 -1.7645 -0.7695
  176MPD1     C 2731   2.045   0.737  17.451 -0.6103  0.2280  0.2798
  176MPD1    C1 2732   2.069   0.770  17.585 -0.4568 -0.6888 -0.0502
  176MPD1    C2 2733   2.138   0.882  17.619 -0.0151 -0.2909  0.0792
  176MPD1    C3 2734   2.194   0.960  17.517  0.1333 -0.3615 -0.9766
  176MPD1    C4 2735   2.196   0.912  17.388 -0.0020 -0.0301  0.0256
  176MPD1    C5 2736   2.117   0.802  17.350  0.6057  0.1521 -0.3403
  176MPD1     H 2737   2.153   0.919  17.720 -0.7409  0.2223 -0.0017
  176MPD1    H1 2738   2.257   0.958  17.311 -0.2055 -0.3471 -0.3278
  176MPD1    H2 2739   1.971   0.663  17.422  2.1721 -1.8950 -1.5026
  176MPD1    H3 2740   2.116   0.771  17.246 -0.1181  0.9869 -0.5802
  176MPD1     N 2741   2.264   1.079  17.550  0.2280  0.2675  0.1832
  176MPD1    H5 2742   2.268   1.113  17.646 -3.3336 -0.7605  0.6907
  176MPD1    N1 2743   2.003   0.708  17.694 -0.1551  0.9739  0.3692
  176MPD1    H6 2744   1.999   0.611  17.663 -0.5554  0.2920  2.5751
  176MPD1    H7 2745   2.049   0.714   0.035 -1.5680 -0.3335  1.1677
  177MPD1     C 2746   1.086   1.200   9.941 -0.2984 -0.4261 -0.0923
  177MPD1    C1 2747   1.080   1.098   9.848  0.3298 -0.3766  0.6729
  177MPD1    C2 2748   0.973   1.008   9.853  0.0737  0.3091  0.0068
  177MPD1    C3 2749   0.875   1.031   9.944 -1.6860  1.0086  0.2485
  177MPD1    C4 2750   0.889   1.124  10.045 -0.4747  0.3550  0.3296
  177MPD1    C5 2751   1.000   1.201  10.045 -0.5938  0.0515 -0.8735
  177MPD1     H 2752   0.954   0.937   9.774 -1.0560  1.5526 -0.8292
  177MPD1    H1 2753   0.820   1.129  10.128  1.3539 -0.8351  1.9392
  177MPD1    H2 2754   1.167   1.271   9.931  0.8357 -1.5006  1.3342
  177MPD1    H3 2755   1.002   1.285  10.113 -0.2746  0.2479 -1.1207
  177MPD1     N 2756   0.762   0.951   9.938  0.9475 -0.0284 -1.2184
  177MPD1    H5 2757   0.756   0.876   9.869 -2.4130  0.8443 -1.8827
  177MPD1    N1 2758   1.174   1.078   9.746 -0.0228 -0.1388  1.1956
  177MPD1    H6 2759   1.186   1.163   9.691  0.2829 -0.2663  1.0641
  177MPD1    H7 2760   1.152   1.005   9.678  2.5273  0.1091  0.0972
  178MPD1     C 2761   2.594   1.755   0.135  0.0035  0.1606  0.0815
  178MPD1    C1 2762   2.555   1.769   0.006  0.6556  0.3101 -0.4517
  178MPD1    C2 2763   2.617   1.689  17.657  0.0091 -0.3086  0.1022
  178MPD1    C3 2764   2.728   1.613  17.689  0.3135  0.5106  0.5673
  178MPD1    C4 2765   2.762   1.603   0.071  0.3461  0.3548 -0.1263
  178MPD1    C5 2766   2.695   1.671   0.166 -0.2692 -0.1690 -0.5627
  178MPD1     H 2767   2.585   1.701  17.554  1.7068  0.9609 -0.2774
  178MPD1    H1 2768   2.839   1.534   0.105  1.6897  1.6458 -0.5090
  178MPD1    H2 2769   2.539   1.801   0.216 -2.8690 -0.4495 -1.5019
  178MPD1    H3 2770   2.721   1.656   0.270 -3.7283  2.4724  0.6984
  178MPD1     N 2771   2.795   1.527  17.594 -0.6111  0.1350  0.0400
  178MPD1    H5 2772   2.883   1.491  17.630 -0.3341  1.2712  0.5112
  178MPD1    N1 2773   2.442   1.842  17.733 -0.4587 -0.0630 -0.5006
  178MPD1    H6 2774   2.440   1.867  17.634  1.6058 -0.0819 -0.5340
  178MPD1    H7 2775   2.423   1.926   0.036  1.1288  1.2996 -2.1155
  179MPD1     C 2776   2.688   4.125  15.527  0.2296 -0.0075  0.4070
  179MPD1    C1 2777   2.722   4.087  15.651  0.3962  0.7202  0.4947
  179MPD1    C2 2778   2.629   4.115  15.751  0.1339 -0.1602  0.6449
  179MPD1    C3 2779   2.523   4.204  15.727 -0.5648  0.2203 -0.0871
  179MPD1    C4 2780   2.500   4.248  15.603 -0.5039  0.1815  0.2068
  179MPD1    C5 2781   2.589   4.214  15.506  0.3788  0.1544 -0.2374
  179MPD1     H 2782   2.650   4.086  15.854 -1.2857 -3.6896 -0.0547
  179MPD1    H1 2783   2.410   4.302  15.577 -0.5966  0.2211  0.6008
  179MPD1    H2 2784   2.756   4.113  15.443  1.2023  0.6656  1.0980
  179MPD1    H3 2785   2.569   4.259  15.410  0.2996 -0.9908 -0.7626
  179MPD1     N 2786   2.441   4.256  15.828 -0.2938 -0.0945 -0.3616
  179MPD1    H5 2787   2.354   4.304  15.811 -0.2577  0.1080  0.0089
  179MPD1    N1 2788   2.827   4.003  15.683  0.1452  0.4383 -0.2557
  179MPD1    H6 2789   2.852   4.011  15.781  0.0620  0.9774 -0.2756
  179MPD1    H7 2790   2.907   4.028  15.625  0.8924  0.1869  0.6613
  180MPD1     C 2791   3.614   1.529  14.593  0.4246 -0.6149 -0.1283
  180MPD1    C1 2792   3.505   1.447  14.574  0.8628  0.1462  0.3984
  180MPD1    C2 2793   3.377   1.509  14.561 -0.1635  0.2658  0.4030
  180MPD1    C3 2794   3.364   1.647  14.564  0.4281 -0.3701 -0.0245
  180MPD1    C4 2795   3.474   1.726  14.590 -0.2628 -0.8158  0.3998
  180MPD1    C5 2796   3.599   1.663  14.602 -0.1528  0.1833  0.3056
  180MPD1     H 2797   3.288   1.447  14.553  0.0457  0.2775 -2.0346
  180MPD1    H1 2798   3.462   1.834  14.596  3.4331 -0.5503  2.6015
  180MPD1    H2 2799   3.717   1.494  14.599  0.8530  0.5912 -0.4589
  180MPD1    H3 2800   3.690   1.721  14.609 -0.5230  0.4984  2.3438
  180MPD1     N 2801   3.240   1.702  14.532 -0.2350  0.1257  0.1769
  180MPD1    H5 2802   3.164   1.639  14.508  0.7546 -0.7236 -0.7216
  180MPD1    N1 2803   3.522   1.308  14.592  0.3097 -0.2303 -0.3897
  180MPD1    H6 2804   3.449   1.247  14.554 -0.1411 -0.5352  0.9444
  180MPD1    H7 2805   3.616   1.276  14.573 -0.4897 -3.8295  1.5590
  181MPD1     C 2806   3.665   3.270  10.489 -0.2383  0.3305 -0.3006
  181MPD1    C1 2807   3.736   3.154  10.472 -0.0535 -0.5174 -0.2932
  181MPD1    C2 2808   3.872   3.155  10.505  0.4425  0.4074  0.2780
  181MPD1    C3 2809   3.933   3.280  10.532 -0.2641  0.2422  0.5847
  181MPD1    C4 2810   3.862   3.393  10.546  0.2816  0.1712 -0.8779
  181MPD1    C5 2811   3.724   3.392  10.518  0.8602 -0.3642 -0.0671
  181MPD1     H 2812   3.929   3.065  10.523 -1.3197 -0.5618  1.0396
  181MPD1    H1 2813   3.921   3.482  10.568 -0.7700  0.2090  1.7566
  181MPD1    H2 2814   3.559   3.279  10.465 -0.6436  0.3793  1.5059
  181MPD1    H3 2815   3.669   3.485  10.528 -0.1388 -0.8678 -0.8359
  181MPD1     N 2816   4.075   3.289  10.540 -0.2193  0.3438 -0.8736
  181MPD1    H5 2817   4.116   3.381  10.552  1.7018 -0.9558  2.5566
  181MPD1    N1 2818   3.666   3.023  10.464 -0.0139  0.2361  0.0018
  181MPD1    H6 2819   3.733   2.964  10.414  0.1147  0.3384  0.0523
  181MPD1    H7 2820   3.581   3.024  10.408 -1.0179 -0.8025  1.5156
  182MPD1     C 2821   0.544   1.737   1.488 -0.4514 -0.0738 -0.0276
  182MPD1    C1 2822   0.455   1.821   1.557 -0.0341  0.0302  1.1710
  182MPD1    C2 2823   0.349   1.863   1.483  0.7603 -0.1805  0.1357
  182MPD1    C3 2824   0.344   1.851   1.348 -0.0423  0.3742  0.2428
  182MPD1    C4 2825   0.434   1.773   1.278 -0.8604  0.2946  0.0865
  182MPD1    C5 2826   0.525   1.707   1.348 -0.2592  0.5897 -0.0369
  182MPD1     H 2827   0.259   1.907   1.526  0.1720  0.8727 -2.1754
  182MPD1    H1 2828   0.422   1.754   1.172  3.7447 -2.3846  0.0458
  182MPD1    H2 2829   0.633   1.704   1.539  0.3814  1.7735 -0.2543
  182MPD1    H3 2830   0.600   1.655   1.290  2.1989  2.0504  1.8110
  182MPD1     N 2831   0.237   1.910   1.273 -0.2653 -0.8536 -0.6926
  182MPD1    H5 2832   0.235   1.887   1.175 -0.0520 -1.3440 -0.5833
  182MPD1    N1 2833   0.461   1.842   1.695 -0.0157  0.2090  0.5231
  182MPD1    H6 2834   0.419   1.932   1.718 -0.0427  0.6831 -1.3963
  182MPD1    H7 2835   0.557   1.853   1.727  0.7638  0.9420 -2.0775
  183MPD1     C 2836   0.423   2.693   8.984  0.0573  0.4374 -0.3711
  183MPD1    C1 2837   0.359   2.816   8.971  0.5058 -0.3980 -0.2972
  183MPD1    C2 2838   0.315   2.877   9.088 -0.4610 -0.0839 -0.4451
  183MPD1    C3 2839   0.315   2.814   9.209  0.5119 -0.2542  0.1801
  183MPD1    C4 2840   0.353   2.683   9.210 -0.7299 -0.1701  0.1135
  183MPD1    C5 2841   0.409   2.622   9.099  0.0768 -0.5701 -0.3249
  183MPD1     H 2842   0.277   2.978   9.094  2.7986  1.2371 -2.2966
  183MPD1    H1 2843   0.347   2.630   9.305 -0.0067  0.9429  0.7890
  183MPD1    H2 2844   0.473   2.636   8.907 -0.7179 -0.5874 -0.1087
  183MPD1    H3 2845   0.425   2.515   9.103 -0.3907 -0.6580 -0.7770
  183MPD1     N 2846   0.264   2.880   9.320  0.3667  0.6005  0.1597
  183MPD1    H5 2847   0.216   2.969   9.310  1.5203  1.2997  0.7854
  183MPD1    N1 2848   0.385   2.888   8.858 -0.0628 -0.3770  0.3543
  183MPD1    H6 2849   0.315   2.958   8.837  1.6371  1.3586  0.5191
  183MPD1    H7 2850   0.392   2.838   8.770 -1.5508 -2.6087  1.4957
  184MPD1     C 2851   4.018   0.690  10.378 -0.4055  0.2338  0.4583
  184MPD1    C1 2852   4.016   0.610  10.256 -0.6338  0.3093  0.0718
  184MPD1    C2 2853   4.075   0.654  10.145 -0.2897 -0.0138 -0.9201
  184MPD1    C3 2854   4.156   0.765  10.167  0.1774 -0.1164 -0.5279
  184MPD1    C4 2855   4.161   0.839  10.284  0.2732  0.7093  0.3573
  184MPD1    C5 2856   4.086   0.803  10.387  0.6271 -0.5127  0.3079
  184MPD1     H 2857   4.086   0.596  10.054  2.1682 -1.2403  0.1708
  184MPD1    H1 2858   4.229   0.923  10.284  1.8411 -0.5416  1.9935
  184MPD1    H2 2859   3.967   0.653  10.467 -1.1570  0.8923  0.3048
  184MPD1    H3 2860   4.086   0.858  10.481  1.9012  2.6494 -1.5111
  184MPD1     N 2861   4.243   0.815  10.069  0.1318  0.3015 -0.3808
  184MPD1    H5 2862   4.298   0.895  10.101 -1.2496  1.1492 -0.1481
  184MPD1    N1 2863   3.927   0.503  10.244 -0.6245  0.3076 -0.3137
  184MPD1    H6 2864   3.925   0.452  10.332  1.7379  0.0103 -0.4563
  184MPD1    H7 2865   3.959   0.437  10.173  0.9636  0.3015  0.4154
  185MPD1     C 2866   4.688   0.108   9.689 -0.9935 -0.0183 -0.7371
  185MPD1    C1 2867   0.046   0.200   9.658 -0.2680  0.1309  0.3690
  185MPD1    C2 2868   0.002   0.336   9.676  0.2683  0.2431  0.2150
  185MPD1    C3 2869   4.600   0.367   9.699  0.0641  0.4856  0.4501
  185MPD1    C4 2870   4.510   0.266   9.701  0.9409 -0.0501 -0.1378
  185MPD1    C5 2871   4.554   0.135   9.702 -0.4247  1.0904 -0.4147
  185MPD1     H 2872   0.069   0.421   9.680 -0.1666  0.5492  1.1846
  185MPD1    H1 2873   4.404   0.285   9.716  0.8539  0.4446 -1.4016
  185MPD1    H2 2874   4.710   0.004   9.663  3.3874  0.1949  2.1747
  185MPD1    H3 2875   4.485   0.051   9.697 -0.2639  1.0255 -1.6050
  185MPD1     N 2876   4.545   0.493   9.723  0.6515  0.1865 -0.1142
  185MPD1    H5 2877   4.450   0.505   9.756  1.3703  2.9735  0.9798
  185MPD1    N1 2878   0.181   0.166   9.651 -0.0870  0.1240 -0.6440
  185MPD1    H6 2879   0.233   0.238   9.602  1.0652 -1.5847 -1.9471
  185MPD1    H7 2880   0.192   0.072   9.614 -0.2795 -0.3036  0.3798
  186MPD1     C 2881   2.573   0.551  15.771 -1.2662  0.4799 -0.1058
  186MPD1    C1 2882   2.502   0.548  15.887 -0.2970 -0.0498  0.1979
  186MPD1    C2 2883   2.576   0.523  16.005 -0.2079  0.6896 -0.0213
  186MPD1    C3 2884   2.711   0.499  16.006  0.3430 -0.1752  0.7874
  186MPD1    C4 2885   2.775   0.500  15.886 -0.2099 -0.5561 -0.6608
  186MPD1    C5 2886   2.707   0.527  15.768 -0.5720  0.3875  0.0330
  186MPD1     H 2887   2.516   0.525  16.095  2.6028 -0.0158  1.8719
  186MPD1    H1 2888   2.879   0.472  15.876  0.3504  2.3860 -2.8909
  186MPD1    H2 2889   2.514   0.575  15.683  1.6283  1.0175 -1.9196
  186MPD1    H3 2890   2.756   0.516  15.672 -0.9712 -0.3266 -0.0944
  186MPD1     N 2891   2.789   0.456  16.112  0.4007  0.0504  0.6053
  186MPD1    H5 2892   2.888   0.455  16.088 -0.1418 -0.2383 -1.6165
  186MPD1    N1 2893   2.369   0.599  15.896 -0.3870 -0.6967 -0.0354
  186MPD1    H6 2894   2.317   0.574  15.812 -0.6504 -1.7608  0.4375
  186MPD1    H7 2895   2.315   0.562  15.974  0.2752  0.5739  1.0133
  187MPD1     C 2896   2.963   1.998  17.493 -0.0624  0.4621  0.5381
  187MPD1    C1 2897   2.855   1.948  17.561  0.0925 -0.2927 -0.4642
  187MPD1    C2 2898   2.734   1.979  17.509 -0.3376 -0.1248 -0.9267
  187MPD1    C3 2899   2.727   2.025  17.375 -0.1689  0.0037 -0.0318
  187MPD1    C4 2900   2.838   2.059  17.307  0.0869  0.4662 -0.1164
  187MPD1    C5 2901   2.962   2.044  17.368 -0.1861 -0.0590  0.6670
  187MPD1     H 2902   2.640   1.942  17.548  0.4954 -2.3996 -1.0621
  187MPD1    H1 2903   2.839   2.112  17.213 -0.4613  1.2962  0.3432
  187MPD1    H2 2904   3.065   1.989  17.527  0.1709 -0.3113 -0.3611
  187MPD1    H3 2905   3.053   2.080  17.320 -1.7750 -0.4153 -2.5596
  187MPD1     N 2906   2.605   2.025  17.297 -1.1197  0.3641 -0.4849
  187MPD1    H5 2907   2.621   2.054  17.201  1.5508  0.1002 -0.1198
  187MPD1    N1 2908   2.884   1.905  17.695 -0.4284 -0.5287 -0.3398
  187MPD1    H6 2909   2.815   1.847  17.744 -1.5882  1.4207  0.3557
  187MPD1    H7 2910   2.977   1.864  17.703 -1.3670 -1.8298  4.4809
  188MPD1     C 2911   1.668   2.449  10.454  0.3505  0.5552 -0.1696
  188MPD1    C1 2912   1.690   2.404  10.582  0.5806  0.5122  0.1208
  188MPD1    C2 2913   1.727   2.272  10.587 -0.0464  0.3083 -0.5587
  188MPD1    C3 2914   1.730   2.187  10.476 -0.5256 -0.9077  0.4759
  188MPD1    C4 2915   1.692   2.240  10.358  0.3243  0.4013 -0.7084
  188MPD1    C5 2916   1.662   2.367  10.347 -0.4160  0.7334  0.6505
  188MPD1     H 2917   1.750   2.236  10.686 -1.3663  0.0973 -0.3301
  188MPD1    H1 2918   1.678   2.175  10.273 -1.8094  1.2362 -1.0173
  188MPD1    H2 2919   1.662   2.557  10.443  2.3906  0.7993  1.0576
  188MPD1    H3 2920   1.648   2.413  10.250 -2.2552 -1.8028 -0.2742
  188MPD1     N 2921   1.753   2.046  10.480  0.4800  0.1174 -0.1894
  188MPD1    H5 2922   1.753   1.982  10.401 -0.1794 -2.6420  2.0206
  188MPD1    N1 2923   1.705   2.496  10.689  0.6108 -0.1156  0.1161
  188MPD1    H6 2924   1.637   2.571  10.681  0.5822 -0.3175 -1.5653
  188MPD1    H7 2925   1.698   2.448  10.779 -0.2661 -1.0601 -0.4537
  189MPD1     C 2926   4.207   3.366   0.680  0.2209  0.8612  0.3116
  189MPD1    C1 2927   4.204   3.278   0.574 -0.0727 -0.0485 -0.1596
  189MPD1    C2 2928   4.099   3.293   0.489 -0.5203  0.4393 -0.3470
  189MPD1    C3 2929   3.991   3.365   0.520 -0.2842  0.3485  0.3063
  189MPD1    C4 2930   3.993   3.447   0.630 -0.2368 -0.0205  0.5155
  189MPD1    C5 2931   4.107   3.458   0.705  0.0372 -0.9383 -0.4052
  189MPD1     H 2932   4.087   3.226   0.404 -1.0647  0.4467 -0.2740
  189MPD1    H1 2933   3.918   3.523   0.647 -0.7397 -0.0982 -1.3635
  189MPD1    H2 2934   4.289   3.369   0.750  0.0289 -1.3661  0.6085
  189MPD1    H3 2935   4.113   3.523   0.791  0.4698  0.9426 -1.8611
  189MPD1     N 2936   3.878   3.349   0.435 -0.4223  0.3411 -0.0912
  189MPD1    H5 2937   3.902   3.305   0.347 -1.0535  0.7744 -0.4770
  189MPD1    N1 2938   4.318   3.208   0.539  0.3720 -0.7586 -0.1800
  189MPD1    H6 2939   4.303   3.124   0.484 -1.7919  0.2485 -1.1276
  189MPD1    H7 2940   4.372   3.173   0.618  1.7186  1.5190 -0.0885
  190MPD1     C 2941   2.306   0.547  15.420  0.0667 -0.2941  0.7321
  190MPD1    C1 2942   2.429   0.522  15.360 -0.2862  0.4233  0.1539
  190MPD1    C2 2943   2.528   0.620  15.369  0.5752 -0.2903  0.2411
  190MPD1    C3 2944   2.512   0.730  15.449 -0.2986  0.3919  0.3723
  190MPD1    C4 2945   2.395   0.737  15.527  0.2106 -0.2735 -0.4522
  190MPD1    C5 2946   2.282   0.659  15.496 -0.2660  0.7153 -0.1185
  190MPD1     H 2947   2.621   0.609  15.314  0.3646 -2.4533  0.2876
  190MPD1    H1 2948   2.370   0.826  15.584  2.4449  0.8900 -1.2970
  190MPD1    H2 2949   2.224   0.481  15.395  0.0089 -0.4329  1.2881
  190MPD1    H3 2950   2.182   0.686  15.527 -0.8184 -1.8116  0.3048
  190MPD1     N 2951   2.621   0.819  15.470  0.2282 -0.2328 -0.4900
  190MPD1    H5 2952   2.695   0.829  15.401  0.2926  1.8225 -0.1277
  190MPD1    N1 2953   2.450   0.420  15.265 -0.3585 -0.3414 -0.1165
  190MPD1    H6 2954   2.394   0.337  15.281  2.2319 -1.7920  1.3636
  190MPD1    H7 2955   2.546   0.391  15.251 -0.7602 -2.0460  0.7072
  191MPD1     C 2956   1.948   2.452  13.454  0.3782 -0.3822  0.0298
  191MPD1    C1 2957   1.975   2.573  13.392  0.2181  0.3432 -0.6830
  191MPD1    C2 2958   1.886   2.672  13.367 -0.7896 -0.3018 -0.6563
  191MPD1    C3 2959   1.758   2.647  13.405  0.3626  0.1349  0.3634
  191MPD1    C4 2960   1.725   2.531  13.467 -0.0062  0.1876 -0.4522
  191MPD1    C5 2961   1.820   2.433  13.495  0.5496 -0.3900  0.3719
  191MPD1     H 2962   1.909   2.769  13.324 -1.7303  0.5527  0.7678
  191MPD1    H1 2963   1.622   2.518  13.497  0.6187 -0.0513  1.6123
  191MPD1    H2 2964   2.018   2.369  13.467 -0.4377 -0.6200  2.9159
  191MPD1    H3 2965   1.796   2.338  13.541  2.1439 -1.6555 -1.4615
  191MPD1     N 2966   1.658   2.741  13.361 -0.6392 -0.3092 -0.0364
  191MPD1    H5 2967   1.694   2.829  13.326 -1.5037  0.2937  0.5946
  191MPD1    N1 2968   2.093   2.581  13.331  0.4694  0.9813 -0.0072
  191MPD1    H6 2969   2.162   2.532  13.387  0.2994 -0.7171 -1.2744
  191MPD1    H7 2970   2.120   2.675  13.302  0.7797  2.0691  3.8171
  192MPD1     C 2971   0.633   2.775  13.312  0.1060 -0.4117 -0.2427
  192MPD1    C1 2972   0.683   2.877  13.236  0.0633 -0.4370 -0.1650
  192MPD1    C2 2973   0.812   2.911  13.259 -0.1948 -1.0155  0.6528
  192MPD1    C3 2974   0.898   2.843  13.341 -0.3314 -0.3421  0.0657
  192MPD1    C4 2975   0.843   2.731  13.403  0.3153  0.0044 -0.6788
  192MPD1    C5 2976   0.710   2.699  13.394 -0.6845  0.4730 -0.9079
  192MPD1     H 2977   0.846   2.999  13.206  0.7207 -1.2476  0.8714
  192MPD1    H1 2978   0.910   2.680  13.471  0.4303  2.4841  1.0855
  192MPD1    H2 2979   0.529   2.756  13.289 -0.1627 -0.4563  0.9774
  192MPD1    H3 2980   0.660   2.626  13.457  0.5266 -0.1263 -0.6395
  192MPD1     N 2981   1.029   2.875  13.366  0.1177 -1.3826 -0.4582
  192MPD1    H5 2982   1.077   2.824  13.440  4.5116 -0.6042 -2.7417
  192MPD1    N1 2983   0.597   2.960  13.166  0.0450  0.4289  0.5937
  192MPD1    H6 2984   0.514   2.911  13.134  0.7614 -1.4292  1.6055
  192MPD1    H7 2985   0.641   2.994  13.081 -0.8562 -1.4773 -0.6378
  193MPD1     C 2986   1.112   3.142  16.046 -0.4042  0.1294 -0.9562
  193MPD1    C1 2987   1.148   3.279  16.059  0.2296  0.0250  0.6443
  193MPD1    C2 2988   1.226   3.315  16.167  0.4309 -0.2187 -0.1921
  193MPD1    C3 2989   1.276   3.230  16.263  0.4494  0.7621 -0.5642
  193MPD1    C4 2990   1.240   3.098  16.248 -0.2490  0.4823 -0.4822
  193MPD1    C5 2991   1.163   3.060  16.143  0.5508 -0.0690 -0.1734
  193MPD1     H 2992   1.248   3.421  16.175  1.0021 -0.2590 -1.1996
  193MPD1    H1 2993   1.272   3.028  16.323 -0.1940  2.1956  1.0879
  193MPD1    H2 2994   1.041   3.107  15.972  2.5402 -0.9431 -3.2957
  193MPD1    H3 2995   1.140   2.954  16.135  0.9700 -0.2781  1.3122
  193MPD1     N 2996   1.349   3.259  16.384  0.6366 -0.0388  0.0348
  193MPD1    H5 2997   1.394   3.184  16.434  3.2019  0.2276 -1.9032
  193MPD1    N1 2998   1.078   3.376  15.982 -0.2774  0.4850  0.1794
  193MPD1    H6 2999   1.137   3.459  15.976  0.4538  0.0303  1.0514
  193MPD1    H7 3000   1.060   3.344  15.888  0.8204  0.4922 -0.0304
  194MPD1     C 3001   3.363   0.269   0.618 -0.3408 -0.3797  0.4887
  194MPD1    C1 3002   3.251   0.256   0.538 -0.1053 -0.0820 -0.1739
  194MPD1    C2 3003   3.233   0.139   0.466  0.2287  0.7157 -0.0298
  194MPD1    C3 3004   3.326   0.035   0.467 -0.2339  0.2528  0.1615
  194MPD1    C4 3005   3.441   0.060   0.536  0.3698  0.3627 -0.3649
  194MPD1    C5 3006   3.462   0.172   0.612 -0.2793  0.0464 -0.5338
  194MPD1     H 3007   3.146   0.134   0.402  0.2780  2.2653 -0.1975
  194MPD1    H1 3008   3.520   4.724   0.546 -0.7279 -0.9981 -1.5178
  194MPD1    H2 3009   3.380   0.359   0.675 -0.6037  2.3005 -3.6773
  194MPD1    H3 3010   3.553   0.188   0.670 -0.5365  0.7333 -0.3250
  194MPD1     N 3011   3.309   4.650   0.395 -0.1066  0.5455 -0.0532
  194MPD1    H5 3012   3.384   4.582   0.406 -0.0804  0.3542 -1.3930
  194MPD1    N1 3013   3.148   0.352   0.552  0.0054  0.3727 -0.0890
  194MPD1    H6 3014   3.182   0.446   0.573 -1.2665  1.4534 -2.8671
  194MPD1    H7 3015   3.076   0.358   0.480 -0.2948 -3.2874 -0.0685
  195MPD1     C 3016   1.723   2.558   0.722  0.3466 -0.9677 -0.0921
  195MPD1    C1 3017   1.819   2.495   0.648 -0.2880  0.0587 -0.0286
  195MPD1    C2 3018   1.797   2.363   0.604  0.6020  0.4031 -0.0667
  195MPD1    C3 3019   1.690   2.287   0.646  0.1157 -0.1658 -0.5594
  195MPD1    C4 3020   1.596   2.351   0.725 -0.7334  0.0635 -0.6389
  195MPD1    C5 3021   1.612   2.485   0.761 -0.1455  0.0349 -0.5573
  195MPD1     H 3022   1.876   2.322   0.543 -0.3873  1.1550 -1.8471
  195MPD1    H1 3023   1.507   2.300   0.761 -0.1907  0.2392  0.9070
  195MPD1    H2 3024   1.730   2.666   0.736  2.0714 -1.2568  1.2696
  195MPD1    H3 3025   1.537   2.530   0.825  1.8057  1.2315  0.8805
  195MPD1     N 3026   1.691   2.145   0.620 -0.0659 -0.3344 -0.2641
  195MPD1    H5 3027   1.776   2.118   0.572  1.1574  0.8734  1.2346
  195MPD1    N1 3028   1.929   2.571   0.606  0.2295  0.4901 -0.2200
  195MPD1    H6 3029   2.010   2.513   0.586  2.3293  2.4326  2.8200
  195MPD1    H7 3030   1.956   2.645   0.670 -1.6794 -1.3874  2.7862
  196MPD1     C 3031   0.298   1.363   0.192 -0.2876 -0.5011 -0.7316
  196MPD1    C1 3032   0.420   1.435   0.200  0.4244  0.5024 -0.0071
  196MPD1    C2 3033   0.477   1.439   0.325 -0.7067  0.0351  0.3692
  196MPD1    C3 3034   0.411   1.390   0.440  0.1060 -0.6054 -0.1755
  196MPD1    C4 3035   0.280   1.342   0.424 -0.2585 -0.1472 -0.3814
  196MPD1    C5 3036   0.227   1.328   0.302  0.9562 -0.0379  0.2149
  196MPD1     H 3037   0.573   1.484   0.344 -0.9649  1.3546 -1.5186
  196MPD1    H1 3038   0.230   1.301   0.511 -0.0046  0.0200 -0.1558
  196MPD1    H2 3039   0.254   1.349   0.094  1.5145 -0.9445 -1.4842
  196MPD1    H3 3040   0.133   1.274   0.296  0.1423  1.8402 -3.7462
  196MPD1     N 3041   0.460   1.402   0.573 -0.4882 -0.1450  0.2420
  196MPD1    H5 3042   0.396   1.385   0.650 -0.6085 -3.0964 -0.4898
  196MPD1    N1 3043   0.492   1.462   0.089 -0.8212  0.3375 -0.1504
  196MPD1    H6 3044   0.436   1.451   0.005  0.5221 -1.5030 -0.8245
  196MPD1    H7 3045   0.546   1.546   0.104 -0.7952  0.1725  0.6737
  197MPD1     C 3046   4.103   4.506  17.106 -0.2635 -0.0400 -0.1827
  197MPD1    C1 3047   4.211   4.488  17.190  0.0250 -0.0223 -0.0540
  197MPD1    C2 3048   4.334   4.460  17.129 -0.0308  0.0150 -0.1169
  197MPD1    C3 3049   4.352   4.449  16.993 -0.1685  0.1342 -0.4192
  197MPD1    C4 3050   4.243   4.481  16.912  0.0272 -0.2379  0.1822
  197MPD1    C5 3051   4.122   4.508  16.969 -0.3473 -0.3494  0.2296
  197MPD1     H 3052   4.416   4.440  17.196 -0.4636 -0.1071  0.3726
  197MPD1    H1 3053   4.261   4.484  16.805 -0.6966  2.2779  0.1381
  197MPD1    H2 3054   4.005   4.528  17.146  0.3242  2.5323 -0.1948
  197MPD1    H3 3055   4.034   4.522  16.907 -2.0806 -0.1567  2.7326
  197MPD1     N 3056   4.473   4.419  16.934 -0.2698  0.4133 -0.4899
  197MPD1    H5 3057   4.478   4.417  16.833 -0.4451 -2.4728 -0.4383
  197MPD1    N1 3058   4.205   4.510  17.330  0.2001 -0.6382  0.4255
  197MPD1    H6 3059   4.117   4.468  17.359 -1.1850  1.7060 -0.4011
  197MPD1    H7 3060   4.278   4.462  17.382  1.9162  1.7027  0.1712
  198MPD1     C 3061   2.174   1.906  15.267 -0.5081 -0.0418  0.3710
  198MPD1    C1 3062   2.161   1.923  15.410 -0.8169 -0.2493 -0.2008
  198MPD1    C2 3063   2.230   2.034  15.458  0.2460  0.1786  0.1679
  198MPD1    C3 3064   2.291   2.130  15.373 -0.0384  0.1536 -0.1031
  198MPD1    C4 3065   2.297   2.112  15.240  0.2556 -0.1603  0.2072
  198MPD1    C5 3066   2.239   1.998  15.187  0.4619  0.6763 -0.1998
  198MPD1     H 3067   2.242   2.036  15.565 -1.6650 -1.3286  0.4019
  198MPD1    H1 3068   2.350   2.177  15.172  0.7109  1.4564  2.0923
  198MPD1    H2 3069   2.147   1.810  15.225  0.3365  0.2534 -0.8116
  198MPD1    H3 3070   2.236   1.983  15.080  0.4480  0.6557 -0.1968
  198MPD1     N 3071   2.353   2.234  15.440  0.2813 -0.0370 -0.1204
  198MPD1    H5 3072   2.354   2.228  15.541 -3.1050 -1.7321 -0.1974
  198MPD1    N1 3073   2.142   1.806  15.492  0.4275 -0.0935 -0.2875
  198MPD1    H6 3074   2.068   1.745  15.458  0.8025 -0.8241  0.2216
  198MPD1    H7 3075   2.119   1.836  15.586 -1.7913  0.8933 -1.1464
  199MPD1     C 3076   4.657   3.302  10.127 -0.3692 -0.1984  0.3352
  199MPD1    C1 3077   4.596   3.394  10.209 -0.1645 -0.5134 -0.5113
  199MPD1    C2 3078   4.458   3.417  10.206  0.2854  0.2133 -0.0546
  199MPD1    C3 3079   4.382   3.324  10.135  0.1623 -0.0805  0.1275
  199MPD1    C4 3080   4.437   3.235  10.051 -0.7049  0.3728 -0.5965
  199MPD1    C5 3081   4.571   3.221  10.052 -0.0811  0.3981 -0.9895
  199MPD1     H 3082   4.412   3.486  10.275 -0.5627  0.4073 -0.8149
  199MPD1    H1 3083   4.377   3.162   9.998 -0.6816  0.4043 -0.6657
  199MPD1    H2 3084   0.024   3.276  10.140 -0.3048 -1.1721 -2.0518
  199MPD1    H3 3085   4.605   3.133  10.000  0.2821  0.1744 -0.3710
  199MPD1     N 3086   4.243   3.333  10.140  0.2735  0.0017  0.0212
  199MPD1    H5 3087   4.196   3.263  10.084  0.1256 -1.0017  1.4002
  199MPD1    N1 3088   4.676   3.493  10.271 -0.1052  0.1330  0.4924
  199MPD1    H6 3089   4.627   3.507  10.359 -1.8272 -1.0028 -0.3029
  199MPD1    H7 3090   0.030   3.456  10.297  1.4835  2.1074 -2.3771
  200MPD1     C 3091   3.307   3.344  15.170  0.1708 -0.5934  0.2587
  200MPD1    C1 3092   3.299   3.387  15.038 -0.0831 -0.8553 -0.0454
  200MPD1    C2 3093   3.411   3.398  14.960  0.1307  0.0171 -0.2206
  200MPD1    C3 3094   3.538   3.378  15.014 -0.3399  0.1920 -0.1163
  200MPD1    C4 3095   3.550   3.343  15.147 -0.2520  0.5959  0.6869
  200MPD1    C5 3096   3.433   3.322  15.227  0.6222 -0.3681  0.6413
  200MPD1     H 3097   3.387   3.417  14.856  2.2575 -1.3805 -0.9804
  200MPD1    H1 3098   3.647   3.317  15.189 -0.5101  1.0067  1.5490
  200MPD1    H2 3099   3.220   3.333  15.233  1.5824  0.4546  2.3750
  200MPD1    H3 3100   3.450   3.297  15.331 -2.5678 -0.7005  1.0911
  200MPD1     N 3101   3.653   3.405  14.928 -0.0938  0.3807 -0.7386
  200MPD1    H5 3102   3.624   3.436  14.836  0.4703  2.8230 -0.0709
  200MPD1    N1 3103   3.177   3.409  14.977  0.4509 -0.1197  0.0011
  200MPD1    H6 3104   3.097   3.420  15.039  0.5308 -1.3560  0.3237
  200MPD1    H7 3105   3.176   3.486  14.910 -0.8446 -1.4327 -1.4840
  201MPD1     C 3106   0.896   1.960  13.658 -0.0052  0.3674  0.3729
  201MPD1    C1 3107   0.898   1.974  13.520  1.0653  0.2033  0.3561
  201MPD1    C2 3108   1.015   1.963  13.452  0.1645 -0.8577  0.0532
  201MPD1    C3 3109   1.123   1.911  13.514  0.0909  0.6319  0.9686
  201MPD1    C4 3110   1.117   1.873  13.644  0.2257  1.0447  0.1506
  201MPD1    C5 3111   1.004   1.892  13.713  0.5289 -0.6080 -0.3335
  201MPD1     H 3112   1.028   1.979  13.345  0.8014 -1.9313 -0.0373
  201MPD1    H1 3113   1.206   1.835  13.692 -0.0025  1.3807  0.8365
  201MPD1    H2 3114   0.806   1.975  13.717 -0.5800 -0.0266 -0.4138
  201MPD1    H3 3115   1.013   1.873  13.819  2.2883 -0.2200 -0.4073
  201MPD1     N 3116   1.247   1.902  13.445 -0.5662 -0.5763 -0.7308
  201MPD1    H5 3117   1.236   1.915  13.345 -0.1751 -1.9179 -0.9568
  201MPD1    N1 3118   0.792   2.035  13.457  0.0857 -0.0008 -0.0648
  201MPD1    H6 3119   0.800   2.008  13.359  0.6027  0.8986 -0.2639
  201MPD1    H7 3120   0.702   2.005  13.494  0.5359 -0.1701  0.8978
  202MPD1     C 3121   0.915   1.758   9.492 -0.6583 -0.7966 -0.0331
  202MPD1    C1 3122   0.789   1.802   9.523  0.4316  0.0636  0.8466
  202MPD1    C2 3123   0.777   1.875   9.635  0.6113  0.3692 -0.4551
  202MPD1    C3 3124   0.875   1.877   9.738 -0.0789 -0.6962  0.1648
  202MPD1    C4 3125   0.996   1.820   9.707 -0.2939 -0.1919 -0.5468
  202MPD1    C5 3126   1.016   1.768   9.582 -1.0904  0.9233 -0.4285
  202MPD1     H 3127   0.679   1.912   9.661  0.1136 -1.7574  0.6848
  202MPD1    H1 3128   1.075   1.817   9.781 -0.3725  2.3588 -0.3578
  202MPD1    H2 3129   0.938   1.714   9.395  3.1489  0.3203  0.3562
  202MPD1    H3 3130   1.113   1.734   9.548 -0.8170 -0.2286  1.5336
  202MPD1     N 3131   0.857   1.936   9.863  0.0690  0.2746  0.0353
  202MPD1    H5 3132   0.933   1.918   9.927 -0.4312 -1.4390  0.1536
  202MPD1    N1 3133   0.701   1.828   9.411 -0.2642 -0.1734  0.3149
  202MPD1    H6 3134   0.709   1.751   9.345 -1.9150  0.8361 -1.0403
  202MPD1    H7 3135   0.606   1.840   9.444 -0.1226  2.5905 -0.2720
  203MPD1     C 3136   4.092   2.627  12.448  0.5644  0.2758  0.4850
  203MPD1    C1 3137   4.085   2.487  12.440  0.1287  0.5814  0.3926
  203MPD1    C2 3138   4.179   2.414  12.509 -0.6493  0.2757 -0.5684
  203MPD1    C3 3139   4.275   2.467  12.590  0.2105 -0.3184 -0.6321
  203MPD1    C4 3140   4.280   2.609  12.597 -0.2189  0.3241 -0.6379
  203MPD1    C5 3141   4.190   2.687  12.529  0.6911  0.0416 -0.2900
  203MPD1     H 3142   4.171   2.306  12.508 -0.0393  0.2139  1.2696
  203MPD1    H1 3143   4.355   2.658  12.658 -1.7472 -1.4976  2.6847
  203MPD1    H2 3144   4.018   2.688  12.399  1.5202 -0.1397 -1.4809
  203MPD1    H3 3145   4.207   2.793  12.535 -0.1223  0.2520 -1.7003
  203MPD1     N 3146   4.374   2.382  12.640 -0.0828  0.2319 -0.4128
  203MPD1    H5 3147   4.388   2.288  12.604  0.3548 -0.3789  1.3371
  203MPD1    N1 3148   3.993   2.427  12.351  0.0983  0.1540  0.3548
  203MPD1    H6 3149   3.908   2.481  12.335 -0.3525 -0.6705 -0.0441
  203MPD1    H7 3150   3.972   2.330  12.371 -3.1692  0.7761  0.0839
  204MPD1     C 3151   4.174   3.910   0.723  0.5554  0.4455 -0.0509
  204MPD1    C1 3152   4.287   3.887   0.644  0.0972  0.6498 -0.2183
  204MPD1    C2 3153   4.256   3.804   0.532  0.8401  0.4599 -0.5603
  204MPD1    C3 3154   4.130   3.771   0.488 -0.6453 -0.1742  0.1697
  204MPD1    C4 3155   4.026   3.819   0.561 -0.3485 -0.1800  0.9113
  204MPD1    C5 3156   4.049   3.881   0.681 -0.5635 -0.5884 -0.1030
  204MPD1     H 3157   4.336   3.787   0.461  0.2883  1.3105 -1.3882
  204MPD1    H1 3158   3.925   3.820   0.523  0.0353 -0.5511 -0.1106
  204MPD1    H2 3159   4.176   3.971   0.813  1.9406 -1.7610  1.4206
  204MPD1    H3 3160   3.963   3.919   0.736  0.3260  1.2790 -0.0183
  204MPD1     N 3161   4.108   3.712   0.366  0.2261 -0.7628 -0.0109
  204MPD1    H5 3162   4.194   3.704   0.313 -0.0001  1.1397 -0.6824
  204MPD1    N1 3163   4.422   3.892   0.693  0.0362  0.0266 -0.2957
  204MPD1    H6 3164   4.434   3.976   0.749 -1.5337  0.0710 -0.0248
  204MPD1    H7 3165   4.486   3.885   0.614  0.8656  0.4469  0.3454
  205MPD1     C 3166   3.538   3.232  16.867  0.2868  0.0446  0.3163
  205MPD1    C1 3167   3.611   3.128  16.815  0.1947 -0.5205  0.2036
  205MPD1    C2 3168   3.673   3.040  16.901 -0.4533 -0.9015  0.5867
  205MPD1    C3 3169   3.691   3.073  17.028  0.2350  0.2077  0.3328
  205MPD1    C4 3170   3.625   3.183  17.081 -0.4262  0.2071 -0.1467
  205MPD1    C5 3171   3.548   3.264  17.002 -0.3728 -0.6791  0.5218
  205MPD1     H 3172   3.710   2.947  16.860  1.5925  0.5322 -0.8059
  205MPD1    H1 3173   3.635   3.208  17.186 -0.5696 -1.1384  0.1908
  205MPD1    H2 3174   3.479   3.297  16.804  0.8262 -1.7050 -1.9688
  205MPD1    H3 3175   3.500   3.356  17.033 -0.4150 -0.6222  0.2819
  205MPD1     N 3176   3.774   2.991  17.115 -0.1772 -0.1274 -0.1082
  205MPD1    H5 3177   3.784   3.029  17.208 -0.4849 -1.1465  0.3461
  205MPD1    N1 3178   3.591   3.096  16.681 -0.3414  0.1926 -0.6732
  205MPD1    H6 3179   3.661   3.030  16.647  1.5982  1.9635 -0.0591
  205MPD1    H7 3180   3.610   3.178  16.624 -2.1301  1.0147 -0.0812
  206MPD1     C 3181   3.540   1.050  17.048 -0.2929 -0.1140  0.5183
  206MPD1    C1 3182   3.562   0.916  17.048 -0.3334 -0.0244  0.4820
  206MPD1    C2 3183   3.618   0.853  16.931 -0.5209 -0.0476 -0.3075
  206MPD1    C3 3184   3.651   0.937  16.823 -0.7781 -0.5735 -1.1650
  206MPD1    C4 3185   3.627   1.069  16.829 -0.5334  0.4649  0.1323
  206MPD1    C5 3186   3.556   1.125  16.930 -0.0865 -0.3935 -0.3580
  206MPD1     H 3187   3.613   0.745  16.924 -0.7018 -0.1202  1.0464
  206MPD1    H1 3188   3.640   1.133  16.743 -2.9895 -1.8622 -1.9871
  206MPD1    H2 3189   3.478   1.104  17.118  1.2314  0.8998  1.0846
  206MPD1    H3 3190   3.508   1.222  16.925 -2.6463 -1.6943 -1.3052
  206MPD1     N 3191   3.707   0.893  16.706  0.3373  0.3449 -0.2782
  206MPD1    H5 3192   3.715   0.961  16.632 -0.5979 -1.7039 -2.2364
  206MPD1    N1 3193   3.505   0.836  17.154  0.0368 -0.1895 -0.2937
  206MPD1    H6 3194   3.532   0.881  17.241 -4.3522  2.2399 -0.1923
  206MPD1    H7 3195   3.557   0.749  17.147  2.0435  1.0334 -0.7949
  207MPD1     C 3196   1.385   3.525  10.238 -0.5839 -0.7610 -0.0485
  207MPD1    C1 3197   1.479   3.616  10.198  0.7760 -0.1778 -0.7537
  207MPD1    C2 3198   1.606   3.602  10.248 -0.0735  0.2245  0.3116
  207MPD1    C3 3199   1.635   3.516  10.347 -0.6578  0.0175  0.6575
  207MPD1    C4 3200   1.538   3.435  10.392 -0.0430  0.1812 -0.3223
  207MPD1    C5 3201   1.411   3.437  10.339 -0.1744  0.5499  0.6663
  207MPD1     H 3202   1.679   3.677  10.220  0.8394 -0.3543  1.1886
  207MPD1    H1 3203   1.566   3.356  10.460  0.0813  0.6118  0.1258
  207MPD1    H2 3204   1.289   3.524  10.188  0.2267  0.9938 -1.6644
  207MPD1    H3 3205   1.331   3.367  10.359 -1.7024  1.6357 -1.6770
  207MPD1     N 3206   1.767   3.493  10.404 -0.5347  0.1570  0.1752
  207MPD1    H5 3207   1.773   3.422  10.476 -0.0563  1.9597  1.9188
  207MPD1    N1 3208   1.467   3.695  10.085  0.5083  0.5141 -0.0004
  207MPD1    H6 3209   1.549   3.755  10.079  0.0972  0.9834 -0.9167
  207MPD1    H7 3210   1.376   3.742  10.084  0.6458  0.7358 -1.9534
  208MPD1     C 3211   0.337   2.138  17.134  0.4815  1.3035 -0.2801
  208MPD1    C1 3212   0.210   2.195  17.134  0.0493 -0.2554  0.1021
  208MPD1    C2 3213   0.141   2.198  17.252 -0.0280  0.3702 -0.2496
  208MPD1    C3 3214   0.200   2.145  17.370  0.3021 -0.0672  0.0451
  208MPD1    C4 3215   0.325   2.082  17.361  0.8530  0.3670  0.1948
  208MPD1    C5 3216   0.396   2.084  17.243 -0.5270  0.0968 -0.2384
  208MPD1     H 3217   0.057   2.267  17.262 -1.3239 -0.8819 -2.6234
  208MPD1    H1 3218   0.365   2.036  17.451 -2.7571 -1.0395  1.0643
  208MPD1    H2 3219   0.395   2.130  17.043  0.2212 -0.4162 -0.2823
  208MPD1    H3 3220   0.495   2.043  17.233 -1.4046 -1.7618 -1.3250
  208MPD1     N 3221   0.119   2.153  17.477  0.7897 -0.8640 -0.2550
  208MPD1    H5 3222   0.028   2.198  17.470  1.8996  1.2191 -1.2278
  208MPD1    N1 3223   0.159   2.248  17.012  0.1285  0.0231 -0.3482
  208MPD1    H6 3224   0.059   2.268  17.013 -0.0470 -0.7078 -2.4279
  208MPD1    H7 3225   0.177   2.190  16.931 -0.5815  0.2801 -0.6951
  209MPD1     C 3226   1.066   2.716  11.219  0.0094  0.7258 -0.0475
  209MPD1    C1 3227   1.135   2.689  11.338 -0.0295  0.4126  0.4383
  209MPD1    C2 3228   1.269   2.690  11.338 -0.2685 -0.2820 -0.4015
  209MPD1    C3 3229   1.339   2.725  11.221 -0.0004 -0.1242 -0.5607
  209MPD1    C4 3230   1.278   2.732  11.100  0.8417 -0.5176  0.4531
  209MPD1    C5 3231   1.137   2.729  11.104 -0.2810 -0.5650  0.6558
  209MPD1     H 3232   1.313   2.671  11.436 -2.5207 -1.9686  0.2782
  209MPD1    H1 3233   1.338   2.716  11.012 -1.8107 -2.2597 -1.0617
  209MPD1    H2 3234   0.959   2.722  11.210 -0.1253 -0.7017  0.5343
  209MPD1    H3 3235   1.084   2.739  11.010  0.1394  1.1309  0.5992
  209MPD1     N 3236   1.477   2.743  11.235 -0.3246 -0.0895  0.1089
  209MPD1    H5 3237   1.521   2.722  11.324 -1.3767  0.0872  0.6646
  209MPD1    N1 3238   1.062   2.688  11.457  0.1103  0.0884 -0.4236
  209MPD1    H6 3239   0.964   2.663  11.449  0.1864  0.6196 -2.9839
  209MPD1    H7 3240   1.110   2.633  11.528 -2.5384  0.1497  1.4166
  210MPD1     C 3241   2.348   2.739  11.758  0.0480 -0.8977  0.0158
  210MPD1    C1 3242   2.217   2.781  11.777  0.7496  0.1643  0.4652
  210MPD1    C2 3243   2.126   2.783  11.670  0.7317 -0.3657  0.2542
  210MPD1    C3 3244   2.170   2.762  11.539  0.2292 -0.0422  0.5878
  210MPD1    C4 3245   2.304   2.727  11.522 -0.6042 -0.4964  0.9559
  210MPD1    C5 3246   2.389   2.723  11.630 -0.0779 -0.3386  0.2623
  210MPD1     H 3247   2.025   2.819  11.688  1.1137  0.8426 -0.0225
  210MPD1    H1 3248   2.340   2.712  11.420  0.3667  0.5200  1.1553
  210MPD1    H2 3249   2.422   2.726  11.837 -2.3144 -0.7408  2.2391
  210MPD1    H3 3250   2.496   2.708  11.618 -0.2020 -0.0974 -1.0807
  210MPD1     N 3251   2.085   2.772  11.429  0.0945  0.8418  0.3257
  210MPD1    H5 3252   2.130   2.774  11.338  0.9558  0.3406  0.7448
  210MPD1    N1 3253   2.170   2.801  11.906 -0.0797  0.3663  0.4043
  210MPD1    H6 3254   2.099   2.875  11.905  1.0570  1.4642  0.3338
  210MPD1    H7 3255   2.242   2.828  11.972  0.8777  1.7885 -1.2259
  211MPD1     C 3256   4.618   1.765  17.032  0.2644 -0.7197  0.2629
  211MPD1    C1 3257   4.682   1.889  17.059 -0.0892 -0.5910 -0.3710
  211MPD1    C2 3258   4.616   2.000  17.025 -0.2576 -0.4887  0.3374
  211MPD1    C3 3259   4.507   2.001  16.943 -0.1908 -0.2306  0.5158
  211MPD1    C4 3260   4.471   1.880  16.893  1.1730  0.0561  0.4158
  211MPD1    C5 3261   4.516   1.762  16.946 -1.2176  0.2918  0.3079
  211MPD1     H 3262   4.653   2.092  17.069 -3.1411  0.6575  0.3519
  211MPD1    H1 3263   4.394   1.872  16.817 -0.4963  2.3351  1.8760
  211MPD1    H2 3264   4.657   1.671  17.069 -1.4882 -1.9275 -0.9372
  211MPD1    H3 3265   4.454   1.676  16.924  2.9312 -2.1291 -1.9440
  211MPD1     N 3266   4.458   2.122  16.889  0.3705 -1.1049  0.4210
  211MPD1    H5 3267   4.508   2.207  16.912  0.8650 -1.7879  1.8458
  211MPD1    N1 3268   0.057   1.894  17.143 -0.8620  0.5039  0.1989
  211MPD1    H6 3269   0.100   1.987  17.142 -2.7084  1.3601  0.3432
  211MPD1    H7 3270   0.135   1.831  17.126  0.7682  2.2912  0.9858
  212MPD1     C 3271   3.562   1.452  16.385 -0.1764 -0.2965 -0.1240
  212MPD1    C1 3272   3.600   1.324  16.358 -0.5185 -0.4225  0.4751
  212MPD1    C2 3273   3.523   1.219  16.415 -0.6752 -0.2354  0.4820
  212MPD1    C3 3274   3.424   1.236  16.507 -0.4842 -0.8132  0.3689
  212MPD1    C4 3275   3.404   1.367  16.555  0.1910 -0.0747  0.0411
  212MPD1    C5 3276   3.477   1.466  16.497  0.2867 -0.5713 -0.2119
  212MPD1     H 3277   3.535   1.120  16.374  0.4324  0.3765 -0.6681
  212MPD1    H1 3278   3.349   1.391  16.645 -0.3673 -1.6796  0.1187
  212MPD1    H2 3279   3.604   1.539  16.335 -1.7637  0.1714 -0.6286
  212MPD1    H3 3280   3.455   1.567  16.530 -1.3584 -0.2157 -2.3237
  212MPD1     N 3281   3.364   1.139  16.582  0.0260  0.3219  0.1393
  212MPD1    H5 3282   3.295   1.161  16.652  0.7783 -0.8751  1.2764
  212MPD1    N1 3283   3.687   1.297  16.255 -0.1597  0.5673 -0.7436
  212MPD1    H6 3284   3.717   1.199  16.248  0.3421  0.7519 -1.1610
  212MPD1    H7 3285   3.759   1.366  16.236  0.5653 -1.0851 -4.0039
  213MPD1     C 3286   2.072   1.291  15.789 -0.1410 -0.5008 -0.3954
  213MPD1    C1 3287   1.947   1.242  15.743  0.2820  0.1040  0.0634
  213MPD1    C2 3288   1.922   1.252  15.609  0.1432 -0.3213 -0.3832
  213MPD1    C3 3289   1.984   1.352  15.535 -0.4134 -0.0861  0.3624
  213MPD1    C4 3290   2.076   1.435  15.599  0.1678 -0.7315 -0.1183
  213MPD1    C5 3291   2.119   1.399  15.723 -0.4800 -0.1396  0.3579
  213MPD1     H 3292   1.853   1.182  15.562 -1.8678  0.7771  0.9464
  213MPD1    H1 3293   2.125   1.519  15.550 -0.4218 -0.6391 -0.5472
  213MPD1    H2 3294   2.099   1.281  15.894 -1.2224  0.0188 -0.0681
  213MPD1    H3 3295   2.210   1.454  15.746  0.7342 -1.9857 -0.0093
  213MPD1     N 3296   1.941   1.366  15.399 -0.5340  0.2656 -0.5587
  213MPD1    H5 3297   1.873   1.298  15.365 -1.7439  1.2631 -0.1208
  213MPD1    N1 3298   1.887   1.133  15.802 -0.3938 -0.1634 -0.1971
  213MPD1    H6 3299   1.789   1.109  15.787 -1.3439  1.5199  3.4423
  213MPD1    H7 3300   1.898   1.133  15.903  0.9587  1.3724 -0.3504
  214MPD1     C 3301   1.670   0.859  14.632  0.0355 -0.4201  0.5188
  214MPD1    C1 3302   1.600   0.876  14.754 -0.8973  0.2891 -0.3666
  214MPD1    C2 3303   1.627   0.995  14.832 -1.3139  0.0998  0.6290
  214MPD1    C3 3304   1.707   1.089  14.774  0.3160  0.3812 -0.4137
  214MPD1    C4 3305   1.762   1.071  14.649  0.9781  0.5402  0.6062
  214MPD1    C5 3306   1.744   0.959  14.574  0.3497  0.0383 -0.3912
  214MPD1     H 3307   1.579   1.015  14.928  0.6703 -2.0468  2.0789
  214MPD1    H1 3308   1.827   1.146  14.607 -0.4655  0.5296 -1.6505
  214MPD1    H2 3309   1.677   0.768  14.574 -0.3275 -0.3257  0.3317
  214MPD1    H3 3310   1.801   0.937  14.484 -0.0705  1.0341 -0.8962
  214MPD1     N 3311   1.756   1.202  14.839 -0.3799  0.4800  0.1648
  214MPD1    H5 3312   1.816   1.266  14.789  1.6523  0.4676  2.5847
  214MPD1    N1 3313   1.520   0.772  14.799  0.7634  0.2123 -0.2160
  214MPD1    H6 3314   1.468   0.716  14.732  1.9338 -0.9172 -0.1754
  214MPD1    H7 3315   1.450   0.808  14.865 -0.2675 -2.2138  0.0347
  215MPD1     C 3316   0.896   2.565  11.944 -0.5004 -0.4134  0.5058
  215MPD1    C1 3317   1.002   2.523  12.026  0.4449  0.2416 -0.0436
  215MPD1    C2 3318   1.123   2.589  12.004 -0.1094 -0.7902  0.4486
  215MPD1    C3 3319   1.133   2.690  11.905 -0.0682  0.2218 -0.2234
  215MPD1    C4 3320   1.023   2.731  11.833  0.4675  1.0057 -0.0458
  215MPD1    C5 3321   0.906   2.661  11.851  0.4221 -0.9180  0.3538
  215MPD1     H 3322   1.212   2.558  12.058 -0.7205  0.0669  1.9629
  215MPD1    H1 3323   1.021   2.809  11.758 -0.0252  1.8720  0.8611
  215MPD1    H2 3324   0.802   2.512  11.937  0.9477 -2.9063 -0.3883
  215MPD1    H3 3325   0.825   2.680  11.781  2.1470  0.1586 -1.3567
  215MPD1     N 3326   1.258   2.758  11.883  0.5024 -0.3485  0.1140
  215MPD1    H5 3327   1.341   2.730  11.934  0.0668  0.2269  1.1465
  215MPD1    N1 3328   0.990   2.408  12.109 -0.4316  0.1547 -0.0966
  215MPD1    H6 3329   0.893   2.392  12.138 -0.3997  0.4908  0.1963
  215MPD1    H7 3330   1.043   2.421  12.195 -1.6530 -1.0864  0.8573
  216MPD1     C 3331   2.848   0.792   0.878  0.2464  0.4602  0.3685
  216MPD1    C1 3332   2.807   0.695   0.802 -0.2650 -0.6734 -0.7192
  216MPD1    C2 3333   2.884   0.576   0.804 -0.2207  0.7337  0.1912
  216MPD1    C3 3334   2.986   0.548   0.887 -0.5594  0.1255  0.2773
  216MPD1    C4 3335   3.032   0.650   0.961  0.0394 -0.4664 -0.5458
  216MPD1    C5 3336   2.957   0.769   0.960  0.6358 -0.3279  1.0473
  216MPD1     H 3337   2.861   0.495   0.736  0.1276  0.9885 -0.2277
  216MPD1    H1 3338   3.117   0.653   1.028 -0.3280 -1.8286 -0.0303
  216MPD1    H2 3339   2.807   0.892   0.880  2.2736  1.2754  1.1326
  216MPD1    H3 3340   2.988   0.856   1.017  0.8026  1.2793 -1.4808
  216MPD1     N 3341   3.056   0.429   0.887 -0.0301  0.4546 -0.1025
  216MPD1    H5 3342   3.005   0.348   0.852  0.0337  0.7584 -0.9016
  216MPD1    N1 3343   2.724   0.713   0.690 -0.3540 -0.0406  0.4216
  216MPD1    H6 3344   2.679   0.626   0.661  0.2437 -0.7121  1.4735
  216MPD1    H7 3345   2.645   0.774   0.707 -0.9158 -0.3921 -0.9381
  217MPD1     C 3346   3.927   0.853   9.060 -0.4508 -0.1102 -0.0469
  217MPD1    C1 3347   4.044   0.827   8.984  0.4332 -0.1490 -0.4835
  217MPD1    C2 3348   4.157   0.908   9.019  0.6848  0.3968 -0.7588
  217MPD1    C3 3349   4.157   1.005   9.118 -0.3073  0.0192  0.3434
  217MPD1    C4 3350   4.045   1.018   9.190  0.1759  0.6172  0.3550
  217MPD1    C5 3351   3.933   0.942   9.163 -0.1444  0.1289 -0.2647
  217MPD1     H 3352   4.248   0.893   8.962  0.5860  1.2595 -1.1383
  217MPD1    H1 3353   4.045   1.070   9.285  0.1959  0.7212  0.2975
  217MPD1    H2 3354   3.841   0.788   9.052 -1.2559  0.7538  1.6289
  217MPD1    H3 3355   3.852   0.948   9.235 -1.0411 -1.0828 -1.1879
  217MPD1     N 3356   4.267   1.089   9.158  1.5339 -0.1616 -0.8129
  217MPD1    H5 3357   4.255   1.148   9.239  2.3222  0.2666 -1.0154
  217MPD1    N1 3358   4.033   0.745   8.871 -0.0758  0.0994 -0.3459
  217MPD1    H6 3359   3.943   0.699   8.869 -0.1961  0.3084  0.1956
  217MPD1    H7 3360   4.109   0.677   8.869 -0.2942 -0.1029 -1.4301
  218MPD1     C 3361   1.095   2.566  13.096 -0.5061 -0.2597  0.6653
  218MPD1    C1 3362   1.197   2.488  13.069 -0.6830  0.1474 -0.6904
  218MPD1    C2 3363   1.315   2.549  13.017 -0.1795 -0.4849  0.0123
  218MPD1    C3 3364   1.320   2.682  12.989  0.3583  0.9533  0.6491
  218MPD1    C4 3365   1.205   2.759  13.011 -0.3443 -0.0642 -0.3089
  218MPD1    C5 3366   1.093   2.698  13.063 -0.1096  0.0625  0.0420
  218MPD1     H 3367   1.405   2.490  13.004  1.3557  1.5357  1.4490
  218MPD1    H1 3368   1.208   2.865  12.992 -1.7648  0.1431  0.6245
  218MPD1    H2 3369   1.004   2.522  13.134  0.2463 -1.3977  1.1378
  218MPD1    H3 3370   1.007   2.760  13.086  0.4129  0.6523  0.3788
  218MPD1     N 3371   1.440   2.734  12.935 -0.0936 -0.0456  0.7411
  218MPD1    H5 3372   1.513   2.665  12.922  0.3740  0.5391  0.3001
  218MPD1    N1 3373   1.195   2.355  13.109  0.0791  0.5430 -0.6765
  218MPD1    H6 3374   1.115   2.301  13.140  1.5862 -1.3382 -0.0254
  218MPD1    H7 3375   1.241   2.291  13.043  0.5391 -1.1934  1.3303
  219MPD1     C 3376   1.409   3.136  12.113  0.0009  0.0581 -0.2551
  219MPD1    C1 3377   1.545   3.155  12.120  0.4969  0.9031 -0.8169
  219MPD1    C2 3378   1.601   3.116  12.243  0.0926  0.0902  0.1926
  219MPD1    C3 3379   1.525   3.044  12.337 -0.0904  0.6838 -0.0112
  219MPD1    C4 3380   1.396   3.007  12.310  0.3940 -0.0205 -0.5276
  219MPD1    C5 3381   1.340   3.059  12.197 -0.9934 -0.6598  0.2639
  219MPD1     H 3382   1.704   3.143  12.263 -0.1128  1.0736 -0.0669
  219MPD1    H1 3383   1.333   2.943  12.371 -0.3669  0.2784 -0.9955
  219MPD1    H2 3384   1.344   3.183  12.039 -1.0032  1.2314  1.3808
  219MPD1    H3 3385   1.232   3.045  12.191 -0.9456 -1.4882  1.3756
  219MPD1     N 3386   1.573   3.016  12.465  0.4713  0.2919  0.7004
  219MPD1    H5 3387   1.514   2.954  12.519  0.1667 -0.3629 -0.3917
  219MPD1    N1 3388   1.616   3.242  12.036 -0.3425  0.0174 -0.1503
  219MPD1    H6 3389   1.567   3.265  11.949 -0.2912  0.4672 -0.0589
  219MPD1    H7 3390   1.714   3.218  12.022  0.4516  2.6229  1.0700
  220MPD1     C 3391   1.682   3.091  10.039 -0.3393  0.1649  0.2404
  220MPD1    C1 3392   1.755   3.082  10.156  0.1881  0.1505  0.0242
  220MPD1    C2 3393   1.689   3.107  10.271 -0.6330 -0.0367  0.4033
  220MPD1    C3 3394   1.549   3.110  10.276 -0.2554 -0.4492  0.7419
  220MPD1    C4 3395   1.478   3.125  10.162  0.1454  0.3467  0.4879
  220MPD1    C5 3396   1.545   3.103  10.041  0.3310 -0.2664  0.1610
  220MPD1     H 3397   1.742   3.104  10.366  3.7584 -0.4221 -2.0408
  220MPD1    H1 3398   1.370   3.140  10.168  0.3772  1.6556  1.2925
  220MPD1    H2 3399   1.734   3.081   9.944 -0.1285 -0.0811  0.3822
  220MPD1    H3 3400   1.488   3.092   9.949 -1.2765  2.5031  0.8485
  220MPD1     N 3401   1.493   3.107  10.400 -0.0004  0.1010 -0.3862
  220MPD1    H5 3402   1.554   3.097  10.480 -0.9071  0.0164  0.3040
  220MPD1    N1 3403   1.892   3.073  10.152 -0.2179  0.0852 -0.0634
  220MPD1    H6 3404   1.924   3.035  10.241 -2.0524  0.0845  0.6065
  220MPD1    H7 3405   1.930   3.017  10.076  0.8990  1.1158 -0.2576
  221MPD1     C 3406   4.733   2.552  15.853 -0.1156  0.5482  0.5805
  221MPD1    C1 3407   4.621   2.485  15.805 -0.2549  0.0113 -0.3380
  221MPD1    C2 3408   4.548   2.405  15.893  0.3644  0.5678  0.4753
  221MPD1    C3 3409   4.587   2.389  16.025 -0.2260 -0.0580  0.3662
  221MPD1    C4 3410   4.699   2.464  16.070 -1.1305 -0.3465 -0.3117
  221MPD1    C5 3411   0.028   2.545  15.984 -0.0231  0.6264  0.1962
  221MPD1     H 3412   4.456   2.358  15.861 -0.1264  1.5853  0.3663
  221MPD1    H1 3413   4.733   2.445  16.172  0.7215 -0.3155 -0.9329
  221MPD1    H2 3414   0.052   2.616  15.785  2.4664 -1.4247  0.9052
  221MPD1    H3 3415   0.117   2.595  16.022 -1.4035  2.5242  0.9112
  221MPD1     N 3416   4.523   2.320  16.132  0.8199  0.0899 -0.5348
  221MPD1    H5 3417   4.568   2.305  16.221 -0.6479  0.3172  0.2343
  221MPD1    N1 3418   4.565   2.517  15.681 -1.2424 -0.4942  0.0080
  221MPD1    H6 3419   4.500   2.447  15.645 -0.7585 -0.1209 -1.5676
  221MPD1    H7 3420   4.637   2.530  15.610 -1.2712  3.2556  0.6663
  222MPD1     C 3421   3.586   4.653   0.077 -0.3672  0.4139 -0.5892
  222MPD1    C1 3422   3.656   0.017   0.146 -0.2478 -0.0591  0.1566
  222MPD1    C2 3423   3.587   0.138   0.171 -0.4234 -0.5201  0.5581
  222MPD1    C3 3424   3.457   0.160   0.120  0.0346 -0.6747  0.1608
  222MPD1    C4 3425   3.392   0.056   0.053  0.1609  0.8458  0.9078
  222MPD1    C5 3426   3.458   4.674   0.033 -0.1612  0.1357 -0.3158
  222MPD1     H 3427   3.640   0.211   0.231 -2.0762  0.9552  0.2210
  222MPD1    H1 3428   3.286   0.059   0.032  0.3726  3.2133  0.1977
  222MPD1    H2 3429   3.629   4.556   0.054  3.5181  0.6478  5.4898
  222MPD1    H3 3430   3.408   4.587  17.743  1.2477 -1.5181  1.5092
  222MPD1     N 3431   3.380   0.283   0.135 -0.1959  0.0680 -0.1002
  222MPD1    H5 3432   3.288   0.292   0.094 -0.2605 -0.6372 -0.1015
  222MPD1    N1 3433   3.774   4.733   0.213 -0.1560  0.1915  0.1342
  222MPD1    H6 3434   3.850   4.692   0.158 -0.0124 -0.2399  0.6517
  222MPD1    H7 3435   3.815   0.080   0.251 -1.5688  1.4805 -1.2292
  223MPD1     C 3436   2.484   0.619   0.357  0.1329  0.5779  0.4869
  223MPD1    C1 3437   2.531   0.708   0.272 -0.1929 -0.2080  0.3562
  223MPD1    C2 3438   2.670   0.719   0.253  0.0441 -0.3619 -0.5772
  223MPD1    C3 3439   2.756   0.629   0.308 -0.0182 -0.1914 -0.0596
  223MPD1    C4 3440   2.704   0.534   0.394  0.0473 -0.6199  0.1904
  223MPD1    C5 3441   2.569   0.534   0.423  0.1295 -0.0401 -0.2173
  223MPD1     H 3442   2.723   0.790   0.190 -2.0968  1.9990  0.2889
  223MPD1    H1 3443   2.766   0.461   0.445 -1.3471 -1.8176  0.1566
  223MPD1    H2 3444   2.385   0.629   0.400 -0.5339  0.2809 -0.9652
  223MPD1    H3 3445   2.533   0.461   0.495  1.8681 -1.0395 -0.3600
  223MPD1     N 3446   2.892   0.633   0.263 -0.4372 -0.2965 -0.3188
  223MPD1    H5 3447   2.921   0.702   0.195 -0.3963 -0.9860 -1.0004
  223MPD1    N1 3448   2.444   0.810   0.233 -0.4010  0.3502  0.0621
  223MPD1    H6 3449   2.481   0.838   0.142 -1.4178  0.4983 -0.3068
  223MPD1    H7 3450   2.353   0.775   0.204 -0.6984  0.1116  1.2794
  224MPD1     C 3451   0.015   2.558   9.245 -0.3032  0.0546  0.3768
  224MPD1    C1 3452   4.722   2.659   9.336  0.4661 -0.2238  0.6517
  224MPD1    C2 3453   0.002   2.630   9.466  0.0037 -0.6715 -0.1225
  224MPD1    C3 3454   0.075   2.519   9.504 -0.4355  0.5360 -0.1097
  224MPD1    C4 3455   0.124   2.431   9.411 -0.5463 -0.4524 -0.5483
  224MPD1    C5 3456   0.092   2.450   9.283  0.5270 -0.0715  0.7126
  224MPD1     H 3457   4.709   2.706   9.536  1.5682  0.5100 -0.7105
  224MPD1    H1 3458   0.177   2.339   9.433 -0.4586 -0.5758 -1.2753
  224MPD1    H2 3459   4.725   2.569   9.141  0.7517 -0.6527  0.0132
  224MPD1    H3 3460   0.129   2.372   9.217  1.1461  0.2272  0.7113
  224MPD1     N 3461   0.099   2.486   9.637  0.3276  0.0362  0.6121
  224MPD1    H5 3462   0.169   2.413   9.648 -0.6366 -1.0222 -0.1907
  224MPD1    N1 3463   4.629   2.753   9.304  0.3927  0.1999 -0.4292
  224MPD1    H6 3464   4.635   2.829   9.372 -0.2697 -0.3718  0.2657
  224MPD1    H7 3465   4.635   2.800   9.214  0.5207 -0.0764 -0.5625
  225MPD1     C 3466   1.462   3.820  12.437 -0.6374 -0.4614  0.0776
  225MPD1    C1 3467   1.392   3.787  12.321  0.1441 -0.0189  1.0991
  225MPD1    C2 3468   1.271   3.727  12.347  0.3423  0.4008  0.4062
  225MPD1    C3 3469   1.238   3.681  12.477 -0.8249  0.1014 -0.8995
  225MPD1    C4 3470   1.319   3.705  12.580 -0.7278 -0.1122 -0.3608
  225MPD1    C5 3471   1.431   3.781  12.556  0.2286 -0.1733 -0.3029
  225MPD1     H 3472   1.207   3.707  12.261  1.4086  0.0548 -0.3084
  225MPD1    H1 3473   1.303   3.680  12.684  0.9665 -1.6407 -0.4599
  225MPD1    H2 3474   1.548   3.884  12.421 -0.3254 -1.1148 -0.8387
  225MPD1    H3 3475   1.497   3.806  12.639  0.0569  1.0154 -0.5239
  225MPD1     N 3476   1.122   3.601  12.498  0.2434  0.5273  0.1097
  225MPD1    H5 3477   1.096   3.585  12.595 -1.6161  1.6512 -0.2076
  225MPD1    N1 3478   1.422   3.842  12.199  0.5633  0.2332  0.1745
  225MPD1    H6 3479   1.371   3.798  12.122  2.9180 -1.5989 -0.3606
  225MPD1    H7 3480   1.521   3.853  12.178  1.0780 -1.4944  1.7205
  226MPD1     C 3481   3.761   4.050   9.367  0.0222 -0.1638  0.4069
  226MPD1    C1 3482   3.878   3.985   9.344 -0.7170 -0.3331 -0.2891
  226MPD1    C2 3483   3.948   3.941   9.458  0.2148 -0.5412 -0.2715
  226MPD1    C3 3484   3.901   3.955   9.582 -0.4637 -0.1054 -0.1093
  226MPD1    C4 3485   3.774   4.014   9.600 -0.2339  0.5606 -0.6530
  226MPD1    C5 3486   3.705   4.063   9.490  0.2894  0.0722  0.5383
  226MPD1     H 3487   4.046   3.896   9.448 -0.3874 -1.4337 -2.1045
  226MPD1    H1 3488   3.735   4.028   9.701 -0.3615 -1.2711 -0.4339
  226MPD1    H2 3489   3.704   4.104   9.292  0.7399  0.5199  0.3652
  226MPD1    H3 3490   3.606   4.104   9.509 -0.1215  0.7213 -2.9381
  226MPD1     N 3491   3.974   3.903   9.690 -0.2305  0.0222 -0.4558
  226MPD1    H5 3492   4.047   3.837   9.663  0.8906  1.5641 -1.1547
  226MPD1    N1 3493   3.925   3.985   9.214  0.4201  0.5033 -0.1468
  226MPD1    H6 3494   3.990   3.910   9.192 -2.3175 -1.4829 -1.4906
  226MPD1    H7 3495   3.853   3.987   9.141  0.0143 -0.2934  0.2274
  227MPD1     C 3496   4.300   3.876  10.605  0.0948 -0.4736  0.1133
  227MPD1    C1 3497   4.174   3.913  10.561  0.3572  0.0369 -0.6651
  227MPD1    C2 3498   4.151   3.886  10.430 -0.1186 -0.5843  0.4674
  227MPD1    C3 3499   4.253   3.853  10.342  0.3362 -0.6631 -0.5483
  227MPD1    C4 3500   4.368   3.814  10.385 -0.3659  0.4356  0.0145
  227MPD1    C5 3501   4.392   3.833  10.517  0.2645  0.4332  0.3965
  227MPD1     H 3502   4.054   3.898  10.383  0.5987  0.2255 -0.8217
  227MPD1    H1 3503   4.444   3.774  10.319  0.2528  1.1335  0.3000
  227MPD1    H2 3504   4.328   3.887  10.709  0.8567 -0.9699 -0.0376
  227MPD1    H3 3505   4.483   3.792  10.561 -0.4166  0.0229  1.4315
  227MPD1     N 3506   4.227   3.859  10.196  0.0085  0.1490 -0.5420
  227MPD1    H5 3507   4.131   3.875  10.167 -0.1703  2.8242  1.4910
  227MPD1    N1 3508   4.062   3.943  10.652 -0.6481  0.1675 -0.6078
  227MPD1    H6 3509   4.094   3.969  10.745  0.3751 -3.6866  0.1392
  227MPD1    H7 3510   4.005   4.020  10.617 -0.2170  1.2356  1.0822
  228MPD1     C 3511   3.526   0.899  13.683 -0.7090 -0.0069 -0.3956
  228MPD1    C1 3512   3.516   1.014  13.606 -0.0449  0.2531 -0.1977
  228MPD1    C2 3513   3.429   1.021  13.505  0.4746 -1.1294 -0.0577
  228MPD1    C3 3514   3.342   0.918  13.479 -0.6685  0.2710  0.0909
  228MPD1    C4 3515   3.344   0.803  13.549  0.5570  0.2741 -0.0341
  228MPD1    C5 3516   3.434   0.799  13.653 -0.0518  0.5939  0.3720
  228MPD1     H 3517   3.421   1.109  13.443  2.9025 -0.9268 -0.0882
  228MPD1    H1 3518   3.280   0.718  13.530  1.1915 -0.2284  0.0789
  228MPD1    H2 3519   3.588   0.893  13.772 -2.1161 -2.4459  0.4232
  228MPD1    H3 3520   3.438   0.699  13.697 -1.3638 -0.2128 -1.3481
  228MPD1     N 3521   3.251   0.938  13.376 -0.3429 -0.3502 -0.1051
  228MPD1    H5 3522   3.250   1.032  13.338  0.6471  0.2922  1.4786
  228MPD1    N1 3523   3.612   1.111  13.618  0.5339  0.0830 -0.1937
  228MPD1    H6 3524   3.647   1.126  13.712 -2.4876 -0.9930  1.0822
  228MPD1    H7 3525   3.581   1.196  13.569 -0.9231 -0.9949 -1.1487
  229MPD1     C 3526   2.330   0.216  14.801  0.1170 -0.5843 -0.0103
  229MPD1    C1 3527   2.356   0.113  14.710  0.1935  0.0003 -0.2566
  229MPD1    C2 3528   2.441   0.009  14.760  0.2911  0.2464  0.6114
  229MPD1    C3 3529   2.503   0.014  14.883  0.7826  0.0441 -0.1714
  229MPD1    C4 3530   2.497   0.134  14.954  0.5155 -0.0962 -0.3459
  229MPD1    C5 3531   2.409   0.231  14.909 -0.6570  0.2857 -0.6042
  229MPD1     H 3532   2.445   4.658  14.698 -0.5807  0.4484  0.2582
  229MPD1    H1 3533   2.534   0.151  15.054 -1.0803  0.4132  0.1523
  229MPD1    H2 3534   2.248   0.283  14.779  2.3614  1.6611 -1.5176
  229MPD1    H3 3535   2.389   0.310  14.982  2.1295 -1.7033  2.2902
  229MPD1     N 3536   2.582   4.648  14.945  0.0817 -0.0337  0.7065
  229MPD1    H5 3537   2.636   4.688  15.021  2.0152 -1.4837  0.0999
  229MPD1    N1 3538   2.273   0.108  14.596 -0.3468 -0.1570 -0.1242
  229MPD1    H6 3539   2.314   0.050  14.523  1.6300 -1.3393  1.9332
  229MPD1    H7 3540   2.239   0.197  14.559  0.2645  0.1966  0.1851
  230MPD1     C 3541   3.070   4.356  15.757 -0.2651  0.7355 -0.3869
  230MPD1    C1 3542   3.106   4.255  15.677  0.1067 -0.2058 -0.0659
  230MPD1    C2 3543   3.052   4.242  15.545 -0.3734  0.2235  0.3183
  230MPD1    C3 3544   2.973   4.338  15.493 -0.4001  0.4431  0.4304
  230MPD1    C4 3545   2.957   4.449  15.567  0.2325  0.0938  0.4162
  230MPD1    C5 3546   2.998   4.453  15.694 -0.0821 -0.0154 -0.0657
  230MPD1     H 3547   3.080   4.154  15.488 -1.2240 -0.3107  0.7201
  230MPD1    H1 3548   2.892   4.526  15.527  1.1256 -1.4474 -3.9956
  230MPD1    H2 3549   3.120   4.378  15.851 -0.0943 -0.2865 -0.2470
  230MPD1    H3 3550   2.970   4.538  15.755  0.3489  0.6183 -0.7484
  230MPD1     N 3551   2.908   4.312  15.369  0.0177  0.3201 -0.3633
  230MPD1    H5 3552   2.950   4.235  15.318  0.9658  1.4533 -1.2988
  230MPD1    N1 3553   3.167   4.147  15.739 -0.0548  0.4130 -0.2557
  230MPD1    H6 3554   3.221   4.096  15.670  0.7214 -1.0930  1.4804
  230MPD1    H7 3555   3.235   4.175  15.809  2.0925 -0.1422 -2.1055
  231MPD1     C 3556   0.738   1.762  15.630  0.5723 -0.3040 -0.4463
  231MPD1    C1 3557   0.734   1.765  15.492 -0.1423  0.0412  0.4936
  231MPD1    C2 3558   0.847   1.799  15.418 -0.3703 -0.0270 -0.2501
  231MPD1    C3 3559   0.963   1.830  15.485  0.6723  0.2220  0.1698
  231MPD1    C4 3560   0.962   1.837  15.621 -0.4166  0.0150 -0.9829
  231MPD1    C5 3561   0.849   1.801  15.693 -0.7752  0.2545 -0.2920
  231MPD1     H 3562   0.861   1.793  15.311  1.1157 -1.4792  0.0203
  231MPD1    H1 3563   1.044   1.863  15.686 -0.0214 -0.0824 -1.4403
  231MPD1    H2 3564   0.648   1.743  15.688  1.2276  0.6243  0.8920
  231MPD1    H3 3565   0.844   1.820  15.799  0.7906  1.4016 -0.4138
  231MPD1     N 3566   1.086   1.837  15.413 -0.3925 -0.3311 -0.0453
  231MPD1    H5 3567   1.080   1.811  15.315 -0.8246  2.1768 -0.6908
  231MPD1    N1 3568   0.610   1.748  15.428  0.6197  0.0802  0.1550
  231MPD1    H6 3569   0.617   1.728  15.328 -0.5423 -1.6547  0.4242
  231MPD1    H7 3570   0.542   1.823  15.434  0.9721  0.3865  0.3201
  232MPD1     C 3571   2.661   4.085  17.659  0.2228 -0.2193  0.1600
  232MPD1    C1 3572   2.633   4.031  17.540  0.0411 -0.4864 -0.1902
  232MPD1    C2 3573   2.549   3.926  17.534 -0.2621 -0.3084 -0.4980
  232MPD1    C3 3574   2.493   3.880  17.647  0.4204 -0.6351  0.1413
  232MPD1    C4 3575   2.518   3.943   0.014 -0.2200  0.0655  0.1626
  232MPD1    C5 3576   2.594   4.050   0.023  0.9546  1.0669 -0.2642
  232MPD1     H 3577   2.532   3.877  17.439  1.5488  0.6540 -1.3251
  232MPD1    H1 3578   2.489   3.895   0.106 -2.0562 -2.1007 -1.5566
  232MPD1    H2 3579   2.737   4.162  17.664 -2.1836  2.1320  0.7510
  232MPD1    H3 3580   2.617   4.101   0.116 -1.4698  0.5829  0.6024
  232MPD1     N 3581   2.408   3.759  17.644 -0.6920  0.4236 -0.7407
  232MPD1    H5 3582   2.411   3.704  17.559  0.2544 -0.2394 -0.2801
  232MPD1    N1 3583   2.704   4.070  17.423  0.3120  0.0385 -0.5811
  232MPD1    H6 3584   2.744   4.161  17.442 -0.4776  0.5285 -1.2505
  232MPD1    H7 3585   2.637   4.071  17.346  0.9031  0.9717 -1.0783
  233MPD1     C 3586   3.195   2.600   0.944  0.5140 -0.5666  0.5211
  233MPD1    C1 3587   3.313   2.564   0.892 -0.8103 -0.1436  0.3285
  233MPD1    C2 3588   3.422   2.547   0.983 -0.2248 -0.0158 -0.5068
  233MPD1    C3 3589   3.420   2.595   1.111 -0.7437  0.2507 -0.3703
  233MPD1    C4 3590   3.298   2.642   1.159 -0.0548  0.3115  0.3880
  233MPD1    C5 3591   3.190   2.651   1.071  0.0394  0.2081  0.2321
  233MPD1     H 3592   3.509   2.490   0.952 -0.5250 -1.2623  0.9485
  233MPD1    H1 3593   3.269   2.681   1.256 -0.3149 -1.6674  1.1008
  233MPD1    H2 3594   3.099   2.599   0.894  1.6659 -1.0777 -1.6539
  233MPD1    H3 3595   3.095   2.693   1.102  0.2876  1.6165 -0.9157
  233MPD1     N 3596   3.524   2.593   1.204 -0.0781  0.0253 -0.2997
  233MPD1    H5 3597   3.502   2.628   1.297 -4.7548 -1.6119 -0.7725
  233MPD1    N1 3598   3.322   2.507   0.764 -0.1889 -0.6227  0.4488
  233MPD1    H6 3599   3.411   2.487   0.720  0.9443 -0.1779  2.5452
  233MPD1    H7 3600   3.259   2.558   0.702  2.3521  0.1971 -1.4137
  234MPD1     C 3601   1.351   1.304   9.458  0.6220  0.6193  0.0736
  234MPD1    C1 3602   1.238   1.231   9.435 -0.2843  0.8916  0.2366
  234MPD1    C2 3603   1.119   1.273   9.493 -0.6472  0.4726  0.3661
  234MPD1    C3 3604   1.118   1.373   9.594  0.0393 -0.5839 -0.6401
  234MPD1    C4 3605   1.231   1.436   9.626  0.0621 -0.4328 -0.1174
  234MPD1    C5 3606   1.344   1.406   9.550 -0.4731  0.1679 -0.1854
  234MPD1     H 3607   1.033   1.209   9.483  1.4677 -2.2085 -0.6406
  234MPD1    H1 3608   1.238   1.513   9.702 -0.5045 -0.1002 -0.4011
  234MPD1    H2 3609   1.444   1.266   9.417 -0.6790 -3.2589  0.6732
  234MPD1    H3 3610   1.437   1.461   9.560 -1.4183  1.8033 -0.3585
  234MPD1     N 3611   0.999   1.406   9.661  0.3407 -0.5958 -0.0438
  234MPD1    H5 3612   0.917   1.378   9.607  1.1169 -0.1080 -1.4566
  234MPD1    N1 3613   1.243   1.128   9.344  0.5989 -0.1922 -0.4167
  234MPD1    H6 3614   1.167   1.062   9.360  0.8584 -0.3960 -0.0076
  234MPD1    H7 3615   1.332   1.082   9.361 -0.1387 -0.9140  1.5265
  235MPD1     C 3616   1.771   3.513  10.765  0.0753 -0.0138 -0.1826
  235MPD1    C1 3617   1.734   3.634  10.696 -0.2536 -0.3133  0.4108
  235MPD1    C2 3618   1.826   3.737  10.695 -0.6662  0.3003 -0.6193
  235MPD1    C3 3619   1.961   3.723  10.731  0.9950 -0.4209 -0.5642
  235MPD1    C4 3620   2.004   3.599  10.777  0.0308  0.1968  0.7891
  235MPD1    C5 3621   1.908   3.497  10.796  0.7797 -0.1899  0.7191
  235MPD1     H 3622   1.793   3.834  10.659  1.7219  1.7547  1.1064
  235MPD1    H1 3623   2.107   3.569  10.794  0.1375 -0.6518 -1.3814
  235MPD1    H2 3624   1.695   3.439  10.787  1.8513 -1.3805  1.3151
  235MPD1    H3 3625   1.933   3.395  10.824  2.9562  0.0271 -0.4190
  235MPD1     N 3626   2.046   3.837  10.714 -0.0248  0.1483  0.4572
  235MPD1    H5 3627   2.014   3.925  10.675  3.0597  1.3681  0.7277
  235MPD1    N1 3628   1.597   3.645  10.660 -0.3352 -0.2019 -0.1289
  235MPD1    H6 3629   1.554   3.555  10.639 -0.6798 -0.1334  0.2814
  235MPD1    H7 3630   1.583   3.684  10.567  1.2598 -0.7946 -0.6057
  236MPD1     C 3631   1.059   0.495  10.412  0.2668 -0.2254 -0.4082
  236MPD1    C1 3632   1.034   0.370  10.466  0.2275  0.0596  0.8614
  236MPD1    C2 3633   1.141   0.286  10.488 -0.1640 -0.3179 -0.0338
  236MPD1    C3 3634   1.273   0.334  10.487  0.1628  0.4370 -0.7413
  236MPD1    C4 3635   1.297   0.459  10.435 -0.4003  0.7301  0.0575
  236MPD1    C5 3636   1.187   0.537  10.401 -0.1060 -0.1965  0.0136
  236MPD1     H 3637   1.125   0.182  10.515  1.1599 -0.0821  1.6897
  236MPD1    H1 3638   1.402   0.488  10.439 -0.2625  0.3132 -0.5962
  236MPD1    H2 3639   0.984   0.566  10.379  0.7747  0.0995 -0.8576
  236MPD1    H3 3640   1.204   0.637  10.364 -0.3982 -0.4967 -0.9503
  236MPD1     N 3641   1.392   0.265  10.531  0.1173  0.2150 -0.6354
  236MPD1    H5 3642   1.480   0.316  10.529 -1.1091  2.4146  1.0403
  236MPD1    N1 3643   0.900   0.327  10.460 -0.1310 -0.0778 -0.2287
  236MPD1    H6 3644   0.871   0.251  10.521  0.1622  1.7710  2.1952
  236MPD1    H7 3645   0.843   0.411  10.464  2.9157  1.9335 -0.0182
  237MPD1     C 3646   1.350   2.712  15.626 -0.3417  1.1391  0.6400
  237MPD1    C1 3647   1.342   2.736  15.488 -0.0097 -0.7947  0.1830
  237MPD1    C2 3648   1.260   2.838  15.443 -0.3082  0.2098  0.8758
  237MPD1    C3 3649   1.197   2.923  15.534 -0.7273  0.1538  0.7158
  237MPD1    C4 3650   1.206   2.892  15.666 -0.1559 -0.3193 -0.1025
  237MPD1    C5 3651   1.280   2.792  15.714  0.1669 -0.1977 -0.0270
  237MPD1     H 3652   1.269   2.860  15.337  0.9258 -1.5557  0.6162
  237MPD1    H1 3653   1.151   2.953  15.736 -1.0618 -0.0103 -1.0896
  237MPD1    H2 3654   1.415   2.636  15.668  1.1034  1.5477 -0.8538
  237MPD1    H3 3655   1.268   2.768  15.819 -0.7801 -2.5724 -0.6788
  237MPD1     N 3656   1.120   3.037  15.487 -0.0401  0.5045  0.4908
  237MPD1    H5 3657   1.065   3.080  15.560 -1.3410 -1.5232  0.7304
  237MPD1    N1 3658   1.436   2.673  15.405  0.0642 -0.1355 -0.3245
  237MPD1    H6 3659   1.472   2.589  15.450  0.4648  0.1347 -0.1413
  237MPD1    H7 3660   1.404   2.654  15.310 -0.4910 -0.8495 -0.0033
  238MPD1     C 3661   3.517   1.733  15.352 -0.3209 -0.3040  0.2443
  238MPD1    C1 3662   3.431   1.634  15.377 -0.8249 -0.3086 -0.0130
  238MPD1    C2 3663   3.297   1.673  15.376  0.6332 -0.1196 -0.4903
  238MPD1    C3 3664   3.264   1.793  15.305 -0.2466  0.1546  0.6592
  238MPD1    C4 3665   3.356   1.887  15.273 -0.0520 -0.3901 -0.0755
  238MPD1    C5 3666   3.485   1.854  15.298  0.1338  0.6288 -0.0250
  238MPD1     H 3667   3.211   1.610  15.399  0.0003  0.9155 -0.0126
  238MPD1    H1 3668   3.327   1.978  15.221 -1.8869 -0.0401  1.5982
  238MPD1    H2 3669   3.618   1.702  15.378  1.3092  1.8869 -3.5414
  238MPD1    H3 3670   3.566   1.917  15.264 -0.1641  0.1540 -1.6207
  238MPD1     N 3671   3.133   1.830  15.258  0.0876 -0.4489 -0.8807
  238MPD1    H5 3672   3.126   1.909  15.195  0.4129 -0.6791 -1.2032
  238MPD1    N1 3673   3.472   1.512  15.429 -0.0022  0.2113  1.2440
  238MPD1    H6 3674   3.400   1.441  15.444  1.1215 -1.4120 -1.1979
  238MPD1    H7 3675   3.550   1.464  15.385 -1.2839 -1.2620  0.5729
  239MPD1     C 3676   3.533   2.955  15.381 -0.3875 -0.0770  1.3660
  239MPD1    C1 3677   3.585   2.856  15.304 -0.4793 -0.3612  0.1583
  239MPD1    C2 3678   3.531   2.839  15.174 -0.1120  0.6630  0.3413
  239MPD1    C3 3679   3.412   2.898  15.146  0.3554  0.4983 -0.2331
  239MPD1    C4 3680   3.351   2.990  15.229 -0.6163  0.0171  0.2308
  239MPD1    C5 3681   3.420   3.018  15.345 -0.1166  0.1697  0.2416
  239MPD1     H 3682   3.575   2.772  15.101 -2.9278 -1.9231  1.0362
  239MPD1    H1 3683   3.258   3.042  15.212  0.0684  1.7777  1.8591
  239MPD1    H2 3684   3.565   2.968  15.484 -1.6837 -0.5139  1.8265
  239MPD1    H3 3685   3.372   3.082  15.419  0.9582  0.9409  0.2801
  239MPD1     N 3686   3.341   2.873  15.025  0.2057  0.4213 -0.6642
  239MPD1    H5 3687   3.273   2.939  14.988 -0.0008  0.2125 -0.6563
  239MPD1    N1 3688   3.697   2.782  15.338 -0.0032  0.5068  0.3863
  239MPD1    H6 3689   3.695   2.686  15.303  3.1880  0.2216  0.9289
  239MPD1    H7 3690   3.730   2.778  15.434  2.6260 -2.4292 -0.6426
  240MPD1     C 3691   2.714   2.849  14.482  0.4466  0.4235 -0.0543
  240MPD1    C1 3692   2.579   2.841  14.504 -0.1286 -0.3518  0.0441
  240MPD1    C2 3693   2.523   2.717  14.528  1.0215  0.3888  0.4683
  240MPD1    C3 3694   2.605   2.608  14.553 -0.3277 -0.7997  0.4585
  240MPD1    C4 3695   2.747   2.624  14.546  0.3055  0.2243 -0.0371
  240MPD1    C5 3696   2.794   2.744  14.515  0.3354 -0.2263  0.4374
  240MPD1     H 3697   2.419   2.706  14.553  1.3184  0.1661  1.5887
  240MPD1    H1 3698   2.816   2.541  14.553  1.9617  1.7434  1.9255
  240MPD1    H2 3699   2.771   2.935  14.449  1.4564 -0.3684 -0.3648
  240MPD1    H3 3700   2.899   2.746  14.484  0.1129  0.6906 -0.2660
  240MPD1     N 3701   2.557   2.477  14.577  0.5740  1.3031 -0.6966
  240MPD1    H5 3702   2.625   2.409  14.611 -0.8965 -0.5440 -1.4386
  240MPD1    N1 3703   2.505   2.951  14.474  0.2657 -0.5742 -0.5234
  240MPD1    H6 3704   2.408   2.950  14.506  0.5763 -3.2248  0.2651
  240MPD1    H7 3705   2.528   3.046  14.501 -2.6201 -0.3651  1.3038
  241MPD1     C 3706   2.810   2.184  15.332 -0.2860 -0.0025 -0.3811
  241MPD1    C1 3707   2.703   2.103  15.312  0.5611  0.2103 -0.2341
  241MPD1    C2 3708   2.632   2.110  15.198  0.5637  0.5774  0.0009
  241MPD1    C3 3709   2.685   2.187  15.087 -0.0118 -0.8055 -0.0996
  241MPD1    C4 3710   2.793   2.271  15.117 -0.0646 -0.2264 -0.1383
  241MPD1    C5 3711   2.845   2.277  15.242  0.6051  0.1898 -0.6350
  241MPD1     H 3712   2.534   2.065  15.181  0.7513  0.9217 -2.0791
  241MPD1    H1 3713   2.842   2.337  15.046  1.9443 -0.0769  1.3915
  241MPD1    H2 3714   2.883   2.171  15.411  1.8408  2.1205 -2.0068
  241MPD1    H3 3715   2.929   2.341  15.269 -0.1691  1.4244 -1.1692
  241MPD1     N 3716   2.626   2.197  14.957 -0.3935  0.0526  0.5680
  241MPD1    H5 3717   2.665   2.263  14.890  1.3854  1.4194  2.9162
  241MPD1    N1 3718   2.647   2.025  15.414  0.0385 -0.2878  0.2505
  241MPD1    H6 3719   2.717   1.979  15.472 -0.6591  0.1658  1.4394
  241MPD1    H7 3720   2.591   1.953  15.368  3.8613 -3.4984  0.5098
  242MPD1     C 3721   1.723   0.236  16.090 -0.6829 -0.1596 -0.4351
  242MPD1    C1 3722   1.845   0.271  16.140 -0.6353  0.0142 -0.3195
  242MPD1    C2 3723   1.962   0.242  16.071 -0.3700  0.3187 -0.5967
  242MPD1    C3 3724   1.949   0.180  15.947 -0.7943 -0.8995 -0.5613
  242MPD1    C4 3725   1.824   0.143  15.903  1.1570 -0.6552  0.3199
  242MPD1    C5 3726   1.714   0.162  15.981 -0.0004  0.0277 -0.1791
  242MPD1     H 3727   2.058   0.275  16.108 -0.2151 -3.4173  2.3371
  242MPD1    H1 3728   1.818   0.078  15.817  1.6085 -1.7586  1.1273
  242MPD1    H2 3729   1.636   0.250  16.153 -0.6453 -2.3553  0.0949
  242MPD1    H3 3730   1.617   0.125  15.949 -0.3809 -0.6254  1.7195
  242MPD1     N 3731   2.059   0.152  15.867  0.5360  0.1239 -0.1243
  242MPD1    H5 3732   2.031   0.129  15.772 -3.0613 -0.1815  0.9986
  242MPD1    N1 3733   1.851   0.356  16.254 -0.0936 -0.0396 -0.1883
  242MPD1    H6 3734   1.762   0.349  16.304  0.2196 -1.2672  0.1897
  242MPD1    H7 3735   1.930   0.335  16.314 -0.4702 -0.1890  0.2566
  243MPD1     C 3736   2.491   4.063   0.541 -0.5069  0.0164  0.5078
  243MPD1    C1 3737   2.586   4.083   0.635  0.2551 -0.3239  0.0288
  243MPD1    C2 3738   2.715   4.058   0.612  0.6825 -0.2470  0.1751
  243MPD1    C3 3739   2.764   4.016   0.488 -0.5256  0.2866  0.2667
  243MPD1    C4 3740   2.675   4.012   0.385  0.4153  0.6415  0.0258
  243MPD1    C5 3741   2.541   4.040   0.412  0.3370  0.0815  0.1249
  243MPD1     H 3742   2.787   4.076   0.690  3.0244 -3.7038 -1.1893
  243MPD1    H1 3743   2.696   3.984   0.282  0.3915 -0.5560  0.3535
  243MPD1    H2 3744   2.385   4.080   0.557 -1.1581 -1.5269 -2.2241
  243MPD1    H3 3745   2.472   4.039   0.328 -2.3930  1.7094  2.3526
  243MPD1     N 3746   2.901   3.991   0.477  0.0680  0.2112 -0.3328
  243MPD1    H5 3747   2.954   3.986   0.563 -1.5039 -2.4522  0.4944
  243MPD1    N1 3748   2.548   4.115   0.766  0.6155  0.1686 -0.0915
  243MPD1    H6 3749   2.621   4.164   0.818 -0.3289  0.3960  1.0263
  243MPD1    H7 3750   2.461   4.168   0.777  0.8373  0.5546 -0.2004
  244MPD1     C 3751   3.697   3.765   1.039 -0.3761 -0.0902  0.0168
  244MPD1    C1 3752   3.750   3.742   0.911  0.3792  0.6226  0.1616
  244MPD1    C2 3753   3.667   3.766   0.803  0.1700  0.2453 -0.0217
  244MPD1    C3 3754   3.538   3.806   0.809  0.2456 -0.5277  0.4602
  244MPD1    C4 3755   3.486   3.834   0.932  0.4600 -1.1159  0.1077
  244MPD1    C5 3756   3.566   3.812   1.045  0.3397 -0.2939 -0.0302
  244MPD1     H 3757   3.714   3.740   0.708 -3.0908  2.6306 -2.2856
  244MPD1    H1 3758   3.389   3.882   0.945  1.3793  0.5992  0.5291
  244MPD1    H2 3759   3.738   3.742   1.136  0.9582  1.5135 -0.1551
  244MPD1    H3 3760   3.520   3.818   1.143  0.9983 -0.7630  0.3031
  244MPD1     N 3761   3.461   3.832   0.684 -0.2210 -0.6131  0.1537
  244MPD1    H5 3762   3.506   3.826   0.594  2.2580 -3.5848  1.5924
  244MPD1    N1 3763   3.873   3.675   0.902  0.9014  0.3091  0.2518
  244MPD1    H6 3764   3.922   3.700   0.816  1.4723 -1.3131  0.1048
  244MPD1    H7 3765   3.943   3.688   0.976  0.7789 -2.9817  0.9264
  245MPD1     C 3766   0.671   3.913  13.423 -0.4724 -0.3500 -0.3079
  245MPD1    C1 3767   0.707   4.010  13.338 -0.6425  0.1788  0.6066
  245MPD1    C2 3768   0.808   4.098  13.370  0.0266  0.3557  0.2469
  245MPD1    C3 3769   0.881   4.076  13.486  0.5375  0.0443 -0.6266
  245MPD1    C4 3770   0.853   3.969  13.567 -0.5285  0.1648  0.6490
  245MPD1    C5 3771   0.741   3.894  13.540 -0.0032  0.2550 -0.2378
  245MPD1     H 3772   0.838   4.169  13.294 -0.7073  0.2030 -0.1858
  245MPD1    H1 3773   0.910   3.951  13.657 -0.5265  1.5129  0.9220
  245MPD1    H2 3774   0.579   3.859  13.401 -0.2930 -0.6081 -0.4353
  245MPD1    H3 3775   0.699   3.818  13.605 -0.1356  1.9735  1.6866
  245MPD1     N 3776   0.981   4.176  13.512  0.6416  0.3025  0.1917
  245MPD1    H5 3777   0.994   4.247  13.441 -2.0698  0.8444  0.2592
  245MPD1    N1 3778   0.619   4.036  13.232 -0.1117  0.1563  0.4627
  245MPD1    H6 3779   0.656   4.101  13.162 -0.9281  0.4042  0.2632
  245MPD1    H7 3780   0.574   3.955  13.190 -1.9972  1.6501 -0.4148
  246MPD1     C 3781   2.547   1.825  10.147  0.1798 -0.1105  0.0372
  246MPD1    C1 3782   2.618   1.712  10.156 -0.1300  0.2035  0.1551
  246MPD1    C2 3783   2.569   1.602  10.082  0.6145 -0.2621  0.0336
  246MPD1    C3 3784   2.446   1.602  10.022  0.5887  0.2499 -0.0336
  246MPD1    C4 3785   2.380   1.722  10.014 -0.1171  0.1980  0.0604
  246MPD1    C5 3786   2.429   1.833  10.085 -0.3047  0.2140  0.0964
  246MPD1     H 3787   2.622   1.508  10.083 -2.0677 -1.7607  0.5870
  246MPD1    H1 3788   2.277   1.720   9.980 -0.2359 -2.1134  0.5702
  246MPD1    H2 3789   2.582   1.911  10.204  2.8459 -1.6271  0.6385
  246MPD1    H3 3790   2.373   1.924  10.102 -0.8110  0.1857 -1.4259
  246MPD1     N 3791   2.391   1.489   9.962 -0.4100 -0.1910  0.1078
  246MPD1    H5 3792   2.442   1.401   9.973  0.3394  0.1622 -0.5236
  246MPD1    N1 3793   2.743   1.708  10.209  0.2535 -0.3067 -0.3009
  246MPD1    H6 3794   2.763   1.611  10.234 -1.3277 -0.0073  2.1233
  246MPD1    H7 3795   2.746   1.766  10.292 -0.8734 -1.0549  0.2597
  247MPD1     C 3796   0.612   1.324  15.398 -0.4469  0.0532  0.4136
  247MPD1    C1 3797   0.509   1.345  15.490  0.0924 -0.6974  0.1694
  247MPD1    C2 3798   0.429   1.235  15.521  0.1626  0.5008 -0.3031
  247MPD1    C3 3799   0.457   1.108  15.469 -0.2301  0.5012  0.3475
  247MPD1    C4 3800   0.564   1.088  15.384 -0.4566  0.6564  0.2124
  247MPD1    C5 3801   0.645   1.192  15.358 -0.2195  0.2876  0.0436
  247MPD1     H 3802   0.345   1.261  15.584  2.3136  0.0140  2.7353
  247MPD1    H1 3803   0.563   0.986  15.346 -2.7504  0.2386  1.4346
  247MPD1    H2 3804   0.684   1.397  15.363  1.0747 -0.1794  3.0149
  247MPD1    H3 3805   0.718   1.162  15.284  1.1452 -0.2733  1.6388
  247MPD1     N 3806   0.377   0.991  15.501  0.0899 -0.2055 -0.2351
  247MPD1    H5 3807   0.390   0.908  15.444  1.6626  1.0769 -1.7526
  247MPD1    N1 3808   0.462   1.475  15.515  0.0096  0.7136 -0.0542
  247MPD1    H6 3809   0.425   1.477  15.610  0.5980 -0.4041  0.1860
  247MPD1    H7 3810   0.528   1.552  15.503  0.1557  0.5616 -0.2121
  248MPD1     C 3811   1.138   3.670   1.034 -0.4996  0.3459  0.6016
  248MPD1    C1 3812   1.176   3.792   0.997 -0.6591 -0.5219 -0.7193
  248MPD1    C2 3813   1.103   3.867   0.900 -0.8558  0.1175  1.1896
  248MPD1    C3 3814   0.997   3.809   0.845 -0.6939  0.1785  0.2770
  248MPD1    C4 3815   0.942   3.694   0.898 -0.8642  0.1255  0.4869
  248MPD1    C5 3816   1.016   3.622   0.993 -1.0951  0.0293  0.6220
  248MPD1     H 3817   1.137   3.962   0.860  0.0464 -0.9750 -0.6202
  248MPD1    H1 3818   0.856   3.644   0.856 -2.1579  1.1095  1.9574
  248MPD1    H2 3819   1.190   3.619   1.115 -2.5817 -0.5596  1.3517
  248MPD1    H3 3820   0.978   3.528   1.032  1.5251 -1.6328 -0.8448
  248MPD1     N 3821   0.937   3.883   0.745 -0.2427  0.2774 -0.2849
  248MPD1    H5 3822   0.987   3.970   0.728 -0.4120  0.6152  1.0055
  248MPD1    N1 3823   1.302   3.836   1.035  0.1340 -0.3644 -0.0951
  248MPD1    H6 3824   1.306   3.937   1.022  2.4577 -0.3467  0.7691
  248MPD1    H7 3825   1.309   3.806   1.132 -1.1021 -2.3888 -0.6329
  249MPD1     C 3826   3.599   3.580   9.741 -0.2478  0.3599  0.5882
  249MPD1    C1 3827   3.514   3.687   9.732  0.1763 -0.3941  0.1303
  249MPD1    C2 3828   3.407   3.683   9.818 -0.1762  0.2526  0.4301
  249MPD1    C3 3829   3.382   3.581   9.911 -0.3198  0.0010 -0.4536
  249MPD1    C4 3830   3.476   3.481   9.927 -0.3982  0.5147 -0.0201
  249MPD1    C5 3831   3.576   3.481   9.833  0.3588  0.9200 -0.4019
  249MPD1     H 3832   3.334   3.764   9.817 -1.2510 -0.7386 -1.3846
  249MPD1    H1 3833   3.472   3.395   9.993 -1.0130  0.8819  0.4202
  249MPD1    H2 3834   3.677   3.562   9.668 -0.5534 -1.6574  0.7636
  249MPD1    H3 3835   3.652   3.404   9.832 -0.7212 -0.1707  0.4176
  249MPD1     N 3836   3.267   3.592   9.995  0.5135 -0.2576  0.5373
  249MPD1    H5 3837   3.210   3.674   9.982 -0.3389 -0.6090  1.9973
  249MPD1    N1 3838   3.513   3.778   9.624  0.6844  0.1188  0.8218
  249MPD1    H6 3839   3.606   3.813   9.601  0.1130  1.1412  0.0355
  249MPD1    H7 3840   3.461   3.865   9.640  2.4655  1.4035 -0.3281
  250MPD2     C 3841   4.409   2.939  12.934  0.9982 -0.1190 -0.2187
  250MPD2    C1 3842   4.299   3.015  12.924 -0.5693  0.1458 -0.3295
  250MPD2    C2 3843   4.180   2.954  12.883 -0.0628  0.0054 -0.1952
  250MPD2    C3 3844   4.164   2.816  12.881 -1.1188  0.2782 -0.9263
  250MPD2    C4 3845   4.276   2.741  12.902  0.5221 -0.1002  0.4637
  250MPD2    C5 3846   4.397   2.803  12.924 -1.1232 -0.1121  0.0031
  250MPD2     H 3847   4.095   3.016  12.855  1.0262  2.6696  2.4092
  250MPD2    H1 3848   4.268   2.635  12.882 -1.1040  0.3218 -1.1389
  250MPD2    H2 3849   4.508   2.973  12.961  0.3274  0.4431  1.5242
  250MPD2    H3 3850   4.482   2.736  12.925 -0.3879  0.8055 -0.5984
  250MPD2     N 3851   4.048   2.746  12.840  0.1108  0.1786  0.1748
  250MPD2    H5 3852   4.062   2.646  12.830 -0.9716  0.0170  0.1824
  250MPD2    N1 3853   4.330   3.155  12.949  0.0711  0.0774 -0.5152
  250MPD2    H7 3854   4.407   3.178  13.010  0.3155  0.6334 -1.0398
  251TMC3    C1 3855   4.259   3.379  13.003  0.4071  0.2203 -0.0430
  251TMC3    C2 3856   4.143   3.453  13.033  0.1186  0.1925 -0.0709
  251TMC3    C3 3857   4.151   3.542  13.130 -0.5865 -0.3906  0.0637
  251TMC3    C4 3858   4.379   3.407  13.058 -1.1169  0.0242 -0.4313
  251TMC3    C5 3859   4.378   3.499  13.157 -0.3335 -0.2102  0.5178
  251TMC3    C6 3860   4.262   3.556  13.206  0.9323 -0.5428  0.4224
  251TMC3     C 3861   4.237   3.258  12.926 -0.6129  0.1732  0.2962
  251TMC3     O 3862   4.129   3.252  12.865 -0.2916 -0.6964 -0.0948
  251TMC3     H 3863   4.048   3.417  12.994  1.0247 -0.8028 -1.3974
  251TMC3    H1 3864   4.470   3.369  13.014 -1.2972 -0.0425 -0.7436
  251TMC3    H2 3865   4.270   3.618  13.295  1.3196 -1.0148  0.7170
  251TMC3    C7 3866   4.506   3.541  13.205  0.6295 -0.2796 -0.1490
  251TMC3    C8 3867   4.021   3.603  13.179 -0.4949  0.2691  0.1314
  251TMC3    O1 3868   4.596   3.460  13.207 -0.0457 -0.2978  0.2371
  251TMC3    O2 3869   3.914   3.549  13.148 -0.2625 -0.2558  0.2846
  252TMC3    C1 3870   3.785   4.452   9.643 -0.6159 -0.9114 -0.4493
  252TMC3    C2 3871   3.916   4.439   9.688 -1.1014  0.0490  0.8107
  252TMC3    C3 3872   3.940   4.383   9.812  0.8969 -0.8933 -0.2274
  252TMC3    C4 3873   3.680   4.400   9.717  0.1567 -0.0620  0.4997
  252TMC3    C5 3874   3.711   4.309   9.818  0.1198 -0.2662 -0.5097
  252TMC3    C6 3875   3.836   4.316   9.874 -0.8451  0.4152  0.0085
  252TMC3     C 3876   3.754   4.565   9.561  0.2258 -0.3395  0.2819
  252TMC3     O 3877   3.850   4.617   9.505  0.2733  0.4381 -0.1531
  252TMC3     H 3878   3.996   4.497   9.644 -1.7645  0.2673 -0.1015
  252TMC3    H1 3879   3.574   4.404   9.693  0.6393 -2.6694 -1.9727
  252TMC3    H2 3880   3.862   4.249   9.955  1.2225  1.3388  0.1206
  252TMC3    C7 3881   3.605   4.241   9.884  1.0142  0.2352 -1.0519
  252TMC3    C8 3882   4.083   4.343   9.831  0.8165 -0.3072 -0.1573
  252TMC3    O1 3883   3.489   4.279   9.866 -0.8513 -0.1578  0.4318
  252TMC3    O2 3884   4.157   4.353   9.733  0.0596  0.1211 -0.2643
  253MPD2     C 3885   0.871   3.613  15.623  0.0996  0.1611  0.5480
  253MPD2    C1 3886   0.732   3.592  15.607  0.4810 -0.4943  0.9079
  253MPD2    C2 3887   0.657   3.561  15.714 -0.6954  0.3408 -0.7206
  253MPD2    C3 3888   0.716   3.564  15.845  0.8586 -0.0253  0.5565
  253MPD2    C4 3889   0.847   3.586  15.855 -0.0415 -0.1337 -0.7416
  253MPD2    C5 3890   0.927   3.609  15.745  0.4657 -0.2636 -0.2676
  253MPD2     H 3891   0.553   3.535  15.695 -0.8966  0.1136  0.7142
  253MPD2    H1 3892   0.900   3.587  15.950 -0.7807  0.3808 -0.3309
  253MPD2    H2 3893   0.939   3.637  15.543 -2.0298 -1.4532 -1.7338
  253MPD2    H3 3894   1.033   3.627  15.756  0.1984  1.4630 -0.3939
  253MPD2     N 3895   0.649   3.526  15.964  0.6526 -0.5971  0.2041
  253MPD2    H5 3896   0.703   3.512  16.049 -0.2508  0.6253  0.9942
  253MPD2    N1 3897   0.676   3.592  15.482  1.0166 -0.7245  0.0536
  253MPD2    H7 3898   0.575   3.590  15.484  0.9730  0.3701 -0.9518
  254TMC3    C1 3899   0.477   3.525  16.124 -0.1268  0.0493 -0.5049
  254TMC3    C2 3900   0.349   3.567  16.161  0.6904  0.4788  0.2638
  254TMC3    C3 3901   0.286   3.519  16.278 -0.8732 -0.8134 -0.3246
  254TMC3    C4 3902   0.541   3.422  16.186 -0.3986 -0.2507 -0.7379
  254TMC3    C5 3903   0.473   3.376  16.301  0.2573  0.0656  0.0875
  254TMC3    C6 3904   0.355   3.425  16.350 -0.4656  0.0984 -0.0534
  254TMC3     C 3905   0.509   3.542  15.989  0.6198 -0.1660 -0.4294
  254TMC3     O 3906   0.422   3.563  15.904 -0.0424  0.4906  0.1132
  254TMC3     H 3907   0.292   3.628  16.092  2.7041  1.7935 -0.2546
  254TMC3    H1 3908   0.637   3.376  16.162  0.0409  0.7218 -0.8271
  254TMC3    H2 3909   0.322   3.403  16.451  2.5708 -1.2719  0.6397
  254TMC3    C7 3910   0.535   3.275  16.391  0.3109  0.3712  0.6945
  254TMC3    C8 3911   0.151   3.560  16.315  0.4603 -0.0492 -0.1074
  254TMC3    O1 3912   0.471   3.245  16.490 -0.0649 -0.0240 -0.4313
  254TMC3    O2 3913   0.088   3.485  16.387  0.2579 -0.3834 -0.0003
  255MPD2     C 3914   3.805   1.261  10.505  0.5489  0.0001  0.5517
  255MPD2    C1 3915   3.806   1.375  10.440  0.7108 -0.4610  0.2412
  255MPD2    C2 3916   3.917   1.396  10.359 -0.5845 -0.1220 -0.7026
  255MPD2    C3 3917   4.011   1.294  10.339  0.1703 -0.6377 -0.3012
  255MPD2    C4 3918   3.993   1.166  10.385 -0.1097 -0.5025  0.0787
  255MPD2    C5 3919   3.893   1.159  10.476  0.3856  0.3368  0.0854
  255MPD2     H 3920   3.938   1.491  10.313  0.1063  1.0892  2.0838
  255MPD2    H1 3921   4.069   1.090  10.367  1.3216  0.9450 -0.0157
  255MPD2    H2 3922   3.715   1.236  10.560 -0.3356  0.7939 -0.5379
  255MPD2    H3 3923   3.878   1.063  10.525 -2.3120  0.9070  0.3300
  255MPD2     N 3924   4.119   1.327  10.261  0.4787  0.1975  0.2987
  255MPD2    H5 3925   4.142   1.423  10.237  0.6224  0.1676  0.3143
  255MPD2    N1 3926   3.700   1.465  10.458  0.2082  0.2888  0.0144
  255MPD2    H7 3927   3.616   1.442  10.510  0.6326 -0.0168  0.5683
  256TMC3    C1 3928   3.568   1.667  10.414  0.3490 -0.3501 -0.0201
  256TMC3    C2 3929   3.580   1.800  10.385 -0.1191 -0.5893 -0.0576
  256TMC3    C3 3930   3.510   1.844  10.275 -0.0388 -0.6106 -0.1811
  256TMC3    C4 3931   3.468   1.588  10.353  0.3123  0.6771  0.5889
  256TMC3    C5 3932   3.416   1.634  10.238 -0.0703 -0.2188  0.4518
  256TMC3    C6 3933   3.435   1.765  10.196  0.1279 -0.4182  0.4695
  256TMC3     C 3934   3.702   1.598  10.406  0.1831 -0.3349  0.2523
  256TMC3     O 3935   3.787   1.661  10.341 -0.3555  0.0867 -0.2787
  256TMC3     H 3936   3.659   1.852  10.439  0.1830 -0.4795 -0.6093
  256TMC3    H1 3937   3.455   1.485  10.383 -0.8791  0.6968  0.1163
  256TMC3    H2 3938   3.390   1.805  10.106  0.1065 -0.4856  0.4499
  256TMC3    C7 3939   3.421   1.531  10.129 -0.0197  0.7375 -0.1988
  256TMC3    C8 3940   3.569   1.967  10.228 -0.2553  0.2780 -0.2225
  256TMC3    O1 3941   3.465   1.421  10.157 -0.3633  0.1561  0.1207
  256TMC3    O2 3942   3.596   2.047  10.317 -0.0327  0.1087  0.1629
  257MPD2     C 3943   2.670   3.275  13.503 -0.4453 -0.2403 -0.2339
  257MPD2    C1 3944   2.681   3.177  13.407 -0.1339 -0.4499  0.3285
  257MPD2    C2 3945   2.748   3.056  13.444  0.2255  1.1843 -0.3778
  257MPD2    C3 3946   2.806   3.036  13.569 -0.0218 -0.2075 -0.0235
  257MPD2    C4 3947   2.771   3.135  13.662  0.1235  0.7583 -0.9901
  257MPD2    C5 3948   2.696   3.246  13.630  0.4105 -0.5793  1.4259
  257MPD2     H 3949   2.764   2.978  13.371  0.6666 -0.9563  2.0225
  257MPD2    H1 3950   2.796   3.121  13.767  1.7311  1.4958 -1.2816
  257MPD2    H2 3951   2.621   3.371  13.488 -0.2163  0.2414  2.1634
  257MPD2    H3 3952   2.693   3.320  13.709  0.1226  0.0474  0.8285
  257MPD2     N 3953   2.889   2.923  13.601  0.2157  0.7464 -0.4654
  257MPD2    H5 3954   2.886   2.847  13.535  0.3440  1.2178 -1.0088
  257MPD2    N1 3955   2.624   3.206  13.285  0.6739  0.2560  0.3632
  257MPD2    H7 3956   2.587   3.301  13.278 -0.1248 -0.0981 -0.3106
  258TMC3    C1 3957   2.972   2.746  13.758  0.2496  0.3971 -0.4131
  258TMC3    C2 3958   3.048   2.680  13.662 -0.2234  0.2881  0.3097
  258TMC3    C3 3959   3.142   2.593  13.702  0.0330 -0.0483 -0.6225
  258TMC3    C4 3960   3.005   2.732  13.893  0.3368  0.3790  0.0151
  258TMC3    C5 3961   3.106   2.645  13.929 -0.0503 -0.5260  0.1481
  258TMC3    C6 3962   3.174   2.570  13.836  0.0856 -0.1555  0.7422
  258TMC3     C 3963   2.915   2.876  13.730 -0.3490  0.0314  0.5484
  258TMC3     O 3964   2.906   2.949  13.827 -0.1213  0.0255 -0.3560
  258TMC3     H 3965   3.025   2.689  13.556 -1.3987 -1.8165  0.3896
  258TMC3    H1 3966   2.928   2.758  13.965  0.8239 -3.3149  1.8517
  258TMC3    H2 3967   3.245   2.495  13.869  0.0410 -1.2790 -1.6880
  258TMC3    C7 3968   3.120   2.618  14.066 -0.1604 -0.3026 -0.6888
  258TMC3    C8 3969   3.205   2.517  13.595 -0.2380 -1.0481  0.3317
  258TMC3    O1 3970   3.029   2.660  14.138 -0.1539 -0.5219  0.4832
  258TMC3    O2 3971   3.150   2.531  13.483 -0.6879  0.8461 -0.0031
  259MPD2     C 3972   1.447   4.516  17.749 -0.6920  0.2141 -0.0026
  259MPD2    C1 3973   1.545   4.519   0.097  0.5657 -0.0134  1.1819
  259MPD2    C2 3974   1.665   4.452   0.071 -0.1326 -0.1877 -0.5320
  259MPD2    C3 3975   1.697   4.407  17.695  0.0110  0.0105 -0.3947
  259MPD2    C4 3976   1.608   4.422  17.591  0.1485 -0.1521  0.2282
  259MPD2    C5 3977   1.481   4.470  17.625 -0.1416  0.1426  0.2496
  259MPD2     H 3978   1.737   4.444   0.151  1.1211  0.4898 -1.5804
  259MPD2    H1 3979   1.616   4.387  17.489  0.0027  1.6027 -0.3965
  259MPD2    H2 3980   1.347   4.552   0.021 -0.4477  0.8484  0.0696
  259MPD2    H3 3981   1.409   4.469  17.543 -2.6440 -1.1311  2.4898
  259MPD2     N 3982   1.823   4.352  17.678  0.0606  0.3630  0.4209
  259MPD2    H5 3983   1.871   4.324   0.013  2.8154  1.4740 -0.7423
  259MPD2    N1 3984   1.512   4.573   0.221  0.5000  0.0895 -0.0978
  259MPD2    H7 3985   1.422   4.618   0.234 -0.1369 -0.1419 -3.8518
  260TMC3    C1 3986   2.012   4.279  17.560  0.1299 -0.1535  0.2744
  260TMC3    C2 3987   2.061   4.241  17.441 -0.2401  0.1428  0.0015
  260TMC3    C3 3988   2.192   4.191  17.446 -0.2869  0.1513 -0.8510
  260TMC3    C4 3989   2.081   4.277  17.681 -0.6834 -0.3069 -0.2171
  260TMC3    C5 3990   2.206   4.229  17.676  0.4903  0.7879  0.0266
  260TMC3    C6 3991   2.258   4.174  17.562  0.4972 -1.0760 -0.3757
  260TMC3     C 3992   1.889   4.351  17.553 -0.6392  0.2061 -0.1021
  260TMC3     O 3993   1.841   4.363  17.445 -0.2406  0.0908  0.0198
  260TMC3     H 3994   2.007   4.265  17.350  0.2216  2.1296  0.2532
  260TMC3    H1 3995   2.057   4.337   0.019  0.7885  2.4572 -1.7169
  260TMC3    H2 3996   2.360   4.138  17.556  1.1427  0.6234  0.3795
  260TMC3    C7 3997   2.308   4.264   0.019 -0.0556 -0.9573  0.3943
  260TMC3    C8 3998   2.234   4.111  17.335 -0.6100  0.4751  0.0542
  260TMC3    O1 3999   2.399   4.328  17.714 -0.7643  0.3854 -0.4793
  260TMC3    O2 4000   2.305   4.164  17.250 -0.5940 -0.3330  0.1517
  261MPD2     C 4001   3.516   2.655  12.117 -0.2490 -0.2858 -0.3061
  261MPD2    C1 4002   3.554   2.742  12.208  0.4684  0.0555  0.1005
  261MPD2    C2 4003   3.540   2.877  12.174 -0.5176  0.1662  0.4950
  261MPD2    C3 4004   3.484   2.921  12.056 -0.2981 -0.0944 -0.5329
  261MPD2    C4 4005   3.452   2.826  11.962 -0.7439  0.0203  0.2633
  261MPD2    C5 4006   3.470   2.690  11.990  0.4375 -0.0631  0.0013
  261MPD2     H 4007   3.586   2.956  12.233  1.6485 -1.3315  0.8361
  261MPD2    H1 4008   3.436   2.849  11.857 -0.0648  1.5730  0.5031
  261MPD2    H2 4009   3.537   2.552  12.146 -1.4940 -0.2681  0.6611
  261MPD2    H3 4010   3.441   2.618  11.915  1.1580 -0.6501  0.2847
  261MPD2     N 4011   3.474   3.056  12.023 -0.4324 -0.0032 -0.2399
  261MPD2    H5 4012   3.521   3.120  12.086  1.1730 -2.0488  0.6500
  261MPD2    N1 4013   3.624   2.698  12.325 -0.9014  1.2390 -0.2010
  261MPD2    H7 4014   3.658   2.604  12.314 -1.6373  0.8378  0.8594
  262TMC3    C1 4015   3.438   3.256  11.903 -0.5025  0.1649 -0.4367
  262TMC3    C2 4016   3.353   3.324  11.824 -0.8380  0.3687  0.1734
  262TMC3    C3 4017   3.398   3.438  11.762  0.3227  0.4845 -0.4142
  262TMC3    C4 4018   3.566   3.297  11.931  0.1772  0.7022 -0.0963
  262TMC3    C5 4019   3.609   3.422  11.890 -0.1420 -0.7646  0.3435
  262TMC3    C6 4020   3.527   3.484  11.795  0.3472  0.4985 -0.1637
  262TMC3     C 4021   3.415   3.112  11.915  0.1039  0.3015 -0.4784
  262TMC3     O 4022   3.332   3.059  11.842 -0.0753 -0.2191 -0.6171
  262TMC3     H 4023   3.250   3.295  11.812 -0.3927 -1.0734 -0.1675
  262TMC3    H1 4024   3.635   3.239  11.991 -1.8870 -1.6026  0.0674
  262TMC3    H2 4025   3.553   3.578  11.748 -1.2649  0.5390 -0.9813
  262TMC3    C7 4026   3.706   3.501  11.950  0.1848  0.0493 -0.0621
  262TMC3    C8 4027   3.303   3.538  11.737  0.3126 -0.1849 -0.7391
  262TMC3    O1 4028   3.742   3.470  12.065  0.0539  0.1912 -0.2839
  262TMC3    O2 4029   3.338   3.637  11.674  0.2576 -0.0811 -0.6244
  263MPD2     C 4030   4.369   2.324  11.889  0.1147  0.0512  0.0488
  263MPD2    C1 4031   4.433   2.252  11.790 -0.0169  0.1254  0.9656
  263MPD2    C2 4032   4.428   2.300  11.663 -0.4146 -0.1562  0.8248
  263MPD2    C3 4033   4.335   2.396  11.632  0.2081  0.2335  0.3196
  263MPD2    C4 4034   4.279   2.471  11.734 -0.3630 -0.3398 -0.0662
  263MPD2    C5 4035   4.295   2.430  11.859  0.4468  0.7020  0.3207
  263MPD2     H 4036   4.478   2.244  11.585 -4.3608  0.4919 -2.1708
  263MPD2    H1 4037   4.220   2.559  11.712 -0.7506 -0.8933 -1.2461
  263MPD2    H2 4038   4.382   2.295  11.993  0.5643  2.2414  0.6045
  263MPD2    H3 4039   4.242   2.485  11.935 -1.0228 -3.0421  2.0425
  263MPD2     N 4040   4.327   2.435  11.492  0.1016 -0.0660  0.3903
  263MPD2    H5 4041   4.396   2.388  11.434 -0.9855 -0.3575 -0.6802
  263MPD2    N1 4042   4.516   2.135  11.820 -0.5404 -0.2909  0.1809
  263MPD2    H7 4043   4.496   2.082  11.904 -0.3270  2.0791  1.7220
  264TMC3    C1 4044   4.256   2.561  11.304  0.0263 -0.2148 -0.1963
  264TMC3    C2 4045   4.182   2.663  11.262  0.4824  0.2723  0.1966
  264TMC3    C3 4046   4.197   2.716  11.138 -0.0343  0.0353 -0.5527
  264TMC3    C4 4047   4.343   2.493  11.220  0.1983 -0.1072 -0.0315
  264TMC3    C5 4048   4.348   2.541  11.090  0.0964 -0.3459 -0.3955
  264TMC3    C6 4049   4.275   2.650  11.052  0.5641 -0.5640  0.1308
  264TMC3     C 4050   4.242   2.533  11.442 -0.0419 -0.3644 -0.2397
  264TMC3     O 4051   4.154   2.592  11.503 -0.2282  0.0971 -0.4479
  264TMC3     H 4052   4.119   2.715  11.333  0.0456 -0.4261  0.3218
  264TMC3    H1 4053   4.408   2.414  11.254  0.6507  0.0487 -0.5267
  264TMC3    H2 4054   4.298   2.688  10.953 -1.0863  1.3542  0.4838
  264TMC3    C7 4055   4.447   2.500  10.996 -0.9961 -0.0994  0.0740
  264TMC3    C8 4056   4.171   2.860  11.110 -0.9219 -0.3615 -0.5613
  264TMC3    O1 4057   4.486   2.581  10.915  0.7342  0.5364  0.1665
  264TMC3    O2 4058   4.218   2.907  11.002  0.3130 -0.1099 -0.2193
  265MPD2     C 4059   1.728   2.529  15.723  0.1372  0.5516 -0.6063
  265MPD2    C1 4060   1.733   2.649  15.652  0.0649  0.3203 -0.0472
  265MPD2    C2 4061   1.808   2.660  15.535  0.1173 -0.1774  0.2799
  265MPD2    C3 4062   1.864   2.542  15.479  0.6736  0.5382 -0.0691
  265MPD2    C4 4063   1.847   2.424  15.552  0.5093  0.4661 -0.2773
  265MPD2    C5 4064   1.777   2.417  15.668 -0.0512 -0.1660  0.3762
  265MPD2     H 4065   1.815   2.757  15.489 -0.3942 -0.4504 -0.3756
  265MPD2    H1 4066   1.875   2.328  15.511 -3.5481 -0.0194 -1.9586
  265MPD2    H2 4067   1.682   2.513  15.819  1.8726 -0.2578  0.0995
  265MPD2    H3 4068   1.776   2.319  15.713 -0.0642 -0.8780 -1.1794
  265MPD2     N 4069   1.940   2.534  15.359  0.1709 -0.1300  0.2264
  265MPD2    H5 4070   1.979   2.444  15.333  0.5301 -0.3756  1.5710
  265MPD2    N1 4071   1.676   2.767  15.709  0.3981  0.0489  0.3186
  265MPD2    H7 4072   1.690   2.853  15.658  3.4533 -1.4709 -1.3611
  266TMC3    C1 4073   1.594   2.912  15.865  0.0266  0.2119 -0.5061
  266TMC3    C2 4074   1.601   2.967  15.992  0.8534 -0.6405 -0.0558
  266TMC3    C3 4075   1.549   3.089  16.010  1.0270 -0.0200  0.0348
  266TMC3    C4 4076   1.550   2.982  15.755 -0.8175 -0.1479  0.1311
  266TMC3    C5 4077   1.494   3.102  15.786 -0.1356 -0.1863  0.1667
  266TMC3    C6 4078   1.484   3.155  15.913 -0.0163  0.2396  0.2231
  266TMC3     C 4079   1.635   2.779  15.839 -0.3269 -0.0107 -0.1490
  266TMC3     O 4080   1.646   2.706  15.936  0.3653 -0.2537  0.3435
  266TMC3     H 4081   1.659   2.909  16.063  2.4264 -0.0541 -0.8631
  266TMC3    H1 4082   1.525   2.939  15.658 -0.3706  0.9654 -0.4825
  266TMC3    H2 4083   1.434   3.250  15.929 -2.9760 -0.8300 -2.7160
  266TMC3    C7 4084   1.450   3.177  15.673 -0.1375 -0.0177  0.0324
  266TMC3    C8 4085   1.616   3.163  16.117  0.2083 -0.5652  0.6389
  266TMC3    O1 4086   1.488   3.132  15.569  0.5292 -0.2999  0.7048
  266TMC3    O2 4087   1.659   3.101  16.212 -0.2202 -0.2017  0.4601
  267MPD2     C 4088   4.041   0.082   0.988  0.2362  0.4434  0.5213
  267MPD2    C1 4089   3.955   4.724   0.947  0.4947 -0.1942  0.0079
  267MPD2    C2 4090   3.812   0.014   0.949 -0.6504  0.2979 -0.3323
  267MPD2    C3 4091   3.756   0.128   0.993 -0.2036 -0.1738 -0.0510
  267MPD2    C4 4092   3.851   0.227   1.031 -0.3603 -0.0954  0.2953
  267MPD2    C5 4093   3.986   0.196   1.040  0.4306  0.0076  0.4488
  267MPD2     H 4094   3.742   4.678   0.910  1.2677 -2.0031  0.6209
  267MPD2    H1 4095   3.813   0.324   1.061 -0.1775 -0.0926  0.5161
  267MPD2    H2 4096   4.149   0.077   0.984  0.2453 -0.8490  2.1764
  267MPD2    H3 4097   4.045   0.280   1.075 -1.8771  1.9171 -0.1742
  267MPD2     N 4098   3.620   0.154   1.001 -0.3226  0.4161  0.3812
  267MPD2    H5 4099   3.590   0.247   1.028 -0.9012 -0.4371  2.7609
  267MPD2    N1 4100   4.018   4.608   0.905  0.0840 -0.2154 -0.0328
  267MPD2    H7 4101   4.119   4.604   0.917  0.0737 -0.4456 -0.0258
  268TMC3    C1 4102   4.043   4.401   0.789 -0.0091  0.0876  0.2975
  268TMC3    C2 4103   3.992   4.322   0.693  0.2974  0.2481 -0.2976
  268TMC3    C3 4104   4.083   4.240   0.625  0.2440 -0.3373 -0.1017
  268TMC3    C4 4105   4.175   4.404   0.820 -0.0251  0.1246  0.0062
  268TMC3    C5 4106   4.261   4.326   0.739  0.1969 -0.1624 -0.4955
  268TMC3    C6 4107   4.216   4.245   0.644 -0.6067 -0.7140  0.1099
  268TMC3     C 4108   3.954   4.502   0.840  0.0214 -0.5648 -0.5600
  268TMC3     O 4109   3.835   4.483   0.811 -0.0044 -0.0138 -0.1004
  268TMC3     H 4110   3.887   4.315   0.667 -0.4469  3.2829  1.9139
  268TMC3    H1 4111   4.208   4.456   0.909 -1.9068  0.8044  0.3095
  268TMC3    H2 4112   4.286   4.192   0.580 -0.5351 -0.9543  0.3832
  268TMC3    C7 4113   4.387   4.290   0.793 -0.2189 -0.1602 -0.0241
  268TMC3    C8 4114   4.032   4.183   0.498  0.2420 -0.2197  0.3000
  268TMC3    O1 4115   4.441   4.186   0.753 -0.1068 -1.0527 -0.5717
  268TMC3    O2 4116   4.105   4.200   0.399 -0.0207 -0.4136  0.5458
  269MPD2     C 4117   4.639   3.294  15.883 -0.3409 -0.3261  0.1428
  269MPD2    C1 4118   4.541   3.310  15.784  0.1619  0.9789 -0.0806
  269MPD2    C2 4119   4.513   3.440  15.738 -0.3267 -0.0727  0.4989
  269MPD2    C3 4120   4.574   3.542  15.794  0.1717  0.7095 -0.5809
  269MPD2    C4 4121   4.668   3.533  15.897  0.2716  0.0782 -0.2311
  269MPD2    C5 4122   4.696   3.406  15.939 -0.0167  0.0896  0.8803
  269MPD2     H 4123   4.437   3.461  15.663 -0.2984  1.3826  0.8872
  269MPD2    H1 4124   4.730   3.612  15.938 -1.7986  1.9780 -0.8015
  269MPD2    H2 4125   4.670   3.198  15.923 -0.4546 -0.5866 -0.4006
  269MPD2    H3 4126   0.036   3.379  16.010 -0.6677 -1.3662  1.0482
  269MPD2     N 4127   4.517   3.667  15.759  0.5540  0.5971 -0.0665
  269MPD2    H5 4128   4.428   3.673  15.711  0.0221  1.1531  0.9675
  269MPD2    N1 4129   4.490   3.192  15.722 -0.2481 -0.2768  0.4112
  269MPD2    H7 4130   4.519   3.099  15.751 -2.7428 -2.0111 -2.6659
  270TMC3    C1 4131   4.405   3.070  15.550  0.9854  0.0193 -0.2698
  270TMC3    C2 4132   4.299   3.041  15.471 -0.8658 -0.2784  0.0330
  270TMC3    C3 4133   4.307   2.921  15.405 -0.5214  0.5009 -0.2470
  270TMC3    C4 4134   4.524   3.000  15.551  0.1254 -0.5056  0.4391
  270TMC3    C5 4135   4.528   2.885  15.477  0.5015 -0.3993 -0.1472
  270TMC3    C6 4136   4.424   2.844  15.409 -0.0966 -0.2499  0.1079
  270TMC3     C 4137   4.401   3.189  15.622 -0.0152 -0.0963 -0.2194
  270TMC3     O 4138   4.337   3.278  15.576  0.2272  0.5560 -0.1695
  270TMC3     H 4139   4.206   3.097  15.471 -0.6637  0.0592  1.0651
  270TMC3    H1 4140   4.610   3.017  15.614 -0.3907  0.0585  0.9942
  270TMC3    H2 4141   4.428   2.743  15.371  0.6453  1.0193 -3.2028
  270TMC3    C7 4142   4.656   2.813  15.478  0.1520 -0.3397 -1.1789
  270TMC3    C8 4143   4.196   2.878  15.324  0.1054 -0.5413 -0.0392
  270TMC3    O1 4144   4.727   2.845  15.571  0.7374 -0.3750 -0.0057
  270TMC3    O2 4145   4.093   2.932  15.350  0.3852 -0.9313 -0.7090
  271MPD2     C 4146   3.605   3.321  13.972 -0.2130 -0.0509  0.2519
  271MPD2    C1 4147   3.575   3.259  14.097  0.0283  0.2759 -0.1947
  271MPD2    C2 4148   3.446   3.265  14.146  0.6141 -0.8007  0.0538
  271MPD2    C3 4149   3.343   3.334  14.075  0.4274 -0.5479  0.0880
  271MPD2    C4 4150   3.380   3.393  13.957 -0.0764 -0.0070 -0.2168
  271MPD2    C5 4151   3.509   3.395  13.906 -0.7479 -0.9498 -0.2882
  271MPD2     H 4152   3.427   3.231  14.248 -0.6145  0.8254  0.3673
  271MPD2    H1 4153   3.302   3.442  13.900 -0.4365 -1.5556 -1.0689
  271MPD2    H2 4154   3.700   3.316  13.920 -0.5638  1.3530 -0.5143
  271MPD2    H3 4155   3.525   3.438  13.808 -0.9718 -0.4460 -0.1046
  271MPD2     N 4156   3.209   3.327  14.112  0.0287  0.3930  0.0864
  271MPD2    H5 4157   3.141   3.364  14.046 -1.7704  0.2029  1.8387
  271MPD2    N1 4158   3.675   3.191  14.164  0.3945  0.1341 -0.9322
  271MPD2    H7 4159   3.652   3.153  14.255 -0.1447 -1.3608 -1.6868
  272TMC3    C1 4160   3.872   3.063  14.191  0.2805  0.3524 -0.4552
  272TMC3    C2 4161   3.968   2.989  14.128 -0.3474 -0.0998  0.0363
  272TMC3    C3 4162   4.033   2.888  14.199 -0.2442  0.4976 -0.1845
  272TMC3    C4 4163   3.828   3.030  14.318  0.6737  0.1638  0.2219
  272TMC3    C5 4164   3.884   2.921  14.375  0.3076 -0.5423 -0.3102
  272TMC3    C6 4165   3.987   2.846  14.321 -0.5259  0.3413  0.6774
  272TMC3     C 4166   3.799   3.164  14.115 -0.2949  0.9367  0.3102
  272TMC3     O 4167   3.863   3.188  14.013  0.5573 -0.1497 -0.9723
  272TMC3     H 4168   4.008   3.026  14.035  1.8358 -0.6432  0.7684
  272TMC3    H1 4169   3.775   3.102  14.378  0.1615 -0.2978  0.3168
  272TMC3    H2 4170   4.035   2.760  14.367 -2.6885 -0.7330  0.9160
  272TMC3    C7 4171   3.876   2.916  14.516  0.2236  0.2443 -0.2976
  272TMC3    C8 4172   4.174   2.869  14.160 -0.2443 -0.5095  0.5655
  272TMC3    O1 4173   3.967   2.861  14.576  0.1764  0.0241  0.1293
  272TMC3    O2 4174   4.210   2.913  14.053  0.1504  0.2748 -0.4362
  273MPD2     C 4175   0.298   1.109  11.575 -0.9251 -0.2426 -0.1820
  273MPD2    C1 4176   0.435   1.141  11.577 -0.7158  0.1486 -0.2607
  273MPD2    C2 4177   0.492   1.201  11.468 -0.1383 -0.3560 -0.4311
  273MPD2    C3 4178   0.413   1.225  11.353 -0.6861 -0.0300 -0.1775
  273MPD2    C4 4179   0.279   1.188  11.354 -0.3993  0.1684  0.2642
  273MPD2    C5 4180   0.223   1.129  11.463 -0.0014 -0.1331  0.6896
  273MPD2     H 4181   0.597   1.225  11.474 -0.3711  0.5946 -0.1718
  273MPD2    H1 4182   0.212   1.196  11.269  0.1880 -2.1512 -0.4184
  273MPD2    H2 4183   0.248   1.075  11.664 -0.9032 -1.8004 -0.7645
  273MPD2    H3 4184   0.121   1.093  11.459 -0.1937  0.7002 -2.0244
  273MPD2     N 4185   0.472   1.288  11.243  0.1605  0.0761  0.2473
  273MPD2    H5 4186   0.409   1.329  11.174  0.3728  0.6753  0.4077
  273MPD2    N1 4187   0.508   1.115  11.696  0.2330 -0.1762 -0.5700
  273MPD2    H7 4188   0.452   1.082  11.773  1.2925  0.2133  0.3752
  274TMC3    C1 4189   0.628   1.394  11.111  0.4079 -0.5208  0.1663
  274TMC3    C2 4190   0.507   1.434  11.053  0.2674 -0.9525 -0.0756
  274TMC3    C3 4191   0.481   1.569  11.053 -0.4716 -0.2885  0.3379
  274TMC3    C4 4192   0.718   1.489  11.153  0.3771 -0.1781  0.1527
  274TMC3    C5 4193   0.691   1.614  11.149  0.2410 -0.3839  0.3785
  274TMC3    C6 4194   0.573   1.663  11.084 -0.1419  0.0563 -0.1927
  274TMC3     C 4195   0.608   1.302  11.215 -0.2267  0.3257  0.0442
  274TMC3     O 4196   0.705   1.249  11.263 -0.0852  0.0690  0.1605
  274TMC3     H 4197   0.442   1.361  11.006  2.7021 -2.8663 -0.5082
  274TMC3    H1 4198   0.808   1.459  11.206  0.4415 -0.7056 -0.2418
  274TMC3    H2 4199   0.546   1.768  11.094  0.3087  0.1854 -0.3048
  274TMC3    C7 4200   0.739   1.685  11.263  0.3420  0.4262  0.4834
  274TMC3    C8 4201   0.374   1.605  10.973 -0.2691 -0.1952 -0.0962
  274TMC3    O1 4202   0.853   1.658  11.298  0.0040 -0.4908 -0.2494
  274TMC3    O2 4203   0.288   1.515  10.949  0.2362  0.4715  0.6274
  275MPD2     C 4204   0.099   4.557  14.174 -0.5759 -0.7058  0.1046
  275MPD2    C1 4205   0.169   4.465  14.248  0.1185  0.3290 -0.1898
  275MPD2    C2 4206   0.100   4.356  14.290 -0.3664 -0.2370 -0.2441
  275MPD2    C3 4207   4.700   4.340  14.260 -0.3588 -0.6177  0.1191
  275MPD2    C4 4208   4.641   4.439  14.183 -0.0755 -0.2966 -0.5084
  275MPD2    C5 4209   4.707   4.541  14.134  0.1661 -0.1359 -0.0775
  275MPD2     H 4210   0.145   4.277  14.349  0.5640  1.1094  0.8605
  275MPD2    H1 4211   4.536   4.428  14.157 -0.5619  0.3101  1.2233
  275MPD2    H2 4212   0.152   4.644  14.136 -0.6218 -0.3141  0.9477
  275MPD2    H3 4213   4.659   4.621  14.079 -0.3455  1.2718  2.4175
  275MPD2     N 4214   4.622   4.226  14.297 -0.5419  0.3843 -0.1177
  275MPD2    H5 4215   4.534   4.201  14.253 -1.5123  1.1666  1.3861
  275MPD2    N1 4216   0.303   4.478  14.273 -0.1999  0.2915 -0.9469
  275MPD2    H7 4217   0.340   4.393  14.314  2.6887  2.4298  0.8966
  276TMC3    C1 4218   0.507   4.564  14.319 -0.5006  0.1221 -0.7382
  276TMC3    C2 4219   0.539   4.428  14.312  0.0832 -0.3825 -0.5814
  276TMC3    C3 4220   0.595   4.370  14.422 -0.6641 -0.6438 -0.5214
  276TMC3    C4 4221   0.554   4.646  14.417  0.1843  0.2707  0.0717
  276TMC3    C5 4222   0.615   4.584  14.524  0.1602  0.2187 -0.3045
  276TMC3    C6 4223   0.621   4.446  14.533  0.2640 -0.1516 -0.2099
  276TMC3     C 4224   0.381   4.593  14.259 -0.2161 -0.2167  0.5070
  276TMC3     O 4225   0.331   4.706  14.267 -0.4455  0.6597 -0.1382
  276TMC3     H 4226   0.517   4.369  14.224  0.3858 -0.4743 -0.5943
  276TMC3    H1 4227   0.510   0.007  14.422  1.8454  0.9610  0.9520
  276TMC3    H2 4228   0.663   4.393  14.618 -1.1806  2.6311  2.2185
  276TMC3    C7 4229   0.677   4.666  14.633  0.1008  0.1091 -0.2746
  276TMC3    C8 4230   0.508   4.254  14.450 -0.4059 -0.4917  0.1382
  276TMC3    O1 4231   0.721   4.595  14.721  0.1135  0.3748 -0.1988
  276TMC3    O2 4232   0.430   4.223  14.358 -0.1107  0.7220 -0.5341
  277MPD2     C 4233   2.107   3.272  13.456 -0.6287  0.3494 -0.3991
  277MPD2    C1 4234   1.998   3.197  13.503 -0.3975  0.4522  0.1941
  277MPD2    C2 4235   2.008   3.066  13.549  0.6408 -0.4337  0.0197
  277MPD2    C3 4236   2.131   3.000  13.543 -0.1709 -0.1125 -0.3714
  277MPD2    C4 4237   2.240   3.074  13.494 -0.0344 -1.1137 -0.4702
  277MPD2    C5 4238   2.227   3.202  13.458  0.6737 -0.5203 -0.8990
  277MPD2     H 4239   1.925   3.015  13.597 -0.3729  2.9808  1.9389
  277MPD2    H1 4240   2.341   3.033  13.484  1.1317  1.9284 -1.0573
  277MPD2    H2 4241   2.104   3.373  13.417  1.5699  0.9115  0.8343
  277MPD2    H3 4242   2.307   3.264  13.418  1.3260 -0.5185  0.4222
  277MPD2     N 4243   2.138   2.866  13.589 -0.9676 -0.1203 -0.7093
  277MPD2    H5 4244   2.057   2.837  13.642 -0.5028 -0.1866 -0.0379
  277MPD2    N1 4245   1.868   3.265  13.499 -0.1243  0.1001  0.1634
  277MPD2    H7 4246   1.879   3.364  13.477 -1.3862  0.2043 -0.0249
  278TMC3    C1 4247   2.245   2.666  13.667 -0.5268  0.3467 -0.6509
  278TMC3    C2 4248   2.273   2.543  13.611 -0.2483 -0.2573  0.0585
  278TMC3    C3 4249   2.228   2.437  13.682  0.1522  0.2256 -0.1244
  278TMC3    C4 4250   2.184   2.689  13.785  0.1626  0.0805 -0.4705
  278TMC3    C5 4251   2.153   2.576  13.858  0.2706  0.3016 -0.2228
  278TMC3    C6 4252   2.165   2.458  13.801  0.0634 -0.2044 -0.1877
  278TMC3     C 4253   2.245   2.787  13.576  0.5132 -0.0149 -0.1747
  278TMC3     O 4254   2.334   2.790  13.490 -0.0820 -0.2110  0.3519
  278TMC3     H 4255   2.327   2.533  13.517  0.4848  0.4632  0.4021
  278TMC3    H1 4256   2.161   2.788  13.825  1.8323  0.3638 -0.2025
  278TMC3    H2 4257   2.146   2.364  13.851  1.7917 -0.6632 -0.4043
  278TMC3    C7 4258   2.045   2.596  13.958 -0.1450  0.1854  0.2030
  278TMC3    C8 4259   2.272   2.313  13.633  0.0382 -0.1098 -0.4180
  278TMC3    O1 4260   2.053   2.690  14.038  0.1045 -0.2192 -0.3002
  278TMC3    O2 4261   2.378   2.314  13.568 -0.6100 -0.8880 -0.3423
  279MPD2     C 4262   0.846   3.040   1.014 -1.2478  0.0245 -0.3738
  279MPD2    C1 4263   0.831   2.952   0.906  0.8381  0.1449  0.2504
  279MPD2    C2 4264   0.837   3.008   0.776  0.9248 -0.0360  0.3321
  279MPD2    C3 4265   0.829   3.144   0.756 -1.2644 -0.8022  0.2625
  279MPD2    C4 4266   0.834   3.224   0.867  0.9603  0.6146 -0.9455
  279MPD2    C5 4267   0.840   3.176   0.995  0.0287 -0.8687 -0.0702
  279MPD2     H 4268   0.837   2.954   0.683  0.2671 -0.3058  0.4864
  279MPD2    H1 4269   0.823   3.331   0.855  0.5786  1.1475  4.1667
  279MPD2    H2 4270   0.851   3.004   1.116  2.2979 -2.4222 -1.3731
  279MPD2    H3 4271   0.835   3.245   1.079  1.3781  0.2042 -0.8849
  279MPD2     N 4272   0.815   3.207   0.629  0.4656 -0.2389  0.0914
  279MPD2    H5 4273   0.809   3.307   0.640 -0.6566 -0.1602 -1.3166
  279MPD2    N1 4274   0.816   2.811   0.931  0.2906  0.0216 -0.2777
  279MPD2    H7 4275   0.825   2.791   1.030 -1.4475 -0.0323 -0.1278
  280TMC3    C1 4276   0.712   2.746   0.715 -0.5222  0.4974 -0.0644
  280TMC3    C2 4277   0.761   2.698   0.601 -0.2086  0.1666 -0.1448
  280TMC3    C3 4278   0.673   2.714   0.490 -0.1620  0.0469  0.3807
  280TMC3    C4 4279   0.598   2.826   0.718 -0.4832  0.3663 -0.3570
  280TMC3    C5 4280   0.540   2.868   0.601 -0.2251 -0.4659 -0.4009
  280TMC3    C6 4281   0.572   2.805   0.483 -0.0769 -0.0422 -0.2565
  280TMC3     C 4282   0.781   2.709   0.839  0.2436 -0.7073  0.4161
  280TMC3     O 4283   0.799   2.584   0.849  0.1847  0.0073  0.0175
  280TMC3     H 4284   0.840   2.624   0.613 -2.2030 -1.8039  0.8385
  280TMC3    H1 4285   0.572   2.876   0.810 -0.2529  1.1510 -0.7120
  280TMC3    H2 4286   0.513   2.821   0.394 -2.1734 -0.3830  1.0675
  280TMC3    C7 4287   0.503   3.007   0.603 -0.5464  0.2313  0.1863
  280TMC3    C8 4288   0.710   2.649   0.370  0.0500  0.1682  0.1849
  280TMC3    O1 4289   0.526   3.074   0.708 -0.3726 -0.3122  0.3205
  280TMC3    O2 4290   0.619   2.638   0.287  0.4717 -0.1899  0.3924
  281TMC3    C1 4291   4.675   3.406  13.581 -0.3701 -0.5452  0.2800
  281TMC3    C2 4292   0.017   3.509  13.564 -0.1773 -0.9128 -0.1977
  281TMC3    C3 4293   0.117   3.485  13.471  0.1157 -0.0748  0.5067
  281TMC3    C4 4294   4.685   3.278  13.534  0.1640 -0.1646 -0.3398
  281TMC3    C5 4295   0.055   3.264  13.451 -0.4594 -0.4517 -0.4586
  281TMC3    C6 4296   0.131   3.366  13.408  0.5280 -0.0730  0.4326
  281TMC3     C 4297   4.539   3.434  13.625  0.0586  0.6823 -0.9208
  281TMC3     O 4298   4.461   3.354  13.678 -0.6206  0.0592 -0.1089
  281TMC3     H 4299   0.008   3.608  13.607 -0.7615 -0.2876 -1.7704
  281TMC3    H1 4300   4.600   3.211  13.549  0.3284 -0.0227  1.1774
  281TMC3    H2 4301   0.211   3.354  13.336  1.5922  1.3717  1.3961
  281TMC3    C7 4302   0.082   3.137  13.385 -0.2510  0.2383  0.1137
  281TMC3    C8 4303   0.229   3.576  13.456 -0.3791  0.1834  0.3524
  281TMC3    O1 4304   0.159   3.132  13.293 -0.8356  0.5501  0.1647
  281TMC3    O2 4305   0.335   3.515  13.454 -0.1216 -0.4645 -0.3328
  282MPD2     C 4306   1.806   4.585  15.123 -0.3445  0.7229  0.9092
  282MPD2    C1 4307   1.728   4.697  15.110  0.3281 -0.5634 -0.1369
  282MPD2    C2 4308   1.685   4.732  14.982  0.1431 -0.0776  0.6169
  282MPD2    C3 4309   1.718   4.655  14.868 -0.2233 -1.1407 -0.1993
  282MPD2    C4 4310   1.785   4.536  14.892  0.3242  0.0310 -0.0099
  282MPD2    C5 4311   1.832   4.505  15.015  0.3661 -0.3980 -0.0737
  282MPD2     H 4312   1.635   0.088  14.962  1.7148  0.2329 -1.9044
  282MPD2    H1 4313   1.796   4.458  14.818 -0.0294 -0.7660  0.7867
  282MPD2    H2 4314   1.848   4.548  15.216 -1.7815 -0.2608  1.1691
  282MPD2    H3 4315   1.875   4.409  15.038 -1.7883 -1.0527  1.2664
  282MPD2     N 4316   1.669   4.699  14.738 -0.1905  0.1991 -0.1829
  282MPD2    H5 4317   1.626   0.053  14.732 -0.1057  0.4224  2.4707
  282MPD2    N1 4318   1.700   0.047  15.218 -0.1711 -1.0759 -0.7594
  282MPD2    H7 4319   1.644   0.129  15.196 -0.7153 -1.5918 -1.2722
  283TMC3    C1 4320   1.655   0.112  15.436 -0.7258  0.0103 -0.0197
  283TMC3    C2 4321   1.656   0.247  15.430  0.0164 -0.5823 -0.8090
  283TMC3    C3 4322   1.601   0.313  15.541  0.2471  0.8427  0.0203
  283TMC3    C4 4323   1.611   0.047  15.546 -0.3259  0.1116 -0.5307
  283TMC3    C5 4324   1.559   0.112  15.651 -0.2630  0.6615 -0.8507
  283TMC3    C6 4325   1.562   0.248  15.658 -0.1212  0.7650 -0.3824
  283TMC3     C 4326   1.733   0.026  15.352  0.3083 -0.3920 -0.2630
  283TMC3     O 4327   1.796   4.674  15.405 -0.1862  0.5624  0.2936
  283TMC3     H 4328   1.726   0.291  15.361 -0.1654 -0.3024 -0.8124
  283TMC3    H1 4329   1.613   4.677  15.550  3.0521  0.2378  1.2483
  283TMC3    H2 4330   1.541   0.307  15.747  2.2515  0.8981  0.0930
  283TMC3    C7 4331   1.438   0.057  15.709 -0.0704  0.2692  0.7308
  283TMC3    C8 4332   1.674   0.434  15.576  0.2437 -0.0473 -0.7143
  283TMC3    O1 4333   1.405   0.101  15.817  0.2650 -0.1157 -0.3363
  283TMC3    O2 4334   1.729   0.434  15.685 -0.3511 -0.0888 -0.1080
  284MPD2     C 4335   4.428   3.833  12.325  0.0858  0.1411  0.8098
  284MPD2    C1 4336   4.409   3.810  12.189 -0.2348 -0.3988 -0.6446
  284MPD2    C2 4337   4.358   3.692  12.142 -0.2094 -0.3254 -0.5638
  284MPD2    C3 4338   4.328   3.589  12.229  0.1735  0.4337  0.3615
  284MPD2    C4 4339   4.323   3.624  12.367  0.4066  0.0307  0.2201
  284MPD2    C5 4340   4.368   3.748  12.412  0.4251 -0.6056  0.0215
  284MPD2     H 4341   4.362   3.673  12.035 -2.3772 -1.9136 -0.3402
  284MPD2    H1 4342   4.282   3.555  12.439 -1.3397 -0.3390 -1.1066
  284MPD2    H2 4343   4.470   3.920  12.373 -0.1446  0.6056  0.1755
  284MPD2    H3 4344   4.362   3.778  12.516 -0.5818  1.3640 -0.6017
  284MPD2     N 4345   4.275   3.467  12.186  0.0073 -0.1388 -0.2747
  284MPD2    H5 4346   4.237   3.404  12.257  0.2174 -0.6436 -0.6065
  284MPD2    N1 4347   4.464   3.896  12.100 -0.0178 -0.1763 -1.0106
  284MPD2    H7 4348   4.460   3.863  12.004 -0.3858 -0.8410 -0.7694
  285TMC3    C1 4349   4.565   4.091  12.004  0.2711  0.1009  0.4795
  285TMC3    C2 4350   4.579   4.016  11.886 -0.2650 -0.2924  0.3398
  285TMC3    C3 4351   4.659   4.074  11.784 -0.1844 -0.6310  0.2968
  285TMC3    C4 4352   4.625   4.207  12.033 -0.6554  0.6318 -0.0268
  285TMC3    C5 4353   4.701   4.253  11.932  0.6125  0.1547  0.4411
  285TMC3    C6 4354   4.724   4.197  11.802  0.4975 -0.0836  0.2886
  285TMC3     C 4355   4.518   4.021  12.128 -0.4119  0.4279  0.0146
  285TMC3     O 4356   4.513   4.089  12.232  0.6495  0.1038 -0.0832
  285TMC3     H 4357   4.522   3.930  11.853 -1.4389  0.2938  0.8595
  285TMC3    H1 4358   4.620   4.254  12.131  1.2145 -0.7377  0.7341
  285TMC3    H2 4359   0.043   4.251  11.728 -0.4387  1.5205  0.7513
  285TMC3    C7 4360   0.015   4.393  11.933  0.6716  0.7811 -0.0508
  285TMC3    C8 4361   4.672   4.013  11.654 -0.4402  0.3269  0.2718
  285TMC3    O1 4362   0.053   4.440  11.827 -0.1983  0.3036  0.3667
  285TMC3    O2 4363   4.611   3.907  11.634  0.3418 -0.2743 -0.3005
  286MPD2     C 4364   0.190   2.672   1.761 -0.2288  0.8045 -0.9050
  286MPD2    C1 4365   0.171   2.656   1.628  0.1013 -0.2484  0.0629
  286MPD2    C2 4366   0.240   2.553   1.563  0.1231 -0.6277 -0.1711
  286MPD2    C3 4367   0.329   2.464   1.623 -0.4030 -0.0965  0.4246
  286MPD2    C4 4368   0.338   2.479   1.756  0.0018  0.0101 -0.1060
  286MPD2    C5 4369   0.283   2.586   1.818  0.5221  0.1597 -0.2992
  286MPD2     H 4370   0.232   2.550   1.455  1.7007 -1.0870 -0.2741
  286MPD2    H1 4371   0.399   2.412   1.815 -1.4814  1.4658  3.0594
  286MPD2    H2 4372   0.137   2.746   1.820  0.3536  1.2552 -0.9464
  286MPD2    H3 4373   0.310   2.588   1.923 -0.3508  0.1381 -0.0750
  286MPD2     N 4374   0.386   2.348   1.564 -0.1423  0.1127  0.3562
  286MPD2    H5 4375   0.430   2.282   1.628  2.1784  0.5259 -0.8086
  286MPD2    N1 4376   0.090   2.739   1.553  0.2404  0.0652  0.1160
  286MPD2    H7 4377   0.100   2.718   1.454  0.9495 -0.0839  0.2221
  287TMC3    C1 4378   0.454   2.196   1.406  0.0682  0.3682  0.3736
  287TMC3    C2 4379   0.457   2.168   1.278 -0.0904 -0.0975  0.2651
  287TMC3    C3 4380   0.563   2.098   1.223  0.6599 -0.3070 -0.2440
  287TMC3    C4 4381   0.557   2.156   1.492  0.7256  0.4229 -0.3262
  287TMC3    C5 4382   0.666   2.094   1.438  0.3509  0.0124 -0.0749
  287TMC3    C6 4383   0.664   2.050   1.307 -0.1496 -0.0627 -0.0761
  287TMC3     C 4384   0.365   2.305   1.438  0.2286  0.4451 -0.0494
  287TMC3     O 4385   0.291   2.352   1.356  0.1241 -0.2276  0.2430
  287TMC3     H 4386   0.373   2.195   1.216 -0.3242 -0.0253  0.6176
  287TMC3    H1 4387   0.563   2.194   1.593  2.6208 -1.8132  0.4122
  287TMC3    H2 4388   0.746   1.991   1.268 -0.0798 -0.3267  0.4601
  287TMC3    C7 4389   0.786   2.063   1.514  0.7839  1.0437  0.1434
  287TMC3    C8 4390   0.536   2.035   1.094  0.2984  0.3569  0.6719
  287TMC3    O1 4391   0.812   2.141   1.608  0.5425 -0.3668 -0.1439
  287TMC3    O2 4392   0.424   2.027   1.050 -0.2191 -0.0086  0.6895
  288TMC3    C1 4393   1.994   2.506  14.453 -0.1365  0.4799 -0.2050
  288TMC3    C2 4394   1.930   2.489  14.571  0.0902 -0.9877 -0.0362
  288TMC3    C3 4395   1.964   2.569  14.676 -0.6726  0.8779  0.1786
  288TMC3    C4 4396   2.077   2.607  14.426  0.4501  0.5653 -0.7134
  288TMC3    C5 4397   2.100   2.694  14.526 -0.1366 -0.9938  0.3757
  288TMC3    C6 4398   2.049   2.672  14.656  0.3311  0.1134 -0.1016
  288TMC3     C 4399   2.002   2.393  14.365  0.0926  0.2377  0.0736
  288TMC3     O 4400   1.910   2.314  14.350 -0.1728  0.7761 -0.0766
  288TMC3     H 4401   1.861   2.406  14.571 -0.0781 -0.8812 -3.6315
  288TMC3    H1 4402   2.119   2.616  14.327  0.4310  3.4911 -0.4516
  288TMC3    H2 4403   2.075   2.743  14.734  0.9784 -0.5171  0.2553
  288TMC3    C7 4404   2.152   2.826  14.490 -0.0001  0.2260  0.4325
  288TMC3    C8 4405   1.878   2.589  14.787 -0.3435  0.0016  0.0408
  288TMC3    O1 4406   2.172   2.847  14.372 -0.2596  0.0492  0.1311
  288TMC3    O2 4407   1.885   2.693  14.849  0.0653  0.5573 -0.2351
  289MPD2     C 4408   2.314   1.631  14.469  0.5977 -0.5307  0.4218
  289MPD2    C1 4409   2.244   1.750  14.486  0.3806 -0.4864  0.3758
  289MPD2    C2 4410   2.107   1.742  14.452 -0.5329 -0.3011 -0.0014
  289MPD2    C3 4411   2.049   1.636  14.391  0.0623  1.0600  0.0030
  289MPD2    C4 4412   2.113   1.521  14.372  0.1635  0.1057  0.1636
  289MPD2    C5 4413   2.247   1.512  14.422  0.3176 -0.2946  0.0349
  289MPD2     H 4414   2.049   1.831  14.472  1.7990  0.5422  3.0981
  289MPD2    H1 4415   2.067   1.434  14.326  2.3141 -0.6880 -0.4814
  289MPD2    H2 4416   2.419   1.633  14.496  0.7042  0.8483 -0.0936
  289MPD2    H3 4417   2.304   1.420  14.418 -0.4707 -0.8535  1.6679
  289MPD2     N 4418   1.906   1.643  14.356 -0.4980 -0.9003 -0.3689
  289MPD2    H5 4419   1.866   1.550  14.345 -2.1231 -0.4468  1.7101
  289MPD2    N1 4420   2.300   1.859  14.546 -0.3328  0.0977 -0.0690
  289MPD2    H7 4421   2.394   1.847  14.583 -0.6032 -1.8274 -0.0243
  290TMC3    C1 4422   1.681   1.711  14.355  0.4899  0.3101 -0.2348
  290TMC3    C2 4423   1.601   1.821  14.334  0.6602  0.3656 -1.1030
  290TMC3    C3 4424   1.467   1.795  14.321  0.3148 -0.1681  0.4337
  290TMC3    C4 4425   1.641   1.579  14.378 -0.3404  0.4315  1.1825
  290TMC3    C5 4426   1.506   1.567  14.370  0.1516  0.0056  0.0185
  290TMC3    C6 4427   1.421   1.671  14.346  0.4196 -0.2883 -0.2326
  290TMC3     C 4428   1.819   1.749  14.370  0.2621 -0.1556  0.5400
  290TMC3     O 4429   1.843   1.866  14.383 -0.2635  0.7441 -0.4403
  290TMC3     H 4430   1.637   1.915  14.295  1.3036  1.0351  1.0976
  290TMC3    H1 4431   1.703   1.495  14.408 -0.9021 -0.1994  0.5749
  290TMC3    H2 4432   1.314   1.655  14.342  0.4591 -1.1333  2.2644
  290TMC3    C7 4433   1.450   1.451  14.431 -0.2509 -0.0654  0.5688
  290TMC3    C8 4434   1.373   1.904  14.297 -0.4511 -0.5972  0.2314
  290TMC3    O1 4435   1.338   1.464  14.482  0.0375  0.3228  0.2194
  290TMC3    O2 4436   1.266   1.870  14.250 -0.0635 -0.2974  0.1310
  291MPD2     C 4437   0.926   1.619   0.440 -0.2741  0.1044  0.0760
  291MPD2    C1 4438   1.007   1.519   0.474 -0.7941  0.6631 -0.2378
  291MPD2    C2 4439   1.141   1.547   0.505 -0.6637  0.4914 -0.0077
  291MPD2    C3 4440   1.188   1.679   0.496  0.0074 -0.2542  0.4032
  291MPD2    C4 4441   1.097   1.779   0.481 -0.1459 -0.1108  0.1759
  291MPD2    C5 4442   0.968   1.752   0.461  0.6386  0.1211  0.0317
  291MPD2     H 4443   1.206   1.462   0.523 -0.4675  0.4189 -1.1009
  291MPD2    H1 4444   1.147   1.873   0.459 -2.6985  1.1090 -0.3726
  291MPD2    H2 4445   0.823   1.602   0.410  0.3660 -0.6595 -1.6455
  291MPD2    H3 4446   0.907   1.834   0.424 -0.6117 -0.6455  0.3707
  291MPD2     N 4447   1.329   1.706   0.504 -0.0020  0.0607  0.3063
  291MPD2    H5 4448   1.355   1.801   0.479  4.5198 -1.1782  0.2752
  291MPD2    N1 4449   0.948   1.393   0.469  0.4887 -0.1768  0.7928
  291MPD2    H7 4450   0.847   1.385   0.465  0.4454  0.5570  0.2664
  292TMC3    C1 4451   0.925   1.164   0.440  0.3500  0.4173 -0.2133
  292TMC3    C2 4452   0.801   1.179   0.507 -0.1901 -0.6502  0.0575
  292TMC3    C3 4453   0.702   1.091   0.470 -0.4639  0.2046  0.9140
  292TMC3    C4 4454   0.944   1.073   0.339 -0.5986  0.3096  0.4677
  292TMC3    C5 4455   0.835   1.004   0.292  0.0235 -0.8327  0.6206
  292TMC3    C6 4456   0.717   1.013   0.358  0.7948  1.1492 -0.2861
  292TMC3     C 4457   1.017   1.274   0.461 -0.0873 -0.3840 -0.2381
  292TMC3     O 4458   1.137   1.250   0.429  0.0902 -0.2033  0.1093
  292TMC3     H 4459   0.787   1.240   0.596  0.2522  1.0979 -1.0691
  292TMC3    H1 4460   1.037   1.046   0.290 -0.4079  2.1610 -0.1945
  292TMC3    H2 4461   0.638   0.942   0.333 -0.2558  1.7307  1.3331
  292TMC3    C7 4462   0.846   0.911   0.182 -0.1414 -0.5169 -0.3570
  292TMC3    C8 4463   0.586   1.082   0.559  0.2068  0.1228  1.1529
  292TMC3    O1 4464   0.956   0.873   0.144  0.0522 -0.6634 -0.3771
  292TMC3    O2 4465   0.599   1.130   0.673 -0.8059 -0.1477  0.4108
  293MPD2     C 4466   2.897   3.300  12.899 -0.7250 -0.0422 -0.5116
  293MPD2    C1 4467   2.904   3.177  12.963  0.4280 -0.9376 -0.2235
  293MPD2    C2 4468   2.966   3.170  13.089  0.8541 -0.8087  0.2733
  293MPD2    C3 4469   3.030   3.277  13.144 -0.6073  0.0899  0.9086
  293MPD2    C4 4470   3.035   3.394  13.078  0.0040  0.5961 -0.2301
  293MPD2    C5 4471   2.966   3.404  12.958  0.1279 -0.1977 -0.0984
  293MPD2     H 4472   2.955   3.082  13.151 -0.9813 -2.0741 -1.8569
  293MPD2    H1 4473   3.078   3.486  13.115  1.7906 -0.3753  0.0621
  293MPD2    H2 4474   2.852   3.315  12.802 -2.4782 -0.1967  0.2746
  293MPD2    H3 4475   2.967   3.501  12.909 -1.0843 -1.1201 -1.9606
  293MPD2     N 4476   3.101   3.268  13.265  0.2057  0.2823 -0.2074
  293MPD2    H5 4477   3.116   3.355  13.314 -1.2321  0.5659 -0.2983
  293MPD2    N1 4478   2.846   3.065  12.901  0.8060  0.0587 -0.0174
  293MPD2    H7 4479   2.816   3.080  12.805  1.8093  0.2275 -0.3032
  294TMC3    C1 4480   2.779   2.842  12.866 -0.6526  0.4357 -0.0674
  294TMC3    C2 4481   2.760   2.721  12.918  0.2153  0.8890 -0.0086
  294TMC3    C3 4482   2.729   2.615  12.838 -0.3308 -0.1001  0.0322
  294TMC3    C4 4483   2.757   2.867  12.729  0.1265  0.4995  0.4306
  294TMC3    C5 4484   2.716   2.758  12.650  0.0302 -0.0372  0.7717
  294TMC3    C6 4485   2.695   2.633  12.706  0.1055 -0.1767 -0.5170
  294TMC3     C 4486   2.847   2.936  12.951  0.2772 -0.1256 -0.1908
  294TMC3     O 4487   2.895   2.890  13.056  0.0373  0.2116  0.7728
  294TMC3     H 4488   2.778   2.700  13.022 -0.2151  1.3296  0.1535
  294TMC3    H1 4489   2.768   2.963  12.680 -0.8411  0.4598  0.1329
  294TMC3    H2 4490   2.677   2.542  12.649  0.2597 -0.4810 -0.0851
  294TMC3    C7 4491   2.699   2.781  12.505  0.0540 -0.1470 -0.2833
  294TMC3    C8 4492   2.700   2.494  12.904  0.1593 -0.3219 -0.4844
  294TMC3    O1 4493   2.650   2.886  12.463  0.0674 -0.1831  0.5219
  294TMC3    O2 4494   2.777   2.452  12.989 -0.3402 -0.1883 -0.0608
  295MPD2     C 4495   3.240   1.465   1.006 -0.7102 -0.5233 -0.2795
  295MPD2    C1 4496   3.319   1.576   0.979  0.7166 -0.1468 -0.6936
  295MPD2    C2 4497   3.380   1.639   1.084  0.8587 -0.0114  0.8947
  295MPD2    C3 4498   3.337   1.609   1.215 -0.0153  0.6140 -0.5247
  295MPD2    C4 4499   3.263   1.489   1.238 -0.3624  0.2283  0.1307
  295MPD2    C5 4500   3.212   1.417   1.133  0.3649 -0.0982  0.0818
  295MPD2     H 4501   3.444   1.723   1.063  0.0978  0.2859 -0.2484
  295MPD2    H1 4502   3.247   1.458   1.341  1.7108 -0.3836  0.2640
  295MPD2    H2 4503   3.188   1.414   0.925 -1.0571  1.5480 -1.3637
  295MPD2    H3 4504   3.158   1.323   1.138  4.0251 -2.1702  0.3869
  295MPD2     N 4505   3.374   1.691   1.329  1.1625 -0.1475 -0.0306
  295MPD2    H5 4506   3.337   1.655   1.417 -1.1045  1.7407 -0.1870
  295MPD2    N1 4507   3.342   1.609   0.845  0.2641  0.2128  0.4438
  295MPD2    H7 4508   3.288   1.554   0.779 -0.6752  1.5567  0.1009
  296TMC3    C1 4509   3.415   1.899   1.437 -0.2830  0.5595 -0.2248
  296TMC3    C2 4510   3.440   2.034   1.420 -0.1678 -0.1872  0.1596
  296TMC3    C3 4511   3.368   2.122   1.496  0.5607 -0.4983  0.3336
  296TMC3    C4 4512   3.324   1.849   1.533 -0.2847 -0.1338  0.0367
  296TMC3    C5 4513   3.251   1.942   1.599 -0.2512  0.6612 -0.0307
  296TMC3    C6 4514   3.273   2.072   1.586  0.2066  0.6422 -0.4577
  296TMC3     C 4515   3.441   1.812   1.323 -0.0008 -0.1762 -0.5848
  296TMC3     O 4516   3.503   1.869   1.230  0.2160  0.9035  0.3206
  296TMC3     H 4517   3.523   2.060   1.356 -2.5295  0.2997 -2.7487
  296TMC3    H1 4518   3.300   1.748   1.563  1.4037 -0.4568  0.3108
  296TMC3    H2 4519   3.221   2.145   1.648 -0.6254  1.0712 -1.6748
  296TMC3    C7 4520   3.108   1.904   1.615  0.2011 -1.0244  0.0119
  296TMC3    C8 4521   3.394   2.264   1.478 -0.4628 -0.1234  0.0905
  296TMC3    O1 4522   3.077   1.795   1.565 -0.0155 -0.0069 -0.1785
  296TMC3    O2 4523   3.502   2.301   1.438  0.0300 -0.1132  0.4088
  297MPD2     C 4524   0.439   3.692  16.611  0.5111  0.3279  0.6383
  297MPD2    C1 4525   0.422   3.796  16.515 -0.2958 -0.6965  0.0697
  297MPD2    C2 4526   0.521   3.821  16.422  0.8384  0.7639  0.0702
  297MPD2    C3 4527   0.626   3.731  16.414 -0.0071  0.7112 -0.2197
  297MPD2    C4 4528   0.640   3.624  16.502  0.2035 -0.2483 -0.0772
  297MPD2    C5 4529   0.544   3.598  16.599 -0.0854  0.6982  0.7982
  297MPD2     H 4530   0.513   3.909  16.360 -3.6693  0.0476 -0.3424
  297MPD2    H1 4531   0.728   3.562  16.513  0.3994  0.0401 -0.0008
  297MPD2    H2 4532   0.372   3.687  16.696  0.2724 -1.2714  0.3532
  297MPD2    H3 4533   0.543   3.519  16.673  0.5198  0.0472  0.1097
  297MPD2     N 4534   0.720   3.765  16.315  0.3723 -0.3592  0.8321
  297MPD2    H5 4535   0.708   3.844  16.253  2.2385 -1.7466 -1.3410
  297MPD2    N1 4536   0.319   3.891  16.529 -0.2240 -0.7697  0.1765
  297MPD2    H7 4537   0.328   3.978  16.477  1.7771  0.2162  2.1776
  298TMC3    C1 4538   0.097   3.957  16.531  0.0525  0.4901  0.2339
  298TMC3    C2 4539   0.120   4.021  16.416  0.0561  0.7258 -0.1357
  298TMC3    C3 4540   0.008   4.089  16.366 -0.5089  0.3369  0.5401
  298TMC3    C4 4541   4.726   3.970  16.604 -0.4568  0.4761  0.9773
  298TMC3    C5 4542   4.629   4.054  16.566 -0.7009 -0.6256  0.1202
  298TMC3    C6 4543   4.629   4.106  16.442 -0.2794  0.3865  0.1959
  298TMC3     C 4544   0.198   3.871  16.586 -1.1355 -0.5121  0.1360
  298TMC3     O 4545   0.165   3.772  16.644 -0.2405 -0.0661  0.2915
  298TMC3     H 4546   0.217   4.022  16.368  0.1363 -0.6238 -0.0053
  298TMC3    H1 4547   4.724   3.916  16.699 -0.4815  0.6751  1.0906
  298TMC3    H2 4548   4.558   4.183  16.413 -0.7369 -0.4412 -0.8562
  298TMC3    C7 4549   4.512   4.055  16.650  0.7920 -0.1212  0.0783
  298TMC3    C8 4550   0.033   4.162  16.243 -0.2230  0.1242  0.4653
  298TMC3    O1 4551   4.532   4.053  16.770 -0.4709  0.1726 -0.4034
  298TMC3    O2 4552   0.148   4.159  16.199  0.1648  0.2569 -0.8405
  299MPD2     C 4553   1.142   3.357  11.198 -0.4430 -0.5355 -0.1491
  299MPD2    C1 4554   1.214   3.397  11.096 -0.0608 -0.4317  0.2525
  299MPD2    C2 4555   1.154   3.382  10.969  0.2894 -0.2061 -0.5902
  299MPD2    C3 4556   1.026   3.326  10.941  0.3397  0.0513  0.2221
  299MPD2    C4 4557   0.953   3.294  11.056  0.5344 -0.4157  0.4318
  299MPD2    C5 4558   1.019   3.301  11.181  0.2094 -0.1824 -1.2432
  299MPD2     H 4559   1.218   3.406  10.885 -0.5644 -2.7922 -1.9907
  299MPD2    H1 4560   0.851   3.257  11.061 -0.5594  2.4455 -0.6160
  299MPD2    H2 4561   1.180   3.376  11.298  1.5448  1.7812 -1.3500
  299MPD2    H3 4562   0.966   3.268  11.270  0.3593 -0.7284 -1.3519
  299MPD2     N 4563   0.968   3.296  10.815  0.0101  0.4996  0.0650
  299MPD2    H5 4564   0.874   3.258  10.806  0.5074 -0.8176  0.3409
  299MPD2    N1 4565   1.328   3.473  11.122  0.0841  0.5308  0.1736
  299MPD2    H7 4566   1.364   3.467  11.216 -1.8658 -1.2973  0.8032
  300TMC3    C1 4567   0.950   3.266  10.595  0.0430 -0.3421  0.5655
  300TMC3    C2 4568   0.980   3.307  10.465 -0.0477  0.8938 -0.2871
  300TMC3    C3 4569   0.894   3.288  10.366  0.0974 -0.6702 -0.4696
  300TMC3    C4 4570   0.833   3.201  10.625 -0.6859  0.3050 -0.1580
  300TMC3    C5 4571   0.747   3.185  10.525 -0.1756 -0.2394 -0.0227
  300TMC3    C6 4572   0.772   3.235  10.395  0.4305 -0.1638 -0.0558
  300TMC3     C 4573   1.033   3.310  10.701 -0.0164  0.0924  0.2442
  300TMC3     O 4574   1.146   3.348  10.681  0.5330  0.1825 -0.5986
  300TMC3     H 4575   1.075   3.349  10.437 -0.7317  3.9087  1.7780
  300TMC3    H1 4576   0.809   3.152  10.719  0.4271  0.7286  0.3496
  300TMC3    H2 4577   0.695   3.225  10.319  1.5178 -0.7943 -1.0798
  300TMC3    C7 4578   0.618   3.122  10.530 -0.0512 -0.0444 -0.6867
  300TMC3    C8 4579   0.885   3.412  10.300  0.2095  0.1117 -0.4391
  300TMC3    O1 4580   0.575   3.064  10.430 -0.1723 -0.4630  0.2449
  300TMC3    O2 4581   0.894   3.419  10.178  0.1535 -0.5218 -1.2526
  301MPD2     C 4582   3.409   0.553   1.308 -0.0427  0.3644  0.3396
  301MPD2    C1 4583   3.290   0.483   1.317 -0.1240 -0.6427 -0.1360
  301MPD2    C2 4584   3.298   0.353   1.331  0.1181 -0.2445  0.8655
  301MPD2    C3 4585   3.406   0.271   1.324 -0.3497 -0.0520  1.0139
  301MPD2    C4 4586   3.524   0.338   1.317  0.1334 -0.3587 -0.6357
  301MPD2    C5 4587   3.522   0.475   1.314 -0.5556 -0.1793  0.0483
  301MPD2     H 4588   3.200   0.307   1.340  0.1558 -0.7316 -1.0316
  301MPD2    H1 4589   3.619   0.291   1.293 -0.8718 -2.3162 -0.7806
  301MPD2    H2 4590   3.410   0.661   1.311  0.5793  0.4047 -1.5678
  301MPD2    H3 4591   3.622   0.516   1.302  0.8435 -3.0507  1.9543
  301MPD2     N 4592   3.404   0.131   1.321  0.1583  0.6096 -0.0235
  301MPD2    H5 4593   3.498   0.091   1.323  0.3490  1.0563  0.1504
  301MPD2    N1 4594   3.163   0.542   1.335  0.0206  0.0012  0.2778
  301MPD2    H7 4595   3.089   0.478   1.361  2.2636 -3.0166 -0.7997
  302TMC3    C1 4596   3.324   4.649   1.290 -0.3306 -0.0149 -0.8749
  302TMC3    C2 4597   3.415   4.592   1.372 -0.2098 -0.2502  0.0147
  302TMC3    C3 4598   3.394   4.456   1.405 -0.4484 -0.9902  0.0851
  302TMC3    C4 4599   3.229   4.577   1.231 -0.0030 -0.2827  0.3983
  302TMC3    C5 4600   3.218   4.436   1.258 -0.4060 -0.5019  0.1410
  302TMC3    C6 4601   3.297   4.381   1.349 -0.4788 -0.1112  0.0957
  302TMC3     C 4602   3.293   0.049   1.316 -0.4991 -0.2316 -0.1786
  302TMC3     O 4603   3.181   0.087   1.288  0.2215  0.4543  0.2854
  302TMC3     H 4604   3.491   4.646   1.427 -0.0449 -0.0214 -0.4335
  302TMC3    H1 4605   3.147   4.629   1.183 -0.2521 -0.5919  0.4922
  302TMC3    H2 4606   3.287   4.273   1.361  2.0162 -0.5395 -1.4914
  302TMC3    C7 4607   3.093   4.372   1.252 -0.5021  0.1145 -0.3392
  302TMC3    C8 4608   3.485   4.376   1.484  0.1966  0.2385 -0.2346
  302TMC3    O1 4609   3.074   4.268   1.312 -0.0620 -0.4357  0.6754
  302TMC3    O2 4610   3.473   4.255   1.481  0.4018  0.9231 -0.1808
  303MPD2     C 4611   3.137   2.633  11.161 -0.2738  0.2666 -0.6205
  303MPD2    C1 4612   3.013   2.608  11.097  0.4261  0.0963 -0.6977
  303MPD2    C2 4613   2.976   2.695  10.991  0.9036 -0.4371 -0.3466
  303MPD2    C3 4614   3.059   2.797  10.954  0.0262  0.6299  0.3379
  303MPD2    C4 4615   3.179   2.811  11.016 -0.0904  0.0728  0.7691
  303MPD2    C5 4616   3.218   2.725  11.119  0.4365  0.0445  0.2267
  303MPD2     H 4617   2.884   2.676  10.936  0.1713 -0.3350  0.8372
  303MPD2    H1 4618   3.249   2.892  10.997  1.1549 -0.7551  1.8362
  303MPD2    H2 4619   3.168   2.573  11.246 -0.3095 -1.0661 -1.5436
  303MPD2    H3 4620   3.314   2.736  11.168 -0.9276  4.4341  1.9600
  303MPD2     N 4621   3.042   2.892  10.859 -0.7265 -0.1656  0.3647
  303MPD2    H5 4622   3.111   2.964  10.841  1.1696 -2.1854 -0.4509
  303MPD2    N1 4623   2.937   2.499  11.134  0.0349  0.4090  0.7908
  303MPD2    H7 4624   2.969   2.433  11.204 -0.9453 -2.1000 -1.1178
  304TMC3    C1 4625   2.739   2.382  11.172  0.0665 -0.5647  0.7431
  304TMC3    C2 4626   2.605   2.428  11.203 -0.2174  1.2894  0.1735
  304TMC3    C3 4627   2.504   2.355  11.150 -0.2604  0.0846 -0.7285
  304TMC3    C4 4628   2.759   2.261  11.105  0.0021 -0.0017 -0.5147
  304TMC3    C5 4629   2.653   2.197  11.054 -0.3061  0.3802 -0.0655
  304TMC3    C6 4630   2.524   2.238  11.081 -0.1092  0.0067  0.6239
  304TMC3     C 4631   2.802   2.491  11.105 -0.8013 -0.5332  0.2255
  304TMC3     O 4632   2.729   2.583  11.071 -0.3161 -0.6284 -0.3868
  304TMC3     H 4633   2.577   2.525  11.242  0.1018  1.9880 -1.3549
  304TMC3    H1 4634   2.856   2.248  11.058 -0.6056  0.0496 -1.7675
  304TMC3    H2 4635   2.435   2.187  11.046  0.6591 -1.8891  1.3949
  304TMC3    C7 4636   2.666   2.156  10.923  0.1292 -0.5340  0.2291
  304TMC3    C8 4637   2.401   2.426  11.085 -0.3794 -0.0896  0.7785
  304TMC3    O1 4638   2.772   2.105  10.888 -0.6180 -0.0717  0.2687
  304TMC3    O2 4639   2.420   2.427  10.965 -0.1784 -0.0008  0.5854
  305MPD2     C 4640   2.039   0.221  14.174  0.0436 -0.8140 -0.4263
  305MPD2    C1 4641   2.000   0.088  14.198 -0.5299  0.6380 -0.9195
  305MPD2    C2 4642   1.965   0.011  14.087 -0.7414 -0.0388  0.0422
  305MPD2    C3 4643   1.961   0.057  13.956 -0.2659  0.3087  0.5870
  305MPD2    C4 4644   2.016   0.181  13.933 -0.0434  0.0119 -0.7499
  305MPD2    C5 4645   2.042   0.265  14.041 -1.1829 -0.3870 -0.1670
  305MPD2     H 4646   1.922   4.651  14.108  0.4243 -0.6674 -0.5245
  305MPD2    H1 4647   2.008   0.218  13.832  0.6632  1.0056 -0.4444
  305MPD2    H2 4648   2.066   0.289  14.254 -1.7543 -0.8168  0.1797
  305MPD2    H3 4649   2.075   0.367  14.022 -0.7525 -0.5184 -0.1261
  305MPD2     N 4650   1.888   4.731  13.853  0.0913  0.9067  0.0801
  305MPD2    H5 4651   1.898   0.052  13.770  0.7109  0.8096  0.0832
  305MPD2    N1 4652   2.007   0.039  14.331  0.4331 -0.2872  0.0200
  305MPD2    H7 4653   2.027   0.113  14.398 -0.9673 -0.2095  0.3522
  306TMC3    C1 4654   2.023   4.624  14.507 -0.4728 -1.1653 -0.2584
  306TMC3    C2 4655   2.097   4.509  14.544 -1.1025  0.2355  0.0302
  306TMC3    C3 4656   2.139   4.508  14.672 -0.2101 -0.5258  0.2876
  306TMC3    C4 4657   1.975   4.714  14.597 -0.4087  0.3704  0.3739
  306TMC3    C5 4658   2.020   4.711  14.729 -0.1908  0.8200  0.3265
  306TMC3    C6 4659   2.103   4.609  14.767  0.5824 -0.0955 -0.5591
  306TMC3     C 4660   2.001   4.647  14.372 -0.3198 -0.5377  0.1965
  306TMC3     O 4661   1.993   4.546  14.303  0.0830 -0.2842  0.1390
  306TMC3     H 4662   2.120   4.439  14.464  2.3770 -1.6821  2.7256
  306TMC3    H1 4663   1.891   0.041  14.574 -0.8856 -1.3603 -2.7099
  306TMC3    H2 4664   2.155   4.623  14.861  0.2635  2.2622 -0.7491
  306TMC3    C7 4665   1.991   0.086  14.810  0.6531  0.4787  0.5755
  306TMC3    C8 4666   2.248   4.418  14.703  0.2934 -0.5327 -0.5318
  306TMC3    O1 4667   1.907   0.167  14.769 -0.0339 -0.0739 -0.1828
  306TMC3    O2 4668   2.314   4.383  14.605  0.3909  0.1946 -0.7662
  307MPD2     C 4669   4.268   4.085   1.105 -0.0416  0.0080 -0.7629
  307MPD2    C1 4670   4.151   4.065   1.173 -0.0165  0.0507  0.1841
  307MPD2    C2 4671   4.119   3.937   1.207  0.0525  0.5220  0.6354
  307MPD2    C3 4672   4.196   3.837   1.163  0.1688  0.9116  0.3324
  307MPD2    C4 4673   4.313   3.860   1.095  0.2189 -0.5613 -0.2183
  307MPD2    C5 4674   4.346   3.982   1.062  1.4645  0.3399 -0.1497
  307MPD2     H 4675   4.022   3.917   1.250 -0.1746 -1.4330 -0.8082
  307MPD2    H1 4676   4.389   3.787   1.073  0.5999 -0.0019 -0.7578
  307MPD2    H2 4677   4.299   4.187   1.086  0.2432 -0.0293 -0.4894
  307MPD2    H3 4678   4.431   3.999   0.997  1.0020 -0.3447 -0.9397
  307MPD2     N 4679   4.134   3.709   1.182 -0.0394 -0.3469  0.2174
  307MPD2    H5 4680   4.056   3.697   1.245  0.5979 -0.8157  0.9090
  307MPD2    N1 4681   4.060   4.162   1.210 -0.0569 -0.0372  0.1996
  307MPD2    H7 4682   3.964   4.135   1.229  0.5407 -1.3936  1.2933
  308TMC3    C1 4683   3.975   3.319   1.032 -0.1539  0.2625  0.2159
  308TMC3    C2 4684   3.877   3.320   1.126  0.2806 -0.0735  0.4376
  308TMC3    C3 4685   3.891   3.392   1.238 -0.5726 -0.0384  0.1817
  308TMC3    C4 4686   4.089   3.396   1.038 -0.5279 -0.3737  0.0114
  308TMC3    C5 4687   4.087   3.485   1.141 -0.2509 -0.0347 -0.3755
  308TMC3    C6 4688   4.001   3.474   1.240  0.3381  0.2804 -0.0690
  308TMC3     C 4689   3.965   3.234   0.908  0.3378  0.2678  0.2389
  308TMC3     O 4690   4.067   3.180   0.862  0.4255 -0.0308 -0.1874
  308TMC3     H 4691   3.790   3.256   1.122  1.0216 -1.0406 -0.2911
  308TMC3    H1 4692   4.156   3.394   0.953 -2.0456 -0.7949 -1.1862
  308TMC3    H2 4693   4.016   3.536   1.327  1.7352 -0.9162  0.5450
  308TMC3    C7 4694   4.181   3.592   1.130  0.2579  0.2911 -0.3651
  308TMC3    C8 4695   3.794   3.427   1.335  0.8519 -0.2301 -0.1491
  308TMC3    O1 4696   4.278   3.579   1.057 -0.5618 -0.4284  0.3852
  308TMC3    O2 4697   3.827   3.474   1.443  0.5707 -0.2606  0.0859
  309MPD2     C 4698   3.645   3.469  17.532 -1.0456  0.2802  0.4073
  309MPD2    C1 4699   3.608   3.497  17.404 -0.8151 -0.8928 -0.3932
  309MPD2    C2 4700   3.476   3.541  17.383 -0.5485 -0.5146 -0.0651
  309MPD2    C3 4701   3.384   3.558  17.490 -0.2323  0.0046  1.3907
  309MPD2    C4 4702   3.426   3.524  17.619 -0.0255 -0.3492 -0.1221
  309MPD2    C5 4703   3.554   3.477  17.637 -0.4093  0.4878 -0.3738
  309MPD2     H 4704   3.449   3.569  17.282 -0.9679 -1.2787 -0.1625
  309MPD2    H1 4705   3.354   3.534  17.699 -1.8016  0.0799 -1.7937
  309MPD2    H2 4706   3.743   3.432  17.561  0.2028  3.1343 -0.1976
  309MPD2    H3 4707   3.576   3.463  17.743 -3.3973 -1.8837 -0.0539
  309MPD2     N 4708   3.251   3.606  17.461  0.0263  0.2908 -0.1287
  309MPD2    H5 4709   3.190   3.623  17.540  1.4615  1.7452  0.6541
  309MPD2    N1 4710   3.689   3.491  17.291 -0.0194  0.5483  0.3997
  309MPD2    H7 4711   3.655   3.523  17.201 -0.1819 -2.1261 -0.4964
  310TMC3    C1 4712   3.866   3.454  17.164  0.6065  0.7498 -0.3055
  310TMC3    C2 4713   3.799   3.522  17.070  0.2953 -0.5363 -0.2309
  310TMC3    C3 4714   3.823   3.487  16.937  0.3486  0.0282  0.1906
  310TMC3    C4 4715   3.964   3.368  17.137  0.3819 -0.0203 -0.2871
  310TMC3    C5 4716   3.976   3.324  17.008  0.2249 -0.6981  0.5357
  310TMC3    C6 4717   3.913   3.386  16.903 -0.8706  0.0846  0.5876
  310TMC3     C 4718   3.820   3.452  17.296 -0.0643 -0.1179 -0.2659
  310TMC3     O 4719   3.878   3.383  17.384 -0.1563 -0.3297  0.7935
  310TMC3     H 4720   3.739   3.607  17.099  1.2921  0.3283 -0.7239
  310TMC3    H1 4721   4.013   3.315  17.218 -2.1194 -1.7617  0.1108
  310TMC3    H2 4722   3.943   3.362  16.801  1.5528 -0.7266  1.5180
  310TMC3    C7 4723   4.037   3.196  16.982  0.0058 -0.0949  0.2072
  310TMC3    C8 4724   3.734   3.538  16.832  0.7780  0.7868 -0.2907
  310TMC3    O1 4725   3.994   3.129  16.889  0.0006 -0.3561 -0.0745
  310TMC3    O2 4726   3.722   3.481  16.724  0.2337  0.1063 -0.0364
  311MPD2     C 4727   0.675   4.415  13.359 -0.5577 -0.7431  0.2912
  311MPD2    C1 4728   0.683   4.545  13.310 -0.0265 -0.0530 -0.4727
  311MPD2    C2 4729   0.564   4.612  13.294 -0.1640 -0.5463  0.2324
  311MPD2    C3 4730   0.443   4.559  13.331 -0.2734 -0.7133 -0.7312
  311MPD2    C4 4731   0.430   4.430  13.379  0.0756 -0.7355 -0.1311
  311MPD2    C5 4732   0.550   4.363  13.381 -0.2473  0.1263 -0.2710
  311MPD2     H 4733   0.570   4.702  13.234 -0.0103  1.0505  2.6293
  311MPD2    H1 4734   0.338   4.376  13.396  0.1866 -0.9940 -0.3589
  311MPD2    H2 4735   0.752   4.345  13.388 -0.7817 -0.3737  1.7781
  311MPD2    H3 4736   0.556   4.263  13.423  0.5853  0.7092  1.0031
  311MPD2     N 4737   0.338   4.653  13.315  0.5897  0.1811 -0.1146
  311MPD2    H5 4738   0.360   0.008  13.282 -2.1612 -0.0319 -2.5423
  311MPD2    N1 4739   0.808   4.612  13.289 -0.4347 -0.1856  0.5027
  311MPD2    H7 4740   0.805   4.712  13.272 -2.7914 -0.5218 -0.9661
  312TMC3    C1 4741   0.117   4.727  13.322 -0.2962 -0.8206 -0.2613
  312TMC3    C2 4742   4.730   4.691  13.299 -0.0610  0.4445  0.7838
  312TMC3    C3 4743   4.650   0.049  13.243  1.0838  0.2451  0.0827
  312TMC3    C4 4744   0.166   0.112  13.292 -0.2554  0.0719  1.0326
  312TMC3    C5 4745   0.080   0.210  13.259  0.1291  0.0130  0.1458
  312TMC3    C6 4746   4.688   0.178  13.236 -1.2189  0.3497  0.1274
  312TMC3     C 4747   0.205   4.618  13.350 -0.6789  0.4870  0.1187
  312TMC3     O 4748   0.158   4.526  13.411  0.2946 -0.6080 -0.0375
  312TMC3     H 4749   4.684   4.594  13.314 -0.5820  0.9674  2.5638
  312TMC3    H1 4750   0.268   0.143  13.313  0.9124 -1.1034 -2.9407
  312TMC3    H2 4751   4.614   0.256  13.247  0.7906  2.2102  0.3620
  312TMC3    C7 4752   0.115   0.347  13.310 -0.3879 -1.0586 -0.3295
  312TMC3    C8 4753   4.513   0.013  13.189  0.3765  0.0323  0.1828
  312TMC3    O1 4754   0.052   0.440  13.259  0.4329 -0.4234  0.3462
  312TMC3    O2 4755   4.470   4.641  13.220 -0.2325 -0.0880  0.3462
  313MPD2     C 4756   4.384   4.542  11.838 -0.1416  0.6239 -0.3857
  313MPD2    C1 4757   4.393   4.540  11.702 -0.0047 -0.8634  0.3769
  313MPD2    C2 4758   4.388   4.428  11.625 -0.1502  0.9415  0.0350
  313MPD2    C3 4759   4.379   4.301  11.680 -0.1443  0.9317  0.3152
  313MPD2    C4 4760   4.373   4.306  11.821  0.4605 -0.5868 -0.2396
  313MPD2    C5 4761   4.376   4.421  11.900 -0.2070 -0.0521 -0.1408
  313MPD2     H 4762   4.408   4.438  11.519  0.1260 -0.8243 -0.0865
  313MPD2    H1 4763   4.360   4.211  11.871  0.8587  0.4990  1.9044
  313MPD2    H2 4764   4.386   4.637  11.890  0.5924  1.3241 -1.7089
  313MPD2    H3 4765   4.367   4.423  12.008 -0.9754 -1.4682 -0.1703
  313MPD2     N 4766   4.371   4.192  11.598  0.3219  0.3630 -0.4468
  313MPD2    H5 4767   4.374   4.214  11.499 -0.9553  0.4799 -0.4543
  313MPD2    N1 4768   4.409   4.666  11.636 -0.1146 -0.0711 -0.4392
  313MPD2    H7 4769   4.438   4.666  11.539  0.1748  0.7753 -0.3541
  314TMC3    C1 4770   4.379   0.148  11.574  0.5185  0.3046 -0.1220
  314TMC3    C2 4771   4.504   0.160  11.528 -0.1637  0.5448  0.8061
  314TMC3    C3 4772   4.520   0.184  11.391 -0.1982  0.4772  0.3119
  314TMC3    C4 4773   4.270   0.141  11.491 -0.1282  0.7599  0.0426
  314TMC3    C5 4774   4.290   0.152  11.355 -0.0496 -0.0863 -0.5442
  314TMC3    C6 4775   4.415   0.177  11.301 -0.4382 -0.3945 -0.2870
  314TMC3     C 4776   4.364   0.050  11.683 -0.0240  1.3439 -0.4543
  314TMC3     O 4777   4.280   0.074  11.773 -0.2765 -0.0086 -0.1071
  314TMC3     H 4778   4.584   0.151  11.600  0.8452 -1.0131 -0.5083
  314TMC3    H1 4779   4.171   0.127  11.533  0.3726 -1.2736  0.5481
  314TMC3    H2 4780   4.427   0.190  11.194  0.5997  2.1915  0.1379
  314TMC3    C7 4781   4.194   0.087  11.280  0.2223 -0.2323 -0.1750
  314TMC3    C8 4782   4.661   0.205  11.349 -0.5081  0.2476  0.7997
  314TMC3    O1 4783   4.077   0.088  11.320 -0.3025  0.1210  0.2411
  314TMC3    O2 4784   4.673   0.271  11.246  0.2406  0.2527  0.1376
  315MPD2     C 4785   4.582   2.692  17.500 -0.3519 -0.2134  0.0555
  315MPD2    C1 4786   4.673   2.729  17.601  0.0342  0.0308  0.3078
  315MPD2    C2 4787   4.686   2.860  17.636  0.7194 -0.3017  0.0362
  315MPD2    C3 4788   4.628   2.963  17.564  0.8035  0.3699  0.7169
  315MPD2    C4 4789   4.549   2.931  17.463 -0.0858  0.0619 -0.0323
  315MPD2    C5 4790   4.525   2.799  17.432  0.0819  0.2529 -0.4126
  315MPD2     H 4791   0.013   2.886  17.719 -1.0183 -0.6438  1.5193
  315MPD2    H1 4792   4.492   3.004  17.406  3.0529  0.8975 -2.0415
  315MPD2    H2 4793   4.550   2.590  17.484  2.2248 -0.8864 -0.7772
  315MPD2    H3 4794   4.460   2.771  17.350  1.3754  1.6623 -1.9173
  315MPD2     N 4795   4.650   3.092  17.617 -0.6148  0.2114 -0.4028
  315MPD2    H5 4796   4.708   3.100  17.700  0.8708 -2.1300 -1.2223
  315MPD2    N1 4797   0.026   2.643  17.662 -0.0563 -0.4114 -0.3051
  315MPD2    H7 4798   0.047   2.667   0.009 -1.5782 -0.0618 -0.0528
  316TMC3    C1 4799   4.641   3.339  17.646 -0.2572  0.0125  0.5419
  316TMC3    C2 4800   0.002   3.334  17.736  0.5068 -0.2468  0.2259
  316TMC3    C3 4801   0.036   3.453   0.053 -0.0655  0.4891  0.0184
  316TMC3    C4 4802   4.585   3.456  17.600 -0.7852 -1.0103  0.3340
  316TMC3    C5 4803   4.612   3.568  17.666  0.8083 -0.2069 -0.2914
  316TMC3    C6 4804   4.698   3.563   0.021  0.1724  0.5198 -0.4431
  316TMC3     C 4805   4.611   3.217  17.566 -0.0841 -0.0712 -0.5123
  316TMC3     O 4806   4.545   3.234  17.464  0.2888 -0.1456 -0.1810
  316TMC3     H 4807   0.045   3.239   0.017 -0.5532 -1.1482 -1.0056
  316TMC3    H1 4808   4.508   3.451  17.524  0.0759  1.2453 -0.6791
  316TMC3    H2 4809   4.718   3.646   0.088  1.2436  1.6167 -2.1062
  316TMC3    C7 4810   4.524   3.677  17.635  0.1118  0.3704  0.6253
  316TMC3    C8 4811   0.126   3.466   0.169  0.2278  0.1669  0.6323
  316TMC3    O1 4812   4.465   3.678  17.530  0.2694  0.2357 -0.3119
  316TMC3    O2 4813   0.128   3.572   0.230 -0.5525 -0.5982 -0.1985
  317MPD2     C 4814   2.644   1.594  12.218 -0.2255  0.1720  0.8341
  317MPD2    C1 4815   2.731   1.563  12.319  0.1506 -0.6422 -0.1375
  317MPD2    C2 4816   2.690   1.526  12.442 -0.0213  0.0221 -0.3437
  317MPD2    C3 4817   2.552   1.509  12.472 -0.7188  0.1974  0.2014
  317MPD2    C4 4818   2.466   1.563  12.378  0.2441  0.0334  0.2750
  317MPD2    C5 4819   2.505   1.594  12.249  0.0304 -0.1473  0.8337
  317MPD2     H 4820   2.769   1.496  12.510  0.8623 -0.3042 -1.5269
  317MPD2    H1 4821   2.358   1.559  12.382  0.2831  1.4618  2.6645
  317MPD2    H2 4822   2.677   1.603  12.116 -1.2514 -0.5199  0.4375
  317MPD2    H3 4823   2.428   1.610  12.174  1.7246  3.1952 -0.1781
  317MPD2     N 4824   2.523   1.466  12.601 -0.8294  0.4589  0.4057
  317MPD2    H5 4825   2.599   1.425  12.654 -0.2192  1.3365  0.2038
  317MPD2    N1 4826   2.864   1.540  12.291 -0.2554  0.2781  0.0947
  317MPD2    H7 4827   2.913   1.495  12.368  0.7508  1.4491  0.1357
  318TMC3    C1 4828   2.408   1.400  12.788 -0.1549 -0.2280  0.1028
  318TMC3    C2 4829   2.315   1.301  12.826  0.3435  0.2185 -0.0924
  318TMC3    C3 4830   2.351   1.225  12.935  0.0524  0.6882  0.1160
  318TMC3    C4 4831   2.518   1.419  12.862  0.1681 -0.4205  0.6194
  318TMC3    C5 4832   2.562   1.337  12.965  0.4339  0.0244 -0.1487
  318TMC3    C6 4833   2.473   1.239  13.001 -0.4191  0.4675 -0.0277
  318TMC3     C 4834   2.395   1.448  12.650 -0.7401 -1.7952  0.0709
  318TMC3     O 4835   2.290   1.447  12.593  0.1747 -0.4346  0.7880
  318TMC3     H 4836   2.227   1.273  12.770  0.6813 -0.2280 -0.4058
  318TMC3    H1 4837   2.581   1.505  12.840  0.5862 -0.7791  0.4278
  318TMC3    H2 4838   2.495   1.174  13.084 -0.3998  0.8608  0.2756
  318TMC3    C7 4839   2.671   1.381  13.059 -0.2271  0.3754  0.0698
  318TMC3    C8 4840   2.285   1.102  12.957 -0.5652  0.3392  0.0922
  318TMC3    O1 4841   2.729   1.482  13.029 -0.1818 -0.1547  0.0336
  318TMC3    O2 4842   2.354   1.011  13.001  0.5195 -0.0121 -0.2809
  319MPD2     C 4843   3.042   3.120  16.537  0.2058 -0.3223 -0.0476
  319MPD2    C1 4844   2.987   3.033  16.631  0.3631  0.5882  0.0491
  319MPD2    C2 4845   2.895   2.946  16.587  0.1416 -0.4507 -0.5368
  319MPD2    C3 4846   2.854   2.935  16.457  0.0691  0.4583  0.1363
  319MPD2    C4 4847   2.895   3.030  16.369  0.2976  0.1238  0.4636
  319MPD2    C5 4848   2.998   3.113  16.409  0.0646  0.5666  0.3201
  319MPD2     H 4849   2.854   2.890  16.670 -2.0514 -1.6379 -2.4339
  319MPD2    H1 4850   2.872   3.027  16.263 -1.0825 -0.9024  0.7916
  319MPD2    H2 4851   3.120   3.192  16.558  1.6120 -1.5143 -1.2003
  319MPD2    H3 4852   3.037   3.185  16.338 -2.9188  0.7139 -1.1347
  319MPD2     N 4853   2.774   2.829  16.407  0.2104 -0.5078 -0.1425
  319MPD2    H5 4854   2.771   2.827  16.306 -0.8816  1.6474 -0.1462
  319MPD2    N1 4855   3.033   3.026  16.768  0.0637 -0.8435  0.3445
  319MPD2    H7 4856   3.000   2.944  16.818  0.4857 -0.6413  0.9499
  320TMC3    C1 4857   2.606   2.670  16.403 -0.2427 -0.8402  0.1624
  320TMC3    C2 4858   2.553   2.726  16.291 -0.0122 -0.2940 -0.4662
  320TMC3    C3 4859   2.445   2.662  16.240  0.2307 -0.1979  0.3717
  320TMC3    C4 4860   2.568   2.549  16.455  0.0925 -0.3150  0.4764
  320TMC3    C5 4861   2.461   2.491  16.400  0.0799 -0.9450 -0.3083
  320TMC3    C6 4862   2.395   2.543  16.298  0.2265 -0.2665  0.2287
  320TMC3     C 4863   2.707   2.740  16.485  0.2418  0.3523 -0.1248
  320TMC3     O 4864   2.717   2.706  16.600  0.0952 -0.5556  0.0642
  320TMC3     H 4865   2.593   2.816  16.245 -1.4806  1.4752  1.7573
  320TMC3    H1 4866   2.627   2.496  16.529  0.7013 -0.8023 -0.3576
  320TMC3    H2 4867   2.302   2.492  16.275  0.3928 -0.5818  0.2415
  320TMC3    C7 4868   2.437   2.351  16.441 -0.2195  0.4839 -0.0948
  320TMC3    C8 4869   2.355   2.752  16.168 -0.0827  0.1909  0.5663
  320TMC3    O1 4870   2.496   2.317  16.545 -0.1808  0.3904  0.3727
  320TMC3    O2 4871   2.368   2.870  16.185 -0.0955  0.2577  0.4610
  321TMC3    C1 4872   3.144   3.066  16.966 -0.4510  0.0963  0.7129
  321TMC3    C2 4873   3.092   2.947  17.009  0.5010 -0.2278 -0.5449
  321TMC3    C3 4874   3.102   2.911  17.143  0.0393  0.0265 -0.3457
  321TMC3    C4 4875   3.180   3.161  17.054  0.4890  0.5732  1.2486
  321TMC3    C5 4876   3.166   3.131  17.193 -0.3866  0.6541  0.0544
  321TMC3    C6 4877   3.135   3.007  17.230 -0.3262 -0.2354 -0.2811
  321TMC3     C 4878   3.118   3.114  16.831 -0.2788  0.1568  0.1726
  321TMC3     O 4879   3.163   3.221  16.795 -0.4440 -0.3517  1.0448
  321TMC3     H 4880   3.075   2.863  16.943  1.1425 -1.7561  1.2118
  321TMC3    H1 4881   3.221   3.252  17.012 -1.5616  0.0321 -1.9678
  321TMC3    H2 4882   3.123   2.981  17.334 -1.2569 -2.7087 -1.0031
  321TMC3    C7 4883   3.292   3.160  17.258  0.4664  0.4424 -0.6307
  321TMC3    C8 4884   3.183   2.797  17.164  0.1738  0.7578  0.5050
  321TMC3    O1 4885   3.288   3.260  17.326 -0.6852  0.2793  0.2668
  321TMC3    O2 4886   3.297   2.801  17.118 -0.4839  0.1848 -0.0119
  322MPD2     C 4887   1.380   3.507  13.893  0.3336 -0.7600  0.5151
  322MPD2    C1 4888   1.514   3.513  13.871  0.5659  0.4725 -0.1342
  322MPD2    C2 4889   1.593   3.399  13.867 -0.2827  0.1288  0.3867
  322MPD2    C3 4890   1.539   3.275  13.903 -0.0062 -0.7456 -0.0296
  322MPD2    C4 4891   1.404   3.272  13.930 -0.2206  0.0269  0.4978
  322MPD2    C5 4892   1.326   3.383  13.911 -0.0595  0.1840 -0.1198
  322MPD2     H 4893   1.699   3.416  13.858 -0.6074  1.9990  0.1460
  322MPD2    H1 4894   1.343   3.188  13.961 -0.4814  0.4311  1.0824
  322MPD2    H2 4895   1.315   3.593  13.891 -0.3163 -1.2593  0.0834
  322MPD2    H3 4896   1.218   3.368  13.915 -0.0411 -0.1764 -0.9915
  322MPD2     N 4897   1.614   3.157  13.891  0.7799 -0.6267 -0.3784
  322MPD2    H5 4898   1.712   3.157  13.864  0.6894  1.1724 -0.7435
  322MPD2    N1 4899   1.574   3.632  13.867  0.0535 -0.1419  0.5728
  322MPD2    H7 4900   1.519   3.710  13.902  1.0778 -0.0938  2.0947
  323TMC3    C1 4901   1.744   3.797  13.853  0.1517  0.6497 -0.2279
  323TMC3    C2 4902   1.832   3.858  13.770  0.0981 -0.1094 -0.4754
  323TMC3    C3 4903   1.887   3.972  13.825  0.1873 -0.6639 -0.1667
  323TMC3    C4 4904   1.738   3.821  13.983 -0.2275  0.6714 -0.0739
  323TMC3    C5 4905   1.805   3.927  14.037  0.2847  0.1340  0.3493
  323TMC3    C6 4906   1.868   4.012  13.955  0.1202  0.4363 -0.7736
  323TMC3     C 4907   1.695   3.664  13.809 -0.5581  0.6197 -0.4261
  323TMC3     O 4908   1.759   3.601  13.726  0.6458  0.8546 -0.0347
  323TMC3     H 4909   1.835   3.823  13.668 -0.4482  0.2691 -0.6180
  323TMC3    H1 4910   1.694   3.750  14.051 -0.3443  0.4383 -0.3908
  323TMC3    H2 4911   1.931   4.096  13.983  1.7529 -0.7458 -0.9180
  323TMC3    C7 4912   1.835   3.936  14.178 -0.1856  0.5901 -0.5048
  323TMC3    C8 4913   1.922   4.087  13.734  0.6815 -0.0932  0.8482
  323TMC3    O1 4914   1.781   3.853  14.251 -0.4249 -0.0260  0.2542
  323TMC3    O2 4915   1.970   4.189  13.783  0.7248 -0.1219 -0.2830
  324MPD2     C 4916   3.324   0.534  14.528 -0.2543  0.4399  0.3949
  324MPD2    C1 4917   3.358   0.663  14.484 -0.5390 -0.1956 -0.3931
  324MPD2    C2 4918   3.270   0.743  14.417  0.2077 -0.0601 -0.0806
  324MPD2    C3 4919   3.140   0.683  14.392  0.8314 -0.6061 -0.3357
  324MPD2    C4 4920   3.111   0.557  14.436  0.0820 -0.0447  0.1735
  324MPD2    C5 4921   3.200   0.479  14.502  0.3410 -0.0275  0.1903
  324MPD2     H 4922   3.303   0.837  14.376  1.1172  0.0801  0.9748
  324MPD2    H1 4923   3.013   0.518  14.412  1.1706 -2.1390 -0.9554
  324MPD2    H2 4924   3.390   0.474  14.591 -2.1845 -0.2874  1.7324
  324MPD2    H3 4925   3.169   0.382  14.540  0.9608 -0.0389  0.6676
  324MPD2     N 4926   3.038   0.758  14.331  0.9059 -0.6986  0.0270
  324MPD2    H5 4927   2.944   0.721  14.341  0.9271 -0.6533  0.4055
  324MPD2    N1 4928   3.484   0.719  14.502  0.4240 -0.1295 -0.4697
  324MPD2    H7 4929   3.491   0.819  14.487 -2.4773  0.1630  0.0904
  325TMC3    C1 4930   2.935   0.917  14.194 -0.5985 -0.4972 -0.6392
  325TMC3    C2 4931   2.826   0.831  14.193 -0.6296 -0.0293  0.0628
  325TMC3    C3 4932   2.727   0.850  14.103  0.0803 -0.0482 -0.2222
  325TMC3    C4 4933   2.934   1.025  14.108 -0.5232  0.0335 -0.3859
  325TMC3    C5 4934   2.834   1.036  14.010 -0.6510 -0.0295 -0.3605
  325TMC3    C6 4935   2.735   0.942  14.000 -0.2144  0.4222 -0.6613
  325TMC3     C 4936   3.056   0.870  14.253 -0.2658 -0.3321 -0.2720
  325TMC3     O 4937   3.158   0.919  14.194  0.0731 -0.3328  0.2285
  325TMC3     H 4938   2.793   0.776  14.280  0.4641 -0.7652  0.0150
  325TMC3    H1 4939   3.017   1.095  14.105  0.8032 -1.4313  2.0278
  325TMC3    H2 4940   2.666   0.944  13.917  1.0881 -1.2880 -1.7911
  325TMC3    C7 4941   2.816   1.162  13.939  0.0739 -0.6813  0.8548
  325TMC3    C8 4942   2.635   0.739  14.096 -0.7285 -0.2544  0.0065
  325TMC3    O1 4943   2.738   1.168  13.847  0.3629 -0.2320  0.1811
  325TMC3    O2 4944   2.679   0.625  14.115  0.5016 -0.2827  0.3882
  326MPD2     C 4945   4.580   1.306  10.992 -0.1828  0.1618 -0.2978
  326MPD2    C1 4946   4.495   1.414  10.988 -0.4619 -0.3778  0.8488
  326MPD2    C2 4947   4.538   1.524  11.058 -0.0996 -0.1284  0.0823
  326MPD2    C3 4948   4.664   1.545  11.113 -0.3688 -0.1768  0.7120
  326MPD2    C4 4949   0.014   1.437  11.098  0.2183 -0.3670 -0.3547
  326MPD2    C5 4950   4.706   1.315  11.057 -0.1473  0.3124 -0.3967
  326MPD2     H 4951   4.473   1.608  11.082  2.9921  1.1314  4.0768
  326MPD2    H1 4952   0.117   1.444  11.131  0.6857 -1.2693 -1.5882
  326MPD2    H2 4953   4.551   1.212  10.948 -1.1823 -0.7723  2.3853
  326MPD2    H3 4954   0.043   1.237  11.057  0.1670  0.6163 -0.2977
  326MPD2     N 4955   4.711   1.659  11.186  0.6077  0.3215 -0.6958
  326MPD2    H5 4956   0.063   1.654  11.234  0.7636 -0.2294 -1.0451
  326MPD2    N1 4957   4.374   1.398  10.921 -0.2086  0.0874 -0.5166
  326MPD2    H7 4958   4.351   1.303  10.893 -1.4643  0.2655 -0.1116
  327TMC3    C1 4959   4.301   1.631  10.885 -0.4783 -0.4777 -0.2375
  327TMC3    C2 4960   4.196   1.715  10.912 -0.4820  0.0596  0.5454
  327TMC3    C3 4961   4.213   1.852  10.888 -0.1418  0.3485 -0.0414
  327TMC3    C4 4962   4.416   1.671  10.825 -0.5392 -0.1949 -0.6884
  327TMC3    C5 4963   4.429   1.806  10.814 -0.0830 -0.3691  0.3040
  327TMC3    C6 4964   4.324   1.895  10.827 -0.2665  0.0158 -0.0771
  327TMC3     C 4965   4.274   1.488  10.896 -0.6369  0.1963 -0.2579
  327TMC3     O 4966   4.171   1.474  10.833 -0.1090 -0.7233 -0.7117
  327TMC3     H 4967   4.114   1.672  10.968 -1.1579  0.3924 -0.1933
  327TMC3    H1 4968   4.477   1.594  10.780 -0.4860 -0.9396  0.6485
  327TMC3    H2 4969   4.342   1.999  10.799  1.1105 -0.4447 -0.9289
  327TMC3    C7 4970   4.555   1.854  10.754  0.6731  0.0549 -0.2139
  327TMC3    C8 4971   4.116   1.951  10.935 -0.1936 -1.1299 -0.2429
  327TMC3    O1 4972   4.554   1.949  10.682  0.2257 -0.3797  0.1398
  327TMC3    O2 4973   4.149   2.070  10.930  0.3900  1.1018 -0.2546
  328MPD2     C 4974   2.480   1.742  17.139  0.1779 -0.2719  0.3569
  328MPD2    C1 4975   2.376   1.669  17.201  0.8406 -0.0787 -0.0430
  328MPD2    C2 4976   2.259   1.645  17.140 -0.2699 -0.3177 -0.0937
  328MPD2    C3 4977   2.239   1.699  17.017  0.5190 -0.1661  0.3654
  328MPD2    C4 4978   2.337   1.776  16.965  0.2349 -0.4602  0.1825
  328MPD2    C5 4979   2.456   1.793  17.018 -0.2589 -0.4803 -0.1263
  328MPD2     H 4980   2.176   1.587  17.179 -1.9850  0.9670 -1.9239
  328MPD2    H1 4981   2.337   1.819  16.865 -0.7421 -0.4196  0.2023
  328MPD2    H2 4982   2.574   1.760  17.189  0.4831  0.0852 -0.3468
  328MPD2    H3 4983   2.526   1.854  16.961  0.3012 -0.0782  0.9792
  328MPD2     N 4984   2.116   1.687  16.947  0.0711 -0.2366  0.7618
  328MPD2    H5 4985   2.096   1.742  16.864 -0.5412 -0.6964  0.6101
  328MPD2    N1 4986   2.410   1.610  17.327 -0.1569 -0.2994 -0.2034
  328MPD2    H7 4987   2.507   1.587  17.344 -0.4255 -1.5738 -0.4040
  329TMC3    C1 4988   2.388   1.487  17.512  0.2007 -0.5547  0.3908
  329TMC3    C2 4989   2.342   1.499  17.635 -0.4431  0.3659  0.3820
  329TMC3    C3 4990   2.341   1.388  17.714  0.3357 -1.3613  0.1349
  329TMC3    C4 4991   2.416   1.371  17.455  0.0688 -0.5436 -0.2236
  329TMC3    C5 4992   2.405   1.261  17.535  0.4507  0.2158 -0.1119
  329TMC3    C6 4993   2.373   1.266  17.666  0.0767  0.8439  0.0657
  329TMC3     C 4994   2.318   1.569  17.419 -0.1298 -0.2376 -0.8544
  329TMC3     O 4995   2.204   1.611  17.434 -0.3713 -0.0963  0.0794
  329TMC3     H 4996   2.324   1.594  17.684 -0.3137  0.4375  0.2883
  329TMC3    H1 4997   2.441   1.357  17.350  0.3167  2.6432 -0.6100
  329TMC3    H2 4998   2.408   1.192  17.738  1.4855  2.2333  0.8075
  329TMC3    C7 4999   2.354   1.138  17.467 -0.2914  0.0425  0.8561
  329TMC3    C8 5000   2.353   1.407   0.104  0.2287 -0.9348 -0.6312
  329TMC3    O1 5001   2.409   1.113  17.358 -0.1939  0.1026 -0.2146
  329TMC3    O2 5002   2.441   1.344   0.169  0.3589  0.2043 -0.1110
  330TMC3    C1 5003   0.438   0.734   9.805 -0.2536  0.3015  0.3635
  330TMC3    C2 5004   0.323   0.722   9.881 -0.1394  0.6382 -0.6442
  330TMC3    C3 5005   0.328   0.783  10.002 -0.4706 -0.2452  0.1022
  330TMC3    C4 5006   0.548   0.800   9.854 -0.8990 -0.0841 -0.2652
  330TMC3    C5 5007   0.549   0.853   9.980  0.4544  0.4440  0.4768
  330TMC3    C6 5008   0.428   0.861  10.047  0.1753  1.2488 -0.0780
  330TMC3     C 5009   0.464   0.641   9.704  0.3320  0.2387  0.2216
  330TMC3     O 5010   0.574   0.590   9.705 -0.0231  0.1276 -0.3427
  330TMC3     H 5011   0.244   0.655   9.849  0.8031 -0.2114 -1.2034
  330TMC3    H1 5012   0.632   0.798   9.785  0.6655 -2.1349  1.7236
  330TMC3    H2 5013   0.424   0.902  10.147  1.2193 -1.0481  0.9054
  330TMC3    C7 5014   0.650   0.952  10.013  0.2129 -0.4297  0.5037
  330TMC3    C8 5015   0.207   0.774  10.086 -0.4351  0.9530  0.0466
  330TMC3    O1 5016   0.621   1.027  10.108  0.3085  0.1287  0.1105
  330TMC3    O2 5017   0.192   0.848  10.182  0.2800 -0.2449 -0.0002
  331MPD2     C 5018   2.253   0.645  12.591 -0.3939 -0.0216  0.4782
  331MPD2    C1 5019   2.395   0.641  12.551 -0.2465 -0.2691  0.3348
  331MPD2    C2 5020   2.461   0.517  12.579 -0.2011 -0.2284 -0.5960
  331MPD2    C3 5021   2.405   0.413  12.655  0.5462 -0.1581 -0.3166
  331MPD2    C4 5022   2.281   0.430  12.714 -0.3647 -0.2007 -0.2085
  331MPD2    C5 5023   2.208   0.541  12.675  0.3627 -0.2462  0.7120
  331MPD2     H 5024   2.561   0.506  12.540  0.4895  0.3684  0.9892
  331MPD2    H1 5025   2.226   0.354  12.769  0.8558 -0.9018  0.0511
  331MPD2    H2 5026   2.200   0.738  12.605  0.8594  0.4647  2.0745
  331MPD2    H3 5027   2.106   0.548  12.713  0.2055  1.2310  0.0254
  331MPD2     N 5028   2.476   0.289  12.650  0.6116 -0.0791 -0.3156
  331MPD2    H5 5029   2.537   0.269  12.572  1.1991  3.1046 -0.6625
  331MPD2    N1 5030   2.468   0.756  12.503 -0.6780 -0.5687 -0.2111
  331MPD2    H7 5031   2.417   0.843  12.491  1.3922  1.0534  2.6724
  332TMC3    C1 5032   2.570   0.086  12.736 -0.4252  0.5964  0.3425
  332TMC3    C2 5033   2.614   0.051  12.614  0.4111  0.4231  0.5126
  332TMC3    C3 5034   2.714   4.695  12.604  0.5942 -0.4450  0.7589
  332TMC3    C4 5035   2.624   0.038  12.849  0.3279  1.0643  0.2956
  332TMC3    C5 5036   2.722   4.677  12.831  0.2313 -0.4372 -0.6586
  332TMC3    C6 5037   2.770   4.640  12.713 -0.3190 -0.6261 -0.4596
  332TMC3     C 5038   2.471   0.191  12.749  0.5575 -0.0388 -0.6514
  332TMC3     O 5039   2.420   0.204  12.860  0.0651  0.3824  0.3149
  332TMC3     H 5040   2.588   0.098  12.520 -0.9027 -1.0540  0.1341
  332TMC3    H1 5041   2.589   0.058  12.950 -1.4005 -1.7253  0.2441
  332TMC3    H2 5042   2.850   4.570  12.691 -0.4868 -0.1039 -2.7236
  332TMC3    C7 5043   2.797   4.647  12.950 -0.1818 -0.4522 -0.3288
  332TMC3    C8 5044   2.784   4.688  12.473  0.8845 -0.3393 -0.1537
  332TMC3    O1 5045   2.723   4.626  13.042  0.2003  0.0232 -0.4505
  332TMC3    O2 5046   2.781   0.041  12.394  0.4488  0.3631  0.2409
  333MPD2     C 5047   3.215   0.326  11.163  0.6856 -0.3973  0.6120
  333MPD2    C1 5048   3.271   0.238  11.078 -0.0116  0.1479 -0.1229
  333MPD2    C2 5049   3.279   0.101  11.109  0.3754 -0.2649 -0.2859
  333MPD2    C3 5050   3.250   0.059  11.238 -0.0055 -0.3335 -0.5833
  333MPD2    C4 5051   3.190   0.153  11.327 -0.1474  0.5382 -0.1145
  333MPD2    C5 5052   3.179   0.283  11.287  0.6750 -0.4009  0.3569
  333MPD2     H 5053   3.317   0.023  11.045  0.0797  1.2059 -2.2367
  333MPD2    H1 5054   3.148   0.124  11.423 -1.0444  1.1124 -0.3348
  333MPD2    H2 5055   3.206   0.433  11.147 -2.4706 -0.5813  1.1568
  333MPD2    H3 5056   3.131   0.353  11.355 -0.2139 -0.9029  0.2475
  333MPD2     N 5057   3.269   4.658  11.275 -0.2044  0.3893  0.3227
  333MPD2    H5 5058   3.305   4.592  11.208  1.7514  1.8970 -0.1091
  333MPD2    N1 5059   3.313   0.300  10.958 -0.5446 -0.2215 -0.0825
  333MPD2    H7 5060   3.316   0.402  10.958  0.1501 -0.2392 -3.6481
  334TMC3    C1 5061   3.458   0.322  10.775 -0.9256 -0.2728 -0.2597
  334TMC3    C2 5062   3.545   0.262  10.686 -0.4632  0.1945 -0.2277
  334TMC3    C3 5063   3.645   0.336  10.634  0.3021  0.4536 -0.3303
  334TMC3    C4 5064   3.465   0.458  10.801  0.2170  0.2275 -0.0456
  334TMC3    C5 5065   3.563   0.524  10.731  0.4197  0.2886  0.4450
  334TMC3    C6 5066   3.663   0.468  10.657 -0.9467 -0.3745  0.1757
  334TMC3     C 5067   3.375   0.237  10.854  0.4682  0.4224  0.3692
  334TMC3     O 5068   3.391   0.116  10.845  0.0330 -0.5291 -0.2893
  334TMC3     H 5069   3.540   0.154  10.678 -2.9199  0.1152  2.3996
  334TMC3    H1 5070   3.400   0.508  10.871 -2.7185 -0.6396 -2.1524
  334TMC3    H2 5071   3.738   0.527  10.604 -2.8920 -0.0449 -2.2085
  334TMC3    C7 5072   3.579   0.669  10.759  0.0309  0.2465  0.7183
  334TMC3    C8 5073   3.745   0.260  10.566 -0.2607 -0.2613 -1.0508
  334TMC3    O1 5074   3.698   0.711  10.769  0.2524 -0.3336 -0.7274
  334TMC3    O2 5075   3.712   0.179  10.477  0.2944  0.2649  0.1325
  335TMC3    C1 5076   2.828   1.403  17.401 -0.2775  1.4651 -0.2984
  335TMC3    C2 5077   2.744   1.332  17.322 -0.7696 -0.2677 -0.2322
  335TMC3    C3 5078   2.776   1.346  17.183  0.5922  0.1683 -0.1142
  335TMC3    C4 5079   2.949   1.451  17.367 -0.2584  0.5217  0.2782
  335TMC3    C5 5080   2.982   1.452  17.234 -0.0206 -0.5440  0.0929
  335TMC3    C6 5081   2.897   1.396  17.138  0.4869 -0.4777  0.2524
  335TMC3     C 5082   2.749   1.498  17.474 -0.3335 -0.1285 -0.8922
  335TMC3     O 5083   2.655   1.539  17.409  0.8026 -0.2792 -0.1800
  335TMC3     H 5084   2.647   1.308  17.365 -2.3282  1.3936 -2.8655
  335TMC3    H1 5085   3.009   1.517  17.429  0.3437 -0.7331  1.0560
  335TMC3    H2 5086   2.923   1.407  17.033 -0.4938  0.1949  0.0775
  335TMC3    C7 5087   3.120   1.437  17.191 -0.3512 -0.5307  0.1115
  335TMC3    C8 5088   2.658   1.348  17.094 -0.4104 -0.0583 -0.5374
  335TMC3    O1 5089   3.163   1.438  17.076 -0.4070 -0.4204 -0.0029
  335TMC3    O2 5090   2.666   1.416  16.993  0.7709  0.2251  0.1140
  336MPD2     C 5091   2.253   4.054  16.624  0.1317  0.1547  0.1919
  336MPD2    C1 5092   2.351   4.057  16.526 -0.2766  0.8389  0.2462
  336MPD2    C2 5093   2.435   3.950  16.513  0.4297 -0.1813 -0.0715
  336MPD2    C3 5094   2.416   3.836  16.588  0.3085 -1.2064 -0.3303
  336MPD2    C4 5095   2.311   3.830  16.678  0.0273 -0.7886 -0.1979
  336MPD2    C5 5096   2.235   3.941  16.701  0.0103 -0.3504  0.0272
  336MPD2     H 5097   2.509   3.954  16.434  1.1311 -0.9032  0.5480
  336MPD2    H1 5098   2.294   3.743  16.739 -1.1096 -0.3003  0.1825
  336MPD2    H2 5099   2.184   4.136  16.642  0.2138  0.1718  0.4289
  336MPD2    H3 5100   2.158   3.928  16.777 -1.2798 -0.5909 -1.3315
  336MPD2     N 5101   2.488   3.712  16.570  0.4252  0.0364 -0.0552
  336MPD2    H5 5102   2.454   3.634  16.626  3.1688 -0.3804  1.0242
  336MPD2    N1 5103   2.365   4.162  16.432  0.2019 -0.6923 -0.2389
  336MPD2    H7 5104   2.440   4.146  16.366 -0.4794 -0.2116 -1.1442
  337TMC3    C1 5105   2.285   4.310  16.266  0.4959  0.9334  0.8867
  337TMC3    C2 5106   2.189   4.399  16.224  0.3749 -0.4057 -0.2160
  337TMC3    C3 5107   2.180   4.438  16.089  0.7274 -0.6371  0.7745
  337TMC3    C4 5108   2.365   4.248  16.175  0.1107 -0.4243 -0.1729
  337TMC3    C5 5109   2.350   4.276  16.046  0.3901 -0.1755 -0.1187
  337TMC3    C6 5110   2.265   4.380  15.998 -0.0731 -0.2577 -0.1543
  337TMC3     C 5111   2.267   4.256  16.399  0.2102  0.9220  0.2109
  337TMC3     O 5112   2.172   4.302  16.462  0.2192  0.0492  0.2543
  337TMC3     H 5113   2.126   4.437  16.304 -0.2924 -0.2876 -0.7951
  337TMC3    H1 5114   2.441   4.177  16.207 -1.0769 -1.4523  0.3898
  337TMC3    H2 5115   2.263   4.410  15.894  0.0104 -0.1004 -0.1103
  337TMC3    C7 5116   2.463   4.232  15.966  0.4375 -0.8811  0.0762
  337TMC3    C8 5117   2.065   4.511  16.037  0.7852 -0.4102 -0.0763
  337TMC3    O1 5118   2.565   4.198  16.026 -0.3110 -0.0231 -0.0156
  337TMC3    O2 5119   2.010   4.587  16.112  0.5057 -0.2082 -0.4732
  338MPD2     C 5120   2.796   3.356   0.965 -0.5830  0.0566 -0.1357
  338MPD2    C1 5121   2.756   3.314   0.842  0.4529  0.3576 -0.1305
  338MPD2    C2 5122   2.621   3.275   0.821  0.2420  0.8885 -0.0470
  338MPD2    C3 5123   2.544   3.255   0.931 -0.3243 -0.1882 -0.2631
  338MPD2    C4 5124   2.580   3.304   1.057 -0.0427  0.1425  0.2531
  338MPD2    C5 5125   2.705   3.361   1.076 -0.4776 -0.0784 -0.5558
  338MPD2     H 5126   2.581   3.247   0.724  1.7848 -0.9000 -0.1504
  338MPD2    H1 5127   2.513   3.310   1.142  0.7401 -1.8634  1.0292
  338MPD2    H2 5128   2.900   3.376   0.985 -0.1095 -0.3742 -2.1953
  338MPD2    H3 5129   2.742   3.393   1.172  1.5452  1.1546 -1.7403
  338MPD2     N 5130   2.409   3.217   0.905  0.4636 -0.0134 -0.3302
  338MPD2    H5 5131   2.379   3.224   0.809 -1.1877 -1.9061  0.0531
  338MPD2    N1 5132   2.847   3.303   0.738  0.4695  0.0236 -0.6149
  338MPD2    H7 5133   2.802   3.281   0.650  2.1313  1.9643 -1.9622
  339TMC3    C1 5134   2.184   3.161   0.967  0.4885 -0.6242 -0.5860
  339TMC3    C2 5135   2.090   3.157   1.062  0.7068 -0.0383 -0.1880
  339TMC3    C3 5136   1.960   3.174   1.019  0.3038 -0.0262  0.4983
  339TMC3    C4 5137   2.155   3.156   0.834  0.6116 -0.5272  0.3572
  339TMC3    C5 5138   2.020   3.169   0.799 -0.2775  0.7018  0.0713
  339TMC3    C6 5139   1.923   3.182   0.891 -0.8775 -0.2281  0.0310
  339TMC3     C 5140   2.324   3.160   1.002  0.2641 -0.3282 -0.1083
  339TMC3     O 5141   2.351   3.146   1.123  0.2046  0.3479 -0.5293
  339TMC3     H 5142   2.110   3.163   1.169  0.6017 -1.3960 -0.0894
  339TMC3    H1 5143   2.226   3.155   0.752 -1.5263  0.3122 -1.5059
  339TMC3    H2 5144   1.818   3.201   0.875 -0.1637  2.7379 -1.2636
  339TMC3    C7 5145   2.004   3.235   0.667  0.4624  0.0895 -0.4380
  339TMC3    C8 5146   1.859   3.203   1.116  0.4755  0.4134  0.1203
  339TMC3    O1 5147   2.104   3.290   0.629  0.0305 -0.2464  0.2941
  339TMC3    O2 5148   1.767   3.276   1.085 -0.0783  0.0761  0.0547
  340MPD2     C 5149   3.188   1.330   9.719 -0.3205  0.0186 -0.2550
  340MPD2    C1 5150   3.308   1.298   9.782  0.1343 -0.4551  0.2635
  340MPD2    C2 5151   3.355   1.366   9.884 -0.0983  1.1024  0.3011
  340MPD2    C3 5152   3.290   1.485   9.923  0.0731  0.4762  0.1379
  340MPD2    C4 5153   3.172   1.519   9.859  0.2421  0.2213 -0.2803
  340MPD2    C5 5154   3.117   1.435   9.767  0.0410 -0.3140 -0.0270
  340MPD2     H 5155   3.440   1.327   9.940  0.1255  2.9908  1.3032
  340MPD2    H1 5156   3.111   1.606   9.880 -0.1558 -0.2819  0.6147
  340MPD2    H2 5157   3.155   1.269   9.636 -0.9319 -0.3097  0.2277
  340MPD2    H3 5158   3.027   1.467   9.716 -0.5043  1.4535  2.0731
  340MPD2     N 5159   3.328   1.562  10.032 -0.2863 -0.0801  0.3097
  340MPD2    H5 5160   3.263   1.634  10.062 -1.2736 -0.2509 -1.4029
  340MPD2    N1 5161   3.360   1.175   9.748 -0.9259  0.1107 -0.2069
  340MPD2    H7 5162   3.302   1.112   9.695 -1.0741  0.0576  0.0170
  341TMC3    C1 5163   3.500   0.995   9.742 -0.0238 -0.2057 -0.3614
  341TMC3    C2 5164   3.393   0.905   9.766  0.4420  0.2309 -0.2568
  341TMC3    C3 5165   3.415   0.777   9.739  0.8822  0.5100 -0.4241
  341TMC3    C4 5166   3.622   0.955   9.694 -0.1852  0.4316  0.5921
  341TMC3    C5 5167   3.627   0.828   9.649 -0.2059  0.0855  0.4775
  341TMC3    C6 5168   3.532   0.739   9.683  0.6106  0.1089 -0.6610
  341TMC3     C 5169   3.487   1.136   9.783 -0.2387  0.4548  0.2080
  341TMC3     O 5170   3.579   1.206   9.812 -0.1457 -0.2089 -0.3967
  341TMC3     H 5171   3.297   0.932   9.808 -0.1969 -1.2265 -0.7662
  341TMC3    H1 5172   3.698   1.027   9.668 -0.3027  0.0162 -0.8781
  341TMC3    H2 5173   3.545   0.632   9.679 -2.4126 -0.3213  0.8740
  341TMC3    C7 5174   3.733   0.797   9.554  0.4668  0.2893 -0.4073
  341TMC3    C8 5175   3.307   0.680   9.776  0.0381 -0.2350 -0.0213
  341TMC3    O1 5176   3.825   0.875   9.538 -0.8753  0.5215 -0.3685
  341TMC3    O2 5177   3.240   0.698   9.873 -0.0646 -0.2738 -0.3696
  342MPD2     C 5178   0.550   4.478  17.510  0.3182  0.6214 -0.4944
  342MPD2    C1 5179   0.685   4.454  17.481  0.3934 -0.4275  0.0749
  342MPD2    C2 5180   0.769   4.559  17.450 -0.0504 -0.2145  0.0175
  342MPD2    C3 5181   0.720   4.691  17.441  0.0202 -0.1021 -0.2387
  342MPD2    C4 5182   0.580   4.710  17.450 -0.1129 -0.6464  0.0248
  342MPD2    C5 5183   0.497   4.604  17.494  0.6564  0.4099  0.5650
  342MPD2     H 5184   0.873   4.534  17.433 -0.0998 -0.1689 -0.3533
  342MPD2    H1 5185   0.538   0.071  17.447 -1.8991 -1.3947  0.2391
  342MPD2    H2 5186   0.472   4.409  17.542  0.7276  0.0733 -0.6820
  342MPD2    H3 5187   0.392   4.624  17.511  0.1269 -0.5560 -1.6409
  342MPD2     N 5188   0.800   0.073  17.418 -0.1259 -0.1779 -0.1005
  342MPD2    H5 5189   0.749   0.157  17.445 -0.3177  0.0846 -1.2959
  342MPD2    N1 5190   0.734   4.326  17.467  0.2252 -0.8021  0.4676
  342MPD2    H7 5191   0.832   4.327  17.443 -0.0618 -1.2020 -0.7079
  343TMC3    C1 5192   0.763   4.095  17.457 -0.6919 -0.0968 -0.3062
  343TMC3    C2 5193   0.867   4.108  17.366 -0.4981  0.2661  0.6737
  343TMC3    C3 5194   0.934   3.995  17.328 -0.0694 -0.1284 -0.0470
  343TMC3    C4 5195   0.719   3.969  17.496 -0.1758 -0.2504 -0.2168
  343TMC3    C5 5196   0.787   3.853  17.452 -0.1880 -0.2595 -0.0203
  343TMC3    C6 5197   0.895   3.872  17.371  0.0297  0.1497 -0.3018
  343TMC3     C 5198   0.676   4.207  17.488 -0.3158  0.0682  0.0560
  343TMC3     O 5199   0.567   4.189  17.546  0.0687 -0.7219  0.2160
  343TMC3     H 5200   0.904   4.201  17.324  0.4052 -0.2719  0.2768
  343TMC3    H1 5201   0.621   3.963  17.540  0.6908  0.0132  1.7413
  343TMC3    H2 5202   0.957   3.783  17.370  0.5642  0.5038  1.1048
  343TMC3    C7 5203   0.776   3.750  17.542  0.3173  0.4805  0.2369
  343TMC3    C8 5204   1.060   4.017  17.260 -0.3726  0.7338  0.1289
  343TMC3    O1 5205   0.867   3.736  17.621  0.2965  0.0403  0.4068
  343TMC3    O2 5206   1.110   4.125  17.283 -0.0500 -0.0132  0.1327
  344MPD2     C 5207   1.680   4.200  11.082  0.2786 -0.5233 -1.1557
  344MPD2    C1 5208   1.788   4.124  11.052 -0.1850  0.5927 -0.2940
  344MPD2    C2 5209   1.909   4.177  11.013 -0.2200  0.1929  0.7835
  344MPD2    C3 5210   1.911   4.313  11.005 -0.3648  0.2700  0.0313
  344MPD2    C4 5211   1.807   4.394  11.038 -0.2532  0.3897  0.0245
  344MPD2    C5 5212   1.693   4.336  11.079  0.3903  0.1885 -0.3994
  344MPD2     H 5213   1.982   4.109  10.971  1.0913  1.3935  1.1334
  344MPD2    H1 5214   1.815   4.502  11.044 -0.5464  0.3736  0.7160
  344MPD2    H2 5215   1.584   4.161  11.116  1.2697 -1.5469  0.4539
  344MPD2    H3 5216   1.607   4.399  11.098 -0.4565 -1.1967  0.3762
  344MPD2     N 5217   2.018   4.383  10.952  0.0336 -0.3595  0.6499
  344MPD2    H5 5218   2.005   4.482  10.935  0.6088 -0.4842 -0.4572
  344MPD2    N1 5219   1.787   3.981  11.057 -0.2378  0.4775 -0.5998
  344MPD2    H7 5220   1.873   3.929  11.049  0.2824  1.2452 -0.0484
  345TMC3    C1 5221   2.194   4.420  10.813 -0.2945 -0.1417 -0.1039
  345TMC3    C2 5222   2.317   4.468  10.851 -0.0566  0.8380 -0.0215
  345TMC3    C3 5223   2.390   4.538  10.757  0.0915 -0.2982 -0.6749
  345TMC3    C4 5224   2.140   4.450  10.687  0.2961  0.4036  0.3768
  345TMC3    C5 5225   2.212   4.530  10.599 -0.1296  0.6358  0.2233
  345TMC3    C6 5226   2.342   4.563  10.628  0.4232  0.2401 -0.0378
  345TMC3     C 5227   2.121   4.322  10.893  0.0082 -0.3109  0.1144
  345TMC3     O 5228   2.163   4.209  10.904  0.1074 -0.0671 -0.0122
  345TMC3     H 5229   2.357   4.454  10.950  1.0196  1.3273 -0.3868
  345TMC3    H1 5230   2.038   4.432  10.654  0.6397  0.5109 -0.7344
  345TMC3    H2 5231   2.394   4.611  10.546 -0.9435 -0.7867 -1.5030
  345TMC3    C7 5232   2.144   4.650  10.568 -0.3553 -0.7659  0.2686
  345TMC3    C8 5233   2.474   4.647  10.805  0.5484 -0.2123 -0.5327
  345TMC3    O1 5234   2.209   0.014  10.575  0.2116  0.9143  0.4234
  345TMC3    O2 5235   2.465   4.672  10.927 -0.3040 -0.0030  0.2151
  346MPD2     C 5236   2.652   1.195  14.251 -0.1231  0.4322  0.4801
  346MPD2    C1 5237   2.576   1.302  14.206  0.9070  0.0636 -0.0290
  346MPD2    C2 5238   2.586   1.426  14.263 -0.3564 -0.7760 -0.0131
  346MPD2    C3 5239   2.691   1.444  14.353 -0.1667  1.0534 -0.4095
  346MPD2    C4 5240   2.762   1.336  14.408  0.5423 -0.0689  0.0550
  346MPD2    C5 5241   2.749   1.212  14.351  0.2835  0.0573 -1.1253
  346MPD2     H 5242   2.516   1.502  14.232  1.0910  0.9313  0.8909
  346MPD2    H1 5243   2.836   1.351  14.485  1.0479 -0.2621 -0.3920
  346MPD2    H2 5244   2.638   1.096  14.208 -2.2387  0.7450  0.4326
  346MPD2    H3 5245   2.798   1.121  14.382  1.8858  1.5475  0.7737
  346MPD2     N 5246   2.722   1.573  14.393 -0.0812  0.0661  0.2943
  346MPD2    H5 5247   2.671   1.646  14.343  0.1226  0.4598  0.6607
  346MPD2    N1 5248   2.469   1.291  14.109  0.5903 -0.1961 -0.1268
  346MPD2    H7 5249   2.426   1.379  14.084 -0.1160 -0.1810  1.1565
  347TMC3    C1 5250   2.860   1.749  14.466  0.5461 -0.1997 -0.1560
  347TMC3    C2 5251   2.844   1.808  14.344  0.2416 -0.4801 -0.0057
  347TMC3    C3 5252   2.937   1.883  14.283  0.1343  0.2109 -0.5198
  347TMC3    C4 5253   2.983   1.769  14.527 -0.1235 -0.2525 -0.3120
  347TMC3    C5 5254   3.073   1.850  14.467 -0.6018  0.7285  0.1388
  347TMC3    C6 5255   3.053   1.906  14.345  0.7721 -0.4702  0.1214
  347TMC3     C 5256   2.815   1.614  14.484  0.2425 -0.1086  0.0319
  347TMC3     O 5257   2.895   1.551  14.549  0.3685  0.0147 -0.7863
  347TMC3     H 5258   2.755   1.790  14.285  0.5714 -0.1023 -0.6195
  347TMC3    H1 5259   3.012   1.711  14.614 -1.8131 -4.1389 -2.3319
  347TMC3    H2 5260   3.135   1.955  14.293  1.6738 -0.0885  1.9073
  347TMC3    C7 5261   3.214   1.830  14.498 -0.1314 -0.1798 -0.3064
  347TMC3    C8 5262   2.957   1.841  14.147 -0.2017 -0.4116 -0.3539
  347TMC3    O1 5263   3.300   1.919  14.470 -0.2375 -0.3739 -0.3880
  347TMC3    O2 5264   2.928   1.917  14.056 -0.6067 -0.3548  0.0645
  348MPD2     C 5265   0.564   0.583  12.326  0.1461  0.2355  0.1876
  348MPD2    C1 5266   0.696   0.571  12.279 -0.6829 -0.2116 -0.2405
  348MPD2    C2 5267   0.731   0.613  12.152 -0.1822  0.6337  0.9367
  348MPD2    C3 5268   0.633   0.667  12.068  0.5089  0.3614 -0.1707
  348MPD2    C4 5269   0.504   0.688  12.121 -0.4568 -0.0495  0.0210
  348MPD2    C5 5270   0.472   0.646  12.243 -0.0868 -0.5117 -0.0097
  348MPD2     H 5271   0.835   0.604  12.125 -1.0328  3.5405 -3.3118
  348MPD2    H1 5272   0.429   0.743  12.066 -1.2050 -0.7811  0.2943
  348MPD2    H2 5273   0.537   0.530  12.417  0.2355  0.1975  0.1920
  348MPD2    H3 5274   0.370   0.659  12.277 -0.4764 -3.0943 -0.1841
  348MPD2     N 5275   0.670   0.701  11.937 -0.5500 -0.3773 -0.5128
  348MPD2    H5 5276   0.764   0.685  11.903  0.4603 -0.8785  2.5534
  348MPD2    N1 5277   0.799   0.529  12.370  0.2899  0.0147 -0.2779
  348MPD2    H7 5278   0.892   0.535  12.327  0.3017 -0.7700 -0.3669
  349TMC3    C1 5279   0.912   0.385  12.517  0.5784 -0.5835  0.5243
  349TMC3    C2 5280   0.893   0.276  12.599  0.4634 -0.3713 -0.4368
  349TMC3    C3 5281   0.949   0.165  12.570 -0.3649  0.0039 -0.1493
  349TMC3    C4 5282   1.009   0.384  12.416  0.6454 -0.0400 -0.6304
  349TMC3    C5 5283   1.062   0.266  12.387  0.5303 -0.4060 -0.3374
  349TMC3    C6 5284   1.038   0.162  12.466 -0.2033  0.4527  0.7383
  349TMC3     C 5285   0.789   0.468  12.493 -0.2491 -0.2712  0.0923
  349TMC3     O 5286   0.687   0.431  12.547  0.2013 -0.5902  0.5895
  349TMC3     H 5287   0.819   0.286  12.678  0.9842 -0.6500  0.0847
  349TMC3    H1 5288   1.034   0.468  12.353  0.0290  1.8994  1.6953
  349TMC3    H2 5289   1.059   0.064  12.426 -0.2651  1.0213 -0.6953
  349TMC3    C7 5290   1.016   0.243  12.253  0.3250 -0.1532 -0.4202
  349TMC3    C8 5291   0.915   0.043  12.646 -0.0151 -0.1409 -0.2580
  349TMC3    O1 5292   0.920   0.173  12.243 -0.1495  0.4633  0.1110
  349TMC3    O2 5293   0.984   4.684  12.619  0.3182  0.3937 -0.4852
  350MPD2     C 5294   4.641   3.726  10.774  0.0846 -0.0613  0.3006
  350MPD2    C1 5295   4.516   3.669  10.794  0.3876  0.1106  0.0691
  350MPD2    C2 5296   4.428   3.726  10.887 -0.7710  0.4322 -0.1322
  350MPD2    C3 5297   4.467   3.831  10.970  0.5819  0.7294 -0.4796
  350MPD2    C4 5298   4.586   3.893  10.934  0.2266  0.2718  0.4532
  350MPD2    C5 5299   4.668   3.843  10.836 -0.3883  0.1390  0.0227
  350MPD2     H 5300   4.345   3.660  10.907 -1.2166  1.1861  0.5177
  350MPD2    H1 5301   4.626   3.966  11.003 -0.5371  1.1193 -0.0015
  350MPD2    H2 5302   4.710   3.687  10.701 -3.5066 -2.6106 -1.7213
  350MPD2    H3 5303   0.028   3.887  10.824 -1.5881  2.5798 -0.8159
  350MPD2     N 5304   4.391   3.865  11.085  0.4367  0.2000  0.5981
  350MPD2    H5 5305   4.306   3.812  11.101  1.2796 -1.2787  0.1460
  350MPD2    N1 5306   4.465   3.554  10.727  0.2840  0.0812 -0.4290
  350MPD2    H7 5307   4.374   3.517  10.752  0.1157  1.0191  0.3580
  351TMC3    C1 5308   4.479   3.370  10.585  0.0610 -0.2043 -0.2155
  351TMC3    C2 5309   4.565   3.276  10.542  0.0280  0.2690  0.0119
  351TMC3    C3 5310   4.518   3.145  10.535  0.5602  0.1342 -0.7878
  351TMC3    C4 5311   4.340   3.346  10.584 -0.7665 -0.0365  0.0054
  351TMC3    C5 5312   4.301   3.217  10.545  0.4279 -0.1578 -0.1988
  351TMC3    C6 5313   4.386   3.115  10.527 -0.4830  0.9550 -0.4992
  351TMC3     C 5314   4.537   3.493  10.623 -0.4323  0.0819 -0.2184
  351TMC3     O 5315   4.639   3.526  10.560 -0.0387  0.0233 -0.5790
  351TMC3     H 5316   4.672   3.288  10.551  0.1883 -1.1446 -0.0528
  351TMC3    H1 5317   4.269   3.425  10.606 -1.6352 -1.9548  3.9111
  351TMC3    H2 5318   4.360   3.018  10.485  0.8417  1.7368 -3.0965
  351TMC3    C7 5319   4.159   3.184  10.534  0.2803 -1.0189  0.6462
  351TMC3    C8 5320   4.605   3.035  10.496  0.2641 -0.0464  0.7343
  351TMC3    O1 5321   4.140   3.062  10.521  0.0082 -0.6704  0.2423
  351TMC3    O2 5322   4.673   3.054  10.397  0.0978  0.4262  0.1827
  352MPD2     C 5323   2.867   1.456   1.085 -0.1551  0.4192 -0.4911
  352MPD2    C1 5324   2.796   1.350   1.027 -0.5161 -0.3535  0.5695
  352MPD2    C2 5325   2.782   1.231   1.093 -0.2315  0.1916  0.6419
  352MPD2    C3 5326   2.831   1.206   1.219 -0.3364  0.2966 -0.0619
  352MPD2    C4 5327   2.895   1.311   1.281 -0.5863 -0.2022  0.2217
  352MPD2    C5 5328   2.915   1.430   1.212  0.5631  0.1701 -0.4589
  352MPD2     H 5329   2.732   1.151   1.040  0.9606 -0.8801  1.1188
  352MPD2    H1 5330   2.940   1.298   1.379  0.3356  4.5373  0.4560
  352MPD2    H2 5331   2.895   1.552   1.042  0.5901 -0.7616 -2.6015
  352MPD2    H3 5332   2.974   1.508   1.259  2.3289 -0.8728 -0.9147
  352MPD2     N 5333   2.824   1.083   1.284  0.1177 -0.9303  0.3532
  352MPD2    H5 5334   2.876   1.076   1.371  2.5069  2.1709 -0.8653
  352MPD2    N1 5335   2.747   1.360   0.895 -0.0090  0.1650  0.4379
  352MPD2    H7 5336   2.702   1.279   0.853  0.4910 -0.2480  0.6990
  353TMC3    C1 5337   2.798   0.853   1.303  0.4484 -0.0586 -0.7537
  353TMC3    C2 5338   2.935   0.829   1.323  0.4219 -0.5192  0.4860
  353TMC3    C3 5339   2.980   0.695   1.324  0.0571  0.1445  0.2857
  353TMC3    C4 5340   2.711   0.752   1.271 -0.9425 -0.3682 -0.1737
  353TMC3    C5 5341   2.770   0.627   1.254 -0.1477  0.3006  0.3927
  353TMC3    C6 5342   2.903   0.600   1.278 -0.4395 -0.0562  0.5996
  353TMC3     C 5343   2.756   0.978   1.239 -0.7636  0.0323  0.1980
  353TMC3     O 5344   2.673   0.963   1.153 -0.0837 -0.0820 -0.0662
  353TMC3     H 5345   3.012   0.903   1.341 -0.9355  1.1500 -0.5735
  353TMC3    H1 5346   2.606   0.768   1.252 -1.6017 -2.0114  2.1216
  353TMC3    H2 5347   2.941   0.507   1.237 -2.4017 -0.6022  0.0372
  353TMC3    C7 5348   2.703   0.533   1.162 -0.1175  0.3617 -0.2548
  353TMC3    C8 5349   3.123   0.676   1.318 -0.5903  0.9477  0.5817
  353TMC3    O1 5350   2.742   0.418   1.146  0.1208 -0.3155  0.2084
  353TMC3    O2 5351   3.198   0.770   1.294  0.2033 -0.9803  0.3015
  354TMC3    C1 5352   0.162   1.645  13.730 -1.1094  0.2984 -0.1398
  354TMC3    C2 5353   0.090   1.738  13.673 -0.1828  0.4810  0.4420
  354TMC3    C3 5354   0.106   1.758  13.538  0.2742 -0.3427 -0.7448
  354TMC3    C4 5355   0.255   1.572  13.665  0.6886 -0.3868  0.6063
  354TMC3    C5 5356   0.265   1.587  13.529  0.1536 -0.2937  0.0006
  354TMC3    C6 5357   0.183   1.675  13.463  0.0753  0.3751 -0.1083
  354TMC3     C 5358   0.122   1.616  13.867  0.0467  0.8551 -0.3011
  354TMC3     O 5359   0.006   1.643  13.888  0.0346 -0.0870  0.0582
  354TMC3     H 5360   0.026   1.801  13.734 -0.9421  1.4233 -1.3122
  354TMC3    H1 5361   0.314   1.490  13.704  0.0855 -1.1761 -0.1356
  354TMC3    H2 5362   0.168   1.673  13.356 -0.4494  0.5478 -0.0386
  354TMC3    C7 5363   0.344   1.496  13.451 -0.2782 -0.0009 -0.1686
  354TMC3    C8 5364   0.023   1.841  13.464 -0.3074 -0.2861 -0.4354
  354TMC3    O1 5365   0.406   1.408  13.507  0.1674 -0.0323  0.0963
  354TMC3    O2 5366   4.719   1.805  13.355 -0.4186  0.4747  0.0549
  355MPD2     C 5367   0.016   2.284  12.175  0.8885  0.1961 -0.9993
  355MPD2    C1 5368   0.055   2.373  12.071 -0.1473  0.1972  0.1229
  355MPD2    C2 5369   0.158   2.342  11.987  0.3575  0.5079  0.0206
  355MPD2    C3 5370   0.243   2.239  12.017  0.1966 -0.3716 -0.2800
  355MPD2    C4 5371   0.204   2.152  12.116 -0.2558 -0.0792  0.3867
  355MPD2    C5 5372   0.088   2.175  12.191 -0.4603  0.1839  0.7843
  355MPD2     H 5373   0.189   2.416  11.914 -0.8718 -1.1514 -2.1966
  355MPD2    H1 5374   0.260   2.062  12.139 -2.1305 -1.6727 -1.3517
  355MPD2    H2 5375   4.675   2.294  12.247  0.7895 -1.1967 -0.9299
  355MPD2    H3 5376   0.053   2.094  12.254 -0.5136 -0.3725  0.0372
  355MPD2     N 5377   0.376   2.223  11.967 -0.2062 -0.0730  0.2098
  355MPD2    H5 5378   0.416   2.133  11.993  2.6710  0.7835 -1.2481
  355MPD2    N1 5379   4.703   2.485  12.049  0.2130 -0.0764 -0.1556
  355MPD2    H7 5380   4.629   2.496  12.117  0.0076  0.5346 -0.4823
  356TMC3    C1 5381   0.440   2.454  11.898 -0.1122  0.4541  1.0843
  356TMC3    C2 5382   0.484   2.525  11.798 -0.5303  0.9136 -0.5500
  356TMC3    C3 5383   0.484   2.666  11.814  0.4807 -0.2639 -0.1813
  356TMC3    C4 5384   0.409   2.502  12.024  0.6126  0.5155  0.2603
  356TMC3    C5 5385   0.414   2.642  12.032  0.0155  0.8583 -0.4737
  356TMC3    C6 5386   0.436   2.729  11.925 -0.0414 -0.0506 -0.1129
  356TMC3     C 5387   0.454   2.310  11.886 -0.1522  0.0910 -0.6151
  356TMC3     O 5388   0.557   2.277  11.828 -0.5358 -0.0303 -0.0580
  356TMC3     H 5389   0.496   2.477  11.702 -0.1571 -0.1388  0.0233
  356TMC3    H1 5390   0.383   2.441  12.110  0.6444 -0.0871 -0.1569
  356TMC3    H2 5391   0.419   2.836  11.921  1.1237  0.0722 -1.6908
  356TMC3    C7 5392   0.369   2.697  12.158  0.1932  0.5378 -0.4434
  356TMC3    C8 5393   0.543   2.733  11.699 -0.3211 -0.3049 -0.3977
  356TMC3    O1 5394   0.302   2.621  12.231  0.2832  0.2087 -0.1235
  356TMC3    O2 5395   0.570   2.669  11.594 -0.1464 -0.2453 -0.2515
  357MPD2     C 5396   4.479   2.593   1.012 -0.0106  0.0622  0.0432
  357MPD2    C1 5397   4.441   2.494   1.107  0.1698  0.1851 -0.5126
  357MPD2    C2 5398   4.335   2.515   1.188  0.0229 -0.0260  0.6932
  357MPD2    C3 5399   4.266   2.636   1.186  0.0097  1.0610 -0.1438
  357MPD2    C4 5400   4.315   2.741   1.105  0.1083 -0.1053  0.5311
  357MPD2    C5 5401   4.419   2.709   1.022 -0.1796  0.7383  0.2693
  357MPD2     H 5402   4.293   2.431   1.242 -0.9153 -0.7367 -1.1517
  357MPD2    H1 5403   4.273   2.840   1.096  0.4735  0.0032  0.0137
  357MPD2    H2 5404   4.559   2.572   0.942  1.3788 -1.7524  2.1821
  357MPD2    H3 5405   4.455   2.791   0.960  2.3247 -0.7610 -0.2269
  357MPD2     N 5406   4.141   2.659   1.247  0.8063  0.2381 -0.1720
  357MPD2    H5 5407   4.081   2.728   1.203 -0.7364 -1.7428 -1.1426
  357MPD2    N1 5408   4.520   2.379   1.103 -0.6775 -0.4140 -0.0461
  357MPD2    H7 5409   4.603   2.390   1.045 -2.5246  1.3147 -2.3471
  358TMC3    C1 5410   4.598   2.170   1.148 -0.5700  0.1312 -0.1106
  358TMC3    C2 5411   4.612   2.138   1.011 -0.4450 -0.1790 -0.6573
  358TMC3    C3 5412   4.722   2.058   0.984  0.5702 -0.2804 -0.4519
  358TMC3    C4 5413   4.685   2.134   1.244  0.2201 -0.6037 -0.5959
  358TMC3    C5 5414   0.058   2.056   1.203 -0.2311 -0.0963  0.0003
  358TMC3    C6 5415   0.081   2.027   1.070  0.3110 -0.6746 -0.3427
  358TMC3     C 5416   4.499   2.268   1.179 -0.3008  0.3173 -0.0320
  358TMC3     O 5417   4.418   2.239   1.267 -0.4698  0.4967  0.0382
  358TMC3     H 5418   4.532   2.156   0.940  1.5582  2.0541 -2.3705
  358TMC3    H1 5419   4.659   2.167   1.344  0.1668 -1.3478 -0.3631
  358TMC3    H2 5420   0.146   1.948   1.034 -0.0841 -1.2811  0.2645
  358TMC3    C7 5421   0.137   1.999   1.310 -0.5817 -0.5660  0.5490
  358TMC3    C8 5422   0.014   2.054   0.838 -0.0154 -0.0007 -0.1439
  358TMC3    O1 5423   0.107   2.045   1.421  0.5810 -0.8117 -0.0531
  358TMC3    O2 5424   4.659   2.075   0.760  0.5933  0.4497  0.5090
  359MPD2     C 5425   0.419   1.007  12.418  0.0570 -0.8881  0.2055
  359MPD2    C1 5426   0.381   0.995  12.286  0.2007 -0.7388  0.1822
  359MPD2    C2 5427   0.261   0.928  12.260 -0.0395 -0.2860 -0.1390
  359MPD2    C3 5428   0.187   0.866  12.370 -0.0951  0.8136 -0.8096
  359MPD2    C4 5429   0.240   0.867  12.496  0.1681  0.4101 -0.9670
  359MPD2    C5 5430   0.346   0.951  12.524 -0.5973 -0.1552 -0.2214
  359MPD2     H 5431   0.230   0.913  12.157 -0.1871 -2.0814  0.1564
  359MPD2    H1 5432   0.191   0.813  12.576  0.8302  1.5666  0.2193
  359MPD2    H2 5433   0.503   1.066  12.453  0.0308  0.3708 -1.8059
  359MPD2    H3 5434   0.382   0.961  12.625  3.0121  0.8873 -1.6013
  359MPD2     N 5435   0.063   0.804  12.359 -0.2677 -0.1814  0.0786
  359MPD2    H5 5436   0.028   0.767  12.447 -1.8868  0.8978 -0.1199
  359MPD2    N1 5437   0.460   1.049  12.182  0.2361  0.2782 -0.0791
  359MPD2    H7 5438   0.421   1.035  12.089 -0.3444 -0.4627  0.2814
  360TMC3    C1 5439   0.656   1.116  12.075 -0.8115  0.2721 -0.0454
  360TMC3    C2 5440   0.791   1.139  12.085 -0.0472  0.3710 -0.6342
  360TMC3    C3 5441   0.876   1.171  11.980  0.3068  0.2694 -0.2836
  360TMC3    C4 5442   0.603   1.125  11.950  0.2576 -0.4964  0.9622
  360TMC3    C5 5443   0.690   1.139  11.843  0.8738  0.8525 -0.2281
  360TMC3    C6 5444   0.824   1.160  11.852 -0.2206  0.0681 -0.3616
  360TMC3     C 5445   0.583   1.106  12.205 -0.0412 -0.2742 -0.7092
  360TMC3     O 5446   0.653   1.119  12.304 -0.0914 -0.1141 -0.1076
  360TMC3     H 5447   0.832   1.153  12.184 -0.4912 -0.6103 -0.3103
  360TMC3    H1 5448   0.498   1.101  11.938 -0.3115  2.4127  0.1530
  360TMC3    H2 5449   0.897   1.168  11.772 -1.2497 -1.8382 -1.4777
  360TMC3    C7 5450   0.642   1.129  11.712  0.6367 -0.5056  0.8821
  360TMC3    C8 5451   1.018   1.148  12.009 -0.0690  0.2854  0.5804
  360TMC3    O1 5452   0.729   1.135  11.622  0.2229  0.1537  0.0448
  360TMC3    O2 5453   1.032   1.081  12.108 -0.5144 -0.0737  0.8263
  361MPD2     C 5454   1.748   0.068  16.439  0.7341  0.3836 -0.0122
  361MPD2    C1 5455   1.746   0.130  16.562  0.3976 -0.0674  0.2176
  361MPD2    C2 5456   1.824   0.078  16.663  0.7365 -0.9077  0.1669
  361MPD2    C3 5457   1.916   4.719  16.637 -0.0730  0.5166  0.4828
  361MPD2    C4 5458   1.927   4.668  16.510  0.2841  0.8240  0.2215
  361MPD2    C5 5459   1.838   4.699  16.409 -1.1239  0.6217 -0.2916
  361MPD2     H 5460   1.822   0.120  16.763  0.2079  0.9207 -0.6177
  361MPD2    H1 5461   1.994   4.583  16.508 -0.1977  0.4794 -0.9450
  361MPD2    H2 5462   1.685   0.095  16.354  0.8558  1.0606  0.1164
  361MPD2    H3 5463   1.833   4.646  16.315 -0.7564  1.3614 -0.7322
  361MPD2     N 5464   1.992   4.654  16.734 -0.6599 -0.2291  0.0386
  361MPD2    H5 5465   2.071   4.601  16.696 -0.4515  0.0025  0.1500
  361MPD2    N1 5466   1.667   0.242  16.589 -0.1151  0.6875  0.1908
  361MPD2    H7 5467   1.673   0.270  16.686  1.4550 -1.1267  0.6266
  362TMC3    C1 5468   1.529   0.425  16.585 -0.9037  0.0155 -0.4797
  362TMC3    C2 5469   1.503   0.408  16.717 -0.8831 -0.1796  0.4481
  362TMC3    C3 5470   1.425   0.500  16.783 -0.3074  0.3877  0.1891
  362TMC3    C4 5471   1.478   0.536  16.517  0.1736  0.5098 -0.5446
  362TMC3    C5 5472   1.394   0.618  16.584  0.8951 -0.4548 -0.8206
  362TMC3    C6 5473   1.362   0.600  16.715  0.3175  0.2721 -0.0131
  362TMC3     C 5474   1.589   0.321  16.505 -1.0923  0.8812 -0.4067
  362TMC3     O 5475   1.572   0.304  16.385 -0.0477 -0.0219 -0.0956
  362TMC3     H 5476   1.523   0.314  16.766  1.6953 -1.5358 -3.1758
  362TMC3    H1 5477   1.515   0.551  16.416 -1.5289 -2.4478 -1.6336
  362TMC3    H2 5478   1.288   0.665  16.759  2.3326  1.6064  1.3737
  362TMC3    C7 5479   1.316   0.715  16.512  0.3387 -0.0936  0.4183
  362TMC3    C8 5480   1.455   0.506  16.924  0.0948 -0.7288 -0.1721
  362TMC3    O1 5481   1.256   0.803  16.576 -0.2227 -0.2033  0.4436
  362TMC3    O2 5482   1.536   0.423  16.964  0.1534  0.3410  0.1091
  363TMC3    C1 5483   0.257   2.916   9.558  0.3518  0.4249 -0.3944
  363TMC3    C2 5484   0.293   2.870   9.685  0.0982  0.1993 -0.7242
  363TMC3    C3 5485   0.216   2.914   9.785  0.0888 -0.2543 -0.4186
  363TMC3    C4 5486   0.156   3.003   9.541 -0.5442  0.2112 -0.3039
  363TMC3    C5 5487   0.077   3.024   9.647  0.5241 -0.5032  1.0196
  363TMC3    C6 5488   0.104   2.991   9.773  0.6302 -0.5111  0.1969
  363TMC3     C 5489   0.304   2.835   9.448 -0.3648  0.6951  0.8710
  363TMC3     O 5490   0.379   2.740   9.478 -0.5215 -0.2348 -0.5519
  363TMC3     H 5491   0.387   2.817   9.691  0.1046  0.3275  0.3410
  363TMC3    H1 5492   0.121   3.034   9.443  0.9050 -0.9479 -1.1940
  363TMC3    H2 5493   0.038   3.012   9.857  1.5393  0.6872  0.6043
  363TMC3    C7 5494   4.677   3.045   9.604  0.1428  0.0500 -0.1923
  363TMC3    C8 5495   0.259   2.887   9.919  0.4011  0.2899  0.4140
  363TMC3    O1 5496   4.641   2.985   9.510 -0.5043 -0.1203 -0.4031
  363TMC3    O2 5497   0.221   2.963  10.008 -0.5843 -0.3783 -0.1762
  364MPD2     C 5498   3.645   2.087  11.092 -0.0627  0.1655 -0.3797
  364MPD2    C1 5499   3.725   2.146  10.997  0.2210  0.2948 -0.5909
  364MPD2    C2 5500   3.850   2.090  10.968 -0.7145  0.0567 -0.1460
  364MPD2    C3 5501   3.889   1.972  11.027  0.2762  0.5265  0.0888
  364MPD2    C4 5502   3.800   1.911  11.109 -0.6832 -0.3023  0.1101
  364MPD2    C5 5503   3.683   1.968  11.142 -0.3470 -0.2670 -0.2834
  364MPD2     H 5504   3.923   2.139  10.905 -0.0093  0.6009  1.0990
  364MPD2    H1 5505   3.816   1.813  11.153  0.4238 -1.3543 -2.6068
  364MPD2    H2 5506   3.542   2.121  11.097  0.1436  0.6398  0.6092
  364MPD2    H3 5507   3.619   1.912  11.210  1.8002  0.4141  2.3018
  364MPD2     N 5508   4.008   1.902  10.996 -0.1901 -0.3953  0.3209
  364MPD2    H5 5509   4.013   1.803  11.015  2.0580 -0.3199  0.1794
  364MPD2    N1 5510   3.684   2.267  10.935 -0.0154  0.0042  0.0903
  364MPD2    H7 5511   3.607   2.316  10.980 -0.3453 -0.1471 -0.3150
  365TMC3    C1 5512   3.675   2.441  10.775 -0.1223  0.7504  0.2860
  365TMC3    C2 5513   3.742   2.503  10.667 -0.6018 -0.2683 -0.4886
  365TMC3    C3 5514   3.749   2.644  10.665 -0.2598 -0.4896 -0.0701
  365TMC3    C4 5515   3.612   2.520  10.871  0.3639 -0.3174 -0.2673
  365TMC3    C5 5516   3.630   2.655  10.858  0.0357 -0.0867 -0.4915
  365TMC3    C6 5517   3.682   2.720  10.752  0.1529  0.7532  0.0903
  365TMC3     C 5518   3.733   2.314  10.815 -0.4529  0.5677 -0.4199
  365TMC3     O 5519   3.812   2.266  10.734  0.1098  0.0956 -0.9210
  365TMC3     H 5520   3.817   2.452  10.608  0.3170 -0.9936  1.3360
  365TMC3    H1 5521   3.531   2.481  10.932  1.1540  1.7692  2.1404
  365TMC3    H2 5522   3.700   2.827  10.751 -0.7086  0.8784 -1.8516
  365TMC3    C7 5523   3.599   2.731  10.977 -0.1699 -0.0013  0.5701
  365TMC3    C8 5524   3.870   2.715  10.611 -0.0940  0.2133 -0.6602
  365TMC3    O1 5525   3.594   2.668  11.080  0.3736  0.4448 -0.0592
  365TMC3    O2 5526   3.927   2.788  10.691  0.0798  0.0191  0.1720
  366MPD2     C 5527   2.453   2.909  15.395  0.0895 -0.1514 -0.0945
  366MPD2    C1 5528   2.538   3.004  15.443  0.4920  0.4338 -0.3362
  366MPD2    C2 5529   2.656   3.025  15.380  0.3095 -0.6312 -0.2055
  366MPD2    C3 5530   2.694   2.962  15.262 -0.4156  0.2633 -0.2960
  366MPD2    C4 5531   2.610   2.856  15.231  0.2812 -0.3993 -0.6971
  366MPD2    C5 5532   2.493   2.836  15.292 -0.1286  0.0891  0.1480
  366MPD2     H 5533   2.719   3.106  15.416 -3.1075  2.0098 -0.1565
  366MPD2    H1 5534   2.640   2.798  15.145  1.0792  0.5483 -1.0617
  366MPD2    H2 5535   2.354   2.895  15.436  1.2246 -1.5451  2.2009
  366MPD2    H3 5536   2.418   2.765  15.258  0.0992 -0.2063  0.2617
  366MPD2     N 5537   2.816   2.977  15.189  0.2016  0.4889  0.0838
  366MPD2    H5 5538   2.832   2.902  15.122  0.2184 -0.1232  0.7776
  366MPD2    N1 5539   2.507   3.099  15.539  0.1752  0.3784  0.2015
  366MPD2    H7 5540   2.574   3.172  15.561 -0.7850  1.2053  0.3767
  367TMC3    C1 5541   2.366   3.282  15.581 -0.5684  0.1559  0.4904
  367TMC3    C2 5542   2.440   3.319  15.689  0.0135  0.2786 -0.8908
  367TMC3    C3 5543   2.415   3.450  15.727 -0.5228  0.8613  0.3669
  367TMC3    C4 5544   2.273   3.358  15.515  0.0525  0.2728 -0.2898
  367TMC3    C5 5545   2.255   3.483  15.562 -0.6125  0.0832  0.2715
  367TMC3    C6 5546   2.325   3.536  15.663  0.5355 -0.0769  0.8739
  367TMC3     C 5547   2.374   3.138  15.557  0.4826 -0.2152  0.3312
  367TMC3     O 5548   2.267   3.086  15.516  0.2747 -0.1581 -0.3328
  367TMC3     H 5549   2.507   3.255  15.747 -0.8936  1.4119  1.4282
  367TMC3    H1 5550   2.226   3.323  15.424 -0.0051 -0.1704 -0.0897
  367TMC3    H2 5551   2.313   3.640  15.692 -0.3965  0.5965 -1.9233
  367TMC3    C7 5552   2.133   3.556  15.514 -0.0154  0.5753  0.5147
  367TMC3    C8 5553   2.508   3.511  15.823  0.1761 -0.1072 -0.5830
  367TMC3    O1 5554   2.138   3.677  15.540 -0.1264 -0.3546  0.9704
  367TMC3    O2 5555   2.567   3.429  15.900  0.4282 -0.4243 -0.0126
  368MPD2     C 5556   3.823   0.259  13.543 -0.5372  0.2920 -0.1307
  368MPD2    C1 5557   3.777   0.323  13.428  0.4795  0.1198 -0.6383
  368MPD2    C2 5558   3.812   0.453  13.395 -0.3102  0.6682 -0.4316
  368MPD2    C3 5559   3.897   0.526  13.473  0.2114  0.0006  0.3901
  368MPD2    C4 5560   3.935   0.467  13.593  1.0206  0.6296 -0.3133
  368MPD2    C5 5561   3.897   0.340  13.629  0.2134  0.6028  0.1943
  368MPD2     H 5562   3.787   0.489  13.295 -0.4825 -1.4732 -1.1708
  368MPD2    H1 5563   4.007   0.511  13.661  1.2762  0.0100 -0.1870
  368MPD2    H2 5564   3.809   0.154  13.566 -2.5272  0.6848  0.4438
  368MPD2    H3 5565   3.935   0.296  13.721  0.2492 -0.6491 -0.4131
  368MPD2     N 5566   3.973   0.636  13.422 -0.5997 -0.2908 -0.3944
  368MPD2    H5 5567   4.060   0.658  13.471 -0.3046 -1.1301 -0.5505
  368MPD2    N1 5568   3.704   0.256  13.329  0.2619  0.5067  0.0690
  368MPD2    H7 5569   3.664   0.310  13.253 -2.0138  1.7016  2.0868
  369TMC3    C1 5570   3.615   0.089  13.194  0.3225  0.3436 -0.0368
  369TMC3    C2 5571   3.659   0.182  13.099  0.1520  0.2474  0.7902
  369TMC3    C3 5572   3.569   0.247  13.024  0.5053  0.0033 -0.1451
  369TMC3    C4 5573   3.484   0.059  13.203  0.9747  0.0264 -0.1323
  369TMC3    C5 5574   3.389   0.137  13.135 -0.7014  0.6963  0.2091
  369TMC3    C6 5575   3.435   0.240  13.049 -0.4844  0.1017 -0.7413
  369TMC3     C 5576   3.666   0.125  13.329 -0.6688 -0.3576 -0.5172
  369TMC3     O 5577   3.665   0.042  13.420  0.1708  0.0610 -0.0371
  369TMC3     H 5578   3.765   0.191  13.083  0.2715  1.7180  2.2766
  369TMC3    H1 5579   3.451   0.001  13.288  0.9988  0.2441  0.0281
  369TMC3    H2 5580   3.369   0.302  12.990 -2.7767 -1.4196  0.2404
  369TMC3    C7 5581   3.254   0.132  13.178  0.3350 -0.1508  0.2960
  369TMC3    C8 5582   3.616   0.360  12.942 -0.2611  0.0235 -0.2160
  369TMC3    O1 5583   3.243   0.108  13.297  0.0490 -0.3557 -0.0216
  369TMC3    O2 5584   3.533   0.410  12.867 -0.4408  0.3671  0.2561
  370TMC3    C1 5585   3.001   1.095  16.166  0.3107  0.2278 -0.4646
  370TMC3    C2 5586   2.887   1.032  16.206  0.0134  0.6404 -0.5825
  370TMC3    C3 5587   2.867   0.905  16.156  0.5952 -0.3332  0.1911
  370TMC3    C4 5588   3.083   1.049  16.065 -0.7099  0.0685  0.7434
  370TMC3    C5 5589   3.055   0.921  16.022 -0.6498  0.4997  0.5840
  370TMC3    C6 5590   2.955   0.851  16.074  0.5691 -0.2071  0.1276
  370TMC3     C 5591   3.026   1.216  16.250  0.4276  0.4727  0.2112
  370TMC3     O 5592   2.977   1.220  16.362  0.5798  0.0106  0.4186
  370TMC3     H 5593   2.823   1.076  16.281  0.5750  2.3540 -1.1110
  370TMC3    H1 5594   3.173   1.101  16.034  0.2630 -0.8418  2.0562
  370TMC3    H2 5595   2.946   0.753  16.028 -0.8949  0.3660 -0.7792
  370TMC3    C7 5596   3.131   0.847  15.925  0.3902 -0.8326  0.4164
  370TMC3    C8 5597   2.839   0.812  16.268  0.7975 -0.4129  0.0474
  370TMC3    O1 5598   3.155   0.897  15.816  0.0733 -0.0242  0.5743
  370TMC3    O2 5599   2.927   0.730  16.288  0.3137 -0.1904  0.2600
  371TMC3    C1 5600   4.493   3.891  15.767  0.3958 -0.1646  0.6466
  371TMC3    C2 5601   4.360   3.874  15.808  0.5906  0.6482  0.2431
  371TMC3    C3 5602   4.299   3.993  15.840  0.1165 -0.8324 -0.0884
  371TMC3    C4 5603   4.554   4.012  15.753  0.5669  0.8186 -0.0007
  371TMC3    C5 5604   4.485   4.126  15.772  0.3870  0.0269 -0.0395
  371TMC3    C6 5605   4.365   4.116  15.831  0.4195  0.2778  0.2398
  371TMC3     C 5606   4.586   3.784  15.773 -0.2126  0.3999 -0.0759
  371TMC3     O 5607   4.700   3.812  15.811 -0.0798  0.5014 -0.9474
  371TMC3     H 5608   4.310   3.780  15.827  0.2232  1.1223  1.6098
  371TMC3    H1 5609   4.648   4.000  15.701 -0.4801  1.3096 -2.0013
  371TMC3    H2 5610   4.308   4.205  15.856  1.2702  0.9276 -0.1345
  371TMC3    C7 5611   4.484   4.221  15.665 -0.3990 -0.9107 -0.3012
  371TMC3    C8 5612   4.154   3.980  15.850  0.4502  0.6614  0.6145
  371TMC3    O1 5613   4.372   4.263  15.640 -0.1165  0.2962 -0.1506
  371TMC3    O2 5614   4.108   3.868  15.837  0.2135  0.0549  0.5053
  372MPD2     C 5615   3.359   0.663  13.133 -0.4596  0.9371  0.3322
  372MPD2    C1 5616   3.453   0.691  13.226  0.0888 -0.6386 -0.3272
  372MPD2    C2 5617   3.471   0.597  13.323 -0.6233  0.0227 -0.3526
  372MPD2    C3 5618   3.383   0.492  13.344  0.1743  0.0872 -0.8736
  372MPD2    C4 5619   3.279   0.479  13.251 -0.7888  0.0707 -0.9726
  372MPD2    C5 5620   3.275   0.557  13.145  0.8286 -0.0039  0.0579
  372MPD2     H 5621   3.551   0.606  13.396 -0.2552 -4.0904 -0.2553
  372MPD2    H1 5622   3.194   0.417  13.276  0.0686 -0.2168  1.2304
  372MPD2    H2 5623   3.351   0.712  13.037 -1.2616  0.6939  0.2691
  372MPD2    H3 5624   3.188   0.554  13.080  2.1323  2.4607 -1.7841
  372MPD2     N 5625   3.401   0.419  13.466 -0.1387  0.3966  0.3193
  372MPD2    H5 5626   3.486   0.439  13.517  0.7352 -0.7994 -0.6711
  372MPD2    N1 5627   3.539   0.803  13.229 -0.1061 -0.1670  0.1834
  372MPD2    H7 5628   3.618   0.799  13.292  0.3312  1.8423 -0.2159
  373TMC3    C1 5629   3.346   0.271  13.647  0.3945  0.0480 -0.6291
  373TMC3    C2 5630   3.249   0.255  13.734 -0.3835  0.6919  0.3138
  373TMC3    C3 5631   3.266   0.176  13.846  0.7929 -0.2916  0.8346
  373TMC3    C4 5632   3.462   0.201  13.663 -0.2442 -0.3029 -0.7871
  373TMC3    C5 5633   3.484   0.126  13.774 -0.0650 -0.1315 -0.5245
  373TMC3    C6 5634   3.383   0.106  13.863  0.0491  0.0667 -1.1943
  373TMC3     C 5635   3.313   0.330  13.518  0.2856 -0.0758 -0.5204
  373TMC3     O 5636   3.197   0.316  13.483 -0.2686 -0.2089 -0.1926
  373TMC3     H 5637   3.156   0.310  13.723 -0.3265  1.0747  1.7105
  373TMC3    H1 5638   3.529   0.199  13.578 -0.6960  1.4367 -1.1886
  373TMC3    H2 5639   3.395   0.037  13.946  2.5657 -0.8756 -2.3338
  373TMC3    C7 5640   3.581   0.026  13.753  0.4951 -0.3202  0.4916
  373TMC3    C8 5641   3.146   0.113  13.899  0.4542  0.0124  0.6861
  373TMC3    O1 5642   3.696   0.051  13.790 -0.1217 -0.0629 -0.0669
  373TMC3    O2 5643   3.072   0.064  13.815 -0.1786 -0.3162 -0.2858
  374TMC3    C1 5644   4.368   0.833   9.873 -0.1663 -0.1864 -0.2069
  374TMC3    C2 5645   4.447   0.930   9.928  0.0331  0.5099  0.3753
  374TMC3    C3 5646   4.575   0.922   9.906 -0.2299  0.6110  0.1370
  374TMC3    C4 5647   4.413   0.730   9.804 -0.0418  0.3770 -0.6398
  374TMC3    C5 5648   4.549   0.724   9.780 -0.0651 -0.0798 -0.2323
  374TMC3    C6 5649   4.632   0.822   9.829 -0.1118  0.4968 -0.3278
  374TMC3     C 5650   4.246   0.781   9.932  0.2321  0.3758  0.1976
  374TMC3     O 5651   4.170   0.703   9.877 -0.5191 -0.4289 -0.0289
  374TMC3     H 5652   4.405   1.014   9.981  0.6326  0.9001  0.2238
  374TMC3    H1 5653   4.346   0.656   9.762  0.3453  0.1312 -0.8242
  374TMC3    H2 5654   0.001   0.805   9.831 -0.2883 -0.3540  1.4407
  374TMC3    C7 5655   4.620   0.608   9.721  0.5929 -0.1725 -0.1258
  374TMC3    C8 5656   4.654   1.031   9.968  0.4814 -0.3885  0.4487
  374TMC3    O1 5657   4.729   0.632   9.676  0.1957  1.0110 -0.1634
  374TMC3    O2 5658   4.616   1.052  10.080  0.0767  0.7060 -0.7396
  375MPD2     C 5659   4.229   0.797  16.739  0.1647 -0.2453 -0.3720
  375MPD2    C1 5660   4.172   0.908  16.675  0.3559 -0.3942  0.3113
  375MPD2    C2 5661   4.191   0.918  16.541  0.0524  0.4690 -0.0471
  375MPD2    C3 5662   4.280   0.834  16.470 -0.7337  0.0975  0.1501
  375MPD2    C4 5663   4.335   0.729  16.538  0.1030  0.0932  0.3738
  375MPD2    C5 5664   4.305   0.716  16.670 -0.3782  0.6943 -0.2575
  375MPD2     H 5665   4.126   0.988  16.491  0.0176  1.7888  1.8240
  375MPD2    H1 5666   4.394   0.652  16.491  1.2153  0.4520  1.1859
  375MPD2    H2 5667   4.221   0.789  16.847 -0.3828 -2.5042 -0.5888
  375MPD2    H3 5668   4.359   0.635  16.718 -0.3125  1.4167  0.8878
  375MPD2     N 5669   4.310   0.839  16.335 -0.1198  0.2131 -0.0433
  375MPD2    H5 5670   4.375   0.771  16.299 -1.5459 -0.3860 -1.5203
  375MPD2    N1 5671   4.084   1.003  16.738  0.5411  0.2623 -0.2463
  375MPD2    H7 5672   4.028   1.057  16.673  0.7369 -1.3386 -1.7583
  376TMC3    C1 5673   4.304   0.916  16.111  0.0402  0.5955  0.0590
  376TMC3    C2 5674   4.435   0.874  16.090 -0.1971 -0.5728  0.8184
  376TMC3    C3 5675   4.488   0.902  15.968 -0.2108  0.2237 -0.1477
  376TMC3    C4 5676   4.237   0.996  16.021  0.3406  0.3365 -0.2521
  376TMC3    C5 5677   4.290   0.997  15.893  0.1645  0.6591  0.1026
  376TMC3    C6 5678   4.418   0.949  15.860  0.1588 -0.6191 -0.6179
  376TMC3     C 5679   4.254   0.930  16.247 -0.0600  0.3246 -0.1704
  376TMC3     O 5680   4.173   1.013  16.266 -0.2622 -0.2506  0.6094
  376TMC3     H 5681   4.503   0.854  16.172  0.3371  2.3747  1.1009
  376TMC3    H1 5682   4.136   1.030  16.040  0.6390  0.0657  1.7736
  376TMC3    H2 5683   4.467   0.951  15.763 -3.2443 -0.4064 -2.3165
  376TMC3    C7 5684   4.239   1.105  15.805 -0.6430  0.9980  0.3340
  376TMC3    C8 5685   4.621   0.944  15.960  0.4352 -0.6390  0.4241
  376TMC3    O1 5686   4.171   1.189  15.859  0.4817  0.0634 -0.0373
  376TMC3    O2 5687   4.646   1.050  15.898  0.1947 -0.1333 -0.5976
  377MPD2     C 5688   2.760   1.038  12.711  0.0649 -0.8346  1.1433
  377MPD2    C1 5689   2.814   0.909  12.730  0.7667 -0.7997  0.2854
  377MPD2    C2 5690   2.732   0.809  12.788  0.3471 -0.0943  0.0395
  377MPD2    C3 5691   2.598   0.841  12.810 -0.4819  0.1529 -0.2855
  377MPD2    C4 5692   2.544   0.954  12.770 -0.2015  0.9969 -0.2063
  377MPD2    C5 5693   2.627   1.057  12.729 -0.1003 -0.0181 -0.0239
  377MPD2     H 5694   2.767   0.713  12.824  1.2490 -0.5125 -1.9151
  377MPD2    H1 5695   2.439   0.976  12.789 -0.7806 -0.1647 -2.0611
  377MPD2    H2 5696   2.824   1.117  12.673  0.7141 -1.6118  0.6274
  377MPD2    H3 5697   2.582   1.149  12.695  1.5813  0.3086 -1.3708
  377MPD2     N 5698   2.504   0.757  12.874  0.6633  0.1355 -0.1316
  377MPD2    H5 5699   2.407   0.787  12.877  0.7721  0.4276  0.4863
  377MPD2    N1 5700   2.950   0.887  12.699  0.1095  0.2208  0.3350
  377MPD2    H7 5701   2.994   0.958  12.642  0.4039 -0.7853 -0.7119
  378TMC3    C1 5702   3.220   0.954  12.471  0.7188 -0.3625  0.2104
  378TMC3    C2 5703   3.175   0.924  12.602  0.8524 -0.2069  0.2501
  378TMC3    C3 5704   3.153   0.796  12.650  0.5093  0.3263  0.2035
  378TMC3    C4 5705   3.249   0.845  12.390 -0.1441 -0.7826  0.0918
  378TMC3    C5 5706   3.242   0.724  12.445 -0.4299  0.2561  0.0060
  378TMC3    C6 5707   3.188   0.694  12.566 -0.3643  0.4462  0.0941
  378TMC3     C 5708   3.119   1.041  12.416  0.1940  0.9740  0.1893
  378TMC3     O 5709   3.021   1.067  12.484  0.1903  0.2325  0.1652
  378TMC3     H 5710   3.172   1.002  12.677  0.3258  0.2194 -0.2176
  378TMC3    H1 5711   3.295   0.867  12.294  0.8426 -0.6736  0.5840
  378TMC3    H2 5712   3.181   0.592  12.603  0.7705  0.4740  0.3784
  378TMC3    C7 5713   3.343   0.627  12.422  0.0861 -0.3269  0.4196
  378TMC3    C8 5714   3.023   0.771  12.718 -0.3305  0.4480 -0.3276
  378TMC3    O1 5715   3.378   0.551  12.510  0.2043  0.2202 -0.0842
  378TMC3    O2 5716   2.988   0.665  12.767  0.2090 -0.2799  0.3699
  379MPD2     C 5717   3.466   3.935  16.661  0.2385 -0.0689  0.1878
  379MPD2    C1 5718   3.463   3.803  16.614  0.5788 -0.1219  0.2480
  379MPD2    C2 5719   3.543   3.713  16.679  0.4979 -0.2053 -0.4389
  379MPD2    C3 5720   3.615   3.753  16.792 -0.4632  0.5977  0.4347
  379MPD2    C4 5721   3.611   3.888  16.829  0.5843  0.0525  0.0977
  379MPD2    C5 5722   3.531   3.976  16.769  0.4002  0.1428  0.4279
  379MPD2     H 5723   3.538   3.610  16.647 -0.9078  0.6326 -2.9191
  379MPD2    H1 5724   3.667   3.924  16.915 -0.6700 -0.5384  1.1633
  379MPD2    H2 5725   3.406   4.009  16.610 -0.0233 -0.0113  0.5791
  379MPD2    H3 5726   3.545   4.076  16.807  0.8897 -0.3977  1.6751
  379MPD2     N 5727   3.692   3.663  16.869  0.0899 -0.0725  0.3188
  379MPD2    H5 5728   3.718   3.694  16.962  1.7124  0.4017 -0.2859
  379MPD2    N1 5729   3.378   3.775  16.503 -0.2877  0.1068 -0.3977
  379MPD2    H7 5730   3.310   3.846  16.478  2.2523  3.7631  3.0240
  380TMC3    C1 5731   3.320   3.673  16.293 -0.6090  0.8972  0.0497
  380TMC3    C2 5732   3.372   3.596  16.197  0.1118  0.2689 -0.2430
  380TMC3    C3 5733   3.299   3.580  16.083 -0.4978 -0.2092  0.2219
  380TMC3    C4 5734   3.196   3.722  16.296 -0.4144 -0.0896  0.1528
  380TMC3    C5 5735   3.114   3.693  16.188  0.2397 -0.4676  0.0615
  380TMC3    C6 5736   3.168   3.621  16.075  0.3752  0.4927 -0.1989
  380TMC3     C 5737   3.410   3.678  16.415  0.4311  0.0823 -0.1056
  380TMC3     O 5738   3.483   3.579  16.427  0.9341 -0.2124  0.0091
  380TMC3     H 5739   3.477   3.575  16.210 -0.0684  0.0900  0.8966
  380TMC3    H1 5740   3.162   3.792  16.371 -1.3224  0.3178 -0.6442
  380TMC3    H2 5741   3.113   3.625  15.982  1.1184  0.7417 -0.6234
  380TMC3    C7 5742   2.992   3.771  16.183 -0.2660 -0.0130  0.0244
  380TMC3    C8 5743   3.380   3.549  15.962 -0.2439  0.4850 -0.0010
  380TMC3    O1 5744   2.970   3.860  16.266 -0.4916  0.2100  0.3429
  380TMC3    O2 5745   3.329   3.576  15.857 -0.0509 -0.6304 -0.3892
  381TMC3    C1 5746   2.837   0.401  16.336  0.6530 -0.4698 -0.4443
  381TMC3    C2 5747   2.960   0.440  16.324  0.4797  0.1483  0.4787
  381TMC3    C3 5748   3.052   0.408  16.427  0.7210 -0.2049 -0.1582
  381TMC3    C4 5749   2.795   0.340  16.452 -0.4081  0.6195  0.1211
  381TMC3    C5 5750   2.880   0.292  16.542 -0.7155  0.0495  0.0081
  381TMC3    C6 5751   3.009   0.325  16.526  0.5880 -0.2811 -0.7337
  381TMC3     C 5752   2.733   0.436  16.239  0.1602 -0.2656  0.3272
  381TMC3     O 5753   2.613   0.417  16.263 -0.0141 -0.2058  0.3471
  381TMC3     H 5754   2.988   0.498  16.237 -0.0011  3.0215  2.2547
  381TMC3    H1 5755   2.692   0.306  16.459 -0.0257 -0.9406 -1.8899
  381TMC3    H2 5756   3.078   0.297  16.605  2.0062 -0.8116 -2.1429
  381TMC3    C7 5757   2.838   0.278  16.680 -0.2683 -0.2724  0.2146
  381TMC3    C8 5758   3.176   0.471  16.418  0.4808  0.0433  0.2815
  381TMC3    O1 5759   2.911   0.216  16.755  0.4861 -0.4234  1.2818
  381TMC3    O2 5760   3.278   0.415  16.458  0.2674  0.0878 -0.0832
  382MPD2     C 5761   2.128   2.549  16.613  0.1672 -0.4786 -0.8724
  382MPD2    C1 5762   2.174   2.568  16.740 -0.7144 -0.0554 -0.2215
  382MPD2    C2 5763   2.209   2.461  16.809  0.0268  0.3194 -0.1592
  382MPD2    C3 5764   2.195   2.328  16.767 -0.9893  0.1309  0.0163
  382MPD2    C4 5765   2.132   2.312  16.645 -0.2076  0.4554  0.2156
  382MPD2    C5 5766   2.095   2.423  16.574 -0.6061  0.0028  0.3282
  382MPD2     H 5767   2.256   2.478  16.905 -2.5207 -0.7563  1.2817
  382MPD2    H1 5768   2.110   2.214  16.604 -1.5109  0.8197  0.0422
  382MPD2    H2 5769   2.103   2.630  16.545  1.2742  0.3769 -0.2672
  382MPD2    H3 5770   2.049   2.396  16.479 -0.3472  0.6525  0.0196
  382MPD2     N 5771   2.224   2.220  16.849 -0.5259 -0.8282  0.1663
  382MPD2    H5 5772   2.164   2.139  16.836  0.4154 -1.7530  1.6874
  382MPD2    N1 5773   2.189   2.695  16.794 -0.7127 -0.0899  0.4288
  382MPD2    H7 5774   2.218   2.712  16.890 -1.8840 -0.4810  0.8516
  383TMC3    C1 5775   2.294   2.116  17.047  0.9649  0.0282  0.6083
  383TMC3    C2 5776   2.165   2.062  17.068 -0.3833 -0.4650  0.7810
  383TMC3    C3 5777   2.148   1.990  17.182  0.4068 -0.2103  0.6311
  383TMC3    C4 5778   2.392   2.094  17.136  0.3099  0.4997  0.1170
  383TMC3    C5 5779   2.373   2.022  17.251  0.2045 -0.5567  0.4133
  383TMC3    C6 5780   2.249   1.969  17.272 -0.1475 -0.0102 -0.4297
  383TMC3     C 5781   2.311   2.231  16.955 -0.9222  0.1346 -0.2537
  383TMC3     O 5782   2.376   2.327  16.992  0.0100 -0.1581  0.5243
  383TMC3     H 5783   2.090   2.080  16.993  0.8141 -2.0434 -0.7845
  383TMC3    H1 5784   2.485   2.141  17.106  0.5635 -0.6123 -0.8414
  383TMC3    H2 5785   2.231   1.905  17.358  0.8111  2.5105  1.6606
  383TMC3    C7 5786   2.474   2.000  17.346 -0.1697  0.3248 -0.3529
  383TMC3    C8 5787   2.021   1.923  17.185  0.6148  0.2433 -0.1455
  383TMC3    O1 5788   2.431   1.990  17.465 -0.2122  0.5445  0.7143
  383TMC3    O2 5789   1.936   1.963  17.105 -0.1864 -0.0813 -0.8180
  384MPD2     C 5790   3.239   3.723  12.262 -0.9064  0.1169  0.0790
  384MPD2    C1 5791   3.306   3.808  12.348 -0.0674 -0.7728  0.8268
  384MPD2    C2 5792   3.442   3.811  12.345 -0.1723 -0.4298 -0.1527
  384MPD2    C3 5793   3.508   3.730  12.252  0.3663 -0.4622 -0.5774
  384MPD2    C4 5794   3.443   3.638  12.173  0.6837 -0.0025 -0.2897
  384MPD2    C5 5795   3.304   3.640  12.176 -0.1318  0.5002  0.1454
  384MPD2     H 5796   3.499   3.883  12.403  1.5683 -1.5939 -0.3948
  384MPD2    H1 5797   3.492   3.559  12.117 -1.1124 -0.6244 -0.9683
  384MPD2    H2 5798   3.131   3.713  12.263 -0.8940  0.0597  1.7172
  384MPD2    H3 5799   3.261   3.554  12.125 -0.6479  0.4591  0.6643
  384MPD2     N 5800   3.647   3.719  12.260  0.2060 -0.0027  0.0765
  384MPD2    H5 5801   3.694   3.637  12.223  1.4429  0.4516  0.6261
  384MPD2    N1 5802   3.236   3.897  12.426 -0.0113  0.3911 -0.3932
  384MPD2    H7 5803   3.135   3.889  12.418 -0.3203  1.0729  2.7926
  385TMC3    C1 5804   3.870   3.757  12.329  0.4347  0.4196 -0.0115
  385TMC3    C2 5805   3.885   3.620  12.325  0.2630  0.3056 -0.9180
  385TMC3    C3 5806   3.959   3.555  12.417  0.5624  0.1857 -0.2614
  385TMC3    C4 5807   3.940   3.827  12.425 -0.2573 -0.5212  0.1903
  385TMC3    C5 5808   3.996   3.759  12.523  0.1793  0.9664  0.5236
  385TMC3    C6 5809   4.024   3.627  12.517 -0.2962 -0.3273  0.0831
  385TMC3     C 5810   3.733   3.808  12.313 -0.4006  0.5251  0.3911
  385TMC3     O 5811   3.719   3.920  12.362  0.0136 -0.0798  0.4089
  385TMC3     H 5812   3.847   3.566  12.240  0.4556 -0.6989 -0.3719
  385TMC3    H1 5813   3.921   3.932  12.444 -2.5488 -1.0803  0.9346
  385TMC3    H2 5814   4.068   3.575  12.601  2.2772 -0.2074 -1.1711
  385TMC3    C7 5815   3.986   3.814  12.657 -0.6993  0.0581  0.6990
  385TMC3    C8 5816   4.001   3.419  12.397 -0.2436  0.7934  0.1262
  385TMC3    O1 5817   4.050   3.766  12.746  0.2319  0.0559  0.4282
  385TMC3    O2 5818   4.106   3.387  12.450  0.4382  0.5702 -0.0450
  386TMC3    C1 5819   4.560   0.812  11.724 -0.4437  0.4429  0.1429
  386TMC3    C2 5820   4.585   0.866  11.601 -0.0319 -0.2986  0.0478
  386TMC3    C3 5821   4.471   0.883  11.525 -0.7407 -0.3978  0.7330
  386TMC3    C4 5822   4.431   0.773  11.759 -0.2464 -0.2684 -0.3417
  386TMC3    C5 5823   4.328   0.796  11.676  0.2333  0.3476 -0.1556
  386TMC3    C6 5824   4.345   0.839  11.550  0.0915  0.4573 -0.9299
  386TMC3     C 5825   4.685   0.756  11.789 -0.3367  0.0288  0.0303
  386TMC3     O 5826   0.054   0.801  11.754 -0.4160  0.5434 -0.3547
  386TMC3     H 5827   4.683   0.897  11.568 -0.6237  2.5658  0.9387
  386TMC3    H1 5828   4.408   0.743  11.861  0.8073  2.2096  0.6383
  386TMC3    H2 5829   4.267   0.852  11.476 -0.2397 -0.2920 -0.7180
  386TMC3    C7 5830   4.196   0.793  11.737  0.0350  0.2443  0.2577
  386TMC3    C8 5831   4.487   0.943  11.399 -0.1767 -0.4105 -0.5050
  386TMC3    O1 5832   4.189   0.753  11.853 -0.3743 -0.1082  0.1641
  386TMC3    O2 5833   4.498   1.064  11.397  0.0668 -0.2262 -0.0886
  387MPD2     C 5834   1.458   1.361  10.241 -0.0658  0.7579 -0.2341
  387MPD2    C1 5835   1.575   1.341  10.312 -0.0034 -0.4355  0.4194
  387MPD2    C2 5836   1.632   1.211  10.322 -0.5547 -0.0995  0.3607
  387MPD2    C3 5837   1.571   1.102  10.268  0.9735 -0.5553  0.2559
  387MPD2    C4 5838   1.449   1.118  10.196 -0.2879  0.0338 -0.4423
  387MPD2    C5 5839   1.390   1.249  10.194  0.6695  0.4712  0.4920
  387MPD2     H 5840   1.720   1.198  10.383  1.0047  0.7611 -1.7146
  387MPD2    H1 5841   1.388   1.031  10.175  2.1689 -0.8483 -3.8598
  387MPD2    H2 5842   1.415   1.458  10.220 -0.6971  0.8451  1.4628
  387MPD2    H3 5843   1.291   1.278  10.158  0.3116 -0.4086  0.7687
  387MPD2     N 5844   1.644   0.977  10.298  0.0617 -0.2938  0.5584
  387MPD2    H5 5845   1.720   0.993  10.363  1.1073 -0.5111 -0.6291
  387MPD2    N1 5846   1.638   1.451  10.378  0.1120 -0.6300  0.2948
  387MPD2    H7 5847   1.718   1.436  10.439  0.5119  1.1919  0.2230
  388TMC3    C1 5848   1.722   1.660  10.426 -0.6986 -0.0451  0.0363
  388TMC3    C2 5849   1.697   1.784  10.477  0.2405  0.5968 -0.6240
  388TMC3    C3 5850   1.782   1.832  10.574 -0.0318 -0.2897 -0.1797
  388TMC3    C4 5851   1.840   1.594  10.454 -0.6400 -1.2570 -0.3003
  388TMC3    C5 5852   1.919   1.651  10.547 -0.1151  0.1906 -0.1670
  388TMC3    C6 5853   1.892   1.768  10.608 -0.7255  0.1569 -0.4791
  388TMC3     C 5854   1.606   1.585  10.379  0.4416  0.2298  0.3226
  388TMC3     O 5855   1.541   1.652  10.301 -0.4321 -0.3517 -0.1739
  388TMC3     H 5856   1.606   1.834  10.449 -0.1700  0.8667  1.1650
  388TMC3    H1 5857   1.877   1.517  10.387 -0.3576 -2.0466  0.7658
  388TMC3    H2 5858   1.954   1.814  10.685 -0.1028 -0.0911 -0.8265
  388TMC3    C7 5859   2.027   1.569  10.599  0.3051  0.2948  0.5263
  388TMC3    C8 5860   1.774   1.975  10.595 -0.2648  0.4578  0.3254
  388TMC3    O1 5861   2.125   1.617  10.655 -0.4096 -0.3544  0.1098
  388TMC3    O2 5862   1.809   2.022  10.702  0.6591 -0.4149  0.0360
  389MPD2     C 5863   0.839   4.095  11.535  0.4129  0.5624 -0.0113
  389MPD2    C1 5864   0.805   4.005  11.438  0.4770 -0.0332  0.1685
  389MPD2    C2 5865   0.718   3.903  11.465  0.1187  0.3302 -0.1392
  389MPD2    C3 5866   0.663   3.887  11.592  0.4915  0.3122 -0.5053
  389MPD2    C4 5867   0.694   3.980  11.684 -0.0268 -0.4253 -0.4653
  389MPD2    C5 5868   0.777   4.085  11.654  0.4200  0.3262  0.2045
  389MPD2     H 5869   0.708   3.820  11.396 -0.6125  1.0293 -0.8737
  389MPD2    H1 5870   0.635   3.976  11.775  0.2751 -1.1650 -0.3024
  389MPD2    H2 5871   0.916   4.168  11.510  0.8868 -0.3548 -1.2531
  389MPD2    H3 5872   0.802   4.152  11.736 -0.8576  0.2529  0.6587
  389MPD2     N 5873   0.566   3.785  11.621  0.6251 -0.1840  0.4191
  389MPD2    H5 5874   0.519   3.790  11.710  0.5502  1.6926  0.2812
  389MPD2    N1 5875   0.864   4.022  11.312 -0.0182 -0.2557 -0.6427
  389MPD2    H7 5876   0.940   4.089  11.310 -0.1336 -0.0439  1.8357
  390TMC3    C1 5877   0.387   3.636  11.579  0.3160 -0.1355  0.0599
  390TMC3    C2 5878   0.358   3.640  11.714  0.2285  0.0231  0.2719
  390TMC3    C3 5879   0.233   3.641  11.755  0.3993  0.0219 -0.0789
  390TMC3    C4 5880   0.286   3.630  11.481  0.8856  0.2701  0.4512
  390TMC3    C5 5881   0.155   3.634  11.530 -0.0203 -0.0226 -0.0400
  390TMC3    C6 5882   0.131   3.643  11.664  0.4383  0.6432  0.0052
  390TMC3     C 5883   0.514   3.686  11.535  0.7846  0.2770 -0.2455
  390TMC3     O 5884   0.541   3.662  11.417  0.2570  0.0058  0.4198
  390TMC3     H 5885   0.447   3.633  11.776  1.5670 -0.9146 -1.7432
  390TMC3    H1 5886   0.308   3.644  11.376  0.5843 -1.2145  0.1872
  390TMC3    H2 5887   0.033   3.662  11.708  0.3634 -0.9385  0.5219
  390TMC3    C7 5888   0.082   3.531  11.467  0.0312 -0.4353  0.0241
  390TMC3    C8 5889   0.207   3.547  11.869 -0.7952 -0.7467  0.3551
  390TMC3    O1 5890   0.132   3.466  11.377 -0.6761 -0.2554 -0.1649
  390TMC3    O2 5891   0.282   3.453  11.886 -0.2055 -0.0674 -0.5026
  391MPD2     C 5892   0.188   0.856  11.274 -0.2876 -0.3590  0.2551
  391MPD2    C1 5893   0.318   0.881  11.250 -0.0168 -0.7509 -0.3316
  391MPD2    C2 5894   0.356   0.948  11.125 -0.1448 -0.6568 -0.7841
  391MPD2    C3 5895   0.262   0.994  11.042  0.0523 -0.1822 -0.0643
  391MPD2    C4 5896   0.127   0.970  11.075  0.5325  0.1821 -0.0248
  391MPD2    C5 5897   0.092   0.902  11.187  0.1843 -0.1598 -0.3655
  391MPD2     H 5898   0.462   0.968  11.109  0.2787 -1.5763  0.8954
  391MPD2    H1 5899   0.052   1.002  11.004  0.6358 -0.0974 -0.2640
  391MPD2    H2 5900   0.157   0.806  11.365 -1.4274 -0.7172 -0.3313
  391MPD2    H3 5901   4.724   0.886  11.208 -0.3537  1.2223 -1.9774
  391MPD2     N 5902   0.301   1.064  10.924  0.0544  0.6226  0.8982
  391MPD2    H5 5903   0.396   1.094  10.911  0.3195 -0.2087  0.8800
  391MPD2    N1 5904   0.411   0.845  11.355  0.1419  0.4079  0.3594
  391MPD2    H7 5905   0.379   0.805  11.442 -2.7431 -1.2701 -1.4608
  392TMC3    C1 5906   0.281   1.162  10.705 -0.0540  0.1729 -0.1021
  392TMC3    C2 5907   0.216   1.169  10.587 -0.4393  1.1619  0.0438
  392TMC3    C3 5908   0.273   1.256  10.492  0.4735  0.1047 -0.3366
  392TMC3    C4 5909   0.405   1.214  10.722 -1.0204 -0.5940 -0.0662
  392TMC3    C5 5910   0.456   1.295  10.630 -1.0360  0.0216 -0.0550
  392TMC3    C6 5911   0.388   1.321  10.516  0.1859  0.2827 -0.2890
  392TMC3     C 5912   0.221   1.075  10.810  0.7709  0.3561  0.3581
  392TMC3     O 5913   0.111   1.024  10.783 -0.2657 -0.4571 -0.1487
  392TMC3     H 5914   0.117   1.135  10.558  0.6203 -2.1140  0.2075
  392TMC3    H1 5915   0.463   1.199  10.812 -0.6362 -1.9784 -0.5478
  392TMC3    H2 5916   0.432   1.381  10.436  0.6257  1.2506  0.6757
  392TMC3    C7 5917   0.560   1.383  10.670 -0.2396 -0.4793 -0.0222
  392TMC3    C8 5918   0.213   1.254  10.363 -0.1582 -0.3390 -0.7397
  392TMC3    O1 5919   0.644   1.340  10.754  0.3177 -0.3208 -0.3306
  392TMC3    O2 5920   0.087   1.265  10.355 -0.3303 -0.4240  0.1807
  393TMC3    C1 5921   3.322   3.628  11.049 -0.1883  0.4596 -0.0554
  393TMC3    C2 5922   3.185   3.590  11.057  0.4811 -0.3208  0.1606
  393TMC3    C3 5923   3.146   3.513  11.163 -0.3149  0.8933 -0.0034
  393TMC3    C4 5924   3.411   3.580  11.141 -0.8535 -0.0942  1.6393
  393TMC3    C5 5925   3.366   3.503  11.240  0.1769 -0.1442  1.2556
  393TMC3    C6 5926   3.236   3.458  11.248 -0.0430 -0.2635 -0.1971
  393TMC3     C 5927   3.359   3.679  10.922 -0.0208 -0.6747 -0.8566
  393TMC3     O 5928   3.267   3.714  10.847 -0.2550  0.1430  0.3055
  393TMC3     H 5929   3.118   3.622  10.978  0.2908  1.9340  1.2321
  393TMC3    H1 5930   3.514   3.614  11.140 -1.3149  1.1951 -2.3741
  393TMC3    H2 5931   3.210   3.379  11.319 -0.3479  1.2752  1.4157
  393TMC3    C7 5932   3.453   3.462  11.350  0.3976  0.1730  0.1915
  393TMC3    C8 5933   3.014   3.472  11.187 -0.2147  0.0535  0.0569
  393TMC3    O1 5934   3.411   3.377  11.430  0.1018 -0.7332 -0.1326
  393TMC3    O2 5935   2.994   3.361  11.240 -0.1726  0.2294  0.9999
  394TMC3    C1 5936   0.880   3.997  11.069 -0.0250 -0.2599 -0.8182
  394TMC3    C2 5937   0.816   3.953  10.957  0.4022  0.1349 -0.3125
  394TMC3    C3 5938   0.881   3.980  10.835 -0.1449  0.5484  0.0948
  394TMC3    C4 5939   0.995   4.068  11.066  0.5374  0.2672  0.0638
  394TMC3    C5 5940   1.069   4.074  10.949 -0.4921 -0.5578 -0.0566
  394TMC3    C6 5941   1.001   4.040  10.828  0.4414  0.9044  0.2707
  394TMC3     C 5942   0.822   3.958  11.199  0.2784  0.2268  0.3093
  394TMC3     O 5943   0.742   3.862  11.188 -0.2810  0.0030  0.6599
  394TMC3     H 5944   0.716   3.910  10.960  0.3809  0.2057 -0.0331
  394TMC3    H1 5945   1.050   4.093  11.156 -1.1607 -3.4652  2.1349
  394TMC3    H2 5946   1.057   4.056  10.737  0.3977 -4.0008 -0.5895
  394TMC3    C7 5947   1.193   4.147  10.949 -0.1657  0.0932 -0.7865
  394TMC3    C8 5948   0.828   3.907  10.721  0.0137  0.5414  0.1067
  394TMC3    O1 5949   1.212   4.231  11.034 -0.5052  0.1123 -0.0295
  394TMC3    O2 5950   0.762   3.808  10.740 -0.2335  0.4365 -0.2346
  395TMC3    C1 5951   0.567   1.098  14.978 -0.0441  0.3127 -0.7118
  395TMC3    C2 5952   0.597   0.968  14.996 -0.1320  0.1201  0.4000
  395TMC3    C3 5953   0.722   0.941  15.039 -0.7725  0.4003  0.5849
  395TMC3    C4 5954   0.661   1.201  14.972  0.2864  0.8961 -0.1833
  395TMC3    C5 5955   0.791   1.164  14.992  0.1991  1.4305 -0.1511
  395TMC3    C6 5956   0.824   1.039  15.040 -0.7378  0.1883  0.6025
  395TMC3     C 5957   0.442   1.140  15.030 -0.0422  0.3106 -0.3154
  395TMC3     O 5958   0.434   1.242  15.094 -0.9490  0.4576 -0.6582
  395TMC3     H 5959   0.520   0.894  15.017 -0.8093  0.3212 -1.3989
  395TMC3    H1 5960   0.631   1.304  14.956 -1.2980  0.9834  3.2152
  395TMC3    H2 5961   0.926   1.007  15.058 -0.1863  1.8183  0.4239
  395TMC3    C7 5962   0.895   1.272  14.984  0.4138  0.1183  0.3495
  395TMC3    C8 5963   0.753   0.804  15.080 -0.2893 -0.2516 -0.1854
  395TMC3    O1 5964   0.855   1.387  14.995 -0.3969  0.3738  0.3445
  395TMC3    O2 5965   0.842   0.784  15.163 -0.0024 -0.6153  0.2345
  396MPD2     C 5966   1.050   2.298  17.432 -0.6034 -0.3440 -0.0444
  396MPD2    C1 5967   0.917   2.269  17.429 -1.0960 -0.0967 -0.2647
  396MPD2    C2 5968   0.825   2.345  17.351  0.2597 -0.2698 -0.0390
  396MPD2    C3 5969   0.872   2.451  17.273 -0.7079  0.4803 -0.8046
  396MPD2    C4 5970   1.010   2.481  17.274 -0.4364  0.5104  0.5315
  396MPD2    C5 5971   1.089   2.402  17.355 -0.0417  0.1929  0.0568
  396MPD2     H 5972   0.718   2.326  17.352  0.1329  0.4080 -1.6888
  396MPD2    H1 5973   1.053   2.563  17.217 -2.0464  0.3287 -0.9572
  396MPD2    H2 5974   1.122   2.238  17.487 -0.9287 -0.5978  0.1013
  396MPD2    H3 5975   1.194   2.428  17.369  0.9053 -2.8633 -1.2074
  396MPD2     N 5976   0.779   2.537  17.215 -0.4169  0.4359 -0.0483
  396MPD2    H5 5977   0.683   2.533  17.246 -0.0156  0.2018  1.1437
  396MPD2    N1 5978   0.888   2.147  17.490  0.5629 -0.3763  0.3672
  396MPD2    H7 5979   0.967   2.099  17.531 -0.6080 -2.8703 -0.3186
  397TMC3    C1 5980   0.777   1.939  17.503  0.1306 -0.8291  0.0082
  397TMC3    C2 5981   0.865   1.881  17.424  0.5173  0.4940 -0.2604
  397TMC3    C3 5982   0.826   1.809  17.318  0.2104  0.1017 -0.8825
  397TMC3    C4 5983   0.654   1.884  17.509 -0.0115 -0.0853 -0.2506
  397TMC3    C5 5984   0.617   1.790  17.419 -0.2689 -0.0138 -0.3537
  397TMC3    C6 5985   0.702   1.755  17.321  0.0777  0.5293 -0.2870
  397TMC3     C 5986   0.767   2.082  17.487 -0.8663  0.1852 -0.1966
  397TMC3     O 5987   0.651   2.120  17.474 -0.0049 -0.2632  0.1570
  397TMC3     H 5988   0.966   1.920  17.424  1.2031 -1.3005 -2.3895
  397TMC3    H1 5989   0.579   1.929  17.572 -0.3525 -0.5913 -0.2899
  397TMC3    H2 5990   0.652   1.692  17.249  0.6356 -1.0727  0.7476
  397TMC3    C7 5991   0.473   1.754  17.418  0.5761  0.0940 -0.1111
  397TMC3    C8 5992   0.864   1.860  17.196 -0.0975 -0.1366 -0.2720
  397TMC3    O1 5993   0.426   1.726  17.311 -0.0425 -0.1475 -0.0890
  397TMC3    O2 5994   0.770   1.872  17.115 -0.3570  0.2044 -0.1712
  398MPD2     C 5995   3.052   3.590   0.315 -0.1606  0.5326 -0.2424
  398MPD2    C1 5996   3.158   3.576   0.404 -0.1564  0.3678 -0.8707
  398MPD2    C2 5997   3.140   3.617   0.534  0.2166 -0.3975 -0.1489
  398MPD2    C3 5998   3.017   3.648   0.582 -0.2523 -0.2600 -0.7936
  398MPD2    C4 5999   2.907   3.647   0.502  0.2268  1.6470 -0.5382
  398MPD2    C5 6000   2.931   3.624   0.365  0.3430 -0.4598  0.1683
  398MPD2     H 6001   3.220   3.618   0.607  0.2731 -1.2545 -0.1942
  398MPD2    H1 6002   2.809   3.685   0.529  0.7202  2.7619 -0.3026
  398MPD2    H2 6003   3.063   3.571   0.209 -0.4563 -0.4044 -0.1035
  398MPD2    H3 6004   2.848   3.619   0.295  0.8874  0.3822 -0.5325
  398MPD2     N 6005   3.008   3.679   0.721 -0.5006  0.1430  0.1389
  398MPD2    H5 6006   3.096   3.687   0.772 -1.2154  0.2147  1.3453
  398MPD2    N1 6007   3.289   3.528   0.368  0.1026  0.5340 -0.6025
  398MPD2    H7 6008   3.353   3.505   0.443 -1.5046  1.7581  1.1481
  399TMC3    C1 6009   3.445   3.404   0.250 -0.2430  0.4377  0.0398
  399TMC3    C2 6010   3.548   3.449   0.324 -0.5003 -0.4442  0.1151
  399TMC3    C3 6011   3.657   3.369   0.342 -0.1517  0.0240  0.1638
  399TMC3    C4 6012   3.440   3.277   0.197  0.1526 -0.3419  0.3713
  399TMC3    C5 6013   3.548   3.201   0.218  0.2107  0.1770 -0.6718
  399TMC3    C6 6014   3.654   3.242   0.292  0.0966 -0.1317  0.0704
  399TMC3     C 6015   3.322   3.478   0.241  0.4397 -0.9420  0.5609
  399TMC3     O 6016   3.250   3.454   0.147  0.0716 -0.5179  0.1407
  399TMC3     H 6017   3.541   3.549   0.366  0.1125 -1.4444  2.6109
  399TMC3    H1 6018   3.344   3.246   0.159 -0.4773 -0.7154  2.3065
  399TMC3    H2 6019   3.725   3.170   0.332 -1.4774 -1.4658  0.4589
  399TMC3    C7 6020   3.550   3.075   0.156  0.1736 -0.2729 -0.8117
  399TMC3    C8 6021   3.756   3.411   0.440  0.2921  0.2723  0.5408
  399TMC3    O1 6022   3.636   3.000   0.210 -0.1026  0.4561  0.0965
  399TMC3    O2 6023   3.704   3.475   0.530  0.2087 -0.2490 -0.1175
  400TMC3    C1 6024   1.903   1.645  16.887 -0.1581 -0.3552  0.3142
  400TMC3    C2 6025   1.805   1.557  16.881 -0.1661 -0.4303  0.6819
  400TMC3    C3 6026   1.677   1.597  16.871  0.7282  0.4257  0.4524
  400TMC3    C4 6027   1.873   1.778  16.865 -0.1050  0.2396  0.7668
  400TMC3    C5 6028   1.745   1.821  16.847 -0.7290  0.2715 -0.2963
  400TMC3    C6 6029   1.638   1.727  16.848  0.8144  0.6271 -0.1015
  400TMC3     C 6030   2.010   1.615  16.984 -0.2881 -0.1708 -0.3727
  400TMC3     O 6031   1.993   1.531  17.070 -0.2041  0.9377  0.2179
  400TMC3     H 6032   1.830   1.454  16.903  3.0891 -0.0126 -0.9816
  400TMC3    H1 6033   1.953   1.848  16.886  2.2684 -2.0036 -0.9596
  400TMC3    H2 6034   1.533   1.753  16.852  0.5539 -0.4868  0.2252
  400TMC3    C7 6035   1.715   1.956  16.824  0.6902  0.9986 -0.3494
  400TMC3    C8 6036   1.573   1.498  16.895 -0.8949 -0.1472 -0.1641
  400TMC3    O1 6037   1.597   1.987  16.806  0.6650  0.6224  0.0532
  400TMC3    O2 6038   1.587   1.414  16.985 -0.1038  0.4545  0.1164
  401MPD2     C 6039   4.516   0.195  17.599  0.3351 -0.1381 -0.0655
  401MPD2    C1 6040   4.558   0.142  17.723 -0.2139  0.3437 -0.0713
  401MPD2    C2 6041   4.555   0.008   0.001 -0.1939 -0.6901  0.8380
  401MPD2    C3 6042   4.510   4.663  17.649 -0.6332  0.0673  0.8957
  401MPD2    C4 6043   4.454   4.712  17.530  0.2889 -0.6704  0.1603
  401MPD2    C5 6044   4.463   0.108  17.510  0.1747 -0.2618 -0.2900
  401MPD2     H 6045   4.599   4.713   0.095  1.5623 -0.2213  0.1743
  401MPD2    H1 6046   4.396   4.659  17.456  0.0608 -1.3830  0.8500
  401MPD2    H2 6047   4.520   0.301  17.579 -0.5235  0.2370  1.7862
  401MPD2    H3 6048   4.408   0.153  17.429  1.6659  0.5683 -0.8370
  401MPD2     N 6049   4.512   4.525  17.684  0.4909 -0.0959  0.9400
  401MPD2    H5 6050   4.542   4.500   0.027  1.4182  1.1615  0.9774
  401MPD2    N1 6051   4.632   0.215   0.076 -0.1497  0.2507 -0.2006
  401MPD2    H7 6052   4.668   0.159   0.153  0.2821 -0.7113 -1.0990
  402TMC3    C1 6053   4.472   4.296  17.669 -0.2535  0.2450  0.8991
  402TMC3    C2 6054   4.446   4.304   0.055 -0.0372 -0.1677 -0.0707
  402TMC3    C3 6055   4.499   4.211   0.139 -0.4005 -0.3522  0.5182
  402TMC3    C4 6056   4.563   4.203  17.628 -0.1287 -0.0128  0.3032
  402TMC3    C5 6057   4.619   4.122  17.722 -0.0475  0.0494  0.0334
  402TMC3    C6 6058   4.584   4.118   0.099 -0.4406 -0.5832 -0.4667
  402TMC3     C 6059   4.471   4.427  17.598 -0.2527 -0.1423  0.2233
  402TMC3     O 6060   4.457   4.428  17.476  0.0725 -0.0163  0.2402
  402TMC3     H 6061   4.369   4.370   0.092  0.2893 -0.0560  0.4032
  402TMC3    H1 6062   4.606   4.211  17.529  1.9401 -1.0506  1.1082
  402TMC3    H2 6063   4.621   4.043   0.167 -0.8545  0.0523  0.4541
  402TMC3    C7 6064   0.001   4.035  17.694 -0.7105 -0.4109 -0.4567
  402TMC3    C8 6065   4.541   4.262   0.278  0.2954 -0.0185 -0.2555
  402TMC3    O1 6066   0.018   3.988  17.580 -0.0947  0.5949 -0.0886
  402TMC3    O2 6067   4.626   4.192   0.333 -0.5348 -0.4487  0.3685
  403MPD2     C 6068   2.864   3.694  13.664  0.1920 -0.3761 -0.5816
  403MPD2    C1 6069   2.967   3.610  13.704 -0.9692 -0.1880 -0.1744
  403MPD2    C2 6070   3.082   3.674  13.757 -0.2869  0.1550 -0.0122
  403MPD2    C3 6071   3.100   3.810  13.757 -0.0290 -0.2676 -0.5409
  403MPD2    C4 6072   3.000   3.888  13.712 -0.4871  0.2847 -0.4413
  403MPD2    C5 6073   2.888   3.828  13.679 -0.0756 -0.1807  0.6622
  403MPD2     H 6074   3.168   3.612  13.780 -0.0419  0.3323 -0.4465
  403MPD2    H1 6075   3.005   3.997  13.706  0.6165  0.3630  1.6527
  403MPD2    H2 6076   2.769   3.653  13.632 -0.4881 -0.0189  0.9972
  403MPD2    H3 6077   2.809   3.898  13.654  0.4778  0.3101  0.2953
  403MPD2     N 6078   3.227   3.864  13.784  0.1985  0.0872  0.1057
  403MPD2    H5 6079   3.289   3.801  13.834  0.2622 -0.6204 -0.8882
  403MPD2    N1 6080   2.961   3.467  13.691  0.2100 -0.1017 -0.2839
  403MPD2    H7 6081   2.895   3.431  13.622 -0.8028 -0.2651  0.7725
  404TMC3    C1 6082   3.061   3.255  13.683  0.3134  0.0604  0.0849
  404TMC3    C2 6083   3.147   3.178  13.756 -0.0703  0.4020  0.4121
  404TMC3    C3 6084   3.230   3.098  13.685  0.3129 -0.3299  0.1211
  404TMC3    C4 6085   3.064   3.258  13.544  0.7565 -0.4146 -0.1959
  404TMC3    C5 6086   3.165   3.194  13.477  0.3747  0.2555 -0.3311
  404TMC3    C6 6087   3.251   3.109  13.549 -0.0352 -0.9948 -0.5986
  404TMC3     C 6088   3.036   3.378  13.753 -0.7294 -0.3056 -0.5609
  404TMC3     O 6089   3.090   3.384  13.863 -0.3531 -0.2822 -0.2010
  404TMC3     H 6090   3.122   3.175  13.861 -0.0576 -1.2718  0.3533
  404TMC3    H1 6091   3.005   3.325  13.482  1.7548 -1.9788 -2.8163
  404TMC3    H2 6092   3.315   3.039  13.497  0.1719 -0.3744 -1.1710
  404TMC3    C7 6093   3.131   3.159  13.339  0.1436  0.1320  0.2342
  404TMC3    C8 6094   3.317   3.017  13.764  0.2318 -0.1261 -0.3210
  404TMC3    O1 6095   3.128   3.043  13.296  0.0813  0.8030  0.4445
  404TMC3    O2 6096   3.410   2.963  13.704 -0.7070 -0.6605  0.3928
  405MPD2     C 6097   3.929   3.974  14.963 -0.1898 -0.0880  0.3367
  405MPD2    C1 6098   3.960   3.920  14.839 -0.2881 -0.4024 -0.1483
  405MPD2    C2 6099   3.951   3.995  14.724 -0.4498 -0.5934  0.3356
  405MPD2    C3 6100   3.896   4.123  14.735 -0.5011  0.0967  0.3833
  405MPD2    C4 6101   3.868   4.173  14.865 -0.0900  0.8187 -1.0016
  405MPD2    C5 6102   3.874   4.098  14.976  0.0701 -0.4118 -0.4116
  405MPD2     H 6103   3.982   3.960  14.626 -1.7800  0.8945 -0.6033
  405MPD2    H1 6104   3.835   4.274  14.887  0.4080  0.9818 -0.9987
  405MPD2    H2 6105   3.945   3.921  15.057 -0.1407  0.3253  0.5627
  405MPD2    H3 6106   3.846   4.120  15.078  2.6138 -1.0100  0.3963
  405MPD2     N 6107   3.880   4.202  14.617  0.8203  0.5298  0.5718
  405MPD2    H5 6108   3.920   4.150  14.539  0.1747 -0.9836  1.2651
  405MPD2    N1 6109   4.004   3.788  14.842 -0.2162 -0.1534  0.1090
  405MPD2    H7 6110   4.013   3.746  14.933  1.2887  2.2214  1.0654
  406TMC3    C1 6111   3.549   4.395  14.355 -0.6388  0.0408  0.8267
  406TMC3    C2 6112   3.533   4.275  14.286 -0.3215 -0.1167 -0.2824
  406TMC3    C3 6113   3.627   4.186  14.302  0.2914 -0.1515 -0.5999
  406TMC3    C4 6114   3.657   4.419  14.437 -0.2137 -0.3457  0.6890
  406TMC3    C5 6115   3.753   4.323  14.456  0.4697  0.1954  0.0968
  406TMC3    C6 6116   3.737   4.206  14.380  0.2028  0.8356  0.6324
  406TMC3     C 6117   3.424   4.462  14.401  0.0605  0.1305  0.3572
  406TMC3     O 6118   3.424   4.558  14.474  0.2352  0.7014 -0.5615
  406TMC3     H 6119   3.455   4.265  14.212  0.0954 -1.1360 -0.5919
  406TMC3    H1 6120   3.645   4.513  14.490 -0.1844 -1.1972  2.1891
  406TMC3    H2 6121   3.816   4.134  14.398  1.0412  0.9509 -2.6167
  406TMC3    C7 6122   3.794   4.307  14.596  0.4962  1.3215 -0.6207
  406TMC3    C8 6123   3.593   4.057  14.241 -0.1295 -0.0879  0.1147
  406TMC3    O1 6124   3.755   4.386  14.679  0.1858  0.4353 -0.3151
  406TMC3    O2 6125   3.508   4.045  14.159  0.0436  0.5973  0.2894
  407MPD2     C 6126   0.950   0.892  10.309  0.0771 -0.0948 -0.0799
  407MPD2    C1 6127   1.081   0.898  10.303  0.3421  0.6397  0.1007
  407MPD2    C2 6128   1.157   0.990  10.374  0.1457  0.5866  0.3948
  407MPD2    C3 6129   1.088   1.074  10.463  0.7369  0.7377 -0.4508
  407MPD2    C4 6130   0.954   1.082  10.462 -0.2701  0.3348 -0.3156
  407MPD2    C5 6131   0.883   0.989  10.386  0.2539 -0.2475 -0.4608
  407MPD2     H 6132   1.266   0.987  10.376  0.1421 -0.4080 -1.4695
  407MPD2    H1 6133   0.905   1.161  10.517 -0.5462 -0.6956  0.9274
  407MPD2    H2 6134   0.887   0.827  10.250  0.9057  0.1407 -1.2225
  407MPD2    H3 6135   0.775   0.997  10.391  0.3068  0.8083 -0.9257
  407MPD2     N 6136   1.152   1.173  10.545 -0.6442 -0.3450  0.0622
  407MPD2    H5 6137   1.090   1.235  10.595  0.0345  0.4391 -0.0804
  407MPD2    N1 6138   1.148   0.824  10.205 -0.4028 -0.3145 -0.4013
  407MPD2    H7 6139   1.244   0.853  10.187 -0.8218  0.8811 -0.6574
  408TMC3    C1 6140   1.205   0.691  10.018 -0.6000 -0.2060 -0.0717
  408TMC3    C2 6141   1.223   0.560  10.000 -0.2090  0.5588  0.5097
  408TMC3    C3 6142   1.322   0.536   9.902 -0.4420 -0.2436 -1.0570
  408TMC3    C4 6143   1.284   0.796   9.972  0.3330  0.2250 -0.3304
  408TMC3    C5 6144   1.379   0.762   9.883 -0.1638  0.0247  0.4299
  408TMC3    C6 6145   1.395   0.634   9.839 -0.1978  0.8109 -0.3890
  408TMC3     C 6146   1.099   0.725  10.119 -0.5615  0.2589 -0.5455
  408TMC3     O 6147   0.998   0.655  10.121  0.0703  0.1292 -0.0120
  408TMC3     H 6148   1.144   0.492  10.028 -0.2537  0.9582  1.3719
  408TMC3    H1 6149   1.252   0.899   9.984  2.2128  0.9877 -1.9431
  408TMC3    H2 6150   1.458   0.604   9.756 -0.1641 -0.6213  0.1449
  408TMC3    C7 6151   1.483   0.858   9.853 -0.9809  0.1687 -0.3242
  408TMC3    C8 6152   1.415   0.439   9.949  0.3237 -0.6833 -0.4330
  408TMC3    O1 6153   1.593   0.816   9.823 -0.0024  0.0998  0.0401
  408TMC3    O2 6154   1.371   0.324   9.982  0.4803  0.1349  0.1130
  409MPD2     C 6155   0.639   1.369  17.131  0.7356 -1.1163  0.2059
  409MPD2    C1 6156   0.758   1.309  17.163 -0.2506  0.2900  0.0225
  409MPD2    C2 6157   0.873   1.370  17.116  0.0740  0.1189 -0.3952
  409MPD2    C3 6158   0.866   1.484  17.035 -0.5073  0.1349 -0.5192
  409MPD2    C4 6159   0.748   1.540  16.997 -0.7157  0.0193 -1.1153
  409MPD2    C5 6160   0.637   1.481  17.047  0.4002  0.0618 -0.4525
  409MPD2     H 6161   0.963   1.315  17.138 -0.5178 -0.4097  0.7360
  409MPD2    H1 6162   0.746   1.628  16.933  1.0310 -0.4865 -1.8589
  409MPD2    H2 6163   0.544   1.339  17.174  0.2395  1.9966  1.2539
  409MPD2    H3 6164   0.542   1.529  17.027  0.4169  1.0854  1.8414
  409MPD2     N 6165   0.984   1.561  17.016 -0.0713  0.7572  0.4632
  409MPD2    H5 6166   0.985   1.652  16.970  1.4816 -0.5556 -2.0826
  409MPD2    N1 6167   0.786   1.201  17.248 -0.4456  0.0664 -0.5093
  409MPD2    H7 6168   0.883   1.171  17.252 -0.4906 -0.3942 -2.8265
  410TMC3    C1 6169   1.197   1.649  17.022  0.5604 -0.5552  0.1020
  410TMC3    C2 6170   1.300   1.675  17.104  0.0298 -0.1002 -0.0860
  410TMC3    C3 6171   1.363   1.795  17.087 -0.2006 -0.2274 -0.5135
  410TMC3    C4 6172   1.167   1.718  16.911 -0.0670  0.0682 -0.4495
  410TMC3    C5 6173   1.243   1.832  16.890 -0.0708  0.8061  0.1149
  410TMC3    C6 6174   1.339   1.879  16.980  0.4508  0.1784 -0.0875
  410TMC3     C 6175   1.106   1.542  17.068  0.3565  0.0622  0.1095
  410TMC3     O 6176   1.142   1.467  17.160 -0.4209  0.4459  0.3552
  410TMC3     H 6177   1.324   1.609  17.187  1.5974  0.0644 -0.4036
  410TMC3    H1 6178   1.102   1.666  16.841 -1.4728  0.8620  0.2527
  410TMC3    H2 6179   1.389   1.974  16.967  1.8093 -0.1490  2.7331
  410TMC3    C7 6180   1.195   1.900  16.772  0.5068 -1.2434 -0.5872
  410TMC3    C8 6181   1.486   1.825  17.152 -0.2309 -0.5652 -0.2510
  410TMC3    O1 6182   1.088   1.865  16.722  0.4535  0.2769  0.6124
  410TMC3    O2 6183   1.551   1.915  17.107  0.2955 -0.2356 -0.3575
  411MPD2     C 6184   1.555   1.870  14.763  0.3662  0.1636 -0.6404
  411MPD2    C1 6185   1.440   1.919  14.816  0.2006 -0.0764 -0.1460
  411MPD2    C2 6186   1.330   1.837  14.819  0.0923  0.1251 -0.3538
  411MPD2    C3 6187   1.331   1.713  14.759  0.4112  0.5274 -0.2621
  411MPD2    C4 6188   1.446   1.661  14.714  0.4858  0.4872 -0.2975
  411MPD2    C5 6189   1.555   1.739  14.722  0.4221  0.3480 -0.0060
  411MPD2     H 6190   1.232   1.872  14.848  0.0190 -1.6445  1.5180
  411MPD2    H1 6191   1.458   1.561  14.674 -0.7453  0.2584 -0.0842
  411MPD2    H2 6192   1.649   1.924  14.764 -0.8283  2.2546 -0.7645
  411MPD2    H3 6193   1.652   1.706  14.684 -0.4605 -1.5605 -0.5631
  411MPD2     N 6194   1.219   1.631  14.749 -0.0078 -0.0894  0.6228
  411MPD2    H5 6195   1.222   1.554  14.683 -0.6757  0.8184 -0.4852
  411MPD2    N1 6196   1.438   2.051  14.854  0.1858 -0.1473 -1.3591
  411MPD2    H7 6197   1.509   2.113  14.817 -0.4476  0.9885 -0.6637
  412TMC3    C1 6198   0.995   1.560  14.750  0.6929 -0.1608  0.0689
  412TMC3    C2 6199   0.864   1.609  14.749 -0.4115 -0.7946 -0.4963
  412TMC3    C3 6200   0.775   1.532  14.679 -0.6124  0.2307 -0.5051
  412TMC3    C4 6201   1.037   1.443  14.693  0.2085 -0.0152 -0.2760
  412TMC3    C5 6202   0.935   1.369  14.638  0.0408  0.2105  0.1883
  412TMC3    C6 6203   0.810   1.411  14.626 -0.0324 -0.1372 -0.2457
  412TMC3     C 6204   1.096   1.662  14.795  0.7103  0.1667  0.1901
  412TMC3     O 6205   1.046   1.757  14.858 -0.0279  0.1640  0.0011
  412TMC3     H 6206   0.832   1.704  14.790 -1.4768 -1.4604  0.2280
  412TMC3    H1 6207   1.139   1.409  14.699  0.5876  1.4414  1.5615
  412TMC3    H2 6208   0.728   1.351  14.589 -0.0677 -0.0941 -0.2377
  412TMC3    C7 6209   0.978   1.254  14.570 -0.1049  0.3277  0.1933
  412TMC3    C8 6210   0.682   1.610  14.607  0.0423  0.7556 -0.0425
  412TMC3    O1 6211   1.078   1.197  14.613 -0.2672  0.1160  0.5907
  412TMC3    O2 6212   0.604   1.689  14.660  0.2171 -0.0807  0.4235
  413MPD2     C 6213   2.822   0.130  16.030  0.0744  0.4524 -0.4068
  413MPD2    C1 6214   2.805   0.147  15.890  0.2934  0.0140 -0.2206
  413MPD2    C2 6215   2.909   0.128  15.809  0.0277  0.0867  0.5159
  413MPD2    C3 6216   3.026   0.071  15.859 -0.2054 -0.2404  0.4061
  413MPD2    C4 6217   3.045   0.050  15.997 -0.2751 -0.3459 -0.6373
  413MPD2    C5 6218   2.936   0.080  16.076  0.2322  0.5363  0.4586
  413MPD2     H 6219   2.902   0.158  15.705  0.9752 -1.9404 -0.1397
  413MPD2    H1 6220   3.140   0.012  16.035 -0.6349 -0.8568 -0.2504
  413MPD2    H2 6221   2.741   0.148  16.100 -0.7807  1.7438 -1.7433
  413MPD2    H3 6222   2.950   0.080  16.184  1.1092 -1.7109  0.3409
  413MPD2     N 6223   3.126   0.045  15.766 -0.5713  0.5677 -0.5416
  413MPD2    H5 6224   3.093   0.079  15.676 -0.2018  1.4963 -0.3300
  413MPD2    N1 6225   2.675   0.170  15.846 -0.2285 -0.0079 -0.6005
  413MPD2    H7 6226   2.598   0.189  15.909 -0.5015 -0.4149 -0.8071
  414TMC3    C1 6227   3.308   4.695  15.659 -0.3006 -0.5332 -0.2898
  414TMC3    C2 6228   3.364   4.571  15.649 -0.2154  0.3270 -0.2052
  414TMC3    C3 6229   3.347   4.502  15.532  0.5966  0.0060 -0.0973
  414TMC3    C4 6230   3.249   0.018  15.550 -0.1333 -0.7422 -0.6723
  414TMC3    C5 6231   3.217   4.676  15.441 -0.1180 -0.5874  0.3950
  414TMC3    C6 6232   3.261   4.547  15.435 -0.2916  0.0271  0.0191
  414TMC3     C 6233   3.243   4.723  15.790 -0.0691  0.2897  0.0551
  414TMC3     O 6234   3.290   4.658  15.886  0.0743 -0.6011 -0.4041
  414TMC3     H 6235   3.416   4.535  15.737 -0.6155  1.2498  0.4108
  414TMC3    H1 6236   3.210   0.119  15.555 -0.0841 -0.6649 -1.9616
  414TMC3    H2 6237   3.241   4.485  15.348 -0.7662  0.6913 -0.3398
  414TMC3    C7 6238   3.083   4.722  15.399  0.5860  0.1686 -0.3659
  414TMC3    C8 6239   3.415   4.380  15.498 -0.6621  0.3175 -0.3838
  414TMC3    O1 6240   3.015   0.037  15.486  0.5224  0.5533  0.1212
  414TMC3    O2 6241   3.360   4.289  15.431 -0.1105  0.0386  0.0221
  415TMC3    C1 6242   2.957   2.987  10.664 -0.1441 -0.0082 -1.2133
  415TMC3    C2 6243   3.076   3.006  10.610 -0.4189  0.0904 -0.0990
  415TMC3    C3 6244   3.087   3.031  10.473  0.6727 -0.1572  0.2399
  415TMC3    C4 6245   2.840   3.005  10.591 -0.1889  0.4337  0.7273
  415TMC3    C5 6246   2.858   3.053  10.465 -0.1144 -0.2440  0.4233
  415TMC3    C6 6247   2.979   3.070  10.398 -0.1545  0.6947 -0.0252
  415TMC3     C 6248   2.937   2.883  10.765  0.6408  0.1341 -0.0753
  415TMC3     O 6249   2.828   2.824  10.759 -0.2938 -0.2483 -0.4035
  415TMC3     H 6250   3.172   2.970  10.645  0.7406  1.3249 -1.9943
  415TMC3    H1 6251   2.741   2.981  10.627 -0.3040  1.0395  0.8237
  415TMC3    H2 6252   2.983   3.097  10.293  1.1399  2.1670  0.3951
  415TMC3    C7 6253   2.743   3.095  10.382 -0.3629 -0.1802  0.1429
  415TMC3    C8 6254   3.219   3.046  10.409 -0.0028  0.4000 -0.9566
  415TMC3    O1 6255   2.750   3.192  10.312  0.7798  0.2039 -0.0842
  415TMC3    O2 6256   3.313   3.084  10.473 -0.0786  0.1367 -0.2063
  416MPD2     C 6257   0.602   1.844  11.720  0.3854 -0.3755 -0.0046
  416MPD2    C1 6258   0.484   1.817  11.654 -0.9727 -0.2914  0.2586
  416MPD2    C2 6259   0.499   1.784  11.527 -0.0527 -0.9297 -0.0065
  416MPD2    C3 6260   0.616   1.758  11.467  0.5415 -0.0763  0.0555
  416MPD2    C4 6261   0.733   1.793  11.534 -0.7557 -0.1050 -0.1693
  416MPD2    C5 6262   0.728   1.837  11.664 -0.1105  0.6711  0.6943
  416MPD2     H 6263   0.409   1.769  11.468  1.2609  0.0967 -2.3047
  416MPD2    H1 6264   0.832   1.800  11.488 -0.5920 -2.2318 -0.1540
  416MPD2    H2 6265   0.589   1.852  11.827 -0.2389  1.5393 -0.2183
  416MPD2    H3 6266   0.825   1.853  11.709  1.4032 -0.7051 -2.0344
  416MPD2     N 6267   0.626   1.723  11.330  0.0617 -0.0835 -0.1487
  416MPD2    H5 6268   0.542   1.726  11.274  0.0099  0.4470 -0.0425
  416MPD2    N1 6269   0.362   1.833  11.724  0.0664  0.5226  0.2945
  416MPD2    H7 6270   0.367   1.848  11.824 -1.5674 -2.3427  0.7842
  417TMC3    C1 6271   0.135   1.843  11.772 -0.1375 -0.1068 -0.9108
  417TMC3    C2 6272   0.122   1.792  11.895 -0.5273 -0.0895 -1.0692
  417TMC3    C3 6273   0.010   1.828  11.966 -0.3533  0.2967 -0.1828
  417TMC3    C4 6274   0.056   1.937  11.720  0.1302  0.0272 -0.5971
  417TMC3    C5 6275   4.686   1.974  11.796  0.3553  0.1032 -0.1648
  417TMC3    C6 6276   4.655   1.913  11.918 -0.3098  0.7472 -0.1298
  417TMC3     C 6277   0.241   1.800  11.680  0.3357  0.2012  0.0507
  417TMC3     O 6278   0.210   1.773  11.562 -0.0085  0.4646  0.2819
  417TMC3     H 6279   0.193   1.714  11.918 -0.4547 -0.0421 -1.1318
  417TMC3    H1 6280   0.076   1.971  11.620  1.0459 -0.5383 -0.6056
  417TMC3    H2 6281   4.570   1.947  11.977 -0.4086 -1.1388  0.7866
  417TMC3    C7 6282   4.620   2.089  11.745 -0.1284  0.7977 -0.2766
  417TMC3    C8 6283   0.002   1.808  12.110 -0.2258 -0.5185  0.0698
  417TMC3    O1 6284   4.689   2.140  11.658 -0.8396 -0.3508 -0.2521
  417TMC3    O2 6285   4.641   1.851  12.167 -0.0539 -0.0153  0.0033
  418TMC3    C1 6286   3.008   3.958   0.995  0.2613  0.3639  1.1241
  418TMC3    C2 6287   2.918   3.884   0.921  0.6264 -0.7605 -0.6550
  418TMC3    C3 6288   2.927   3.749   0.911  0.0128 -0.2091  0.3442
  418TMC3    C4 6289   3.111   3.891   1.065 -0.4800 -0.3043  0.1521
  418TMC3    C5 6290   3.113   3.756   1.054 -0.0044 -0.2419  0.5547
  418TMC3    C6 6291   3.035   3.687   0.966  0.0247  0.3083 -0.3424
  418TMC3     C 6292   3.050   4.078   0.919  0.6464 -0.2212  0.2575
  418TMC3     O 6293   2.997   4.095   0.808  0.1311  0.2543 -0.1246
  418TMC3     H 6294   2.842   3.939   0.867 -0.5613 -2.2382 -0.4962
  418TMC3    H1 6295   3.199   3.933   1.113 -1.0486 -0.1892  1.1084
  418TMC3    H2 6296   3.037   3.579   0.955  3.3339  0.2797  0.3677
  418TMC3    C7 6297   3.219   3.676   1.111 -0.0286  0.9788  0.1705
  418TMC3    C8 6298   2.890   3.699   0.782  0.1966  0.7383 -0.0217
  418TMC3    O1 6299   3.251   3.582   1.043 -0.3437  0.4023 -0.4306
  418TMC3    O2 6300   2.776   3.705   0.741 -0.5669  0.5345 -0.5142
  419MPD2     C 6301   2.285   1.700  13.029  0.1082  0.4884 -0.2772
  419MPD2    C1 6302   2.206   1.813  13.033  0.1170 -0.3441  0.9568
  419MPD2    C2 6303   2.248   1.934  13.085  0.0174 -1.1993  0.4056
  419MPD2    C3 6304   2.379   1.937  13.137 -0.6081  0.1535 -0.2059
  419MPD2    C4 6305   2.449   1.819  13.146  0.4318  0.0083  0.4859
  419MPD2    C5 6306   2.409   1.707  13.082 -0.1811 -0.2156 -0.0006
  419MPD2     H 6307   2.192   2.026  13.092  0.4110 -0.7700 -2.1724
  419MPD2    H1 6308   2.534   1.820  13.213  0.4390  0.8655  0.4646
  419MPD2    H2 6309   2.248   1.606  12.988 -2.8811  1.9875 -1.0114
  419MPD2    H3 6310   2.461   1.613  13.094  0.1925  0.0326  0.3142
  419MPD2     N 6311   2.419   2.066  13.178 -0.4486 -0.4744  0.0225
  419MPD2    H5 6312   2.351   2.140  13.163  2.0805  2.1789  1.6378
  419MPD2    N1 6313   2.089   1.825  12.955  0.3676  0.0243  0.2060
  419MPD2    H7 6314   2.043   1.914  12.970 -1.1148 -0.7321  0.2471
  420TMC3    C1 6315   2.525   2.250  13.241 -0.4107  0.1320  0.9857
  420TMC3    C2 6316   2.427   2.324  13.185  0.0072  0.2906  0.3148
  420TMC3    C3 6317   2.408   2.452  13.214  0.4101  0.6988  0.3889
  420TMC3    C4 6318   2.620   2.309  13.320 -0.1849  0.1560 -0.0059
  420TMC3    C5 6319   2.596   2.440  13.358 -0.2016 -0.3121 -0.1275
  420TMC3    C6 6320   2.491   2.514  13.305 -0.0171  1.2726 -0.0163
  420TMC3     C 6321   2.537   2.110  13.222 -0.1124 -0.0277  0.2348
  420TMC3     O 6322   2.638   2.045  13.242 -0.7842  0.7230 -0.2968
  420TMC3     H 6323   2.367   2.287  13.103  0.0776  1.6221 -0.3498
  420TMC3    H1 6324   2.702   2.249  13.358  1.0043  1.9733  0.3034
  420TMC3    H2 6325   2.474   2.617  13.333 -1.7176  0.9159  0.2705
  420TMC3    C7 6326   2.662   2.484  13.479 -0.5694 -0.7311  0.2255
  420TMC3    C8 6327   2.345   2.530  13.108  0.2369  0.5540  0.3754
  420TMC3    O1 6328   2.753   2.417  13.526 -0.1602 -0.1240 -0.6877
  420TMC3    O2 6329   2.254   2.483  13.041 -0.1308 -0.4879 -0.4235
  421TMC3    C1 6330   3.421   4.008  13.792  0.5032 -0.2564  0.1985
  421TMC3    C2 6331   3.453   4.128  13.851 -0.4242  0.5203 -0.0121
  421TMC3    C3 6332   3.582   4.130  13.889  0.4030 -0.1647 -0.1788
  421TMC3    C4 6333   3.499   3.896  13.776 -0.6233  0.1027  0.1978
  421TMC3    C5 6334   3.630   3.910  13.813 -0.2774  0.1476  0.3444
  421TMC3    C6 6335   3.676   4.023  13.877 -0.3369  0.4816  0.8887
  421TMC3     C 6336   3.279   3.998  13.765  0.2608  0.1208  0.2188
  421TMC3     O 6337   3.214   4.092  13.725  0.2505 -0.1146  0.4194
  421TMC3     H 6338   3.372   4.198  13.866  0.4431  1.2480  1.3171
  421TMC3    H1 6339   3.471   3.806  13.724 -1.5665 -0.3131  1.4472
  421TMC3    H2 6340   3.771   4.021  13.929 -0.3805  1.8478  1.0171
  421TMC3    C7 6341   3.717   3.791  13.810 -0.1888  0.5890 -0.2810
  421TMC3    C8 6342   3.642   4.257  13.935 -0.0005  0.4811 -0.1239
  421TMC3    O1 6343   3.826   3.824  13.858 -0.1315 -0.5024 -0.1422
  421TMC3    O2 6344   3.763   4.267  13.949 -0.0701 -0.0866  0.5066
  422TMC3    C1 6345   1.165   4.620  13.003 -0.1514 -0.2413  0.1792
  422TMC3    C2 6346   1.128   0.009  12.973 -0.1081  0.5632 -0.2683
  422TMC3    C3 6347   1.047   0.079  13.058  0.1970  0.4735 -0.3831
  422TMC3    C4 6348   1.111   4.559  13.112 -0.1760  0.4942  0.2220
  422TMC3    C5 6349   1.028   4.629  13.203 -0.2349  0.7383 -0.0771
  422TMC3    C6 6350   0.994   0.021  13.169 -0.1689 -0.2682  0.1609
  422TMC3     C 6351   1.286   4.567  12.942 -0.6554  0.2609  0.5840
  422TMC3     O 6352   1.330   4.643  12.854  0.2672  0.1395  1.1183
  422TMC3     H 6353   1.156   0.055  12.879  0.5783  1.5052  0.4001
  422TMC3    H1 6354   1.135   4.455  13.132  2.3011  0.6577 -1.9718
  422TMC3    H2 6355   0.935   0.083  13.235 -1.3740 -0.2121 -0.9623
  422TMC3    C7 6356   0.926   4.546  13.267  0.8110 -0.3238  0.2559
  422TMC3    C8 6357   0.982   0.199  13.011 -0.5320 -0.1432  0.5719
  422TMC3    O1 6358   0.947   4.424  13.274 -0.6363  0.0926 -0.2574
  422TMC3    O2 6359   0.863   0.207  13.036 -0.0139 -0.2633  0.2766
  423MPD2     C 6360   2.909   1.263   0.084 -0.1230  0.4500 -0.3968
  423MPD2    C1 6361   2.799   1.203   0.141 -0.0468  0.4171 -0.0219
  423MPD2    C2 6362   2.733   1.105   0.071  0.5555 -0.6788 -0.3782
  423MPD2    C3 6363   2.770   1.067  17.695  0.1142  0.1981 -0.4318
  423MPD2    C4 6364   2.887   1.119  17.643  0.3925 -0.2390  0.3241
  423MPD2    C5 6365   2.954   1.216  17.712  0.0580 -0.5062 -0.0680
  423MPD2     H 6366   2.645   1.067   0.121 -1.1051 -0.7201 -3.2684
  423MPD2    H1 6367   2.909   1.115  17.537  1.7331  1.7132  0.5291
  423MPD2    H2 6368   2.970   1.339   0.132  1.3265 -0.3043 -1.0124
  423MPD2    H3 6369   3.032   1.271  17.661 -0.2977 -0.8323 -0.9535
  423MPD2     N 6370   2.707   0.967  17.621  0.0249 -0.1997  0.6602
  423MPD2    H5 6371   2.756   0.928  17.541 -0.9354  1.2237 -0.6042
  423MPD2    N1 6372   2.746   1.242   0.267 -0.2040 -0.1458  0.1177
  423MPD2    H7 6373   2.669   1.190   0.306 -1.4455  1.3529 -0.3332
  424TMC3    C1 6374   2.718   1.383   0.463  0.8440  0.0268 -1.0285
  424TMC3    C2 6375   2.785   1.441   0.572 -0.0576 -0.3706 -0.8764
  424TMC3    C3 6376   2.719   1.445   0.688 -0.3065  0.4008 -0.7372
  424TMC3    C4 6377   2.593   1.330   0.470 -0.3487  0.5118 -0.1572
  424TMC3    C5 6378   2.529   1.338   0.590 -0.8590 -0.1607  0.9272
  424TMC3    C6 6379   2.588   1.395   0.701  0.3116  0.6461  0.7652
  424TMC3     C 6380   2.794   1.352   0.341 -0.6164  1.3630 -0.6243
  424TMC3     O 6381   2.888   1.428   0.322 -0.5757 -0.5643 -0.2515
  424TMC3     H 6382   2.886   1.479   0.565 -0.6931  1.1849 -1.6021
  424TMC3    H1 6383   2.535   1.290   0.387 -0.4654  0.7471 -0.1869
  424TMC3    H2 6384   2.532   1.384   0.794 -0.3983  0.1026  0.2701
  424TMC3    C7 6385   2.401   1.278   0.611  0.3656  0.3264 -0.9487
  424TMC3    C8 6386   2.796   1.446   0.805 -0.1247  0.6348  0.3495
  424TMC3    O1 6387   2.342   1.328   0.703 -0.6259  0.0675 -0.1312
  424TMC3    O2 6388   2.904   1.507   0.796 -0.3160 -0.6405  0.1392
  425MPD2     C 6389   1.219   0.189  16.560  0.7557  0.3420  0.0372
  425MPD2    C1 6390   1.280   0.120  16.662 -0.2159 -0.6146  0.1216
  425MPD2    C2 6391   1.259   0.160  16.793 -0.5661  0.0372 -0.4707
  425MPD2    C3 6392   1.164   0.255  16.826 -0.3352 -0.1056  0.1568
  425MPD2    C4 6393   1.111   0.327  16.721  0.5420  0.4722  0.5641
  425MPD2    C5 6394   1.137   0.293  16.597  0.2048  0.5036  0.1031
  425MPD2     H 6395   1.302   0.105  16.876 -0.5320 -0.0117 -0.5207
  425MPD2    H1 6396   1.031   0.399  16.732  0.9409  1.0201 -0.1420
  425MPD2    H2 6397   1.221   0.159  16.456  2.7031 -1.8793  0.7142
  425MPD2    H3 6398   1.090   0.359  16.525 -0.7610 -0.6491 -0.2995
  425MPD2     N 6399   1.142   0.293  16.960  0.0230  0.4049  0.4069
  425MPD2    H5 6400   1.186   0.233  17.029  0.4582  1.2228  0.8286
  425MPD2    N1 6401   1.372   0.019  16.627 -0.0601 -0.4532  0.1660
  425MPD2    H7 6402   1.390   0.011  16.528 -0.4579 -0.7691  0.1196
  426TMC3    C1 6403   1.505   4.566  16.645 -0.6558  0.5263  0.2456
  426TMC3    C2 6404   1.468   4.536  16.518  0.1340  0.0624  0.3319
  426TMC3    C3 6405   1.556   4.455  16.451 -0.1977 -0.3718  1.1480
  426TMC3    C4 6406   1.616   4.506  16.701 -0.2415 -0.2910  0.1058
  426TMC3    C5 6407   1.695   4.422  16.633  0.6878  0.3434 -0.5154
  426TMC3    C6 6408   1.670   4.400  16.501 -0.3003 -0.5820 -0.2003
  426TMC3     C 6409   1.445   4.679  16.713  0.3116  0.7589  0.8948
  426TMC3     O 6410   1.479   4.707  16.829 -0.1808  0.2438 -0.4220
  426TMC3     H 6411   1.388   4.586  16.465  1.8009 -1.0404 -3.2571
  426TMC3    H1 6412   1.641   4.537  16.801  0.6973  1.4529 -0.6710
  426TMC3    H2 6413   1.740   4.349  16.436 -0.2848 -0.0198 -0.6195
  426TMC3    C7 6414   1.785   4.343  16.705 -0.6917 -0.4177  0.4911
  426TMC3    C8 6415   1.529   4.414  16.317  0.2622 -0.5939  1.1253
  426TMC3    O1 6416   1.884   4.295  16.649 -0.5033  0.4250  0.1003
  426TMC3    O2 6417   1.633   4.386  16.253  0.1921 -0.3961 -0.4172
  427MPD2     C 6418   0.686   2.247  14.865  0.9323  0.4838 -0.1269
  427MPD2    C1 6419   0.589   2.208  14.959  0.5623  0.5902 -0.0735
  427MPD2    C2 6420   0.459   2.196  14.910  0.4647  0.6579 -0.4789
  427MPD2    C3 6421   0.413   2.232  14.789 -0.5039 -0.7436  0.3824
  427MPD2    C4 6422   0.511   2.278  14.707  0.0775  0.0574 -0.3627
  427MPD2    C5 6423   0.645   2.280  14.742 -0.2667 -0.1892  0.0988
  427MPD2     H 6424   0.381   2.160  14.977 -0.3587  2.7964 -0.2928
  427MPD2    H1 6425   0.480   2.312  14.609  0.1495 -0.6946 -0.6457
  427MPD2    H2 6426   0.793   2.240  14.884  1.0608  0.9954 -0.6675
  427MPD2    H3 6427   0.714   2.316  14.667 -0.8962 -1.4547 -1.0895
  427MPD2     N 6428   0.276   2.215  14.759  0.0348 -0.0200 -0.3782
  427MPD2    H5 6429   0.218   2.178  14.834  0.9689  0.9404  0.8340
  427MPD2    N1 6430   0.613   2.181  15.090 -0.1007 -0.3024 -0.1984
  427MPD2    H7 6431   0.533   2.167  15.151  0.3032 -1.3520  0.1067
  428TMC3    C1 6432   0.724   2.147  15.290 -0.0060 -0.2401  0.1379
  428TMC3    C2 6433   0.607   2.093  15.347 -0.5904 -0.2224 -0.1428
  428TMC3    C3 6434   0.602   2.093  15.480  0.7694  0.3365 -0.1523
  428TMC3    C4 6435   0.837   2.193  15.356  0.7318 -0.8049  0.6897
  428TMC3    C5 6436   0.830   2.175  15.491  0.2863  0.0549 -0.2213
  428TMC3    C6 6437   0.712   2.134  15.557  0.1916 -0.8190 -0.1722
  428TMC3     C 6438   0.735   2.172  15.147  0.4631 -0.4544 -0.0157
  428TMC3     O 6439   0.842   2.186  15.096  0.7656 -1.0943  0.9355
  428TMC3     H 6440   0.522   2.056  15.291 -0.5347 -1.4862  0.6131
  428TMC3    H1 6441   0.926   2.224  15.304  0.0021 -0.2436 -0.2041
  428TMC3    H2 6442   0.716   2.108  15.662  2.2969 -0.2523 -0.1080
  428TMC3    C7 6443   0.931   2.198  15.590  0.0691 -0.2914 -0.2595
  428TMC3    C8 6444   0.490   2.013  15.540 -0.0708 -0.7085  0.3330
  428TMC3    O1 6445   0.904   2.190  15.711  0.3373  0.1140  0.1311
  428TMC3    O2 6446   0.421   1.955  15.453  0.1457  0.0804 -0.7594
  429MPD2     C 6447   1.438   2.295   0.021  0.2137  0.2302 -0.1928
  429MPD2    C1 6448   1.531   2.216  17.703 -0.3413 -0.5707 -0.1070
  429MPD2    C2 6449   1.624   2.269  17.617 -0.5087  0.0895 -0.1547
  429MPD2    C3 6450   1.619   2.406  17.594  0.8219  0.4390  0.0541
  429MPD2    C4 6451   1.531   2.481  17.658  0.0037  0.3776 -0.2876
  429MPD2    C5 6452   1.440   2.426  17.747 -0.6138  0.5629  0.1255
  429MPD2     H 6453   1.695   2.200  17.573 -1.5728 -1.4295  0.4884
  429MPD2    H1 6454   1.522   2.589  17.648  2.7105  0.7298  0.9455
  429MPD2    H2 6455   1.361   2.249   0.083 -1.7036  0.7939 -2.1362
  429MPD2    H3 6456   1.368   2.493   0.045 -0.0810 -0.3707  2.2267
  429MPD2     N 6457   1.714   2.462  17.503  0.1478  0.1464 -0.4230
  429MPD2    H5 6458   1.777   2.398  17.455  2.4892  1.5427  0.7832
  429MPD2    N1 6459   1.544   2.080  17.723 -0.0915  0.8759  0.1832
  429MPD2    H7 6460   1.632   2.038  17.694 -0.8292 -0.6310  0.1241
  430TMC3    C1 6461   1.846   2.623  17.390 -0.1041  0.2237 -0.0280
  430TMC3    C2 6462   1.848   2.743  17.321 -0.2785  0.2054  0.3697
  430TMC3    C3 6463   1.935   2.771  17.221  0.4149 -1.0948  0.2524
  430TMC3    C4 6464   1.933   2.529  17.356 -0.7031 -0.7032 -0.0318
  430TMC3    C5 6465   2.026   2.550  17.256 -0.2651  0.4041 -0.4494
  430TMC3    C6 6466   2.035   2.679  17.195  0.2338  0.1283  0.3369
  430TMC3     C 6467   1.728   2.594  17.470  0.3563 -0.3343 -0.2176
  430TMC3     O 6468   1.655   2.685  17.495 -0.2628 -0.2706  0.5160
  430TMC3     H 6469   1.772   2.820  17.326 -1.0812 -0.6381  1.3207
  430TMC3    H1 6470   1.937   2.439  17.416 -1.6672  0.1015  1.2452
  430TMC3    H2 6471   2.114   2.712  17.128  0.9727 -0.2249  1.0374
  430TMC3    C7 6472   2.031   2.446  17.157 -0.2696 -0.3444  0.0528
  430TMC3    C8 6473   1.885   2.823  17.103 -0.8072 -0.2458 -0.5113
  430TMC3    O1 6474   2.057   2.335  17.208 -0.5264 -0.0269 -0.2213
  430TMC3    O2 6475   1.930   2.768  17.001 -0.1336  0.4435 -0.3415
  431MPD2     C 6476   2.646   2.194  12.907 -0.4011 -0.2709  0.8787
  431MPD2    C1 6477   2.568   2.287  12.837 -0.0501 -0.0395  0.7444
  431MPD2    C2 6478   2.448   2.244  12.787  0.0445  0.0465 -0.2360
  431MPD2    C3 6479   2.415   2.110  12.780 -0.5154  0.3448  0.4472
  431MPD2    C4 6480   2.503   2.018  12.839  0.0984 -0.3220  0.2520
  431MPD2    C5 6481   2.620   2.064  12.902  0.1625 -0.0446 -0.2796
  431MPD2     H 6482   2.384   2.323  12.750 -0.5221  1.1583  3.1268
  431MPD2    H1 6483   2.466   1.917  12.850  0.2024 -0.7045 -2.9002
  431MPD2    H2 6484   2.743   2.220  12.947 -0.8070  1.9434  0.4033
  431MPD2    H3 6485   2.680   2.000  12.966  0.1756 -0.4992 -0.7404
  431MPD2     N 6486   2.283   2.069  12.749  0.1887  0.3174  0.2102
  431MPD2    H5 6487   2.268   1.969  12.758 -0.1105  0.3973  0.5648
  431MPD2    N1 6488   2.596   2.430  12.836  0.4936 -0.2762 -0.1362
  431MPD2    H7 6489   2.538   2.486  12.775  2.0989  2.8197  1.1487
  432TMC3    C1 6490   2.084   2.042  12.640  0.1691  0.2731 -0.0642
  432TMC3    C2 6491   2.107   1.975  12.521  0.4589  0.0034 -0.0811
  432TMC3    C3 6492   2.070   1.845  12.500  0.4231  0.5980 -0.1364
  432TMC3    C4 6493   2.052   1.969  12.751 -0.0404  0.2044  0.1755
  432TMC3    C5 6494   2.017   1.840  12.734 -0.0714  0.4679 -0.7453
  432TMC3    C6 6495   2.025   1.773  12.608 -0.1894 -0.3883 -0.2171
  432TMC3     C 6496   2.191   2.133  12.673 -0.0852  0.6718 -0.0527
  432TMC3     O 6497   2.198   2.225  12.594 -0.0153  0.3219  0.9032
  432TMC3     H 6498   2.124   2.037  12.435 -2.5856  0.3119 -0.4819
  432TMC3    H1 6499   2.030   2.029  12.839 -0.7535  0.6652 -0.3236
  432TMC3    H2 6500   1.994   1.670  12.599  0.9416 -0.4766 -2.9330
  432TMC3    C7 6501   2.061   1.757  12.842  0.2741 -0.3453 -0.4023
  432TMC3    C8 6502   2.093   1.783  12.375  0.7328 -0.5145  0.4107
  432TMC3    O1 6503   2.074   1.637  12.822  0.2796 -0.6864  0.0049
  432TMC3    O2 6504   2.047   1.668  12.364  0.8789 -0.2646 -0.1920
  433MPD2     C 6505   1.206   1.129  10.939  0.4291  0.3053  0.0110
  433MPD2    C1 6506   1.264   1.022  11.000 -0.4376  0.3520  0.0553
  433MPD2    C2 6507   1.362   1.052  11.092 -0.0553 -0.3629 -0.2214
  433MPD2    C3 6508   1.397   1.190  11.125  0.7739  0.6007 -0.2717
  433MPD2    C4 6509   1.333   1.292  11.050 -0.5393  0.4376 -0.4223
  433MPD2    C5 6510   1.243   1.256  10.963 -0.5161  0.1806  0.0250
  433MPD2     H 6511   1.408   0.978  11.156 -0.3949 -1.2661 -1.0141
  433MPD2    H1 6512   1.360   1.396  11.058  1.5676 -0.3056  2.2112
  433MPD2    H2 6513   1.132   1.121  10.860 -0.2550  0.2306  0.6543
  433MPD2    H3 6514   1.201   1.334  10.900 -0.7778  0.6477  0.7732
  433MPD2     N 6515   1.512   1.206  11.210 -0.1798  0.6081  0.5617
  433MPD2    H5 6516   1.540   1.117  11.249  0.5298 -0.3642 -2.1762
  433MPD2    N1 6517   1.232   0.893  10.952  0.2190  0.4096 -0.5397
  433MPD2    H7 6518   1.147   0.887  10.897  0.7592 -0.3412 -1.2840
  434TMC3    C1 6519   1.250   0.668  10.885  0.6005 -0.0975  0.0626
  434TMC3    C2 6520   1.341   0.571  10.875 -0.0007  0.1390  0.3651
  434TMC3    C3 6521   1.291   0.449  10.843 -0.0596 -0.2828  0.5064
  434TMC3    C4 6522   1.120   0.666  10.846 -0.1621  0.2129 -0.3399
  434TMC3    C5 6523   1.077   0.541  10.818  0.6254 -0.2526 -0.2008
  434TMC3    C6 6524   1.159   0.425  10.817  0.5668 -0.2325  0.7039
  434TMC3     C 6525   1.300   0.778  10.968  0.0465 -0.3288  0.1403
  434TMC3     O 6526   1.398   0.772  11.041  0.7190  0.1764  0.7496
  434TMC3     H 6527   1.446   0.590  10.893  0.4010  0.3429 -2.2438
  434TMC3    H1 6528   1.049   0.747  10.851 -0.5025 -0.2120  1.8104
  434TMC3    H2 6529   1.120   0.330  10.783  0.5555  0.8366 -2.2758
  434TMC3    C7 6530   0.930   0.526  10.824 -0.3585  0.2155 -0.1259
  434TMC3    C8 6531   1.387   0.341  10.878  0.5273  0.2716  0.8132
  434TMC3    O1 6532   0.863   0.605  10.759 -0.0204  0.0140 -0.1948
  434TMC3    O2 6533   1.502   0.372  10.905 -0.4607  0.1312 -0.1173
  435MPD2     C 6534   3.318   0.818  15.331  0.2143  0.2667 -0.5062
  435MPD2    C1 6535   3.294   0.847  15.465  0.1571  0.1689  0.0793
  435MPD2    C2 6536   3.384   0.809  15.560  0.1712  0.2904  0.2491
  435MPD2    C3 6537   3.503   0.744  15.531  0.4676  0.1050 -0.2983
  435MPD2    C4 6538   3.531   0.714  15.398 -0.3411 -0.6192 -0.0535
  435MPD2    C5 6539   3.432   0.748  15.295  0.4590  0.2236 -0.2604
  435MPD2     H 6540   3.364   0.820  15.666  0.9696 -0.7605  0.5175
  435MPD2    H1 6541   3.627   0.670  15.369  0.3862  2.5985 -2.5514
  435MPD2    H2 6542   3.259   0.847  15.245 -1.9212  1.0119  1.2049
  435MPD2    H3 6543   3.461   0.752  15.191 -1.5838  0.2478 -0.8262
  435MPD2     N 6544   3.590   0.716  15.640  0.2585 -0.1103  0.6412
  435MPD2    H5 6545   3.576   0.769  15.725 -1.1604 -2.6347  1.9706
  435MPD2    N1 6546   3.180   0.915  15.511  0.1135  0.3930  0.0272
  435MPD2    H7 6547   3.177   0.938  15.610 -3.9559  1.2406 -0.3045
  436TMC3    C1 6548   2.892   1.162  15.659  0.1812 -0.4250  0.3049
  436TMC3    C2 6549   2.995   1.116  15.588 -0.0654 -1.3178 -0.0341
  436TMC3    C3 6550   2.969   1.024  15.491  0.6778  0.4912 -0.2100
  436TMC3    C4 6551   2.762   1.098  15.656 -0.2989  0.5376  0.3022
  436TMC3    C5 6552   2.749   1.006  15.551  0.3984  0.4268  0.6544
  436TMC3    C6 6553   2.849   0.972  15.467  0.6421 -0.7517  0.5546
  436TMC3     C 6554   2.921   1.279  15.738  0.0730 -0.5249 -0.0703
  436TMC3     O 6555   3.008   1.353  15.694  0.7942 -0.3211 -0.6454
  436TMC3     H 6556   3.096   1.155  15.602  0.0119 -0.4165 -3.0691
  436TMC3    H1 6557   2.674   1.125  15.713  0.6913  2.8644  0.7349
  436TMC3    H2 6558   2.841   0.895  15.391  0.5161  0.1956 -0.3932
  436TMC3    C7 6559   2.635   0.916  15.568 -0.4124  0.0182  0.4136
  436TMC3    C8 6560   3.075   0.947  15.428 -0.3267  0.8127 -0.4277
  436TMC3    O1 6561   2.563   0.933  15.669 -0.7677 -0.0822 -0.0824
  436TMC3    O2 6562   3.059   0.930  15.305 -0.2305  0.0234 -0.3702
  437TMC3    C1 6563   1.449   2.847  13.324 -0.2812  0.1010  0.5672
  437TMC3    C2 6564   1.307   2.856  13.346 -0.0153 -0.4150 -0.0348
  437TMC3    C3 6565   1.241   2.972  13.337 -0.8939 -0.1580 -0.1513
  437TMC3    C4 6566   1.509   2.961  13.274  0.1482 -0.1408 -0.1357
  437TMC3    C5 6567   1.434   3.073  13.254 -0.3044 -0.0084 -0.5210
  437TMC3    C6 6568   1.306   3.087  13.295  0.2647 -0.5512  0.2321
  437TMC3     C 6569   1.522   2.728  13.368 -0.4509 -0.4113 -0.0335
  437TMC3     O 6570   1.447   2.640  13.411  0.0040 -0.1425 -0.8001
  437TMC3     H 6571   1.252   2.767  13.375 -0.3142 -0.3388 -0.3840
  437TMC3    H1 6572   1.605   2.952  13.223  0.1314 -0.0552 -0.1830
  437TMC3    H2 6573   1.247   3.178  13.290  0.3023 -0.6631 -2.2218
  437TMC3    C7 6574   1.493   3.177  13.180  0.8481 -0.2005  0.3521
  437TMC3    C8 6575   1.100   2.965  13.296 -0.0490  0.2216 -0.1909
  437TMC3    O1 6576   1.414   3.262  13.147  0.0911  0.4031 -0.0462
  437TMC3    O2 6577   1.068   3.050  13.213  0.3530 -0.0964  0.0005
  438MPD2     C 6578   3.964   3.822  17.085 -0.1676 -0.3191  0.3918
  438MPD2    C1 6579   4.071   3.741  17.117 -0.1908 -0.4118 -0.3357
  438MPD2    C2 6580   4.106   3.726  17.252  0.7557  0.1877  0.0739
  438MPD2    C3 6581   4.036   3.788  17.349  0.2067  0.6348  0.0823
  438MPD2    C4 6582   3.923   3.861  17.312 -0.2766  0.8588  0.0747
  438MPD2    C5 6583   3.890   3.880  17.185  0.0250 -0.1591  0.3247
  438MPD2     H 6584   4.185   3.658  17.279 -0.5622 -1.7330 -0.9390
  438MPD2    H1 6585   3.865   3.909  17.391 -0.3587  0.1601  0.4383
  438MPD2    H2 6586   3.944   3.842  16.981 -1.5597 -0.0247  0.7153
  438MPD2    H3 6587   3.817   3.956  17.159 -1.9939 -2.1096  0.3411
  438MPD2     N 6588   4.079   3.758  17.479  0.6788 -0.3624 -0.3335
  438MPD2    H5 6589   4.154   3.694  17.501 -0.4559 -1.4352  0.4360
  438MPD2    N1 6590   4.139   3.662  17.025 -0.8569 -0.5880  0.1488
  438MPD2    H7 6591   4.213   3.599  17.053  1.0876  1.0946 -1.1400
  439TMC3    C1 6592   4.214   3.586  16.818  0.1521  0.1187 -0.4646
  439TMC3    C2 6593   4.229   3.618  16.688 -0.5592 -0.2067  0.9214
  439TMC3    C3 6594   4.284   3.518  16.605  0.1451 -0.1657  0.2648
  439TMC3    C4 6595   4.249   3.467  16.871 -0.2174  0.3519 -0.3026
  439TMC3    C5 6596   4.285   3.365  16.785 -0.6019 -0.1898 -0.3872
  439TMC3    C6 6597   4.309   3.390  16.650 -0.1425 -0.6263  0.4055
  439TMC3     C 6598   4.122   3.668  16.890  0.1719 -0.7134  0.2992
  439TMC3     O 6599   4.052   3.740  16.827 -0.1384 -0.0341  0.5480
  439TMC3     H 6600   4.223   3.722  16.659  0.8840 -0.5559 -0.6874
  439TMC3    H1 6601   4.231   3.447  16.976  2.9384  0.7426  0.3126
  439TMC3    H2 6602   4.349   3.322  16.576 -1.0244 -0.5972 -0.0907
  439TMC3    C7 6603   4.376   3.272  16.850 -0.6983 -0.5928 -0.1929
  439TMC3    C8 6604   4.407   3.567  16.549  0.9403 -0.2059 -0.1980
  439TMC3    O1 6605   4.428   3.316  16.952 -0.1565 -0.4303  0.3862
  439TMC3    O2 6606   4.503   3.491  16.569 -0.0553  0.4959  0.0528
  440MPD2     C 6607   3.077   3.949  14.754  0.6958 -0.2654 -0.2663
  440MPD2    C1 6608   3.069   3.972  14.889  0.0019 -0.3528 -0.1693
  440MPD2    C2 6609   3.159   3.914  14.970 -0.2616 -1.1686 -0.1099
  440MPD2    C3 6610   3.253   3.831  14.911 -0.1305  0.3015 -0.0587
  440MPD2    C4 6611   3.256   3.805  14.777 -0.0093  0.0101  0.1842
  440MPD2    C5 6612   3.158   3.860  14.699 -0.6573 -0.2589  0.5568
  440MPD2     H 6613   3.158   3.937  15.076 -2.4145  0.2323 -0.4335
  440MPD2    H1 6614   3.334   3.741  14.737  0.4971  1.8230 -1.6836
  440MPD2    H2 6615   3.011   3.995  14.682  0.4572 -0.2705 -0.0486
  440MPD2    H3 6616   3.152   3.840  14.593  0.0910  2.6275 -0.0177
  440MPD2     N 6617   3.366   3.776  14.977  0.2867 -0.0379  0.6571
  440MPD2    H5 6618   3.449   3.762  14.921 -0.4135 -1.4130 -0.0524
  440MPD2    N1 6619   2.980   4.068  14.951 -0.0984 -0.6947  0.4656
  440MPD2    H7 6620   2.992   4.072  15.051 -1.2929  1.6550  0.5249
  441TMC3    C1 6621   3.505   3.724  15.159 -0.0778  0.6426  0.0726
  441TMC3    C2 6622   3.619   3.799  15.145  0.0135 -0.4332 -0.0212
  441TMC3    C3 6623   3.725   3.763  15.224 -0.6415 -0.1543 -0.0964
  441TMC3    C4 6624   3.493   3.631  15.258 -0.3722 -0.7119 -0.1769
  441TMC3    C5 6625   3.608   3.592  15.325  1.0991  0.1365 -0.6734
  441TMC3    C6 6626   3.730   3.649  15.310 -0.8409  0.6462  0.6670
  441TMC3     C 6627   3.370   3.767  15.112 -0.0786 -0.5155  0.7573
  441TMC3     O 6628   3.276   3.762  15.192  0.2089 -0.4620  0.4277
  441TMC3     H 6629   3.630   3.886  15.081 -1.3471 -0.8246 -0.7780
  441TMC3    H1 6630   3.394   3.589  15.277 -0.6021  0.6640  1.7045
  441TMC3    H2 6631   3.819   3.619  15.365  0.3754 -0.0588 -1.6941
  441TMC3    C7 6632   3.574   3.538  15.453 -0.4975  0.5800 -0.4253
  441TMC3    C8 6633   3.791   3.875  15.286  0.0209 -0.0169  0.2208
  441TMC3    O1 6634   3.478   3.595  15.501  0.0154  0.2844  0.1045
  441TMC3    O2 6635   3.912   3.858  15.310  0.5742 -0.2617  0.0826
  442MPD2     C 6636   1.456   4.142  16.687  0.3119  0.5639 -0.3955
  442MPD2    C1 6637   1.334   4.200  16.673  0.6284  0.9217 -0.1871
  442MPD2    C2 6638   1.266   4.171  16.557 -0.0041  0.5464  0.0193
  442MPD2    C3 6639   1.312   4.085  16.454  0.0543  0.5771 -0.0834
  442MPD2    C4 6640   1.436   4.030  16.471  0.9715  0.7563 -0.5066
  442MPD2    C5 6641   1.504   4.060  16.593 -0.0488  0.1447 -0.2789
  442MPD2     H 6642   1.165   4.208  16.546  0.2480  0.5974 -2.0800
  442MPD2    H1 6643   1.483   3.971  16.393  2.7394 -0.1985  1.2925
  442MPD2    H2 6644   1.517   4.158  16.775  1.6620  0.3011 -1.2887
  442MPD2    H3 6645   1.605   4.027  16.614 -0.1735  1.8397  2.9286
  442MPD2     N 6646   1.235   4.044  16.342 -0.0124  0.6486  0.1665
  442MPD2    H5 6647   1.271   3.969  16.285 -0.6650 -0.0446  0.6732
  442MPD2    N1 6648   1.261   4.269  16.770  0.2319  0.1595 -0.2308
  442MPD2    H7 6649   1.162   4.286  16.751  0.2924 -0.6482 -1.2489
  443TMC3    C1 6650   1.214   4.353  16.978 -0.2265 -0.3776  0.2955
  443TMC3    C2 6651   1.215   4.483  17.016  0.1449  0.1751  0.2032
  443TMC3    C3 6652   1.102   4.537  17.064  0.7621  0.0406  0.2463
  443TMC3    C4 6653   1.104   4.269  17.000 -0.1555 -0.3208  0.0744
  443TMC3    C5 6654   0.997   4.329  17.060  0.4035  0.7087 -0.0741
  443TMC3    C6 6655   1.000   4.460  17.103  0.1910 -0.0888  0.2415
  443TMC3     C 6656   1.315   4.320  16.886 -0.4338  0.0577 -0.1787
  443TMC3     O 6657   1.431   4.348  16.906  0.3102  0.3493 -0.6196
  443TMC3     H 6658   1.298   4.535  16.971  0.5335  1.0702  1.9345
  443TMC3    H1 6659   1.103   4.166  16.966  2.5106 -0.0314 -0.9123
  443TMC3    H2 6660   0.912   4.499  17.153  1.0892  3.1349 -0.7636
  443TMC3    C7 6661   0.861   4.269  17.061 -0.3724 -0.8832  0.2093
  443TMC3    C8 6662   1.060   4.623  16.959  0.1143 -0.3311 -0.3489
  443TMC3    O1 6663   0.768   4.334  17.108  0.1126  0.6151  0.3994
  443TMC3    O2 6664   1.098   4.592  16.846  0.1015  0.6817  0.1763
  444MPD2     C 6665   1.312   4.015  17.111 -0.0707 -0.1561  0.2477
  444MPD2    C1 6666   1.208   3.924  17.096  1.0780  0.0563 -0.1550
  444MPD2    C2 6667   1.231   3.813  17.011 -0.2261  0.0050  0.0922
  444MPD2    C3 6668   1.347   3.804  16.942  0.2026  0.1793 -0.7426
  444MPD2    C4 6669   1.448   3.909  16.953  0.3476  0.1367  0.5396
  444MPD2    C5 6670   1.423   4.008  17.035  0.3499  0.2806 -0.1950
  444MPD2     H 6671   1.156   3.735  17.003  1.0029 -0.9659 -1.9445
  444MPD2    H1 6672   1.542   3.911  16.898 -0.1292  0.9643 -0.2301
  444MPD2    H2 6673   1.304   4.103  17.174  0.9517  0.1544 -0.0527
  444MPD2    H3 6674   1.501   4.080  17.058  0.7630 -1.0560  2.5471
  444MPD2     N 6675   1.371   3.686  16.860 -0.2132  0.4730 -0.1721
  444MPD2    H5 6676   1.291   3.628  16.838  0.0210 -0.3823  1.2748
  444MPD2    N1 6677   1.087   3.928  17.166 -0.1635  0.5952  0.0458
  444MPD2    H7 6678   1.026   3.852  17.139 -0.4749  0.9098 -0.1478
  445TMC3    C1 6679   1.502   3.516  16.738  0.3074 -0.2266  0.2865
  445TMC3    C2 6680   1.408   3.482  16.646 -1.1755  0.2844 -0.0416
  445TMC3    C3 6681   1.440   3.387  16.553 -0.1174 -0.1998 -0.0614
  445TMC3    C4 6682   1.630   3.471  16.727 -0.0068 -0.4678 -0.7164
  445TMC3    C5 6683   1.659   3.376  16.629 -0.3351  0.0424 -0.3347
  445TMC3    C6 6684   1.565   3.335  16.544  0.2556 -0.4210 -0.0792
  445TMC3     C 6685   1.494   3.644  16.809 -1.1691  0.1010  0.0338
  445TMC3     O 6686   1.603   3.686  16.847 -0.6882  0.7908 -0.0730
  445TMC3     H 6687   1.315   3.536  16.635 -1.2288 -0.0376 -1.1378
  445TMC3    H1 6688   1.708   3.494  16.799  0.3157 -0.2635 -1.1367
  445TMC3    H2 6689   1.594   3.284  16.453  2.5858  0.6882  0.0331
  445TMC3    C7 6690   1.795   3.343  16.596 -0.4575 -0.2160  0.5747
  445TMC3    C8 6691   1.356   3.383  16.436  0.1333 -0.1371  0.6681
  445TMC3    O1 6692   1.875   3.432  16.620  0.4691  0.8579 -0.3643
  445TMC3    O2 6693   1.298   3.485  16.408 -0.2868 -0.4112  0.0057
  446MPD2     C 6694   1.072   0.318  11.211 -0.2973 -0.8068  0.0222
  446MPD2    C1 6695   1.070   0.456  11.193  0.5453  0.6773  1.5443
  446MPD2    C2 6696   1.192   0.520  11.193 -0.1397  0.2588 -0.2437
  446MPD2    C3 6697   1.311   0.456  11.226 -0.1100  0.7906  0.3162
  446MPD2    C4 6698   1.298   0.316  11.239  0.0908 -0.3975  0.6232
  446MPD2    C5 6699   1.185   0.249  11.230 -0.1026 -0.3299 -0.4816
  446MPD2     H 6700   1.188   0.628  11.184  0.9065  0.4614  1.7578
  446MPD2    H1 6701   1.385   0.259  11.269  1.4185  1.6424  0.5946
  446MPD2    H2 6702   0.984   0.255  11.221 -1.4022  0.7178 -0.1850
  446MPD2    H3 6703   1.182   0.144  11.258 -2.1623 -0.0063  0.4698
  446MPD2     N 6704   1.437   0.529  11.222 -0.0118  0.2407  0.2871
  446MPD2    H5 6705   1.433   0.620  11.177 -0.2126 -0.3664 -0.9316
  446MPD2    N1 6706   0.947   0.528  11.179 -0.5749  0.0984  0.4520
  446MPD2    H7 6707   0.953   0.629  11.164 -0.8404 -0.0592 -0.7147
  447TMC3    C1 6708   1.672   0.564  11.228  0.6801 -0.1936 -0.1715
  447TMC3    C2 6709   1.666   0.699  11.214 -0.3037  0.5122  0.1601
  447TMC3    C3 6710   1.774   0.779  11.213  0.2634 -0.3114 -0.2453
  447TMC3    C4 6711   1.798   0.507  11.248 -0.2638  0.5012  0.3859
  447TMC3    C5 6712   1.902   0.590  11.264 -0.1216 -0.0839 -0.7811
  447TMC3    C6 6713   1.904   0.721  11.242  0.0860 -0.0989  0.4889
  447TMC3     C 6714   1.557   0.476  11.249 -0.1732  0.2832  0.1278
  447TMC3     O 6715   1.582   0.367  11.297  0.1289 -0.4185 -0.0666
  447TMC3     H 6716   1.567   0.743  11.211  0.2119  1.8337  2.6320
  447TMC3    H1 6717   1.815   0.400  11.257  0.5296  0.4601 -1.4660
  447TMC3    H2 6718   1.988   0.787  11.226  2.0838 -2.0580  2.9672
  447TMC3    C7 6719   2.033   0.530  11.278  0.3617  0.0299  0.4815
  447TMC3    C8 6720   1.758   0.916  11.160  0.2665  0.1401 -0.2726
  447TMC3    O1 6721   2.040   0.409  11.247 -0.2458 -0.0159 -0.4893
  447TMC3    O2 6722   1.645   0.958  11.141  0.7642  0.2909  0.3628
  448TMC3    C1 6723   3.213   4.479   0.265 -0.1887 -0.0142 -0.4211
  448TMC3    C2 6724   3.195   4.449   0.140  0.1555  0.0040 -0.1173
  448TMC3    C3 6725   3.217   4.321   0.103 -0.1032  0.5644  0.1595
  448TMC3    C4 6726   3.252   4.388   0.368 -0.0318 -0.0242 -0.1793
  448TMC3    C5 6727   3.280   4.263   0.330 -0.2734  0.2265  0.2062
  448TMC3    C6 6728   3.261   4.230   0.195  0.6206  0.3211  0.0242
  448TMC3     C 6729   3.210   4.619   0.300  0.2746 -0.6145 -0.9742
  448TMC3     O 6730   3.123   4.692   0.255  0.2480 -0.3860  0.2422
  448TMC3     H 6731   3.159   4.529   0.077  4.7298  2.1413  0.0476
  448TMC3    H1 6732   3.273   4.421   0.469  0.0769  0.0881 -0.2401
  448TMC3    H2 6733   3.268   4.129   0.157  0.7945  0.4257 -0.2221
  448TMC3    C7 6734   3.394   4.206   0.389  0.9204 -0.7992  0.2674
  448TMC3    C8 6735   3.299   4.314  17.732 -0.5907 -0.1465 -0.3842
  448TMC3    O1 6736   3.414   4.246   0.502 -0.1580 -0.6125 -0.2351
  448TMC3    O2 6737   3.402   4.246  17.749  0.3242  0.7706 -0.1746
  449MPD2     C 6738   1.041   3.804  14.129 -0.7292  0.0806 -0.0852
  449MPD2    C1 6739   0.949   3.716  14.186  0.4157  0.2659  0.0347
  449MPD2    C2 6740   0.976   3.647  14.303 -0.6418  0.5007 -0.1930
  449MPD2    C3 6741   1.098   3.660  14.367  0.3167 -0.2557  0.5824
  449MPD2    C4 6742   1.190   3.746  14.318  0.8183 -1.0191  0.6199
  449MPD2    C5 6743   1.161   3.809  14.199 -0.5619 -0.0688  0.7142
  449MPD2     H 6744   0.902   3.580  14.346  1.3934  0.0814  2.7147
  449MPD2    H1 6745   1.284   3.771  14.366  2.2545 -0.7418 -2.2978
  449MPD2    H2 6746   1.036   3.862  14.038 -0.1512 -1.2875 -0.9902
  449MPD2    H3 6747   1.236   3.880  14.166  2.1769 -3.7048 -0.8885
  449MPD2     N 6748   1.132   3.589  14.485 -0.5587 -0.1677 -0.2028
  449MPD2    H5 6749   1.068   3.516  14.515  0.6307 -0.9128  0.4966
  449MPD2    N1 6750   0.824   3.690  14.129  0.2620  0.5865 -0.8578
  449MPD2    H7 6751   0.767   3.630  14.187  1.1283 -0.3440 -0.9638
  450TMC3    C1 6752   0.648   3.654  13.990  0.2820 -0.2434 -0.0937
  450TMC3    C2 6753   0.686   3.550  13.908  0.7375 -0.6632 -0.3199
  450TMC3    C3 6754   0.634   3.424  13.926 -0.7082  0.8270  0.0450
  450TMC3    C4 6755   0.593   3.625  14.111 -0.0033 -0.3273 -0.0394
  450TMC3    C5 6756   0.545   3.500  14.137 -1.1551  0.4670 -0.5400
  450TMC3    C6 6757   0.554   3.401  14.035  0.5487 -0.0275  0.1552
  450TMC3     C 6758   0.775   3.728  14.004  0.3541 -0.1883 -0.3991
  450TMC3     O 6759   0.828   3.795  13.917  0.1130 -0.2033 -0.3314
  450TMC3     H 6760   0.741   3.570  13.817 -1.3208 -0.3500 -1.4912
  450TMC3    H1 6761   0.571   3.701  14.185  0.1789  0.4421 -0.7744
  450TMC3    H2 6762   0.507   3.306  14.057 -0.8433  0.4229 -0.8472
  450TMC3    C7 6763   0.580   3.464  14.271 -0.7544  0.1498  0.1051
  450TMC3    C8 6764   0.706   3.312  13.879  0.7140 -0.1775 -0.4604
  450TMC3    O1 6765   0.669   3.535  14.320 -0.7613  0.2254  0.2196
  450TMC3    O2 6766   0.664   3.205  13.920  0.5418 -0.2875  0.0234
  451MPD2     C 6767   2.608   2.455   1.510  0.2561 -0.1633 -0.8478
  451MPD2    C1 6768   2.572   2.421   1.383 -0.4739 -0.1706 -0.0214
  451MPD2    C2 6769   2.652   2.330   1.308 -0.6367  0.3461 -0.0263
  451MPD2    C3 6770   2.764   2.274   1.369  0.0128  0.9854  0.0359
  451MPD2    C4 6771   2.800   2.314   1.499 -0.6865 -0.2166 -0.0982
  451MPD2    C5 6772   2.722   2.402   1.565  0.1446  0.2845  0.2180
  451MPD2     H 6773   2.625   2.300   1.208 -1.2654 -1.2197  0.6071
  451MPD2    H1 6774   2.891   2.293   1.554 -0.3248 -1.4549 -1.1815
  451MPD2    H2 6775   2.546   2.525   1.564  0.3349 -2.0457  1.6947
  451MPD2    H3 6776   2.760   2.444   1.657  1.1191  0.9137 -0.4785
  451MPD2     N 6777   2.828   2.167   1.301 -0.8852  0.0077  0.6565
  451MPD2    H5 6778   2.778   2.136   1.218 -0.5429  1.6186 -0.1538
  451MPD2    N1 6779   2.446   2.462   1.336  0.8624 -0.7107  0.4541
  451MPD2    H7 6780   2.387   2.517   1.398  2.7447 -0.3234  1.9043
  452TMC3    C1 6781   2.988   2.014   1.236 -0.1139  0.5164 -0.1440
  452TMC3    C2 6782   2.895   1.932   1.186  0.2800  0.0421 -0.0013
  452TMC3    C3 6783   2.928   1.837   1.094  0.2731  0.8206  0.1919
  452TMC3    C4 6784   3.123   2.003   1.199 -0.0307  0.2698 -0.4026
  452TMC3    C5 6785   3.154   1.911   1.098  0.0326 -0.0327  0.3475
  452TMC3    C6 6786   3.056   1.828   1.051 -0.5130 -0.3991 -0.4966
  452TMC3     C 6787   2.949   2.117   1.331 -0.0716 -0.6087  0.0979
  452TMC3     O 6788   3.041   2.168   1.395 -0.0549  0.1047  0.4286
  452TMC3     H 6789   2.793   1.936   1.224 -0.4212 -0.4421 -1.8425
  452TMC3    H1 6790   3.203   2.054   1.252 -0.2837  0.5353 -0.2719
  452TMC3    H2 6791   3.083   1.745   0.986  1.6844  0.0413 -0.1606
  452TMC3    C7 6792   3.232   1.957   0.990  0.1974  0.2515  0.1075
  452TMC3    C8 6793   2.817   1.802   1.007 -0.0232  0.6414 -0.3060
  452TMC3    O1 6794   3.199   1.924   0.878 -0.5444 -0.2035 -0.3456
  452TMC3    O2 6795   2.708   1.774   1.060  0.3060  0.1739 -0.0987
  453TMC3    C1 6796   3.356   4.350  12.244  0.6627  0.5031  0.7029
  453TMC3    C2 6797   3.273   4.242  12.226  0.4369 -0.0159 -0.6423
  453TMC3    C3 6798   3.262   4.187  12.101 -0.1936  0.5863  0.5739
  453TMC3    C4 6799   3.427   4.400  12.134 -0.3477 -0.0634 -0.4895
  453TMC3    C5 6800   3.419   4.327  12.015  0.6743  0.3888 -0.9606
  453TMC3    C6 6801   3.339   4.219  11.998 -0.1170  0.1942  0.5662
  453TMC3     C 6802   3.420   4.357  12.374 -0.0652 -0.1973 -0.5868
  453TMC3     O 6803   3.355   4.298  12.463  0.2864  0.6607  1.2825
  453TMC3     H 6804   3.209   4.217  12.310 -0.2965 -1.1655 -1.5361
  453TMC3    H1 6805   3.498   4.481  12.141 -1.0971  0.5259  0.1848
  453TMC3    H2 6806   3.328   4.167  11.904 -1.4288  0.6537  0.4700
  453TMC3    C7 6807   3.491   4.376  11.902 -0.9518  0.3096 -0.7954
  453TMC3    C8 6808   3.184   4.063  12.096  0.1720 -0.4442 -0.5276
  453TMC3    O1 6809   3.535   4.489  11.907 -0.3892 -0.3085  0.0659
  453TMC3    O2 6810   3.116   4.048  12.196 -0.0058  0.0039 -0.1351
  454MPD2     C 6811   2.228   3.674  16.165 -0.8240  0.1852 -0.6416
  454MPD2    C1 6812   2.165   3.733  16.057 -0.3111  0.4951  0.8400
  454MPD2    C2 6813   2.116   3.861  16.066  0.2108  0.0838 -0.0791
  454MPD2    C3 6814   2.116   3.925  16.186  0.0994 -0.5498 -1.2292
  454MPD2    C4 6815   2.174   3.865  16.295 -0.1765  0.0887  0.0918
  454MPD2    C5 6816   2.236   3.741  16.282 -0.0482  0.3619  0.6699
  454MPD2     H 6817   2.059   3.906  15.986 -0.1270 -0.1482  0.0329
  454MPD2    H1 6818   2.178   3.911  16.393  1.6558 -0.6050  0.3460
  454MPD2    H2 6819   2.269   3.575  16.155  0.1662  0.1590  3.8956
  454MPD2    H3 6820   2.291   3.704  16.368  2.0967 -1.8022 -1.6434
  454MPD2     N 6821   2.032   4.039  16.206  0.8875  0.0953 -0.2626
  454MPD2    H5 6822   1.991   4.060  16.297  1.4113 -0.7447  0.1740
  454MPD2    N1 6823   2.118   3.666  15.940  0.2661  0.2182  0.4627
  454MPD2    H7 6824   2.059   3.713  15.872  1.7102 -2.9821 -3.0337
  455TMC3    C1 6825   1.835   4.102  16.092 -0.6837 -0.3046  0.2699
  455TMC3    C2 6826   1.776   4.151  15.980  0.4615  0.3096 -0.3443
  455TMC3    C3 6827   1.653   4.113  15.952  0.4430  0.2274 -0.6727
  455TMC3    C4 6828   1.769   4.009  16.173 -0.0352 -0.6116 -0.6059
  455TMC3    C5 6829   1.644   3.973  16.132 -0.2648  0.2330 -0.5876
  455TMC3    C6 6830   1.582   4.022  16.027 -0.4844  0.1991  0.1243
  455TMC3     C 6831   1.979   4.110  16.099 -0.0918 -0.1962  0.1461
  455TMC3     O 6832   2.027   4.141  15.990 -0.3273 -0.3721 -0.3760
  455TMC3     H 6833   1.823   4.220  15.910 -0.3628  1.4078  0.2016
  455TMC3    H1 6834   1.806   3.983  16.271  0.0622 -0.5669 -0.6310
  455TMC3    H2 6835   1.487   3.984  15.993 -0.8678 -0.4164  1.8742
  455TMC3    C7 6836   1.632   3.828  16.151 -0.1994  0.6015  0.9755
  455TMC3    C8 6837   1.593   4.162  15.832  0.0697 -0.2154 -0.2563
  455TMC3    O1 6838   1.519   3.787  16.129  0.0238  0.2619  0.2215
  455TMC3    O2 6839   1.648   4.136  15.728  0.4340  0.0276 -0.1792
  456MPD2     C 6840   4.186   4.185  16.555  0.2756 -0.3237  0.7248
  456MPD2    C1 6841   4.275   4.132  16.638 -0.4636  0.4557 -0.1590
  456MPD2    C2 6842   4.241   4.112  16.767  0.0192  0.0324  0.1926
  456MPD2    C3 6843   4.115   4.146  16.817 -0.2482 -0.8465 -0.1707
  456MPD2    C4 6844   4.027   4.204  16.724 -0.3939 -0.4780  0.4305
  456MPD2    C5 6845   4.063   4.220  16.597  0.3315 -0.0839  0.1470
  456MPD2     H 6846   4.313   4.057  16.827  0.2393 -1.0350 -1.0487
  456MPD2    H1 6847   3.922   4.226  16.744 -0.5792 -3.5536  2.8552
  456MPD2    H2 6848   4.203   4.211  16.451  2.7373 -0.9386  0.9742
  456MPD2    H3 6849   4.004   4.272  16.522  0.3256 -1.0197 -0.5004
  456MPD2     N 6850   4.094   4.141  16.958 -0.2122  0.2297  0.1444
  456MPD2    H5 6851   4.179   4.113  17.006 -0.6715  1.6383  1.7914
  456MPD2    N1 6852   4.399   4.092  16.584 -0.2726  0.1339 -0.3907
  456MPD2    H7 6853   4.408   4.106  16.483  0.5411  0.4805 -0.2684
  457TMC3    C1 6854   3.991   4.196  17.169 -0.8030  0.0960 -0.4611
  457TMC3    C2 6855   3.875   4.229  17.228 -0.1392  0.4933  0.4019
  457TMC3    C3 6856   3.865   4.215  17.360  0.1107  0.3004 -0.3047
  457TMC3    C4 6857   4.104   4.171  17.244 -0.4744  0.0647  0.5311
  457TMC3    C5 6858   4.085   4.153  17.382 -0.0176 -0.3431 -0.0495
  457TMC3    C6 6859   3.961   4.161  17.436 -0.6716  0.0196 -0.6075
  457TMC3     C 6860   3.981   4.189  17.022  0.3188  0.1626 -0.4335
  457TMC3     O 6861   3.871   4.209  16.965 -0.1159  0.5063 -0.2564
  457TMC3     H 6862   3.787   4.251  17.169  0.7204 -0.7506 -1.3335
  457TMC3    H1 6863   4.200   4.156  17.196 -1.2492 -2.5874 -0.2425
  457TMC3    H2 6864   3.932   4.133  17.536 -1.7802  2.6911 -0.1736
  457TMC3    C7 6865   4.190   4.085  17.460 -0.3931  0.4341  0.0394
  457TMC3    C8 6866   3.750   4.279  17.433  0.3134  0.0727 -0.5436
  457TMC3    O1 6867   4.286   4.041  17.399  0.2253  0.1634  0.0366
  457TMC3    O2 6868   3.731   4.259  17.550 -0.1530 -0.1167  0.3241
  458MPD2     C 6869   1.875   3.469  12.989 -0.0292  0.8318 -0.1157
  458MPD2    C1 6870   1.931   3.368  13.060  0.0277  0.3709  0.0836
  458MPD2    C2 6871   1.846   3.270  13.113 -0.2913 -0.1414 -0.0789
  458MPD2    C3 6872   1.712   3.286  13.120 -0.3319 -0.0146  0.4462
  458MPD2    C4 6873   1.656   3.392  13.050  0.1890 -0.5945  0.2018
  458MPD2    C5 6874   1.739   3.484  12.981 -0.4982 -0.0755  0.2487
  458MPD2     H 6875   1.883   3.187  13.173  0.0429 -2.0410 -2.8823
  458MPD2    H1 6876   1.549   3.408  13.057  0.2979  1.3629 -2.4879
  458MPD2    H2 6877   1.939   3.540  12.937  2.6320 -2.6789 -1.6131
  458MPD2    H3 6878   1.693   3.557  12.914 -1.3629 -0.7399  0.1149
  458MPD2     N 6879   1.632   3.182  13.182 -0.5871  0.0344  0.4396
  458MPD2    H5 6880   1.685   3.105  13.221  1.0635  1.1017  0.3358
  458MPD2    N1 6881   2.072   3.370  13.064  0.1682  0.8135 -0.2781
  458MPD2    H7 6882   2.119   3.449  13.022 -1.6966  1.2820 -1.4490
  459TMC3    C1 6883   2.300   3.297  13.084  0.3317  0.3426 -0.4333
  459TMC3    C2 6884   2.348   3.415  13.033  0.1006 -0.3259  0.4750
  459TMC3    C3 6885   2.489   3.422  13.025 -0.3609  0.6636  0.0666
  459TMC3    C4 6886   2.376   3.186  13.104  0.5174  0.2119 -0.3667
  459TMC3    C5 6887   2.513   3.191  13.089  0.1672 -0.0155 -0.2246
  459TMC3    C6 6888   2.571   3.313  13.049  0.4088 -0.3370 -0.6636
  459TMC3     C 6889   2.159   3.273  13.115  0.0676 -0.0045 -0.2502
  459TMC3     O 6890   2.120   3.171  13.171 -0.1975  0.2592  0.3732
  459TMC3     H 6891   2.275   3.495  13.038 -0.4428 -0.7477 -0.9560
  459TMC3    H1 6892   2.340   3.094  13.149 -1.5696  0.9859 -0.4581
  459TMC3    H2 6893   2.678   3.327  13.048  0.4399 -0.7589 -2.1305
  459TMC3    C7 6894   2.587   3.116  13.187  0.9892 -0.9743  0.2695
  459TMC3    C8 6895   2.549   3.548  12.990 -0.2360 -0.2422 -0.0204
  459TMC3    O1 6896   2.596   2.990  13.190 -0.2158 -0.3251  0.3112
  459TMC3    O2 6897   2.673   3.546  13.007 -0.6300  0.4706  0.0565
  460MPD2     C 6898   2.019   1.141  11.006 -0.2840  0.0196  0.2100
  460MPD2    C1 6899   1.894   1.097  11.050  0.9415 -0.3523 -0.1823
  460MPD2    C2 6900   1.783   1.173  11.007 -0.0613  0.2868  0.4853
  460MPD2    C3 6901   1.794   1.280  10.930 -0.4847  0.1427  0.3611
  460MPD2    C4 6902   1.917   1.315  10.884 -0.1356 -0.7860  0.6983
  460MPD2    C5 6903   2.028   1.250  10.925 -0.0047  0.6516  0.3003
  460MPD2     H 6904   1.684   1.139  11.037 -1.0451 -0.6209 -3.7406
  460MPD2    H1 6905   1.923   1.408  10.828 -2.0956  0.3724  2.4034
  460MPD2    H2 6906   2.106   1.078  11.023 -1.4471 -1.6793 -0.0724
  460MPD2    H3 6907   2.126   1.281  10.891  0.0306  1.3796  1.0550
  460MPD2     N 6908   1.668   1.334  10.884  0.1215  0.7237 -0.8006
  460MPD2    H5 6909   1.589   1.282  10.921 -0.3761  0.1041 -2.7297
  460MPD2    N1 6910   1.879   0.986  11.131  0.1208 -0.4111 -0.1301
  460MPD2    H7 6911   1.959   0.928  11.153  0.8629  0.0468 -1.6151
  461TMC3    C1 6912   1.507   1.417  10.739 -0.0180 -0.4240 -0.0526
  461TMC3    C2 6913   1.457   1.293  10.701 -0.2134 -0.3047 -0.3308
  461TMC3    C3 6914   1.338   1.294  10.634 -0.1423  0.3829  0.1311
  461TMC3    C4 6915   1.465   1.534  10.684 -0.8366 -0.5074 -0.0259
  461TMC3    C5 6916   1.351   1.532  10.618 -0.5111 -0.0786  1.6267
  461TMC3    C6 6917   1.292   1.415  10.587  0.9713 -1.0577 -0.6906
  461TMC3     C 6918   1.645   1.424  10.780 -0.1863 -0.2225  0.4170
  461TMC3     O 6919   1.724   1.470  10.699 -0.0240  0.1026 -0.2569
  461TMC3     H 6920   1.508   1.205  10.738  1.5038 -0.5361 -3.1917
  461TMC3    H1 6921   1.527   1.619  10.712 -1.0122 -0.9895  1.8339
  461TMC3    H2 6922   1.205   1.409  10.522 -0.4658  2.0697  0.9592
  461TMC3    C7 6923   1.296   1.654  10.558 -0.7822  0.5110  0.7592
  461TMC3    C8 6924   1.286   1.168  10.584  0.4746 -0.1473 -0.0823
  461TMC3    O1 6925   1.213   1.631  10.471  0.2265  0.0234 -0.1374
  461TMC3    O2 6926   1.360   1.071  10.579  0.2305  0.2223 -1.3097
  462TMC3    C1 6927   1.619   1.926   0.633  0.3067  0.2495  0.2109
  462TMC3    C2 6928   1.742   1.887   0.597 -0.6209 -0.1906 -0.1363
  462TMC3    C3 6929   1.772   1.757   0.564  0.2617 -0.1530 -0.0593
  462TMC3    C4 6930   1.515   1.841   0.626  0.0179 -0.8427  0.1720
  462TMC3    C5 6931   1.542   1.711   0.589 -0.9968  0.4031  0.4999
  462TMC3    C6 6932   1.671   1.663   0.562 -0.6713 -0.8411 -0.1802
  462TMC3     C 6933   1.588   2.059   0.658  0.3623 -0.1522 -0.5146
  462TMC3     O 6934   1.475   2.090   0.692 -0.2010 -0.3014  0.1474
  462TMC3     H 6935   1.821   1.954   0.628 -1.1445  0.2924  0.1450
  462TMC3    H1 6936   1.415   1.874   0.652 -0.6900 -1.6168 -1.5713
  462TMC3    H2 6937   1.694   1.557   0.568  0.1523 -0.6283  0.3528
  462TMC3    C7 6938   1.433   1.625   0.543  0.6524  0.4989  0.1078
  462TMC3    C8 6939   1.902   1.714   0.579  0.1386 -0.3053 -0.3249
  462TMC3    O1 6940   1.438   1.513   0.590  0.0728  0.1550  0.2324
  462TMC3    O2 6941   1.963   1.762   0.675  0.3231 -0.5751 -0.1466
  463MPD2     C 6942   2.468   0.903   1.459  0.2429 -0.1343  0.3117
  463MPD2    C1 6943   2.377   0.940   1.358 -0.5913 -0.2519  0.7759
  463MPD2    C2 6944   2.379   1.075   1.320 -1.3451  0.0602 -0.1952
  463MPD2    C3 6945   2.461   1.168   1.383  0.2201  0.0791  0.5997
  463MPD2    C4 6946   2.540   1.132   1.494  0.9045 -0.4752  0.1785
  463MPD2    C5 6947   2.539   0.999   1.530  0.1938  0.0781  0.8961
  463MPD2     H 6948   2.295   1.099   1.256 -1.0321  1.1534 -0.1943
  463MPD2    H1 6949   2.605   1.205   1.540  1.2987 -0.0855 -1.0061
  463MPD2    H2 6950   2.474   0.799   1.489  1.7190 -0.1455 -0.0410
  463MPD2    H3 6951   2.600   0.970   1.615 -1.2120 -1.9576  1.2201
  463MPD2     N 6952   2.462   1.306   1.353 -0.1926 -0.1334 -0.3801
  463MPD2    H5 6953   2.510   1.371   1.414 -1.9207  0.3633  0.4575
  463MPD2    N1 6954   2.290   0.845   1.298  0.1672 -0.4126 -0.3536
  463MPD2    H7 6955   2.233   0.879   1.222  0.0049 -0.6622 -0.3437
  464TMC3    C1 6956   2.207   0.635   1.217  0.1359  0.0905  0.1883
  464TMC3    C2 6957   2.090   0.700   1.191 -0.1731  0.4811  0.3030
  464TMC3    C3 6958   2.013   0.662   1.088  0.0064 -0.1444 -0.4367
  464TMC3    C4 6959   2.235   0.508   1.173  0.6027  0.3768  0.0227
  464TMC3    C5 6960   2.150   0.466   1.073  0.2959 -0.3156  0.7268
  464TMC3    C6 6961   2.045   0.542   1.027  0.2851  0.4589  0.0466
  464TMC3     C 6962   2.299   0.706   1.304 -0.9567 -0.3582  0.2141
  464TMC3     O 6963   2.378   0.633   1.359  0.7609 -0.0870  0.2162
  464TMC3     H 6964   2.065   0.781   1.257 -3.3826  0.2013 -0.5870
  464TMC3    H1 6965   2.324   0.459   1.211  2.1383  2.0762 -1.3129
  464TMC3    H2 6966   1.982   0.507   0.946  1.2149  0.7827 -0.8092
  464TMC3    C7 6967   2.145   0.323   1.066 -0.3726 -0.3444 -0.1525
  464TMC3    C8 6968   1.878   0.697   1.075 -0.9724  0.5166 -0.3619
  464TMC3    O1 6969   2.248   0.262   1.098  0.8427  0.4766  0.3190
  464TMC3    O2 6970   1.804   0.599   1.066 -0.2254 -0.0063 -0.1228
  465MPD2     C 6971   3.573   3.812  17.696  0.4689 -0.4166 -0.1002
  465MPD2    C1 6972   3.451   3.884  17.705 -0.4222 -0.2176 -1.5024
  465MPD2    C2 6973   3.414   3.975  17.607 -0.3280  0.3358  0.5379
  465MPD2    C3 6974   3.492   3.974  17.486  0.3498 -0.2889  0.1208
  465MPD2    C4 6975   3.606   3.896  17.473 -0.9069  0.0842  0.1767
  465MPD2    C5 6976   3.643   3.823  17.578 -0.1316  0.3246  0.0379
  465MPD2     H 6977   3.317   4.024  17.607  0.8856  2.7749 -1.0183
  465MPD2    H1 6978   3.665   3.888  17.382 -1.4579 -0.7192 -0.1184
  465MPD2    H2 6979   3.610   3.736   0.013  0.5370  0.2223  0.5875
  465MPD2    H3 6980   3.728   3.758  17.561 -0.2024  1.0870 -3.2621
  465MPD2     N 6981   3.440   4.045  17.378 -0.0075  0.3630 -0.0021
  465MPD2    H5 6982   3.363   4.107  17.403 -0.8845 -0.4572 -0.6734
  465MPD2    N1 6983   3.367   3.868   0.069  0.1116 -0.8653 -0.2771
  465MPD2    H7 6984   3.273   3.906   0.069  1.1546  1.7120  1.3208
  466TMC3    C1 6985   3.180   4.195  17.121  0.1666 -0.7239  0.3513
  466TMC3    C2 6986   3.230   4.295  17.042 -0.3953  0.6542 -0.0817
  466TMC3    C3 6987   3.364   4.292  17.012  0.1947  0.1117  0.2616
  466TMC3    C4 6988   3.268   4.116  17.184 -0.2104  0.9111 -0.4184
  466TMC3    C5 6989   3.406   4.137  17.173 -0.0472 -0.1596 -0.1455
  466TMC3    C6 6990   3.461   4.214  17.077 -0.4332 -0.6527 -0.4194
  466TMC3     C 6991   3.048   4.218  17.182  0.1911  0.2423 -0.4762
  466TMC3     O 6992   3.021   4.159  17.286  0.3482 -0.1454  0.3967
  466TMC3     H 6993   3.167   4.372  16.999  0.1760  0.4897 -1.2258
  466TMC3    H1 6994   3.227   4.042  17.253 -2.5268  2.1290 -0.4997
  466TMC3    H2 6995   3.569   4.226  17.068 -0.6575  2.1687  0.5681
  466TMC3    C7 6996   3.493   4.058  17.256  0.5185  0.7143 -0.0765
  466TMC3    C8 6997   3.417   4.395  16.930  0.9668  0.4901  0.7519
  466TMC3    O1 6998   3.607   4.037  17.215  0.2762 -0.3180  0.8042
  466TMC3    O2 6999   3.531   4.379  16.885  1.0492 -0.0580 -0.0988
  467TMC3    C1 7000   0.239   2.344  13.878 -0.6483  0.1127 -0.4940
  467TMC3    C2 7001   0.200   2.452  13.806 -0.5194 -0.3587 -0.1718
  467TMC3    C3 7002   0.064   2.483  13.818 -0.2376  0.1145 -0.9136
  467TMC3    C4 7003   0.149   2.259  13.939 -0.1362 -0.2084  0.3372
  467TMC3    C5 7004   0.010   2.285  13.930  0.4855  0.7045 -0.0096
  467TMC3    C6 7005   4.704   2.398  13.866 -0.2800 -0.0559  0.1364
  467TMC3     C 7006   0.382   2.320  13.885  0.4427  0.2786 -0.1665
  467TMC3     O 7007   0.449   2.412  13.836  0.4219  0.3016  0.4267
  467TMC3     H 7008   0.274   2.510  13.751 -1.6201 -0.5788 -1.8775
  467TMC3    H1 7009   0.182   2.170  13.991  0.5510  0.2317  0.6623
  467TMC3    H2 7010   4.599   2.425  13.855 -0.9634 -3.0704 -0.6545
  467TMC3    C7 7011   4.662   2.205  14.014  0.1633 -0.0724 -0.1518
  467TMC3    C8 7012   0.018   2.579  13.718  0.1629  0.0865 -0.0444
  467TMC3    O1 7013   4.726   2.103  14.043 -1.0291 -0.5762  0.4801
  467TMC3    O2 7014   4.656   2.644  13.741 -0.4580  0.2075 -0.3324
  468MPD2     C 7015   3.415   1.150  10.807  0.1631  0.2695  0.1762
  468MPD2    C1 7016   3.538   1.095  10.809  0.7672  0.4545 -1.2827
  468MPD2    C2 7017   3.553   0.958  10.802 -0.4094  0.1590 -0.6498
  468MPD2    C3 7018   3.448   0.871  10.797 -0.1453 -0.0816  0.5499
  468MPD2    C4 7019   3.321   0.924  10.808 -0.2279 -0.2409  0.3693
  468MPD2    C5 7020   3.303   1.064  10.808  0.9742  0.3975 -0.1749
  468MPD2     H 7021   3.656   0.924  10.807 -1.1390 -1.9135  0.5005
  468MPD2    H1 7022   3.234   0.860  10.809 -0.3351 -0.0629  2.0737
  468MPD2    H2 7023   3.400   1.257  10.799 -0.9588  0.2053  1.4179
  468MPD2    H3 7024   3.200   1.096  10.812  1.2355  1.4505 -1.4356
  468MPD2     N 7025   3.459   0.733  10.781 -0.3525 -0.3835  0.7430
  468MPD2    H5 7026   3.371   0.683  10.788 -0.3049 -0.8019 -1.3666
  468MPD2    N1 7027   3.658   1.170  10.829 -1.1323 -0.9167  0.0645
  468MPD2    H7 7028   3.743   1.113  10.830  0.6135  1.6485 -0.6829
  469TMC3    C1 7029   3.800   1.336  10.905 -0.8141  0.2022 -0.0848
  469TMC3    C2 7030   3.905   1.252  10.869 -0.0561 -0.4456 -0.1627
  469TMC3    C3 7031   4.015   1.238  10.952 -0.0941 -0.0519  0.2405
  469TMC3    C4 7032   3.810   1.413  11.021 -0.2004 -0.1204 -0.9392
  469TMC3    C5 7033   3.918   1.394  11.103 -0.1178 -0.5136  0.0398
  469TMC3    C6 7034   4.025   1.316  11.066 -0.7476 -0.3894 -0.1135
  469TMC3     C 7035   3.663   1.305  10.859  0.2159 -0.4238 -0.1521
  469TMC3     O 7036   3.562   1.372  10.885 -0.0344  0.0049  0.1260
  469TMC3     H 7037   3.902   1.195  10.777 -1.0605 -1.3122  0.4073
  469TMC3    H1 7038   3.719   1.453  11.065  1.0748  3.1027 -1.2403
  469TMC3    H2 7039   4.118   1.330  11.119 -0.7776  0.5402 -0.3006
  469TMC3    C7 7040   3.912   1.470  11.231 -0.5446  0.0047 -0.3583
  469TMC3    C8 7041   4.126   1.157  10.908  0.3493  0.4226  0.1878
  469TMC3    O1 7042   3.814   1.545  11.247  0.2631 -0.0433 -0.2151
  469TMC3    O2 7043   4.104   1.083  10.809  0.1050  0.0100  0.2155
  470TMC3    C1 7044   0.616   1.449   0.752  1.0494 -0.4312 -0.6736
  470TMC3    C2 7045   0.720   1.526   0.793 -0.1913 -0.5139 -0.5238
  470TMC3    C3 7046   0.744   1.543   0.920  0.6353 -0.0835  0.0629
  470TMC3    C4 7047   0.541   1.383   0.844 -0.7062  0.6456 -0.4313
  470TMC3    C5 7048   0.573   1.402   0.976 -0.9531  0.1515 -0.1744
  470TMC3    C6 7049   0.670   1.490   1.012  0.5721  0.8702 -0.6044
  470TMC3     C 7050   0.590   1.435   0.608  0.0189 -0.4321 -0.3087
  470TMC3     O 7051   0.683   1.451   0.529  0.5452  0.2789  0.2204
  470TMC3     H 7052   0.784   1.567   0.716 -1.7990  1.5214 -0.7694
  470TMC3    H1 7053   0.458   1.318   0.815  1.6285 -3.0025  1.0709
  470TMC3    H2 7054   0.688   1.517   1.115  0.2534 -1.3610  0.0497
  470TMC3    C7 7055   0.483   1.353   1.075 -0.2265 -0.9157  0.4138
  470TMC3    C8 7056   0.833   1.656   0.956  0.2469  0.0966 -0.3079
  470TMC3    O1 7057   0.369   1.316   1.032  0.5368 -0.8271 -0.9033
  470TMC3    O2 7058   0.813   1.697   1.070 -0.0879 -0.1764  0.3653
  471MPD2     C 7059   1.547   3.082  16.812 -0.0433  0.1557 -0.5062
  471MPD2    C1 7060   1.640   2.982  16.781  0.0459  0.7037  0.1360
  471MPD2    C2 7061   1.723   2.936  16.880  0.1152 -0.3799 -0.0330
  471MPD2    C3 7062   1.721   2.985  17.009  0.1015  1.1681  0.6679
  471MPD2    C4 7063   1.638   3.091  17.035 -0.9177  1.0976  0.1343
  471MPD2    C5 7064   1.550   3.133  16.934 -0.3034  0.5304  0.0865
  471MPD2     H 7065   1.783   2.856  16.840  0.1635 -1.0666  1.4341
  471MPD2    H1 7066   1.626   3.143  17.130  0.0382  1.2942  0.1502
  471MPD2    H2 7067   1.468   3.126  16.752 -0.2431  1.1228  0.4654
  471MPD2    H3 7068   1.471   3.205  16.954 -1.5148 -1.0289  0.8787
  471MPD2     N 7069   1.807   2.939  17.113  0.0785  0.6690  0.8081
  471MPD2    H5 7070   1.799   2.982  17.204  0.4329  0.4157  0.9571
  471MPD2    N1 7071   1.632   2.914  16.656  0.0093 -0.1132  0.5616
  471MPD2    H7 7072   1.686   2.828  16.653 -0.3876 -0.3888  1.3640
  472TMC3    C1 7073   1.533   2.821  16.471  0.0041  0.3894  0.1507
  472TMC3    C2 7074   1.484   2.839  16.344  0.3719  0.0855 -0.9223
  472TMC3    C3 7075   1.440   2.730  16.266  0.2283 -0.1425 -0.0924
  472TMC3    C4 7076   1.540   2.691  16.519 -0.3657  0.5221 -0.6594
  472TMC3    C5 7077   1.494   2.587  16.439  0.4904 -0.1309 -0.3320
  472TMC3    C6 7078   1.454   2.608  16.312  0.3246 -0.5961 -0.7736
  472TMC3     C 7079   1.546   2.940  16.553  0.2520 -0.7354  0.2755
  472TMC3     O 7080   1.473   3.036  16.538 -0.3904 -0.2543  0.0831
  472TMC3     H 7081   1.463   2.938  16.306 -0.4314 -0.2277 -1.2928
  472TMC3    H1 7082   1.584   2.669  16.615  0.2537 -0.3123 -1.1242
  472TMC3    H2 7083   1.403   2.539  16.246  0.3338 -2.7846  1.4806
  472TMC3    C7 7084   1.429   2.474  16.520 -0.3877 -0.3345 -0.2106
  472TMC3    C8 7085   1.314   2.752  16.209 -0.2438 -0.1505 -0.1437
  472TMC3    O1 7086   1.469   2.460  16.636 -0.6621  0.2736 -0.3317
  472TMC3    O2 7087   1.310   2.773  16.088 -0.3114 -0.1758 -0.5600
  473MPD2     C 7088   1.557   4.565  14.089  0.6495 -0.3486 -0.6120
  473MPD2    C1 7089   1.477   4.641  14.007  0.6319  0.4473  0.4860
  473MPD2    C2 7090   1.489   0.043  14.013  0.4547 -0.7376  0.5376
  473MPD2    C3 7091   1.575   0.102  14.100 -0.2613 -0.3810  1.1806
  473MPD2    C4 7092   1.655   0.025  14.179 -0.3091 -0.0919  0.1530
  473MPD2    C5 7093   1.648   4.628  14.167 -0.4715  0.1432 -0.4117
  473MPD2     H 7094   1.426   0.097  13.944  0.7791 -2.5414 -1.1910
  473MPD2    H1 7095   1.732   0.073  14.239  0.9944 -1.3513 -0.5230
  473MPD2    H2 7096   1.566   4.458  14.076 -0.6221 -0.3711 -1.3168
  473MPD2    H3 7097   1.704   4.562  14.232  0.2155 -0.0809 -1.2275
  473MPD2     N 7098   1.595   0.240  14.111 -0.2963 -0.1063 -0.1351
  473MPD2    H5 7099   1.672   0.273  14.168 -1.0088  1.3664 -0.0191
  473MPD2    N1 7100   1.379   4.587  13.912 -0.0465  0.0173  0.0876
  473MPD2    H7 7101   1.335   4.649  13.844  0.6944 -0.9422 -1.2835
  474TMC3    C1 7102   1.578   0.468  14.102 -0.7505  0.6549 -1.3095
  474TMC3    C2 7103   1.495   0.547  14.176 -0.5129  0.2101  0.0682
  474TMC3    C3 7104   1.559   0.656  14.234  0.7620 -0.3658  0.4969
  474TMC3    C4 7105   1.714   0.485  14.083 -0.4013 -0.0012  0.2531
  474TMC3    C5 7106   1.765   0.600  14.141  0.4799 -0.9776  0.1170
  474TMC3    C6 7107   1.692   0.694  14.214 -0.2126  0.5221 -0.3071
  474TMC3     C 7108   1.520   0.345  14.057 -0.2358  0.0504  0.3857
  474TMC3     O 7109   1.403   0.356  14.014 -0.2067  0.3970  0.0781
  474TMC3     H 7110   1.391   0.525  14.197 -0.3575 -0.4931  0.0779
  474TMC3    H1 7111   1.774   0.412  14.030  2.0190  1.6170  0.7860
  474TMC3    H2 7112   1.737   0.780  14.262 -1.9335  0.5738  1.2400
  474TMC3    C7 7113   1.906   0.595  14.175  0.6291  0.7975  0.4121
  474TMC3    C8 7114   1.466   0.737  14.309 -0.4063  0.6158  0.2507
  474TMC3    O1 7115   1.985   0.581  14.083 -0.1680 -0.2729  0.7072
  474TMC3    O2 7116   1.361   0.694  14.354 -0.0878  0.3720 -0.2138
  475MPD2     C 7117   3.900   3.482  11.585 -0.0123 -0.0298 -0.7598
  475MPD2    C1 7118   3.906   3.578  11.487  1.1207 -0.4477  0.2708
  475MPD2    C2 7119   3.792   3.591  11.414  0.9388 -0.5579 -0.8171
  475MPD2    C3 7120   3.683   3.507  11.435  0.3007 -0.0908  0.4017
  475MPD2    C4 7121   3.680   3.406  11.528 -0.6618 -0.4016  0.8765
  475MPD2    C5 7122   3.796   3.400  11.601  0.5188  0.4916  0.8056
  475MPD2     H 7123   3.782   3.672  11.343 -0.7426 -1.7016 -1.8844
  475MPD2    H1 7124   3.597   3.339  11.547 -0.7606 -0.3793  0.5376
  475MPD2    H2 7125   3.976   3.473  11.662  0.8572 -1.5493 -1.7971
  475MPD2    H3 7126   3.801   3.335  11.688 -0.7877  0.1218  0.6151
  475MPD2     N 7127   3.573   3.520  11.345  0.0077  0.2194 -0.1830
  475MPD2    H5 7128   3.580   3.594  11.276  1.6798 -1.1028 -1.4554
  475MPD2    N1 7129   4.017   3.667  11.482 -0.2023 -0.2820  0.0409
  475MPD2    H7 7130   4.099   3.671  11.543  0.3142  1.4293 -0.7779
  476TMC3    C1 7131   4.163   3.832  11.396 -0.8600 -0.4525  0.2321
  476TMC3    C2 7132   4.218   3.864  11.274 -0.5481  0.2235 -0.1850
  476TMC3    C3 7133   4.323   3.953  11.286 -0.9325  0.0540  0.6472
  476TMC3    C4 7134   4.202   3.891  11.517 -0.0524 -0.1189 -0.0539
  476TMC3    C5 7135   4.298   3.986  11.513  0.2996  0.2244  0.5087
  476TMC3    C6 7136   4.353   4.027  11.397  0.0216 -0.1239  0.6499
  476TMC3     C 7137   4.044   3.755  11.383  0.5778  0.3104  0.0764
  476TMC3     O 7138   3.987   3.754  11.274 -0.3884  0.3247  0.0878
  476TMC3     H 7139   4.164   3.838  11.184 -0.4940  3.4997 -1.1685
  476TMC3    H1 7140   4.146   3.881  11.609  0.4838 -1.3411  0.1370
  476TMC3    H2 7141   4.451   4.073  11.405  0.8020 -1.9733  1.6255
  476TMC3    C7 7142   4.324   4.066  11.634 -0.4398 -0.5163  0.3417
  476TMC3    C8 7143   4.420   3.955  11.186  0.6813 -0.0460  0.0509
  476TMC3    O1 7144   4.289   4.025  11.743 -0.1589  0.0676  0.4477
  476TMC3    O2 7145   4.513   4.038  11.177  0.5159 -0.6483 -0.4654
  477MPD2     C 7146   2.313   0.429  11.671 -0.7201  0.6113 -0.9975
  477MPD2    C1 7147   2.257   0.303  11.653 -0.0996 -0.2746  0.2275
  477MPD2    C2 7148   2.310   0.194  11.713 -0.7028 -0.2927  0.0776
  477MPD2    C3 7149   2.425   0.209  11.792  0.2302  0.0460  0.2242
  477MPD2    C4 7150   2.489   0.330  11.800 -0.2956  0.0784  0.1397
  477MPD2    C5 7151   2.434   0.442  11.733  0.2044 -0.0540  0.2171
  477MPD2     H 7152   2.265   0.096  11.703  0.1064 -1.0713  4.0264
  477MPD2    H1 7153   2.586   0.348  11.846  0.3323 -0.8190 -0.8133
  477MPD2    H2 7154   2.273   0.517  11.623 -1.3558  2.0694  2.2077
  477MPD2    H3 7155   2.479   0.540  11.734  1.0334 -0.4356 -0.0983
  477MPD2     N 7156   2.472   0.091  11.863 -0.4662 -0.1000  0.1712
  477MPD2    H5 7157   2.418   0.006  11.852 -0.2117 -0.2552  0.1234
  477MPD2    N1 7158   2.144   0.297  11.564 -0.3370 -0.5142 -0.0737
  477MPD2    H7 7159   2.104   0.386  11.536  0.6922 -0.0958 -0.1965
  478TMC3    C1 7160   1.928   0.213  11.498 -0.0571  0.1703  0.0194
  478TMC3    C2 7161   1.862   0.312  11.568  0.3877 -0.2339 -0.1071
  478TMC3    C3 7162   1.726   0.301  11.578 -0.1464 -0.0461 -0.3258
  478TMC3    C4 7163   1.867   0.109  11.443 -0.3103  0.4835  0.6760
  478TMC3    C5 7164   1.731   0.108  11.449 -0.6321 -0.5683 -0.3424
  478TMC3    C6 7165   1.655   0.200  11.524  0.5129  0.8238 -0.0487
  478TMC3     C 7166   2.070   0.189  11.534 -0.5245 -0.1765 -0.4373
  478TMC3     O 7167   2.097   0.075  11.559  0.2303 -0.2739 -0.5166
  478TMC3     H 7168   1.914   0.384  11.630  0.7551  0.5529 -1.3248
  478TMC3    H1 7169   1.919   0.028  11.392 -0.3855  0.4055  0.7220
  478TMC3    H2 7170   1.549   0.178  11.526  0.9446 -1.1673  0.8057
  478TMC3    C7 7171   1.665   0.015  11.359  0.1167 -0.3730  0.8102
  478TMC3    C8 7172   1.654   0.399  11.663  1.1291  0.5295  0.3978
  478TMC3    O1 7173   1.672   4.634  11.373  0.7838  0.2122  0.4477
  478TMC3    O2 7174   1.552   0.357  11.711 -0.5294 -0.2592  0.6191
  479MPD2     C 7175   1.278   2.303  15.520  0.2314 -1.2811  0.0396
  479MPD2    C1 7176   1.172   2.268  15.600  0.3824  0.6199 -0.1827
  479MPD2    C2 7177   1.173   2.300  15.731  0.1098 -0.8517  0.5841
  479MPD2    C3 7178   1.283   2.358  15.789 -0.1999 -0.2637 -0.3999
  479MPD2    C4 7179   1.393   2.383  15.710 -0.5154 -0.1766  0.4824
  479MPD2    C5 7180   1.395   2.358  15.579 -0.3498 -0.2770  0.7001
  479MPD2     H 7181   1.095   2.267  15.798 -0.2593 -0.5937  0.2849
  479MPD2    H1 7182   1.480   2.422  15.763 -1.4880  0.3559  1.6831
  479MPD2    H2 7183   1.287   2.271  15.416  0.0170 -0.6563 -0.1713
  479MPD2    H3 7184   1.484   2.374  15.520  0.9698  1.6169  3.2245
  479MPD2     N 7185   1.289   2.389  15.930 -0.0569 -0.2417 -0.1734
  479MPD2    H5 7186   1.383   2.410  15.960  0.2619 -2.3301  0.2982
  479MPD2    N1 7187   1.057   2.217  15.534 -0.9913  0.4908 -0.1163
  479MPD2    H7 7188   1.062   2.199  15.435  0.5513 -0.3218  0.0993
  480TMC3    C1 7189   0.831   2.309  15.989  0.3065  0.0416  0.2351
  480TMC3    C2 7190   0.789   2.399  15.890 -0.3707  0.0820 -0.1489
  480TMC3    C3 7191   0.878   2.491  15.841  0.6544 -0.0566 -0.8727
  480TMC3    C4 7192   0.957   2.329  16.044  0.1946 -0.0123  0.5333
  480TMC3    C5 7193   1.046   2.427  15.997  0.0932 -0.0571  0.4756
  480TMC3    C6 7194   1.012   2.496  15.884 -0.0640 -0.1777  0.3713
  480TMC3     C 7195   0.776   2.174  15.989 -0.2913 -0.5840  0.1362
  480TMC3     O 7196   0.698   2.149  15.902 -0.0737  0.2389  0.1261
  480TMC3     H 7197   0.687   2.389  15.856 -1.3678  1.8953  2.3032
  480TMC3    H1 7198   0.997   2.264  16.121 -1.8423 -0.5331  1.1540
  480TMC3    H2 7199   1.079   2.576  15.854  0.5320 -0.8308 -0.0549
  480TMC3    C7 7200   1.194   2.411  16.027 -0.5276  0.2449 -0.2312
  480TMC3    C8 7201   0.841   2.554  15.720  0.9166 -0.7982  0.1226
  480TMC3    O1 7202   1.229   2.412  16.143 -0.0954 -0.1148  0.3777
  480TMC3    O2 7203   0.728   2.602  15.704  0.7187 -0.4390 -0.0674
  481MPD2     C 7204   3.058   2.219  14.493 -0.8525  0.0890 -0.1653
  481MPD2    C1 7205   2.929   2.189  14.516 -0.1467  0.8422 -0.0584
  481MPD2    C2 7206   2.892   2.117  14.629  0.3476  0.2963  0.6368
  481MPD2    C3 7207   2.984   2.086  14.723 -0.1521  0.5885  0.0010
  481MPD2    C4 7208   3.118   2.119  14.703  0.4197  0.1254 -0.2299
  481MPD2    C5 7209   3.152   2.179  14.586  0.3311  0.4469  0.7597
  481MPD2     H 7210   2.789   2.084  14.645  0.7532 -0.3628  1.9089
  481MPD2    H1 7211   3.198   2.097  14.773  1.3140 -2.1863 -1.9869
  481MPD2    H2 7212   3.103   2.283  14.417 -0.7936 -0.4235 -0.5670
  481MPD2    H3 7213   3.255   2.209  14.568  1.1546 -1.7078  2.0098
  481MPD2     N 7214   2.951   2.026  14.846  0.6177 -0.3898 -0.6756
  481MPD2    H5 7215   3.015   2.029  14.925 -1.9173  3.3910  1.2841
  481MPD2    N1 7216   2.841   2.220  14.413  0.1347  0.1416 -0.1233
  481MPD2    H7 7217   2.883   2.267  14.333 -1.4042  2.4835  0.4446
  482TMC3    C1 7218   2.673   2.228  14.251 -0.7085  0.2515  0.7116
  482TMC3    C2 7219   2.620   2.121  14.177 -0.8482 -0.2886 -0.4342
  482TMC3    C3 7220   2.653   2.113  14.045 -0.2399 -0.5762  0.3420
  482TMC3    C4 7221   2.753   2.325  14.193  0.1324 -0.8838  0.2021
  482TMC3    C5 7222   2.779   2.312  14.063 -0.3663 -0.2177  0.3037
  482TMC3    C6 7223   2.743   2.202  13.989 -0.0203  0.1472  0.4861
  482TMC3     C 7224   2.706   2.193  14.393  0.0611 -0.2284 -0.6483
  482TMC3     O 7225   2.638   2.116  14.451  0.4109  0.2097 -0.0830
  482TMC3     H 7226   2.568   2.036  14.222  0.2796 -1.3642 -1.1649
  482TMC3    H1 7227   2.793   2.409  14.249 -0.7870  0.3720 -1.0219
  482TMC3    H2 7228   2.777   2.180  13.889 -0.1367 -1.8308  0.8865
  482TMC3    C7 7229   2.821   2.427  13.990 -0.0420  0.2309 -0.2078
  482TMC3    C8 7230   2.600   1.999  13.970 -0.2456  0.1404 -0.6124
  482TMC3    O1 7231   2.882   2.397  13.888  0.2896 -0.0305  0.0424
  482TMC3    O2 7232   2.534   1.915  14.028  0.3443  0.7073 -0.4685
  483TMC3    C1 7233   0.016   0.391   0.173 -0.0641  0.6111 -0.0883
  483TMC3    C2 7234   4.736   0.521   0.209 -0.4973 -0.2601 -0.0228
  483TMC3    C3 7235   0.047   0.553   0.334 -0.4360  0.1314  0.0651
  483TMC3    C4 7236   0.067   0.291   0.252  0.2034  0.3454  0.1722
  483TMC3    C5 7237   0.118   0.330   0.367 -0.0131 -0.0567  0.0047
  483TMC3    C6 7238   0.115   0.459   0.411  0.6003 -0.7257  0.5120
  483TMC3     C 7239   4.663   0.347   0.070 -0.3175  0.4427  0.2747
  483TMC3     O 7240   4.619   0.428  17.741 -0.0066 -0.0904  0.3751
  483TMC3     H 7241   4.702   0.596   0.139  0.8692 -1.2745 -1.7472
  483TMC3    H1 7242   0.100   0.197   0.210 -2.5740 -0.2085 -0.7682
  483TMC3    H2 7243   0.152   0.486   0.508 -1.4211  1.6628  0.6053
  483TMC3    C7 7244   0.225   0.243   0.419 -0.3458  0.4077 -0.2184
  483TMC3    C8 7245   0.108   0.677   0.347  0.3873  0.2307  0.2117
  483TMC3    O1 7246   0.315   0.304   0.475  0.0687 -0.2990  0.2115
  483TMC3    O2 7247   0.141   0.734   0.243  0.8910  0.0685  0.9515
  484MPD2     C 7248   2.412   3.814  12.771  0.4229  0.0298  0.3325
  484MPD2    C1 7249   2.509   3.741  12.838  0.1387 -0.0682  0.0132
  484MPD2    C2 7250   2.644   3.774  12.823  0.4588  0.5465  0.0533
  484MPD2    C3 7251   2.686   3.878  12.745  0.3573 -0.3444  0.1234
  484MPD2    C4 7252   2.583   3.955  12.695  1.1270  0.1223  0.0717
  484MPD2    C5 7253   2.451   3.927  12.712 -0.5853  1.1142  0.3026
  484MPD2     H 7254   2.720   3.705  12.860 -1.8653 -1.2640  1.4596
  484MPD2    H1 7255   2.618   4.040  12.638 -0.4804  0.0081 -1.0879
  484MPD2    H2 7256   2.309   3.781  12.779  0.0069  1.6551  1.8656
  484MPD2    H3 7257   2.378   3.997  12.672 -0.5817  0.6700 -0.4965
  484MPD2     N 7258   2.820   3.914  12.722  0.1663 -0.1324  0.0229
  484MPD2    H5 7259   2.834   3.993  12.659 -0.8329 -0.3940 -0.5298
  484MPD2    N1 7260   2.464   3.631  12.923 -0.3879 -0.3554  0.8393
  484MPD2    H7 7261   2.367   3.605  12.910 -0.6668  1.5620 -0.8781
  485TMC3    C1 7262   3.046   3.940  12.761 -0.6688 -0.1715 -0.3496
  485TMC3    C2 7263   3.117   3.984  12.865  0.5916 -0.4481  0.0268
  485TMC3    C3 7264   3.220   4.074  12.849 -1.0174 -0.5436 -0.1117
  485TMC3    C4 7265   3.076   3.966  12.630  0.3569  0.2632 -0.0134
  485TMC3    C5 7266   3.191   4.036  12.613  0.1221  0.1148 -0.3308
  485TMC3    C6 7267   3.251   4.106  12.710 -0.2033 -0.4269 -0.4980
  485TMC3     C 7268   2.927   3.862  12.798 -0.9226  0.0466 -0.0661
  485TMC3     O 7269   2.928   3.813  12.911 -0.1042 -0.0377  0.1334
  485TMC3     H 7270   3.112   3.950  12.968  0.0524 -1.9925 -0.5163
  485TMC3    H1 7271   3.013   3.920  12.554  0.4866  0.8337 -0.4694
  485TMC3    H2 7272   3.334   4.172  12.689 -0.7596  0.5739  0.3977
  485TMC3    C7 7273   3.289   3.983  12.520 -0.5601  0.0293  0.3203
  485TMC3    C8 7274   3.341   4.052  12.928 -0.1420  0.4878 -0.0677
  485TMC3    O1 7275   3.403   3.995  12.558  0.6740  0.3280  0.3616
  485TMC3    O2 7276   3.327   4.020  13.044 -0.1829 -0.3000 -0.3196
  486MPD2     C 7277   0.795   2.434  12.926 -0.2439 -0.6105  0.1720
  486MPD2    C1 7278   0.698   2.357  12.870  0.0916 -0.1713  0.0211
  486MPD2    C2 7279   0.577   2.410  12.834 -0.3967 -0.3939 -1.0355
  486MPD2    C3 7280   0.549   2.543  12.854  0.2486  0.6671  0.5598
  486MPD2    C4 7281   0.655   2.621  12.896  0.4883 -0.3738  0.1316
  486MPD2    C5 7282   0.782   2.570  12.929 -0.6487  0.2148 -0.0137
  486MPD2     H 7283   0.496   2.349  12.795 -1.2643 -0.2902  0.6589
  486MPD2    H1 7284   0.652   2.729  12.909 -1.3266 -0.6876  2.1132
  486MPD2    H2 7285   0.893   2.388  12.937 -0.0564 -0.0412  0.8314
  486MPD2    H3 7286   0.863   2.629  12.971 -0.2156  0.4846 -1.2255
  486MPD2     N 7287   0.419   2.597  12.838  0.3397 -0.1055  0.5534
  486MPD2    H5 7288   0.355   2.524  12.809  0.9609 -0.1986 -0.6059
  486MPD2    N1 7289   0.733   2.217  12.853 -0.1536  0.2400  0.3393
  486MPD2    H7 7290   0.823   2.190  12.891 -0.2188  0.5702  0.7446
  487TMC3    C1 7291   0.704   1.981  12.816 -0.0677 -0.5670  0.1996
  487TMC3    C2 7292   0.638   1.870  12.766  0.0834 -0.4337  0.2831
  487TMC3    C3 7293   0.682   1.743  12.795  0.0779 -0.1479  0.4844
  487TMC3    C4 7294   0.814   1.958  12.907 -0.2607 -0.1653  0.6943
  487TMC3    C5 7295   0.856   1.831  12.925 -0.2070 -0.2208 -0.1435
  487TMC3    C6 7296   0.803   1.721  12.862 -0.1150  0.6422 -0.2020
  487TMC3     C 7297   0.652   2.113  12.808 -0.3088  0.0515  1.2088
  487TMC3     O 7298   0.534   2.121  12.771  0.2315 -0.4642 -0.2950
  487TMC3     H 7299   0.551   1.882  12.702  1.0388 -1.1641 -1.1601
  487TMC3    H1 7300   0.843   2.039  12.973  0.1059 -0.8217  1.3387
  487TMC3    H2 7301   0.837   1.619  12.878 -1.0361  0.4166  0.3516
  487TMC3    C7 7302   0.911   1.801  13.056 -0.4090  0.0436  0.0343
  487TMC3    C8 7303   0.577   1.672  12.862  0.8557  0.2421  0.6769
  487TMC3    O1 7304   0.850   1.855  13.150 -0.1361 -0.0340 -0.0932
  487TMC3    O2 7305   0.476   1.738  12.896  0.4541  0.3196  0.3418
  488MPD2     C 7306   0.290   4.602  16.146 -0.2678  0.0706  0.7381
  488MPD2    C1 7307   0.377   4.574  16.246  0.0581  0.1056  0.4747
  488MPD2    C2 7308   0.339   4.508  16.359 -0.2716 -0.2170 -0.0550
  488MPD2    C3 7309   0.210   4.486  16.384 -0.0626 -0.2005 -0.4444
  488MPD2    C4 7310   0.117   4.519  16.286  0.2966 -0.1427 -0.1160
  488MPD2    C5 7311   0.167   4.554  16.159 -0.1051  0.4581 -0.0215
  488MPD2     H 7312   0.410   4.476  16.434 -2.0279 -1.8082  0.9486
  488MPD2    H1 7313   0.011   4.503  16.300 -0.1216  2.6830 -0.1184
  488MPD2    H2 7314   0.313   4.662  16.059 -3.4224 -2.7966 -2.0683
  488MPD2    H3 7315   0.102   4.557  16.072 -1.7928  0.0766  1.2373
  488MPD2     N 7316   0.172   4.425  16.506  0.1412 -0.3728 -0.2295
  488MPD2    H5 7317   0.255   4.392  16.555  0.7711  0.1547 -0.9305
  488MPD2    N1 7318   0.512   4.606  16.239  0.1582 -0.0769  0.2885
  488MPD2    H7 7319   0.562   4.583  16.324  1.0484 -0.1512 -0.2540
  489TMC3    C1 7320   0.054   4.371  16.690  0.3652 -0.2125  0.0923
  489TMC3    C2 7321   0.171   4.310  16.734  0.5480 -0.8248  0.0615
  489TMC3    C3 7322   0.185   4.288  16.866  0.1038  0.3734  0.0860
  489TMC3    C4 7323   4.683   4.403  16.770  0.2034  0.2755 -0.5377
  489TMC3    C5 7324   4.702   4.375  16.901  0.3039 -0.8384 -0.3724
  489TMC3    C6 7325   0.087   4.328  16.954 -0.4208  0.2228  0.1056
  489TMC3     C 7326   0.051   4.422  16.561 -0.1414  0.2145 -0.0731
  489TMC3     O 7327   4.691   4.474  16.505  0.4472 -0.1357  0.3645
  489TMC3     H 7328   0.249   4.274  16.666 -2.0743  0.0910 -3.4165
  489TMC3    H1 7329   4.595   4.460  16.745 -0.3169  0.4419  1.6287
  489TMC3    H2 7330   0.104   4.310  17.059 -0.2650  0.0923  0.0577
  489TMC3    C7 7331   4.596   4.406  16.998 -0.0798  0.9597  0.5566
  489TMC3    C8 7332   0.320   4.262  16.913  0.2007 -0.0843  0.4706
  489TMC3    O1 7333   4.626   4.421  17.113  0.0623 -0.0440 -0.6955
  489TMC3    O2 7334   0.377   4.361  16.969 -0.5437 -0.3818  0.3459
  490MPD2     C 7335   1.172   3.768   0.364  0.9644  0.0631  0.1773
  490MPD2    C1 7336   1.173   3.672   0.266  0.2005  0.0559  0.1108
  490MPD2    C2 7337   1.288   3.669   0.186 -0.2097  0.5204  0.4947
  490MPD2    C3 7338   1.392   3.761   0.201 -0.5917 -0.3099 -0.4023
  490MPD2    C4 7339   1.388   3.852   0.308  0.1406  0.3552 -0.0406
  490MPD2    C5 7340   1.283   3.849   0.391  0.1190 -0.3177  0.1063
  490MPD2     H 7341   1.298   3.595   0.107 -0.2415 -1.6559  2.5189
  490MPD2    H1 7342   1.467   3.924   0.327  0.5531 -0.3907  1.0607
  490MPD2    H2 7343   1.100   3.769   0.445  2.3227 -2.4468  1.3822
  490MPD2    H3 7344   1.284   3.918   0.475  0.3589  1.3747 -1.2781
  490MPD2     N 7345   1.500   3.759   0.123  0.7680 -0.0794  0.8170
  490MPD2    H5 7346   1.581   3.805   0.162 -0.2624  2.2776  0.1897
  490MPD2    N1 7347   1.083   3.563   0.251 -0.5538  0.3450 -0.7035
  490MPD2    H7 7348   1.100   3.489   0.183  0.8681  1.4460 -1.5544
  491TMC3    C1 7349   0.900   3.423   0.310  0.2151  0.1413  0.4807
  491TMC3    C2 7350   0.848   3.360   0.418  0.4458 -0.5732 -0.7792
  491TMC3    C3 7351   0.786   3.242   0.397 -0.1934  0.0895  0.2566
  491TMC3    C4 7352   0.893   3.370   0.190  0.0049 -0.6020  0.3472
  491TMC3    C5 7353   0.817   3.261   0.173  0.7690 -0.1353  1.1015
  491TMC3    C6 7354   0.765   3.190   0.275 -0.5377  0.2016 -0.4582
  491TMC3     C 7355   0.976   3.547   0.338 -0.0080  0.6763  0.1993
  491TMC3     O 7356   0.936   3.614   0.432 -0.5394  0.0735 -0.4025
  491TMC3     H 7357   0.874   3.407   0.512 -2.6734 -0.0191 -0.1981
  491TMC3    H1 7358   0.910   3.438   0.108  4.2075 -3.1213 -0.8727
  491TMC3    H2 7359   0.721   3.092   0.260 -0.1279 -0.3080  1.7046
  491TMC3    C7 7360   0.785   3.216   0.036 -0.0465  0.1461 -0.4098
  491TMC3    C8 7361   0.794   3.151   0.510  0.5855  0.5502  0.3231
  491TMC3    O1 7362   0.716   3.115   0.017  0.4112 -0.3899  0.0641
  491TMC3    O2 7363   0.797   3.035   0.471 -0.0293 -0.1434 -0.3173
  492MPD2     C 7364   2.020   3.553  11.570 -0.3377  0.1500  0.1821
  492MPD2    C1 7365   1.891   3.592  11.539  0.9671 -0.2325  0.1839
  492MPD2    C2 7366   1.797   3.612  11.649  0.8271 -0.1676 -0.5059
  492MPD2    C3 7367   1.838   3.597  11.784 -0.2500 -0.0301  0.4382
  492MPD2    C4 7368   1.975   3.570  11.806  0.3786 -0.2785  0.0342
  492MPD2    C5 7369   2.058   3.552  11.701  0.7020  0.2834 -0.0252
  492MPD2     H 7370   1.693   3.638  11.633  0.6220 -0.4878  0.3155
  492MPD2    H1 7371   2.009   3.569  11.909  0.4698  0.3989  0.0131
  492MPD2    H2 7372   2.091   3.521  11.495 -0.1307  0.3145  0.3044
  492MPD2    H3 7373   2.161   3.522  11.717  0.7049 -0.5579 -1.6034
  492MPD2     N 7374   1.751   3.599  11.896  0.1487  0.6821  0.2758
  492MPD2    H5 7375   1.787   3.562  11.984  0.7689  0.8454  0.0934
  492MPD2    N1 7376   1.849   3.599  11.404 -0.3771  0.3622 -0.1409
  492MPD2    H7 7377   1.916   3.592  11.328 -1.5864 -0.7556 -1.1014
  493TMC3    C1 7378   1.698   3.594  11.224 -0.0715  0.1397  1.2053
  493TMC3    C2 7379   1.747   3.704  11.155  0.1144 -0.2037  0.1629
  493TMC3    C3 7380   1.678   3.763  11.055 -0.4848  0.1850  0.3781
  493TMC3    C4 7381   1.581   3.537  11.181  0.0196 -0.4243  0.8285
  493TMC3    C5 7382   1.519   3.596  11.076 -0.1454  0.6057  0.0541
  493TMC3    C6 7383   1.563   3.704  11.008 -0.0385  0.5449  0.2987
  493TMC3     C 7384   1.718   3.592  11.364 -0.7262  0.6537 -0.1454
  493TMC3     O 7385   1.625   3.553  11.429  0.9150  0.0705 -0.1973
  493TMC3     H 7386   1.832   3.755  11.199 -0.4909  2.0446 -1.2508
  493TMC3    H1 7387   1.538   3.441  11.209  0.8644 -1.4479 -1.3167
  493TMC3    H2 7388   1.514   3.763  10.931  1.1384 -1.0186 -1.6470
  493TMC3    C7 7389   1.393   3.549  11.026 -0.1039 -0.5455  0.1523
  493TMC3    C8 7390   1.673   3.909  11.069 -0.6559 -0.4121 -0.2954
  493TMC3    O1 7391   1.366   3.571  10.911  0.0947 -0.7568 -0.7492
  493TMC3    O2 7392   1.554   3.936  11.093 -0.4929  0.3855 -0.1147
  494TMC3    C1 7393   1.473   0.313   0.239  0.7211 -0.0903 -0.4321
  494TMC3    C2 7394   1.569   0.218   0.258 -0.6300 -0.0021  0.8691
  494TMC3    C3 7395   1.666   0.197   0.168 -0.4608 -0.2220  0.2383
  494TMC3    C4 7396   1.462   0.378   0.117 -0.1618 -0.0310 -0.2718
  494TMC3    C5 7397   1.566   0.359   0.027  0.5333 -0.0714 -0.0432
  494TMC3    C6 7398   1.670   0.270   0.050 -0.5209 -0.0637  0.1644
  494TMC3     C 7399   1.366   0.335   0.333 -0.2522 -0.0841 -0.1366
  494TMC3     O 7400   1.399   0.308   0.445 -0.0449  0.2879 -0.1132
  494TMC3     H 7401   1.573   0.170   0.355  1.8930 -1.2557  0.1225
  494TMC3    H1 7402   1.393   0.459   0.095 -2.2185 -1.1440  2.0727
  494TMC3    H2 7403   1.765   0.276  17.749 -1.1371 -0.0545 -0.9795
  494TMC3    C7 7404   1.568   0.426  17.648  0.6651  0.9151 -0.3722
  494TMC3    C8 7405   1.762   0.099   0.205  0.8586  0.0822 -0.2293
  494TMC3    O1 7406   1.623   0.350  17.567 -0.4494 -0.0896  0.1393
  494TMC3    O2 7407   1.768   0.066   0.321  0.3313  0.2841 -0.3409
  495TMC3    C1 7408   1.344   2.246  14.939 -0.7918  0.4689  0.3279
  495TMC3    C2 7409   1.302   2.280  14.814 -0.5741 -0.2570 -0.1117
  495TMC3    C3 7410   1.190   2.360  14.797  0.2225 -0.5649 -0.1097
  495TMC3    C4 7411   1.290   2.302  15.054  0.0091  0.4013  0.3707
  495TMC3    C5 7412   1.179   2.375  15.028  0.2419  0.4772 -0.7229
  495TMC3    C6 7413   1.130   2.409  14.906 -0.3437 -0.0871 -0.2099
  495TMC3     C 7414   1.357   2.101  14.947  0.2747  0.2290 -0.5148
  495TMC3     O 7415   1.295   2.043  15.036 -0.7423  0.4247 -0.0244
  495TMC3     H 7416   1.356   2.244  14.727  2.4760  1.3407  1.1419
  495TMC3    H1 7417   1.329   2.274  15.151 -2.5102 -0.4405  1.1399
  495TMC3    H2 7418   1.033   2.456  14.895 -0.3797 -0.3003 -0.7859
  495TMC3    C7 7419   1.119   2.415  15.151 -0.1497 -0.1460 -0.1294
  495TMC3    C8 7420   1.087   2.298  14.715 -0.0315 -0.4535 -0.0453
  495TMC3    O1 7421   1.149   2.352  15.255 -0.2428  0.1401  0.3352
  495TMC3    O2 7422   0.986   2.360  14.688  0.1768  0.3384 -0.6218
  496MPD2     C 7423   3.235   2.864  15.543  0.2080  0.0217 -0.5630
  496MPD2    C1 7424   3.196   2.737  15.525 -0.4897 -0.3259  0.8063
  496MPD2    C2 7425   3.062   2.695  15.508 -0.0322 -0.3110  0.2424
  496MPD2    C3 7426   2.964   2.790  15.532 -0.3154 -0.2627  0.1391
  496MPD2    C4 7427   3.002   2.920  15.552 -0.6354  0.1528 -0.2677
  496MPD2    C5 7428   3.134   2.956  15.560  0.4738 -0.3666 -0.3444
  496MPD2     H 7429   3.034   2.591  15.503 -0.2989 -0.1377 -1.6537
  496MPD2    H1 7430   2.932   3.003  15.544  2.0060  2.4828  0.6914
  496MPD2    H2 7431   3.336   2.896  15.567  0.1266  0.8913 -1.3771
  496MPD2    H3 7432   3.153   3.062  15.572  0.9131 -0.4144 -0.6358
  496MPD2     N 7433   2.826   2.758  15.532 -0.0093 -0.0937  0.1504
  496MPD2    H5 7434   2.762   2.810  15.592  1.5356 -0.8673  2.4920
  496MPD2    N1 7435   3.302   2.637  15.524 -0.0669 -0.5337  0.0883
  496MPD2    H7 7436   3.397   2.670  15.534 -0.2270 -0.5217  1.5748
  497TMC3    C1 7437   2.651   2.595  15.522 -0.2396 -0.4976  0.0863
  497TMC3    C2 7438   2.578   2.514  15.433 -0.5215 -0.4606 -0.4166
  497TMC3    C3 7439   2.487   2.424  15.483 -1.1033  0.3657  0.0546
  497TMC3    C4 7440   2.645   2.582  15.655  0.0426  0.1324  0.3100
  497TMC3    C5 7441   2.560   2.488  15.705 -0.2423 -0.1423 -0.4638
  497TMC3    C6 7442   2.476   2.410  15.621 -0.2223 -0.3613 -0.1804
  497TMC3     C 7443   2.770   2.656  15.461  0.4540 -0.5566  0.5993
  497TMC3     O 7444   2.815   2.613  15.354 -0.4228  0.1492 -0.1197
  497TMC3     H 7445   2.599   2.525  15.327 -4.2082 -0.8809 -1.1939
  497TMC3    H1 7446   2.692   2.654  15.721  0.1655  1.0942 -0.8350
  497TMC3    H2 7447   2.408   2.348  15.677  1.2708 -2.6593 -0.9388
  497TMC3    C7 7448   2.558   2.445  15.844 -0.1487  0.1056 -0.2656
  497TMC3    C8 7449   2.422   2.342  15.380 -0.5606 -0.5723 -0.1731
  497TMC3    O1 7450   2.459   2.389  15.892  0.3480 -0.0203 -0.3390
  497TMC3    O2 7451   2.428   2.389  15.268 -0.6178 -0.7144  0.5019
  498MPD2     C 7452   3.518   3.041   9.985  0.1024  0.4625  0.7441
  498MPD2    C1 7453   3.535   3.103  10.106  0.2631 -0.7550 -0.4066
  498MPD2    C2 7454   3.435   3.100  10.200  0.1540  0.3146 -0.4226
  498MPD2    C3 7455   3.327   3.011  10.186 -0.2887  0.8956 -0.0011
  498MPD2    C4 7456   3.311   2.946  10.061  0.1051 -0.0251  0.3609
  498MPD2    C5 7457   3.404   2.965   9.964  0.2911  0.1989 -0.4055
  498MPD2     H 7458   3.441   3.165  10.286 -0.4877 -1.5765  1.0369
  498MPD2    H1 7459   3.231   2.877  10.038  1.3092 -0.6835 -1.8630
  498MPD2    H2 7460   3.585   3.054   9.900 -1.1064  1.2860 -0.0788
  498MPD2    H3 7461   3.397   2.916   9.868  0.7606  2.2995 -1.5152
  498MPD2     N 7462   3.224   2.993  10.282  0.2051  0.5128 -0.2086
  498MPD2    H5 7463   3.146   2.928  10.276  0.2559  0.4106  0.2846
  498MPD2    N1 7464   3.636   3.200  10.116 -0.1515 -0.2642 -0.7809
  498MPD2    H7 7465   3.645   3.252  10.203 -0.8962 -0.5091 -0.5558
  499TMC3    C1 7466   3.828   3.323  10.089  0.3250 -0.1858  0.3882
  499TMC3    C2 7467   3.961   3.303  10.102  0.4348 -0.3568 -0.1892
  499TMC3    C3 7468   4.020   3.406  10.183  0.6847  0.2338 -0.4642
  499TMC3    C4 7469   3.756   3.431  10.131 -0.5900  0.4615  0.4818
  499TMC3    C5 7470   3.820   3.531  10.195 -0.7497 -0.4746  0.1035
  499TMC3    C6 7471   3.951   3.519  10.227  0.2075  0.7110 -0.7725
  499TMC3     C 7472   3.750   3.207  10.043  0.5005  0.3526 -0.5630
  499TMC3     O 7473   3.796   3.129   9.963 -0.2671 -0.0515  0.4056
  499TMC3     H 7474   4.000   3.204  10.078  0.4489 -0.1692 -0.9363
  499TMC3    H1 7475   3.649   3.440  10.117 -0.5599  1.1966  0.7124
  499TMC3    H2 7476   3.997   3.600  10.282 -0.1864 -0.4331  1.2337
  499TMC3    C7 7477   3.779   3.674  10.186 -0.1744 -0.4318 -0.4688
  499TMC3    C8 7478   4.163   3.412  10.223 -0.4750  0.2287  0.9178
  499TMC3    O1 7479   3.865   3.763  10.188 -0.5755 -0.3955 -0.0807
  499TMC3    O2 7480   4.198   3.494  10.311 -0.2800  0.2483 -0.2711
  500MPD2     C 7481   0.482   4.079  10.949  0.0813 -0.2058 -0.2720
  500MPD2    C1 7482   0.399   4.180  10.995 -0.9937  0.2747  0.5978
  500MPD2    C2 7483   0.273   4.198  10.932 -0.2688 -0.1716  0.6138
  500MPD2    C3 7484   0.224   4.098  10.839  0.4452  0.6501 -0.0679
  500MPD2    C4 7485   0.306   3.999  10.803  0.3293  0.0992  0.2731
  500MPD2    C5 7486   0.434   3.990  10.854 -0.0619  0.7466 -0.3447
  500MPD2     H 7487   0.217   4.283  10.968  0.3000  0.5379 -0.1997
  500MPD2    H1 7488   0.268   3.921  10.739 -2.6805  1.6111  0.2324
  500MPD2    H2 7489   0.586   4.067  10.978  0.3230 -0.9698 -1.4587
  500MPD2    H3 7490   0.501   3.909  10.830  0.8118  1.5039 -0.4731
  500MPD2     N 7491   0.104   4.110  10.769  0.4463 -0.1390  0.3908
  500MPD2    H5 7492   0.084   4.040  10.699 -0.5764 -0.2755  0.8234
  500MPD2    N1 7493   0.440   4.267  11.100 -0.3142  0.0901  0.0141
  500MPD2    H7 7494   0.371   4.333  11.135 -0.9436 -0.8276  0.5195
  501TMC3    C1 7495   0.575   4.405  11.237  0.6009  0.7617  0.0329
  501TMC3    C2 7496   0.511   4.517  11.184  0.4749 -0.1735  0.5219
  501TMC3    C3 7497   0.552   4.637  11.218  0.1245  0.0719 -0.4219
  501TMC3    C4 7498   0.691   4.421  11.301 -0.0593  0.8687  0.1539
  501TMC3    C5 7499   0.741   4.544  11.333 -0.0935  0.3077  1.2121
  501TMC3    C6 7500   0.672   4.660  11.291 -0.2789 -0.1003  0.3604
  501TMC3     C 7501   0.566   4.282  11.156  0.1322  0.4726 -0.5472
  501TMC3     O 7502   0.668   4.228  11.119  0.6092 -0.6599  0.3167
  501TMC3     H 7503   0.427   4.510  11.116  1.1169 -1.3855 -0.1461
  501TMC3    H1 7504   0.732   4.326  11.333  1.2813  0.6612 -2.2244
  501TMC3    H2 7505   0.717   0.019  11.303 -1.8649  0.8663 -1.4953
  501TMC3    C7 7506   0.880   4.551  11.393  0.2185  0.7335 -0.4492
  501TMC3    C8 7507   0.513   0.013  11.134 -0.1464  0.5363 -0.2897
  501TMC3    O1 7508   0.924   4.444  11.438  0.5165 -0.0406  0.3543
  501TMC3    O2 7509   0.397   0.021  11.105  1.2806  0.0559  0.2813
  502TMC3    C1 7510   0.633   3.629  15.259  1.1419 -0.7435 -0.4956
  502TMC3    C2 7511   0.653   3.725  15.160  0.0921 -0.2787  0.0178
  502TMC3    C3 7512   0.542   3.747  15.079 -0.0641  0.0454 -0.4038
  502TMC3    C4 7513   0.530   3.539  15.259  0.1819 -0.1209 -0.0138
  502TMC3    C5 7514   0.434   3.549  15.159 -0.7665  0.1307 -0.9382
  502TMC3    C6 7515   0.431   3.660  15.086 -0.3972 -0.7090  0.2066
  502TMC3     C 7516   0.735   3.612  15.357 -0.1533 -0.3222  0.0204
  502TMC3     O 7517   0.850   3.648  15.328 -0.0473 -0.0150  0.0086
  502TMC3     H 7518   0.743   3.782  15.144 -1.5354  2.3190  0.0363
  502TMC3    H1 7519   0.550   3.448  15.314  1.2399 -0.0211 -0.2468
  502TMC3    H2 7520   0.347   3.661  15.019 -0.3877  0.6173  0.2229
  502TMC3    C7 7521   0.304   3.477  15.164 -0.9526 -0.5475 -0.1567
  502TMC3    C8 7522   0.543   3.848  14.975  0.0288  0.2066  0.4433
  502TMC3    O1 7523   0.204   3.537  15.150 -0.4562  0.3386 -0.9993
  502TMC3    O2 7524   0.637   3.923  14.973  0.2709  0.4899  0.0633
  503MPD2     C 7525   2.548   4.158  16.823 -0.4658  0.3865  0.4832
  503MPD2    C1 7526   2.498   4.157  16.949 -0.4994  0.7618  0.4458
  503MPD2    C2 7527   2.563   4.082  17.039  1.2047  0.0011 -0.3629
  503MPD2    C3 7528   2.667   3.998  17.003 -0.9588 -0.3214 -0.1238
  503MPD2    C4 7529   2.714   3.996  16.874 -0.4405  0.4453  0.3425
  503MPD2    C5 7530   2.651   4.072  16.786  0.4216  0.8736  0.0649
  503MPD2     H 7531   2.526   4.072  17.141  2.9921  2.9692  0.5810
  503MPD2    H1 7532   2.806   3.950  16.840 -0.4425 -0.9780  2.2480
  503MPD2    H2 7533   2.504   4.217  16.743 -0.2279 -0.5091 -0.3102
  503MPD2    H3 7534   2.686   4.069  16.684  2.0934 -2.5345  0.7445
  503MPD2     N 7535   2.729   3.941  17.112  0.5599  1.1851  0.0617
  503MPD2    H5 7536   2.701   3.963  17.207  1.9514  0.6481  0.6100
  503MPD2    N1 7537   2.388   4.240  16.983 -0.7763 -0.7232 -0.2717
  503MPD2    H7 7538   2.354   4.242  17.079 -1.9216 -0.1326 -0.6950
  504TMC3    C1 7539   2.881   3.811  17.236 -0.0090 -0.5517 -0.3944
  504TMC3    C2 7540   2.798   3.761  17.334 -0.2765  0.3075 -0.1693
  504TMC3    C3 7541   2.848   3.678  17.431  0.2958  0.2770  0.8838
  504TMC3    C4 7542   3.019   3.778  17.238 -0.1533 -0.2358  0.3203
  504TMC3    C5 7543   3.059   3.694  17.337 -1.6609 -0.1672  0.2150
  504TMC3    C6 7544   2.979   3.650  17.434  0.1302  0.2195  0.2025
  504TMC3     C 7545   2.838   3.859  17.106  1.1510  0.6062  0.1080
  504TMC3     O 7546   2.899   3.816  17.007  0.3519  0.5485 -0.0378
  504TMC3     H 7547   2.691   3.778  17.337 -0.7573 -2.6164 -0.9122
  504TMC3    H1 7548   3.082   3.793  17.152  0.5543  0.9175  1.0283
  504TMC3    H2 7549   3.022   3.568  17.490 -1.2076 -0.9010 -0.3929
  504TMC3    C7 7550   3.199   3.644  17.336  0.1331 -0.0867 -0.3099
  504TMC3    C8 7551   2.757   3.610  17.519 -0.1317 -0.0528  0.8459
  504TMC3    O1 7552   3.248   3.650  17.226  0.7281 -0.0460  0.1882
  504TMC3    O2 7553   2.640   3.615  17.492 -0.0519  0.3808 -0.4134
  505MPD2     C 7554   1.905   2.549  11.030  0.5035 -0.2160  0.7759
  505MPD2    C1 7555   2.008   2.548  10.938  0.3307 -0.0920  0.3882
  505MPD2    C2 7556   2.140   2.529  10.983 -0.5273  0.1273  0.3120
  505MPD2    C3 7557   2.163   2.501  11.116 -0.4928  0.0517  0.4138
  505MPD2    C4 7558   2.064   2.500  11.206  0.0834 -0.2397 -1.2364
  505MPD2    C5 7559   1.937   2.527  11.165  0.1405 -0.0205 -0.5784
  505MPD2     H 7560   2.228   2.532  10.921 -0.2855 -3.2524  0.5254
  505MPD2    H1 7561   2.080   2.465  11.307  1.1200  1.7080 -0.7377
  505MPD2    H2 7562   1.802   2.572  11.005  0.7778  1.4132  1.1309
  505MPD2    H3 7563   1.856   2.524  11.237 -0.3514  0.1312 -1.1246
  505MPD2     N 7564   2.291   2.459  11.161 -0.7419 -0.7024  0.2213
  505MPD2    H5 7565   2.295   2.442  11.261 -0.7947 -0.8875  0.1909
  505MPD2    N1 7566   1.966   2.546  10.798  0.6382 -0.0204  0.3414
  505MPD2    H7 7567   1.868   2.543  10.772  0.9088  2.0081 -0.9522
  506TMC3    C1 7568   2.007   2.509  10.567 -0.1944 -0.0936 -0.1764
  506TMC3    C2 7569   1.992   2.625  10.499  0.0998  0.0104 -0.2999
  506TMC3    C3 7570   2.044   2.636  10.375  0.3638 -0.1434 -0.6793
  506TMC3    C4 7571   2.081   2.411  10.502 -0.1446 -0.2942 -0.1873
  506TMC3    C5 7572   2.131   2.426  10.373  0.6029  0.3548  0.5467
  506TMC3    C6 7573   2.112   2.538  10.305 -0.0282 -0.2198 -0.2073
  506TMC3     C 7574   2.058   2.523  10.697 -0.0474  0.3681 -0.0077
  506TMC3     O 7575   2.178   2.490  10.700  0.2222 -0.5121 -0.1775
  506TMC3     H 7576   1.955   2.709  10.557 -0.7554 -1.8426  1.8014
  506TMC3    H1 7577   2.078   2.312  10.544  0.5476  0.1583  0.9213
  506TMC3    H2 7578   2.147   2.555  10.204 -0.5045 -0.8165 -0.4754
  506TMC3    C7 7579   2.269   2.386  10.364 -0.3459  0.5164  0.3263
  506TMC3    C8 7580   2.082   2.765  10.328 -0.7187  0.4802 -0.2708
  506TMC3    O1 7581   2.325   2.381  10.257  0.0555 -0.1687  0.2186
  506TMC3    O2 7582   1.994   2.850  10.323  0.3092 -0.0799 -0.6213
  507TMC3    C1 7583   3.877   3.417  14.854  0.2927  0.4332  0.3924
  507TMC3    C2 7584   3.846   3.356  14.734  0.0043 -0.3356  0.1671
  507TMC3    C3 7585   3.908   3.406  14.624  0.6854  0.9859  0.6453
  507TMC3    C4 7586   3.955   3.527  14.868 -1.0596 -0.6988  0.6215
  507TMC3    C5 7587   4.025   3.566  14.759  0.6653 -0.0787 -0.3192
  507TMC3    C6 7588   4.007   3.497  14.644  0.1660 -0.1123 -0.2407
  507TMC3     C 7589   3.785   3.405  14.966 -0.4214 -0.6220  0.2696
  507TMC3     O 7590   3.829   3.426  15.078  0.8708 -0.3491 -0.0271
  507TMC3     H 7591   3.781   3.270  14.729  1.3057 -1.4186  1.5300
  507TMC3    H1 7592   3.962   3.571  14.966 -2.2412  3.4719 -1.1512
  507TMC3    H2 7593   4.063   3.521  14.555  0.5112  1.0987  0.2990
  507TMC3    C7 7594   4.022   3.706  14.730  0.3206 -0.3920  0.3151
  507TMC3    C8 7595   3.830   3.424  14.510  0.2447  0.1029  0.4296
  507TMC3    O1 7596   4.015   3.732  14.612  0.0455  0.3486 -0.3200
  507TMC3    O2 7597   3.733   3.350  14.497 -0.0994 -0.3013  0.5221
  508MPD2     C 7598   4.340   1.177  15.462  0.7827  0.4273  0.6403
  508MPD2    C1 7599   4.291   1.204  15.591  0.0513 -0.7474  0.0747
  508MPD2    C2 7600   4.288   1.336  15.620  0.1633 -0.0484 -0.0863
  508MPD2    C3 7601   4.334   1.440  15.538 -0.6416  0.1803  0.0609
  508MPD2    C4 7602   4.369   1.405  15.409  0.1114  0.2374  1.0320
  508MPD2    C5 7603   4.369   1.276  15.370 -0.2872  0.1223  0.0698
  508MPD2     H 7604   4.246   1.370  15.714 -1.5037  1.8294 -1.5241
  508MPD2    H1 7605   4.394   1.474  15.329 -1.9946 -0.3203 -0.1025
  508MPD2    H2 7606   4.363   1.080  15.420 -2.8046 -0.4739  0.7937
  508MPD2    H3 7607   4.410   1.251  15.273 -0.2285  1.8251 -0.3354
  508MPD2     N 7608   4.336   1.573  15.585 -0.2009  0.0874  0.3051
  508MPD2    H5 7609   4.307   1.591  15.681  0.0187 -0.6658  0.5081
  508MPD2    N1 7610   4.279   1.097  15.680 -0.9100  0.2744 -0.3446
  508MPD2    H7 7611   4.329   1.011  15.658  0.3620  1.3783 -1.7649
  509TMC3    C1 7612   4.419   2.034  15.606  0.1398  0.3729 -0.3130
  509TMC3    C2 7613   4.422   2.037  15.742 -0.3595  0.0010 -0.3930
  509TMC3    C3 7614   4.420   1.918  15.813 -1.4085 -1.0007 -0.0202
  509TMC3    C4 7615   4.393   1.917  15.536 -0.8246  0.1883  0.1915
  509TMC3    C5 7616   4.382   1.802  15.603  0.6807  0.1389  1.1650
  509TMC3    C6 7617   4.413   1.801  15.735 -0.1625 -0.4070 -0.8938
  509TMC3     C 7618   4.402   2.157  15.536  0.7968  0.1671  0.1086
  509TMC3     O 7619   4.389   2.261  15.601  0.1522 -0.5452  0.5077
  509TMC3     H 7620   4.433   2.130  15.797 -1.8363  0.6131 -1.1343
  509TMC3    H1 7621   4.388   1.916  15.427 -2.2163 -0.8337  0.2655
  509TMC3    H2 7622   4.421   1.707  15.788  1.3187  0.2302  0.0068
  509TMC3    C7 7623   4.378   1.682  15.515  0.5941 -0.1476 -0.3361
  509TMC3    C8 7624   4.501   1.907  15.932  0.0916  0.4892  0.3256
  509TMC3    O1 7625   4.425   1.678  15.406  0.4763  0.5013 -0.3179
  509TMC3    O2 7626   4.497   1.804  15.998  0.4083 -0.5304 -0.2969
  510MPD2     C 7627   2.493   2.982  14.870 -0.0912 -0.3308 -0.3054
  510MPD2    C1 7628   2.530   2.847  14.895 -0.6981 -0.5709 -0.1833
  510MPD2    C2 7629   2.658   2.811  14.872  0.3737 -0.9283  0.0260
  510MPD2    C3 7630   2.752   2.901  14.818  0.5599  0.2855  0.4838
  510MPD2    C4 7631   2.713   3.028  14.790  0.1699 -0.1945 -0.3213
  510MPD2    C5 7632   2.586   3.065  14.815 -0.0461  0.1865  1.0842
  510MPD2     H 7633   2.692   2.713  14.905  0.8466 -2.3251 -4.4882
  510MPD2    H1 7634   2.785   3.100  14.753  0.9719  0.1230  1.8804
  510MPD2    H2 7635   2.397   3.025  14.895 -1.0044 -1.4040 -1.9222
  510MPD2    H3 7636   2.554   3.165  14.787 -3.1350 -1.2823 -0.7027
  510MPD2     N 7637   2.884   2.855  14.800  0.6778 -0.0705 -0.2543
  510MPD2    H5 7638   2.909   2.764  14.838 -0.9971 -0.4497 -0.0673
  510MPD2    N1 7639   2.438   2.763  14.951 -0.3494  0.1338 -0.3827
  510MPD2    H7 7640   2.466   2.668  14.976  0.6354  0.9482  1.6341
  511TMC3    C1 7641   2.234   2.675  15.026  0.0030 -0.1234  0.2849
  511TMC3    C2 7642   2.126   2.714  15.104  0.1119 -0.1936  0.5039
  511TMC3    C3 7643   2.043   2.613  15.155 -0.8879 -0.1208 -0.1678
  511TMC3    C4 7644   2.249   2.547  14.992 -0.0822 -0.1942  0.3280
  511TMC3    C5 7645   2.168   2.446  15.038 -0.3529 -0.0052  0.2869
  511TMC3    C6 7646   2.072   2.480  15.130 -0.9405  0.6984 -0.2957
  511TMC3     C 7647   2.299   2.785  14.954  0.0254  0.3649 -0.9692
  511TMC3     O 7648   2.235   2.885  14.926 -0.5618  0.6328 -0.1897
  511TMC3     H 7649   2.098   2.817  15.125 -2.9976 -0.8946 -0.2404
  511TMC3    H1 7650   2.322   2.530  14.914 -0.5696 -1.9396  0.2522
  511TMC3    H2 7651   2.020   2.398  15.178 -1.0959  0.7619 -0.3554
  511TMC3    C7 7652   2.139   2.342  14.946 -0.0782 -0.2512  0.0706
  511TMC3    C8 7653   1.965   2.647  15.272 -0.0161  0.3032 -0.1730
  511TMC3    O1 7654   2.186   2.358  14.834  0.4017  0.4197 -0.0609
  511TMC3    O2 7655   1.914   2.759  15.271 -0.5262 -1.0354  0.6489
  512TMC3    C1 7656   1.469   1.836  13.408 -0.2710  0.5227 -0.2552
  512TMC3    C2 7657   1.600   1.835  13.455 -0.3399  0.0162  0.1590
  512TMC3    C3 7658   1.686   1.773  13.367  0.0807 -0.6740 -0.5629
  512TMC3    C4 7659   1.428   1.793  13.284 -0.5386  0.0092  0.1173
  512TMC3    C5 7660   1.517   1.710  13.217  0.3102 -0.1620 -0.1897
  512TMC3    C6 7661   1.650   1.707  13.249  0.4572 -0.4349  0.7107
  512TMC3     C 7662   1.366   1.868  13.508 -0.2930 -0.4276 -0.1265
  512TMC3     O 7663   1.406   1.883  13.625  0.2876 -0.2054  0.1831
  512TMC3     H 7664   1.629   1.861  13.556  2.0741 -3.2782  0.3138
  512TMC3    H1 7665   1.323   1.783  13.259 -0.5239  2.3567 -0.8865
  512TMC3    H2 7666   1.717   1.651  13.185 -1.6794 -0.2335 -1.6954
  512TMC3    C7 7667   1.484   1.710  13.075 -0.2187 -0.3604  0.2988
  512TMC3    C8 7668   1.829   1.783  13.384  0.4341  0.2209  0.1542
  512TMC3    O1 7669   1.413   1.799  13.041  0.2833  0.4097  0.3796
  512TMC3    O2 7670   1.903   1.704  13.328 -0.4364 -0.2441  0.5791
  513MPD2     C 7671   3.369   2.717  13.270 -0.0238 -0.7643  0.0966
  513MPD2    C1 7672   3.459   2.624  13.222  0.0860 -0.5296  0.4931
  513MPD2    C2 7673   3.564   2.582  13.302 -0.3164  0.8592 -0.0945
  513MPD2    C3 7674   3.571   2.622  13.437 -0.1760  0.3784 -0.1312
  513MPD2    C4 7675   3.474   2.711  13.487  1.6587  0.4800  0.9694
  513MPD2    C5 7676   3.377   2.752  13.404 -0.7586 -0.2450  0.1799
  513MPD2     H 7677   3.648   2.526  13.262  1.3551  1.0624  3.0708
  513MPD2    H1 7678   3.472   2.756  13.585 -4.3210  0.7560  0.7358
  513MPD2    H2 7679   3.307   2.764  13.195  0.8135  3.1251  1.8609
  513MPD2    H3 7680   3.312   2.831  13.442  0.5281  0.8529  0.1102
  513MPD2     N 7681   3.676   2.564  13.523  0.0975 -0.1447  0.1168
  513MPD2    H5 7682   3.735   2.498  13.473  1.6356  1.2449  0.0839
  513MPD2    N1 7683   3.441   2.575  13.091 -0.4419 -0.2904 -0.0497
  513MPD2    H7 7684   3.368   2.613  13.031  1.9392  0.5845 -2.3785
  514TMC3    C1 7685   3.481   2.435  12.894  0.3666 -1.0090  0.1577
  514TMC3    C2 7686   3.347   2.429  12.864 -0.7139 -0.5737  0.0186
  514TMC3    C3 7687   3.306   2.310  12.799 -0.0534  0.8256  0.1928
  514TMC3    C4 7688   3.564   2.339  12.846  0.0912  0.1427 -0.3707
  514TMC3    C5 7689   3.522   2.212  12.809  0.1534 -0.0581  0.3586
  514TMC3    C6 7690   3.385   2.195  12.784  0.6764  0.4557  0.9050
  514TMC3     C 7691   3.525   2.484  13.020 -0.1341  0.2806  0.4346
  514TMC3     O 7692   3.622   2.419  13.064 -0.4569  0.6915 -0.1155
  514TMC3     H 7693   3.261   2.487  12.894  0.3361  0.1496  1.6388
  514TMC3    H1 7694   3.670   2.358  12.856  0.2506 -0.6424 -0.6189
  514TMC3    H2 7695   3.342   2.101  12.752 -0.6681  0.9686  1.1850
  514TMC3    C7 7696   3.584   2.106  12.892 -0.2103  0.3484  0.4255
  514TMC3    C8 7697   3.165   2.305  12.758 -0.6263  0.5319  0.3043
  514TMC3    O1 7698   3.561   1.988  12.862 -0.1710  0.2724  0.2653
  514TMC3    O2 7699   3.091   2.390  12.806 -0.9650  0.2563  0.2376
  515MPD2     C 7700   0.991   4.344  14.887 -0.0167  0.2378 -0.4524
  515MPD2    C1 7701   1.022   4.204  14.905  0.0143  0.1928 -0.0795
  515MPD2    C2 7702   1.112   4.163  14.999 -0.4367  0.3070 -0.8469
  515MPD2    C3 7703   1.194   4.263  15.060 -0.8652  0.1684 -0.6447
  515MPD2    C4 7704   1.164   4.395  15.046 -0.0011 -0.1214 -0.2804
  515MPD2    C5 7705   1.061   4.434  14.959 -0.0438 -0.0247  0.0255
  515MPD2     H 7706   1.128   4.059  15.024 -1.1290  0.2906 -0.4546
  515MPD2    H1 7707   1.220   4.477  15.088  1.8089 -0.6422 -1.6672
  515MPD2    H2 7708   0.916   4.374  14.815  0.7507  1.2018 -0.8436
  515MPD2    H3 7709   1.040   4.541  14.958 -2.0397 -0.4268  0.1227
  515MPD2     N 7710   1.295   4.235  15.152 -0.2664 -0.0119 -1.2484
  515MPD2    H5 7711   1.353   4.310  15.186 -0.5250 -0.5750  0.4197
  515MPD2    N1 7712   0.956   4.098  14.820 -0.7062 -0.1084  0.2739
  515MPD2    H7 7713   0.998   4.007  14.836 -1.7406 -0.1508  2.7921
  516TMC3    C1 7714   0.848   3.998  14.635 -0.1207  0.2302  0.1204
  516TMC3    C2 7715   0.795   4.021  14.507  0.0062 -0.7111 -0.0153
  516TMC3    C3 7716   0.735   3.922  14.445 -0.1096  0.0513  0.2571
  516TMC3    C4 7717   0.833   3.878  14.700  0.1216 -0.0184  0.3109
  516TMC3    C5 7718   0.744   3.795  14.639 -0.5055  0.0732 -0.1255
  516TMC3    C6 7719   0.699   3.810  14.507  0.0225 -0.4311  0.7904
  516TMC3     C 7720   0.888   4.120  14.705  0.1811  0.2638 -0.1682
  516TMC3     O 7721   0.840   4.226  14.665  0.2269  0.1150  0.0976
  516TMC3     H 7722   0.807   4.119  14.462 -1.2360 -0.4194  0.2949
  516TMC3    H1 7723   0.857   3.863  14.804  1.3011 -0.8149 -0.0706
  516TMC3    H2 7724   0.646   3.730  14.457 -0.7169  1.3165 -1.2059
  516TMC3    C7 7725   0.753   3.667  14.692 -0.3378 -0.6905 -0.4561
  516TMC3    C8 7726   0.675   3.942  14.315  0.1422  0.0811  0.0321
  516TMC3    O1 7727   0.858   3.640  14.753  0.6070  0.2529 -0.2863
  516TMC3    O2 7728   0.557   3.908  14.296  0.1625 -0.1676  0.3685
  517MPD2     C 7729   0.610   0.698  17.521 -0.1143  0.2402  0.0074
  517MPD2    C1 7730   0.731   0.660  17.573  0.1274  0.4913  0.3898
  517MPD2    C2 7731   0.766   0.721  17.698  0.0562 -0.2558  0.3142
  517MPD2    C3 7732   0.687   0.824   0.008 -0.6868  0.7818 -0.3648
  517MPD2    C4 7733   0.572   0.858  17.691 -0.2229 -0.9668 -0.3179
  517MPD2    C5 7734   0.535   0.791  17.580  0.2472  0.0993  0.4698
  517MPD2     H 7735   0.855   0.682  17.745 -0.5849  1.8737  3.3215
  517MPD2    H1 7736   0.498   0.929  17.726 -0.0121 -0.6803 -0.4526
  517MPD2    H2 7737   0.573   0.658  17.428 -0.1290 -0.6929  0.4212
  517MPD2    H3 7738   0.445   0.816  17.524  0.3298 -1.1383 -0.2226
  517MPD2     N 7739   0.725   0.907   0.114  0.3241 -0.1190 -0.3205
  517MPD2    H5 7740   0.648   0.965   0.146  0.2942  0.8270 -2.1004
  517MPD2    N1 7741   0.809   0.555  17.513 -0.3762  0.2730  0.1483
  517MPD2    H7 7742   0.892   0.520  17.560  0.4855  1.9334 -0.1109
  518TMC3    C1 7743   0.898   0.429  17.331 -0.6549  0.3478  0.8009
  518TMC3    C2 7744   0.919   0.317  17.406  0.5812 -0.7963  0.2513
  518TMC3    C3 7745   0.974   0.211  17.333 -0.1396  0.8716 -0.4503
  518TMC3    C4 7746   0.947   0.452  17.208  0.2588  0.5280  0.0359
  518TMC3    C5 7747   1.020   0.353  17.148 -0.0626  0.1421 -0.3947
  518TMC3    C6 7748   1.037   0.231  17.213  0.3665  0.9316  0.1112
  518TMC3     C 7749   0.800   0.522  17.377  0.6044 -0.0326 -0.0859
  518TMC3     O 7750   0.742   0.593  17.297 -0.3286 -0.1303  0.1692
  518TMC3     H 7751   0.877   0.307  17.506  1.1094  0.2551  0.5819
  518TMC3    H1 7752   0.918   0.539  17.152  1.1021  0.3526 -0.6836
  518TMC3    H2 7753   1.066   0.142  17.159 -2.6205 -0.1189  0.2750
  518TMC3    C7 7754   1.030   0.361  17.004 -0.4996 -0.1192  0.3968
  518TMC3    C8 7755   0.926   0.078  17.365 -0.4926  0.6279  0.2535
  518TMC3    O1 7756   0.962   0.451  16.944 -0.0979  0.2088 -0.0109
  518TMC3    O2 7757   0.991   4.732  17.310 -0.2161 -0.5679  0.9025
  519MPD2     C 7758   2.617   3.529  14.880 -0.3200 -0.0140 -0.2682
  519MPD2    C1 7759   2.567   3.509  14.754 -0.3557 -0.2626 -0.0153
  519MPD2    C2 7760   2.640   3.436  14.662 -0.1050 -0.1316 -0.3456
  519MPD2    C3 7761   2.754   3.388  14.684  0.6778  0.1096  0.5958
  519MPD2    C4 7762   2.813   3.410  14.808 -0.5609  0.5117  0.7109
  519MPD2    C5 7763   2.745   3.482  14.903 -0.2942  0.3982  0.5824
  519MPD2     H 7764   2.601   3.433  14.561  0.6988  2.6713 -0.7242
  519MPD2    H1 7765   2.913   3.369  14.814 -0.1371  1.3917 -0.3478
  519MPD2    H2 7766   2.568   3.590  14.955  0.3629  0.1059  0.0822
  519MPD2    H3 7767   2.794   3.505  14.997  0.0041 -0.4751  0.6426
  519MPD2     N 7768   2.824   3.307  14.592 -0.1125  0.4658  0.1635
  519MPD2    H5 7769   2.925   3.312  14.597 -0.0865 -0.0544  0.2149
  519MPD2    N1 7770   2.458   3.578  14.702 -0.0781  0.1370  0.3429
  519MPD2    H7 7771   2.445   3.562  14.602  1.0954 -0.2010  0.2458
  520TMC3    C1 7772   2.833   3.227  14.363  0.7133 -0.2952 -0.6945
  520TMC3    C2 7773   2.760   3.190  14.257 -0.2003  0.0577  0.2399
  520TMC3    C3 7774   2.815   3.201  14.128 -0.2684  0.6821 -0.0755
  520TMC3    C4 7775   2.965   3.260  14.352  0.1382 -0.3613 -0.4282
  520TMC3    C5 7776   3.018   3.260  14.226  0.2597 -0.5898 -0.2241
  520TMC3    C6 7777   2.950   3.232  14.108 -0.0835  0.1478  0.7222
  520TMC3     C 7778   2.761   3.237  14.490  0.9084  0.9005 -0.4246
  520TMC3     O 7779   2.643   3.193  14.489  0.2164 -0.1183  0.6390
  520TMC3     H 7780   2.654   3.169  14.267 -0.3152  1.4465  1.8463
  520TMC3    H1 7781   3.023   3.292  14.438 -0.4155  0.9044 -0.5209
  520TMC3    H2 7782   2.987   3.240  14.006 -0.0752 -3.1893  0.4659
  520TMC3    C7 7783   3.161   3.271  14.226  0.0153 -0.1242 -0.0489
  520TMC3    C8 7784   2.724   3.243  14.022  0.2623 -0.5076  1.3666
  520TMC3    O1 7785   3.215   3.252  14.334 -0.3485 -0.2814 -0.1936
  520TMC3    O2 7786   2.763   3.325  13.940 -0.0502 -0.3097  0.2990
  521MPD2     C 7787   3.375   1.382  17.445 -0.5531 -0.2370  0.7501
  521MPD2    C1 7788   3.335   1.401  17.311  0.0163  0.6493 -0.0895
  521MPD2    C2 7789   3.428   1.401  17.206 -0.8189 -0.2471  0.1182
  521MPD2    C3 7790   3.555   1.372  17.236 -0.3605 -0.5966 -0.0328
  521MPD2    C4 7791   3.586   1.337  17.366 -0.1398 -0.2768 -0.3069
  521MPD2    C5 7792   3.502   1.337  17.473 -0.5130  0.0665 -0.1961
  521MPD2     H 7793   3.393   1.428  17.107 -1.9753  0.7506  0.7988
  521MPD2    H1 7794   3.684   1.310  17.404  0.7614  0.5698 -2.0673
  521MPD2    H2 7795   3.309   1.421  17.522 -1.1303  2.1168 -0.9156
  521MPD2    H3 7796   3.524   1.313  17.577 -0.6854  0.5543 -0.0466
  521MPD2     N 7797   3.642   1.359  17.133 -0.1842 -0.0743 -0.2543
  521MPD2    H5 7798   3.627   1.399  17.041 -0.2602 -2.6578 -1.3616
  521MPD2    N1 7799   3.192   1.417  17.307  0.4525  1.1630 -0.1715
  521MPD2    H7 7800   3.138   1.398  17.392 -0.6831  2.6730 -0.5486
  522TMC3    C1 7801   3.840   1.274  17.027 -0.6055  0.0954  0.0700
  522TMC3    C2 7802   3.904   1.153  17.007 -0.9220 -0.1416 -0.5426
  522TMC3    C3 7803   3.971   1.139  16.889 -0.3948  0.4550 -0.2183
  522TMC3    C4 7804   3.827   1.365  16.928 -0.1293  0.1242  0.2067
  522TMC3    C5 7805   3.905   1.345  16.818  0.4446  0.0599  0.4200
  522TMC3    C6 7806   3.985   1.237  16.792  0.2003  0.6436 -0.7855
  522TMC3     C 7807   3.758   1.286  17.151  0.1231  0.1915  0.5712
  522TMC3     O 7808   3.789   1.207  17.243  0.1531 -0.0241 -0.1116
  522TMC3     H 7809   3.901   1.086  17.092  1.7596  0.2129 -0.1396
  522TMC3    H1 7810   3.787   1.464  16.941  2.1688  1.0967 -0.1987
  522TMC3    H2 7811   4.045   1.232  16.702  0.2546  1.4796 -0.7932
  522TMC3    C7 7812   3.923   1.450  16.722  0.2846  0.5483  0.7223
  522TMC3    C8 7813   4.049   1.016  16.868 -0.4572  0.6167 -0.2632
  522TMC3    O1 7814   4.034   1.464  16.665  0.6759 -0.0385 -0.5688
  522TMC3    O2 7815   4.066   0.940  16.959 -0.1996  0.2926 -0.2012
  523MPD2     C 7816   1.349   2.007  10.654 -0.5493  0.3389 -0.3641
  523MPD2    C1 7817   1.285   1.901  10.596  1.1906 -0.7373 -0.3132
  523MPD2    C2 7818   1.178   1.918  10.516 -0.0161 -0.6003  0.7817
  523MPD2    C3 7819   1.136   2.046  10.478 -0.0093  0.6701 -0.1066
  523MPD2    C4 7820   1.210   2.148  10.525  0.6564 -0.6846 -0.1020
  523MPD2    C5 7821   1.313   2.132  10.616  0.4035 -0.2818  0.6191
  523MPD2     H 7822   1.113   1.837  10.486 -0.6783  1.3751 -3.1905
  523MPD2    H1 7823   1.194   2.252  10.498 -0.0901 -0.5790  0.7427
  523MPD2    H2 7824   1.429   2.002  10.727 -1.5210  1.4695  0.7577
  523MPD2    H3 7825   1.333   2.225  10.667 -0.1948  1.3169 -2.0681
  523MPD2     N 7826   1.023   2.079  10.404 -0.2456  0.4375 -0.0971
  523MPD2    H5 7827   1.005   2.178  10.392 -0.0992  0.7021  1.9360
  523MPD2    N1 7828   1.330   1.767  10.626  0.8470 -0.1118 -0.2830
  523MPD2    H7 7829   1.397   1.758  10.702  0.4664  0.9915  0.1861
  524TMC3    C1 7830   0.850   2.049  10.251 -0.4208 -0.8390  0.8198
  524TMC3    C2 7831   0.831   1.990  10.129  0.3520  0.0941  0.2726
  524TMC3    C3 7832   0.751   2.055  10.042 -0.2124 -0.5605  0.1651
  524TMC3    C4 7833   0.785   2.167  10.290  0.4556 -0.0285  0.5371
  524TMC3    C5 7834   0.704   2.217  10.193 -0.1392 -0.8548 -0.5959
  524TMC3    C6 7835   0.679   2.168  10.073 -0.2198  0.5339  0.4700
  524TMC3     C 7836   0.936   1.987  10.349 -0.3149 -0.3444 -0.3810
  524TMC3     O 7837   0.957   1.874  10.319 -0.0511 -0.7931  0.7063
  524TMC3     H 7838   0.864   1.887  10.121 -2.9248 -1.0825  1.8268
  524TMC3    H1 7839   0.787   2.202  10.393 -0.0364  1.0736  0.1651
  524TMC3    H2 7840   0.600   2.201  10.007  0.8020 -0.1095 -1.0712
  524TMC3    C7 7841   0.657   2.350  10.218 -0.7996 -0.2382  0.2730
  524TMC3    C8 7842   0.741   2.004   9.901  0.2876 -0.0632  1.7231
  524TMC3    O1 7843   0.697   2.401  10.324 -0.5016 -0.4290  0.5489
  524TMC3    O2 7844   0.645   2.036   9.834  0.0364 -0.1259  0.6111
  525MPD2     C 7845   4.084   3.368  14.271  0.2704  0.0764 -0.9409
  525MPD2    C1 7846   4.214   3.377  14.316 -0.3460 -0.4316 -0.3150
  525MPD2    C2 7847   4.272   3.499  14.306 -0.0044 -1.2000  0.8505
  525MPD2    C3 7848   4.203   3.614  14.262  0.4876 -0.0476 -0.0190
  525MPD2    C4 7849   4.073   3.596  14.219 -0.5015  0.0327  0.4631
  525MPD2    C5 7850   4.018   3.472  14.220 -0.5862  0.4663  0.6200
  525MPD2     H 7851   4.376   3.509  14.334 -0.0400  1.2734  0.0943
  525MPD2    H1 7852   4.012   3.681  14.191 -1.6392 -0.6670  0.8081
  525MPD2    H2 7853   4.027   3.276  14.277  0.8228 -0.2507 -0.6817
  525MPD2    H3 7854   3.914   3.465  14.193 -0.4744  1.2254 -0.0028
  525MPD2     N 7855   4.246   3.746  14.271  0.3732  0.1915 -0.4373
  525MPD2    H5 7856   4.180   3.816  14.240  0.3025 -0.3661 -1.5163
  525MPD2    N1 7857   4.283   3.269  14.380 -0.1184 -0.2710 -0.5452
  525MPD2    H7 7858   4.374   3.283  14.423  0.9798 -1.2780 -2.5525
  526TMC3    C1 7859   4.311   3.068  14.492 -0.9935 -0.3739  0.5825
  526TMC3    C2 7860   4.266   2.972  14.584 -0.6327 -0.1943  0.2430
  526TMC3    C3 7861   4.342   2.863  14.600 -0.5080  0.3866  0.0731
  526TMC3    C4 7862   4.438   3.064  14.440 -0.5330 -0.1532  0.3776
  526TMC3    C5 7863   4.514   2.960  14.482  0.3963  0.3385  0.6777
  526TMC3    C6 7864   4.470   2.859  14.562 -0.2775 -0.1901 -0.2816
  526TMC3     C 7865   4.216   3.167  14.446  0.0741  0.1009 -0.7232
  526TMC3     O 7866   4.098   3.136  14.456 -0.4136 -0.2812  0.5246
  526TMC3     H 7867   4.171   2.986  14.634 -1.6742 -2.6138 -1.0512
  526TMC3    H1 7868   4.477   3.128  14.361 -0.0073 -0.3971  0.4370
  526TMC3    H2 7869   4.536   2.775  14.582 -0.6766 -0.5814 -0.6127
  526TMC3    C7 7870   4.654   2.961  14.438  0.0767 -0.3149  0.8434
  526TMC3    C8 7871   4.319   2.781  14.712 -0.4522 -0.0230 -0.0387
  526TMC3    O1 7872   4.701   3.072  14.433 -0.7772 -0.2088 -0.0749
  526TMC3    O2 7873   4.410   2.723  14.769 -0.0524  0.0706  0.8279
  527MPD2     C 7874   2.066   0.888   0.624  0.4726  0.6071 -0.0306
  527MPD2    C1 7875   2.049   1.018   0.669 -0.2404  0.0942 -0.3703
  527MPD2    C2 7876   2.162   1.103   0.647 -0.1712  0.1173  0.7984
  527MPD2    C3 7877   2.272   1.070   0.571 -0.1952 -0.2152 -0.1700
  527MPD2    C4 7878   2.263   0.949   0.511 -0.1867 -0.0441 -0.3849
  527MPD2    C5 7879   2.166   0.856   0.537 -0.3082  0.2724 -0.7584
  527MPD2     H 7880   2.156   1.203   0.688 -2.2807  0.1982  0.3016
  527MPD2    H1 7881   2.330   0.930   0.428  0.3703  2.0203 -0.4148
  527MPD2    H2 7882   1.984   0.817   0.626  1.7826 -0.8626  0.8415
  527MPD2    H3 7883   2.174   0.760   0.489  0.5935 -2.2321  4.3792
  527MPD2     N 7884   2.380   1.160   0.545 -0.2851  0.0973  0.3691
  527MPD2    H5 7885   2.455   1.129   0.485  0.4836 -1.9228  2.3731
  527MPD2    N1 7886   1.936   1.070   0.728 -0.4290 -0.4198  0.9100
  527MPD2    H7 7887   1.933   1.170   0.740  2.2736 -0.1514 -0.5559
  528TMC3    C1 7888   1.717   1.091   0.811 -0.6151 -0.7951 -0.1898
  528TMC3    C2 7889   1.762   1.205   0.872  0.7871  0.0876 -0.4023
  528TMC3    C3 7890   1.668   1.297   0.912  0.1283 -0.1819 -0.2291
  528TMC3    C4 7891   1.587   1.071   0.775  0.4726  0.0718  0.1113
  528TMC3    C5 7892   1.500   1.171   0.805  0.2145  0.0696  0.1234
  528TMC3    C6 7893   1.538   1.280   0.879  0.1490 -0.2086 -0.3797
  528TMC3     C 7894   1.817   1.004   0.751 -0.2747 -0.2788 -0.2366
  528TMC3     O 7895   1.788   0.892   0.726 -0.5560  0.2235 -0.1231
  528TMC3     H 7896   1.866   1.226   0.896  0.6053  1.5641 -0.9186
  528TMC3    H1 7897   1.551   0.989   0.714 -2.2567  2.4755 -1.4858
  528TMC3    H2 7898   1.459   1.351   0.902  1.5119  0.6922  1.4818
  528TMC3    C7 7899   1.355   1.162   0.786 -0.5524 -0.0523  0.5597
  528TMC3    C8 7900   1.713   1.435   0.921 -0.0515  0.4966  0.6176
  528TMC3    O1 7901   1.288   1.237   0.855 -0.2802 -0.2209 -0.3641
  528TMC3    O2 7902   1.828   1.459   0.884  0.0358  0.9083 -0.2146
  529MPD2     C 7903   0.046   4.360   1.108 -0.5976  0.1057 -0.3390
  529MPD2    C1 7904   0.013   4.254   1.026  0.1089  0.1284  0.3248
  529MPD2    C2 7905   4.639   4.258   0.948 -0.2712 -0.3745 -0.4239
  529MPD2    C3 7906   4.555   4.367   0.958 -0.2390 -0.0078 -0.6017
  529MPD2    C4 7907   4.590   4.475   1.032  0.3485  0.3518  0.6751
  529MPD2    C5 7908   4.701   4.464   1.111  0.3333 -0.2742  0.0355
  529MPD2     H 7909   4.616   4.170   0.889  0.1060 -0.7855  0.0443
  529MPD2    H1 7910   4.528   4.564   1.034  4.3944  3.1610  0.1742
  529MPD2    H2 7911   0.134   4.358   1.172 -0.8763 -1.0763  0.0115
  529MPD2    H3 7912   4.717   4.545   1.182  0.7961 -1.4097  1.2251
  529MPD2     N 7913   4.432   4.381   0.885  0.0982 -0.0148 -0.3649
  529MPD2    H5 7914   4.390   4.473   0.893 -0.6036 -0.4029  0.4442
  529MPD2    N1 7915   0.086   4.132   1.025 -0.8491 -0.2650  0.5359
  529MPD2    H7 7916   0.046   4.062   0.963  0.5229 -0.0954 -0.5403
  530TMC3    C1 7917   0.247   3.969   1.092 -0.3588  0.2793  0.2449
  530TMC3    C2 7918   0.379   3.949   1.107 -0.8676  0.2634 -0.8759
  530TMC3    C3 7919   0.416   3.818   1.108 -0.6224  0.0801  0.2892
  530TMC3    C4 7920   0.151   3.877   1.075  0.1370 -0.0331  0.2363
  530TMC3    C5 7921   0.190   3.749   1.101 -0.3865 -0.8280  0.0112
  530TMC3    C6 7922   0.321   3.715   1.101 -0.0531  0.1222 -0.0734
  530TMC3     C 7923   0.203   4.106   1.096  0.5487  1.1415  0.1428
  530TMC3     O 7924   0.268   4.178   1.171 -1.0820  0.2398 -0.5396
  530TMC3     H 7925   0.438   4.036   1.133 -1.5242 -0.1034  1.8628
  530TMC3    H1 7926   0.046   3.902   1.084  0.2974  0.1688  1.5567
  530TMC3    H2 7927   0.346   3.610   1.103 -1.0142 -0.0931  0.8924
  530TMC3    C7 7928   0.084   3.641   1.117 -0.1723 -0.0054  0.6808
  530TMC3    C8 7929   0.547   3.798   1.150  0.4001  0.0999 -0.0596
  530TMC3    O1 7930   0.114   3.527   1.082 -0.4026  0.1435 -0.0075
  530TMC3    O2 7931   0.615   3.902   1.147  0.5239  0.0154 -0.5638
  531MPD2     C 7932   3.834   1.959  13.312  0.3734  0.6595 -0.4176
  531MPD2    C1 7933   3.819   2.095  13.311  0.6577 -0.9387 -0.2315
  531MPD2    C2 7934   3.751   2.159  13.209  0.0949  0.4984 -1.6254
  531MPD2    C3 7935   3.712   2.084  13.102 -0.4482  0.2319 -0.0807
  531MPD2    C4 7936   3.733   1.949  13.095 -0.2619 -0.1989 -0.4950
  531MPD2    C5 7937   3.787   1.881  13.202  0.4871 -0.0667  0.1365
  531MPD2     H 7938   3.726   2.264  13.216 -0.9166  0.0889  1.1462
  531MPD2    H1 7939   3.697   1.891  13.011  0.1986  0.1630 -0.9430
  531MPD2    H2 7940   3.869   1.899  13.394 -0.0090  1.1355  0.0928
  531MPD2    H3 7941   3.792   1.773  13.200  0.8968 -0.0984  2.8156
  531MPD2     N 7942   3.637   2.155  13.005 -0.1702 -0.2781 -0.3795
  531MPD2    H5 7943   3.644   2.255  13.015  3.2995 -0.4651 -0.6685
  531MPD2    N1 7944   3.875   2.161  13.424 -0.0263 -0.2396 -0.0888
  531MPD2    H7 7945   3.909   2.101  13.499 -0.3031  1.1625  1.1628
  532TMC3    C1 7946   3.930   2.353  13.554  0.1974 -0.1038  0.6413
  532TMC3    C2 7947   3.893   2.486  13.566 -0.4212  0.0066  0.1139
  532TMC3    C3 7948   3.828   2.521  13.679  0.6104  0.6757  0.4176
  532TMC3    C4 7949   3.922   2.270  13.658  0.4032 -0.5535 -0.2541
  532TMC3    C5 7950   3.863   2.310  13.776  0.4506  0.3328  0.4376
  532TMC3    C6 7951   3.822   2.434  13.789 -0.3477 -0.0703  0.1818
  532TMC3     C 7952   3.889   2.300  13.427  0.4607  0.2168 -0.4775
  532TMC3     O 7953   3.857   2.386  13.344  0.6347 -0.4102 -0.1866
  532TMC3     H 7954   3.907   2.551  13.482 -2.7510  0.1646 -0.1691
  532TMC3    H1 7955   3.976   2.176  13.648  0.6816 -0.3440 -0.7467
  532TMC3    H2 7956   3.767   2.458  13.880 -1.4253 -0.4998 -0.3607
  532TMC3    C7 7957   3.930   2.260  13.899 -0.9023 -0.3972  0.0749
  532TMC3    C8 7958   3.700   2.578  13.650 -0.4637  0.5051  0.9841
  532TMC3    O1 7959   3.941   2.345  13.987 -0.6207 -0.1798 -0.2315
  532TMC3    O2 7960   3.632   2.632  13.739  0.5994  0.4525  0.0768
  533TMC3    C1 7961   4.379   3.920  14.349  0.4040  0.4666  0.1503
  533TMC3    C2 7962   4.493   3.998  14.330 -0.5812 -0.1525  0.3640
  533TMC3    C3 7963   4.552   4.049  14.439  0.5164  0.3154  0.5915
  533TMC3    C4 7964   4.303   3.930  14.466 -0.3764  0.4997 -0.2457
  533TMC3    C5 7965   4.367   3.983  14.570 -0.8896  0.4735  0.3158
  533TMC3    C6 7966   4.495   4.037  14.562  0.0770  0.5641 -0.6535
  533TMC3     C 7967   4.372   3.787  14.306  0.0296 -0.2757  0.4374
  533TMC3     O 7968   4.475   3.719  14.305  0.6502 -0.1827  0.4574
  533TMC3     H 7969   4.546   4.003  14.236 -2.4299 -0.5216 -0.7057
  533TMC3    H1 7970   4.213   3.871  14.480  0.1100 -0.3720 -0.7520
  533TMC3    H2 7971   4.552   4.081  14.642  1.9844 -2.3883 -0.3748
  533TMC3    C7 7972   4.343   3.907  14.687  0.2202 -0.1618  0.6083
  533TMC3    C8 7973   4.650   4.157  14.413  0.9285  0.2255  0.4083
  533TMC3    O1 7974   4.321   3.791  14.657 -0.2422  0.0006  0.1734
  533TMC3    O2 7975   4.724   4.185  14.509 -0.1841 -0.5834  0.0034
  534MPD2     C 7976   2.108   0.031   0.987  0.2648 -0.0067 -0.0694
  534MPD2    C1 7977   2.013   0.129   0.966  0.5418 -0.4292 -0.1811
  534MPD2    C2 7978   1.900   0.101   0.899  0.2922 -0.2106  0.3132
  534MPD2    C3 7979   1.877   4.716   0.846 -0.2372  0.8886  0.2397
  534MPD2    C4 7980   1.974   4.617   0.871 -0.1104 -0.5961 -0.9182
  534MPD2    C5 7981   2.097   4.641   0.934  0.0194 -0.0521  0.6871
  534MPD2     H 7982   1.824   0.177   0.887  2.0961  1.5954  0.1744
  534MPD2    H1 7983   1.958   4.517   0.833  0.7652 -1.0796 -0.0203
  534MPD2    H2 7984   2.205   0.053   1.030 -0.4899  0.2309  1.5050
  534MPD2    H3 7985   2.170   4.561   0.944 -0.1627 -0.5447 -1.9616
  534MPD2     N 7986   1.764   4.686   0.768 -0.7292  0.2826  0.4812
  534MPD2    H5 7987   1.775   4.607   0.706 -0.9322 -0.0847  0.9102
  534MPD2    N1 7988   2.024   0.263   1.019 -0.7527  0.5151  0.6951
  534MPD2    H7 7989   1.941   0.317   0.995  0.0747  0.6022 -2.0717
  535TMC3    C1 7990   1.561   4.732   0.655 -0.0544  0.1499 -0.1869
  535TMC3    C2 7991   1.427   0.007   0.679 -0.4575  0.0709 -0.8452
  535TMC3    C3 7992   1.339   4.710   0.581  0.7325  0.0107 -0.1144
  535TMC3    C4 7993   1.610   4.681   0.536  0.3969  0.7335  0.4711
  535TMC3    C5 7994   1.523   4.636   0.446 -0.4292  0.4743  0.3652
  535TMC3    C6 7995   1.384   4.655   0.458  0.1848  0.2490  0.2138
  535TMC3     C 7996   1.650   0.017   0.770 -0.7524 -0.4606  0.3398
  535TMC3     O 7997   1.608   0.083   0.868  0.1662 -0.2402  0.7658
  535TMC3     H 7998   1.402   0.059   0.771 -0.4639  0.2154 -0.9286
  535TMC3    H1 7999   1.713   4.649   0.534  0.3172  0.5875 -0.8701
  535TMC3    H2 8000   1.303   4.625   0.393  1.8391 -1.6701 -0.9464
  535TMC3    C7 8001   1.587   4.558   0.341  0.4880  0.3297  0.4537
  535TMC3    C8 8002   1.202   4.691   0.611  0.4128  0.1040  0.3491
  535TMC3    O1 8003   1.684   4.487   0.368  0.1400  0.4136  0.4006
  535TMC3    O2 8004   1.126   4.608   0.560  0.4856  0.1307  0.0823
  536MPD2     C 8005   0.906   2.970  16.568  0.6883  0.2101  0.6816
  536MPD2    C1 8006   0.793   3.013  16.628  0.5210  0.0815 -0.8805
  536MPD2    C2 8007   0.713   3.102  16.566  0.1562  0.0888  0.6957
  536MPD2    C3 8008   0.745   3.147  16.436 -0.1241 -0.1363 -0.2611
  536MPD2    C4 8009   0.865   3.110  16.382  0.3340  0.1582 -0.1986
  536MPD2    C5 8010   0.948   3.018  16.448  0.2110  0.5984 -0.3961
  536MPD2     H 8011   0.624   3.139  16.615 -0.1841 -2.0231  1.6720
  536MPD2    H1 8012   0.903   3.166  16.297  1.9081 -0.4478  0.1140
  536MPD2    H2 8013   0.974   2.901  16.617 -0.3586 -1.0453  0.3730
  536MPD2    H3 8014   1.044   2.979  16.419  0.2809  0.2147  0.3361
  536MPD2     N 8015   0.669   3.246  16.367  0.2856  0.4158 -0.1496
  536MPD2    H5 8016   0.716   3.283  16.286 -0.4327  1.7720  0.0498
  536MPD2    N1 8017   0.773   2.967  16.762  0.5919 -0.1244  0.0571
  536MPD2    H7 8018   0.854   2.921  16.801  1.1498 -1.7448 -2.9910
  537TMC3    C1 8019   0.669   2.920  16.969  0.4019 -0.1668 -0.1846
  537TMC3    C2 8020   0.601   2.980  17.070  0.4600  0.4563 -0.1566
  537TMC3    C3 8021   0.598   2.920  17.193  0.2611 -0.3885 -0.5100
  537TMC3    C4 8022   0.725   2.799  16.980 -0.1877 -0.2741 -0.5743
  537TMC3    C5 8023   0.707   2.729  17.099  0.0761 -0.3953 -0.2138
  537TMC3    C6 8024   0.660   2.800  17.204  0.5086  0.3134  0.2133
  537TMC3     C 8025   0.658   2.983  16.838 -0.1109 -0.9535 -0.1845
  537TMC3     O 8026   0.549   3.032  16.813  0.3544  0.1715  0.5603
  537TMC3     H 8027   0.539   3.068  17.061  0.4333  0.4328 -0.2047
  537TMC3    H1 8028   0.778   2.753  16.898  0.9844 -0.3371  0.2111
  537TMC3    H2 8029   0.691   2.768  17.303  0.1082  2.1688  0.9319
  537TMC3    C7 8030   0.810   2.630  17.117  0.4492 -0.2930  0.2253
  537TMC3    C8 8031   0.615   3.015  17.305 -0.4587  0.2249 -0.2402
  537TMC3    O1 8032   0.910   2.641  17.045  0.5391 -0.2598  0.3408
  537TMC3    O2 8033   0.623   2.965  17.417 -0.4054  0.0023 -0.1276
  538TMC3    C1 8034   2.105   1.155  11.351  0.0566 -0.1510  0.7482
  538TMC3    C2 8035   2.227   1.148  11.275  0.5395  0.9076 -0.7334
  538TMC3    C3 8036   2.269   1.252  11.190  0.6301 -0.0221 -0.0887
  538TMC3    C4 8037   2.053   1.283  11.365  0.8114  0.0149  0.3811
  538TMC3    C5 8038   2.103   1.383  11.287 -0.1195 -0.1273 -0.1617
  538TMC3    C6 8039   2.204   1.373  11.199  0.7177 -0.2829 -0.1372
  538TMC3     C 8040   2.084   1.063  11.455 -0.4006 -0.0961 -0.1258
  538TMC3     O 8041   2.077   0.945  11.423  0.4177 -0.0524 -0.2054
  538TMC3     H 8042   2.268   1.047  11.270 -1.9543 -0.1000 -0.7152
  538TMC3    H1 8043   1.965   1.297  11.426  0.8079 -1.1980  0.6438
  538TMC3    H2 8044   2.232   1.450  11.129  1.1176  1.9921  2.5515
  538TMC3    C7 8045   2.000   1.493  11.265 -0.1050 -0.3988 -0.3492
  538TMC3    C8 8046   2.372   1.224  11.093  0.1571 -0.4017  0.8977
  538TMC3    O1 8047   1.894   1.488  11.328 -0.1367 -0.0462 -0.3644
  538TMC3    O2 8048   2.417   1.111  11.101  0.1931  0.1719  0.3651
  539MPD2     C 8049   1.561   0.622  11.826 -0.3264 -0.3789  0.6614
  539MPD2    C1 8050   1.653   0.630  11.723 -0.1704  0.2695  0.6773
  539MPD2    C2 8051   1.692   0.761  11.685  0.5061  0.1961 -0.6208
  539MPD2    C3 8052   1.626   0.872  11.730  0.4548  1.0024  0.6569
  539MPD2    C4 8053   1.542   0.863  11.840  0.5529  0.2490  0.5802
  539MPD2    C5 8054   1.521   0.734  11.887  0.3542 -0.5689  0.3886
  539MPD2     H 8055   1.758   0.764  11.599  2.2942  1.8644  0.8056
  539MPD2    H1 8056   1.493   0.947  11.888  2.5473  1.9259 -0.2863
  539MPD2    H2 8057   1.522   0.531  11.871 -3.2647 -0.0400 -1.2301
  539MPD2    H3 8058   1.464   0.723  11.979 -0.6734  0.8918 -0.0681
  539MPD2     N 8059   1.651   1.003  11.680  0.0133  0.7236 -0.3015
  539MPD2    H5 8060   1.616   1.079  11.736 -0.9865  0.0287  0.0067
  539MPD2    N1 8061   1.707   0.521  11.652  0.3114  0.4549 -0.2909
  539MPD2    H7 8062   1.793   0.534  11.599 -0.2966  0.7433 -1.2065
  540TMC3    C1 8063   1.741   1.163  11.537 -0.9136  0.3990  0.3810
  540TMC3    C2 8064   1.715   1.197  11.407  0.0052  0.6348 -0.5162
  540TMC3    C3 8065   1.636   1.307  11.383  1.3191  0.1813  1.0236
  540TMC3    C4 8066   1.710   1.250  11.635 -0.1016  0.7454  0.6341
  540TMC3    C5 8067   1.643   1.369  11.608  0.0658  0.1870  0.0891
  540TMC3    C6 8068   1.600   1.396  11.479  0.5508 -0.4530  0.0519
  540TMC3     C 8069   1.716   1.024  11.560 -0.9178  0.0406 -0.0037
  540TMC3     O 8070   1.738   0.950  11.466  0.5539  0.0763  0.8969
  540TMC3     H 8071   1.724   1.125  11.327  3.4947  0.5245 -0.0539
  540TMC3    H1 8072   1.761   1.230  11.728 -1.9324 -2.5395  0.9162
  540TMC3    H2 8073   1.540   1.484  11.459 -0.9905 -0.8049  3.0704
  540TMC3    C7 8074   1.549   1.412  11.709  0.5307  0.9740 -1.2012
  540TMC3    C8 8075   1.560   1.327  11.262  0.1854  0.0995  0.3330
  540TMC3    O1 8076   1.451   1.465  11.665  0.2159 -0.5859  0.5386
  540TMC3    O2 8077   1.524   1.437  11.218 -0.2856  0.1375 -0.2015
  541MPD2     C 8078   4.679   2.187  13.551 -0.2979 -0.2788  0.3241
  541MPD2    C1 8079   4.703   2.083  13.466 -0.4348 -0.0201 -0.8086
  541MPD2    C2 8080   4.685   2.102  13.331  0.7875 -0.0526  0.3825
  541MPD2    C3 8081   4.670   2.231  13.281  0.2648 -0.3130 -0.3578
  541MPD2    C4 8082   4.649   2.334  13.362 -0.3177  0.6568  0.1380
  541MPD2    C5 8083   4.655   2.313  13.499  0.1581  0.1079  0.3609
  541MPD2     H 8084   4.691   2.021  13.260 -1.4059 -0.4225  0.6085
  541MPD2    H1 8085   4.647   2.438  13.330 -2.6122  1.2900  2.2746
  541MPD2    H2 8086   4.680   2.165  13.657 -1.3908 -1.5926  0.0615
  541MPD2    H3 8087   4.647   2.399  13.566  1.5982  1.1220 -0.7785
  541MPD2     N 8088   4.672   2.261  13.139  0.5283  0.4096 -0.3056
  541MPD2    H5 8089   4.635   2.346  13.097  0.5306  1.0224  0.9163
  541MPD2    N1 8090   0.001   1.961  13.528  0.5337 -0.3002  0.1280
  541MPD2    H7 8091   0.040   1.972  13.621  2.3200 -3.4109 -0.2552
  542TMC3    C1 8092   4.702   2.192  12.915  0.5143 -0.6957 -0.1429
  542TMC3    C2 8093   4.733   2.094  12.829  0.0634  0.2878 -0.3170
  542TMC3    C3 8094   4.677   2.106  12.703 -0.2392 -0.0274  0.2145
  542TMC3    C4 8095   4.624   2.304  12.884  0.0799 -0.1553 -0.2720
  542TMC3    C5 8096   4.561   2.304  12.760 -0.1270  0.0035 -0.0076
  542TMC3    C6 8097   4.585   2.205  12.670 -0.3004 -0.3303  0.1115
  542TMC3     C 8098   4.726   2.168  13.051 -0.3784 -0.1612  0.1664
  542TMC3     O 8099   0.064   2.078  13.081  0.2486  0.5512  0.2862
  542TMC3     H 8100   0.055   2.012  12.865 -0.1462 -0.0766 -0.8001
  542TMC3    H1 8101   4.619   2.394  12.945  0.2105  0.9010 -1.8212
  542TMC3    H2 8102   4.551   2.215  12.567 -0.6486 -0.5521  0.2076
  542TMC3    C7 8103   4.474   2.421  12.735 -0.2470  0.1945 -0.0785
  542TMC3    C8 8104   4.703   2.009  12.600  0.1119  0.3833  0.6994
  542TMC3    O1 8105   4.496   2.524  12.798  0.2619  0.3551 -0.1302
  542TMC3    O2 8106   4.617   1.989  12.516  0.4247 -0.6021  0.0305
  543TMC3    C1 8107   4.049   3.714  17.707  0.3154 -0.0919 -0.0529
  543TMC3    C2 8108   4.164   3.642  17.690  0.7630 -0.2319 -0.2559
  543TMC3    C3 8109   4.198   3.557   0.043 -0.0910  0.8881  0.3146
  543TMC3    C4 8110   3.974   3.725   0.068  0.1017  0.6332  0.6805
  543TMC3    C5 8111   4.009   3.643   0.170 -0.4496  0.3643  0.2661
  543TMC3    C6 8112   4.118   3.558   0.164 -0.0938 -0.1086  0.2116
  543TMC3     C 8113   4.013   3.797  17.596 -0.3919  0.0374  0.1023
  543TMC3     O 8114   3.930   3.885  17.610 -0.5520 -0.2893  0.3501
  543TMC3     H 8115   4.234   3.645  17.608  0.2145  1.1142 -0.6750
  543TMC3    H1 8116   3.890   3.793   0.078 -0.1038  0.3225  1.0690
  543TMC3    H2 8117   4.127   3.485   0.244  2.4358  0.9220  0.8921
  543TMC3    C7 8118   3.985   3.688   0.303 -0.1139 -0.1621  0.6538
  543TMC3    C8 8119   4.222   3.425  17.731 -0.6938 -0.1205 -0.2514
  543TMC3    O1 8120   3.874   3.729   0.327  0.2005  0.0433  0.0911
  543TMC3    O2 8121   4.189   3.413  17.611  0.2553 -0.1540  0.1810
  544MPD2     C 8122   4.330   2.947   0.004 -0.7040  0.4296  0.0738
  544MPD2    C1 8123   4.269   3.016  17.648 -0.4156 -0.0776 -0.7544
  544MPD2    C2 8124   4.270   3.157  17.655  0.5375 -0.2262  0.0811
  544MPD2    C3 8125   4.314   3.215   0.028  0.2979  0.3075  0.3976
  544MPD2    C4 8126   4.379   3.139   0.123  0.5029  0.2419  1.2109
  544MPD2    C5 8127   4.392   3.003   0.114  0.2758 -0.3237  0.1515
  544MPD2     H 8128   4.223   3.212  17.575 -0.4604  0.4777  1.1633
  544MPD2    H1 8129   4.433   3.188   0.203 -1.0633 -1.6967  3.4531
  544MPD2    H2 8130   4.331   2.839  17.749 -0.2355  0.3779  1.3849
  544MPD2    H3 8131   4.443   2.941   0.187 -0.5288  0.0696  1.0510
  544MPD2     N 8132   4.285   3.348   0.070  0.5149 -0.5738 -0.4639
  544MPD2    H5 8133   4.319   3.386   0.158  1.1479 -0.9575 -0.5368
  544MPD2    N1 8134   4.213   2.935  17.547 -0.4723  0.0587 -0.7559
  544MPD2    H7 8135   4.212   2.833  17.552  1.1044  0.1035  0.3689
  545TMC3    C1 8136   4.095   2.886  17.345  0.7549 -0.1407  0.9911
  545TMC3    C2 8137   3.994   2.923  17.261  0.6844  1.0970 -0.3235
  545TMC3    C3 8138   3.944   2.838  17.171 -0.6576 -0.0558 -0.6342
  545TMC3    C4 8139   4.147   2.763  17.342  0.2875  0.5077  0.4879
  545TMC3    C5 8140   4.093   2.670  17.255 -0.2221 -1.0027 -0.0134
  545TMC3    C6 8141   3.999   2.711  17.158 -0.0460 -0.1159  0.7277
  545TMC3     C 8142   4.144   2.985  17.441  0.4845  0.5462  0.5380
  545TMC3     O 8143   4.111   3.102  17.416  0.1477  0.1103  0.2776
  545TMC3     H 8144   3.962   3.027  17.265 -1.3233  0.5277 -1.9199
  545TMC3    H1 8145   4.233   2.745  17.405  1.2935 -0.1842 -1.1047
  545TMC3    H2 8146   3.957   2.646  17.082  1.5508 -1.6089  1.1236
  545TMC3    C7 8147   4.095   2.522  17.275  0.7275 -0.4404 -0.8509
  545TMC3    C8 8148   3.845   2.879  17.075  0.1183  0.3491 -0.1221
  545TMC3    O1 8149   4.028   2.455  17.200 -0.4160 -0.1267  0.9487
  545TMC3    O2 8150   3.818   2.793  16.992 -0.1926  0.4539 -0.3385
  546MPD2     C 8151   0.502   3.389   0.022 -0.5280  0.2507  0.4915
  546MPD2    C1 8152   0.457   3.403  17.644  0.1992 -0.4743 -0.1575
  546MPD2    C2 8153   0.503   3.509  17.566  0.7338  0.4772  0.8649
  546MPD2    C3 8154   0.598   3.597  17.617  0.5212  0.0332  0.4430
  546MPD2    C4 8155   0.637   3.588  17.747  0.5751 -0.6943  0.4271
  546MPD2    C5 8156   0.593   3.479   0.072  0.0843 -0.3974 -0.1214
  546MPD2     H 8157   0.479   3.521  17.461 -0.6147 -0.4043  1.0777
  546MPD2    H1 8158   0.709   3.657   0.039 -0.4576  0.1965  0.7336
  546MPD2    H2 8159   0.463   3.306   0.080  1.2390 -2.1019 -1.6654
  546MPD2    H3 8160   0.606   3.474   0.179  0.7770  1.3182 -0.1243
  546MPD2     N 8161   0.644   3.701  17.533 -0.5719  0.1693 -0.1848
  546MPD2    H5 8162   0.597   3.714  17.444  0.0268  1.4748 -0.3168
  546MPD2    N1 8163   0.365   3.308  17.600 -0.5346  0.4665  0.2969
  546MPD2    H7 8164   0.338   3.231  17.660  1.1201  0.7895  1.4417
  547TMC3    C1 8165   0.258   3.185  17.433  0.2754 -0.1497  0.6166
  547TMC3    C2 8166   0.169   3.194  17.333  1.4194 -0.2758  0.6856
  547TMC3    C3 8167   0.118   3.082  17.268  0.2134 -1.2830  0.2596
  547TMC3    C4 8168   0.297   3.063  17.480 -0.2753 -0.0389 -0.3617
  547TMC3    C5 8169   0.232   2.956  17.425  0.1888 -1.0758 -0.3332
  547TMC3    C6 8170   0.143   2.958  17.320  0.5089  0.2062 -0.7013
  547TMC3     C 8171   0.314   3.307  17.471  0.7512 -0.3340 -1.1695
  547TMC3     O 8172   0.310   3.391  17.385 -0.4319 -0.0579 -0.2219
  547TMC3     H 8173   0.150   3.286  17.278 -0.7277 -1.7002 -0.9577
  547TMC3    H1 8174   0.376   3.052  17.554  2.4037  1.0623 -3.0566
  547TMC3    H2 8175   0.089   2.869  17.292 -0.5145 -0.3742  3.1340
  547TMC3    C7 8176   0.300   2.831  17.453  0.5598 -0.0721  0.4414
  547TMC3    C8 8177   0.019   3.099  17.160  0.1865  0.4132 -0.1111
  547TMC3    O1 8178   0.315   2.804  17.571  0.1038  0.2507 -0.1141
  547TMC3    O2 8179   4.689   3.201  17.161 -0.1384  0.0165 -0.0771
  548MPD2     C 8180   0.519   3.683  13.169 -0.1916 -0.3441  0.4807
  548MPD2    C1 8181   0.438   3.645  13.063 -0.5605 -0.6611 -0.9968
  548MPD2    C2 8182   0.479   3.573  12.956 -0.1005 -0.1825  0.0199
  548MPD2    C3 8183   0.607   3.523  12.955 -0.1056 -0.1180  0.9830
  548MPD2    C4 8184   0.684   3.546  13.065 -0.0558  0.5981  0.2447
  548MPD2    C5 8185   0.640   3.617  13.173  0.5173 -0.2523 -0.7253
  548MPD2     H 8186   0.417   3.564  12.867 -0.6234  0.5091  0.3111
  548MPD2    H1 8187   0.789   3.522  13.076 -0.0645 -0.2091 -1.4461
  548MPD2    H2 8188   0.493   3.752  13.249 -1.0271 -0.8858  0.6715
  548MPD2    H3 8189   0.712   3.641  13.251 -0.8065  0.6237  0.2167
  548MPD2     N 8190   0.649   3.457  12.842  0.5523 -0.3380  0.2412
  548MPD2    H5 8191   0.581   3.450  12.768 -0.9780 -0.0804  1.6078
  548MPD2    N1 8192   0.314   3.709  13.046  0.4362 -0.4343  0.3853
  548MPD2    H7 8193   0.264   3.677  12.964  2.2794 -1.0822 -0.4979
  549TMC3    C1 8194   0.137   3.845  13.047  0.0089 -0.5891 -0.7882
  549TMC3    C2 8195   0.086   3.967  13.070 -0.1140  0.1122  0.0209
  549TMC3    C3 8196   4.695   3.989  13.040 -1.0055 -0.0514 -0.0000
  549TMC3    C4 8197   0.064   3.740  12.999 -0.3094  0.1462 -0.4446
  549TMC3    C5 8198   4.675   3.771  12.986  0.7051 -0.3824  0.9478
  549TMC3    C6 8199   4.620   3.896  12.985 -0.9064  0.1416 -0.5178
  549TMC3     C 8200   0.264   3.817  13.114  1.1717 -0.3035 -0.1132
  549TMC3     O 8201   0.312   3.891  13.196  0.6494 -0.9000  0.3606
  549TMC3     H 8202   0.149   4.044  13.114  0.5226  0.7457 -2.0367
  549TMC3    H1 8203   0.099   3.638  13.010  1.5415  0.9453  1.1108
  549TMC3    H2 8204   4.513   3.904  12.967 -1.2826 -0.6353  1.3153
  549TMC3    C7 8205   4.600   3.677  12.907 -0.6929  0.5402 -0.3720
  549TMC3    C8 8206   4.660   4.121  12.995  0.6159  0.2716 -0.5538
  549TMC3    O1 8207   4.487   3.710  12.862 -0.6704 -0.4748 -0.6739
  549TMC3    O2 8208   4.568   4.122  12.911 -0.5441 -0.6069 -0.3280
  550TMC3    C1 8209   4.026   1.571  12.258 -0.1068  0.0596 -0.3614
  550TMC3    C2 8210   3.996   1.658  12.363  0.1566 -0.5290 -0.3281
  550TMC3    C3 8211   3.883   1.735  12.350  0.4629 -0.1267 -0.2702
  550TMC3    C4 8212   3.945   1.552  12.153 -0.4691 -1.0224 -0.5311
  550TMC3    C5 8213   3.834   1.631  12.145 -0.2375  0.1256 -0.3514
  550TMC3    C6 8214   3.804   1.728  12.237 -0.0733  0.3674  0.0498
  550TMC3     C 8215   4.166   1.551  12.221  0.4070  0.3087  0.0855
  550TMC3     O 8216   4.244   1.530  12.314 -0.6854 -0.4143 -0.2904
  550TMC3     H 8217   4.069   1.678  12.440  1.7581  0.7118 -2.1823
  550TMC3    H1 8218   3.969   1.475  12.081 -3.2109 -0.6680 -1.8148
  550TMC3    H2 8219   3.719   1.795  12.232 -0.1157  0.1999 -1.4790
  550TMC3    C7 8220   3.750   1.603  12.034  0.6845 -0.3252 -0.0552
  550TMC3    C8 8221   3.883   1.856  12.433  0.4078  0.1881 -0.3396
  550TMC3    O1 8222   3.792   1.537  11.940 -0.1470  0.1040  0.2347
  550TMC3    O2 8223   3.816   1.944  12.386  0.0816 -0.5430 -0.0608
  551TMC3    C1 8224   1.692   4.466  13.529 -0.3000 -0.0002  0.0462
  551TMC3    C2 8225   1.764   4.528  13.428  0.3449 -0.1654  0.0667
  551TMC3    C3 8226   1.867   4.602  13.475 -0.3011 -0.4656 -0.3959
  551TMC3    C4 8227   1.714   4.484  13.662  0.0531 -0.2812 -0.8408
  551TMC3    C5 8228   1.817   4.569  13.703 -0.3682  0.3233 -0.0670
  551TMC3    C6 8229   1.896   4.619  13.607 -0.3596  0.3939  0.3850
  551TMC3     C 8230   1.595   4.368  13.487 -0.2279  0.2343  0.2434
  551TMC3     O 8231   1.559   4.380  13.371  0.1589  0.2310 -0.1947
  551TMC3     H 8232   1.739   4.513  13.323 -2.7968  0.4078  0.7512
  551TMC3    H1 8233   1.632   4.465  13.730 -1.2090  1.2855 -1.9327
  551TMC3    H2 8234   1.978   4.687  13.629  0.4976 -0.6212  0.3146
  551TMC3    C7 8235   1.850   4.602  13.842  0.3065  0.3036 -0.6333
  551TMC3    C8 8236   1.949   4.676  13.383 -0.0765 -0.8039  0.2443
  551TMC3    O1 8237   1.832   4.510  13.924 -0.5805 -0.0523 -0.4417
  551TMC3    O2 8238   2.012   0.031  13.425  0.1911  0.2851  0.3487
  552MPD2     C 8239   3.741   2.012  14.314  0.2388  0.2556 -0.5433
  552MPD2    C1 8240   3.736   1.880  14.339  0.2590 -0.2767 -0.1744
  552MPD2    C2 8241   3.836   1.826  14.410  0.0994  0.3192  0.1697
  552MPD2    C3 8242   3.940   1.900  14.464  0.5693  0.1109 -0.0805
  552MPD2    C4 8243   3.946   2.036  14.433  0.1247 -0.2993 -0.6851
  552MPD2    C5 8244   3.845   2.091  14.346  0.4219 -0.5041  0.2038
  552MPD2     H 8245   3.842   1.718  14.418  2.0657  0.2746 -1.7929
  552MPD2    H1 8246   4.022   2.100  14.476 -0.7720  0.0377  0.3788
  552MPD2    H2 8247   3.676   2.065  14.244  0.5972 -0.0590 -1.1187
  552MPD2    H3 8248   3.843   2.195  14.317 -0.5108 -0.3088  0.9771
  552MPD2     N 8249   4.042   1.847  14.549 -0.5229 -0.3708 -0.3228
  552MPD2    H5 8250   4.112   1.909  14.589  1.6021 -1.9778 -1.5865
  552MPD2    N1 8251   3.630   1.799  14.287 -0.2287  0.1826 -0.9100
  552MPD2    H7 8252   3.634   1.701  14.312 -1.2732  0.2781 -0.3637
  553TMC3    C1 8253   3.439   1.711  14.184  0.1532 -0.7787 -0.3868
  553TMC3    C2 8254   3.369   1.719  14.065  0.7256 -0.5256  1.0248
  553TMC3    C3 8255   3.340   1.600  13.997 -0.3317 -0.1815 -0.1749
  553TMC3    C4 8256   3.481   1.590  14.236  0.2968  0.0105  0.2502
  553TMC3    C5 8257   3.454   1.481  14.165 -0.2567  0.3175 -1.0091
  553TMC3    C6 8258   3.385   1.482  14.047  0.7359 -0.0932 -0.5335
  553TMC3     C 8259   3.520   1.829  14.215  0.0652  0.1240 -0.1339
  553TMC3     O 8260   3.493   1.930  14.150  0.3976  1.1158 -0.2547
  553TMC3     H 8261   3.333   1.814  14.028  1.3955 -0.2246  1.1488
  553TMC3    H1 8262   3.537   1.586  14.328  2.2594 -0.4172 -0.9624
  553TMC3    H2 8263   3.368   1.390  13.992  1.4704 -1.1551  1.0179
  553TMC3    C7 8264   3.481   1.350  14.222  1.0749 -0.1313 -0.1054
  553TMC3    C8 8265   3.372   1.629  13.859  0.2108  0.4944  0.1427
  553TMC3    O1 8266   3.382   1.281  14.232 -0.3068 -0.5119  0.0229
  553TMC3    O2 8267   3.332   1.736  13.814  0.6945 -0.0656  0.4981
  554TMC3    C1 8268   0.657   0.769  11.707 -0.0747  0.2356  0.6480
  554TMC3    C2 8269   0.577   0.791  11.592  0.4100 -0.1529 -0.6094
  554TMC3    C3 8270   0.628   0.810  11.466  0.3065 -0.1084  0.5010
  554TMC3    C4 8271   0.791   0.751  11.686  0.1594 -0.9552 -0.5450
  554TMC3    C5 8272   0.844   0.781  11.564  0.2823 -0.2105  0.6471
  554TMC3    C6 8273   0.767   0.812  11.453  0.1079 -0.2636  0.4234
  554TMC3     C 8274   0.589   0.747  11.835 -0.1016  0.6694 -0.2506
  554TMC3     O 8275   0.467   0.764  11.838 -0.8541  0.4944 -0.2078
  554TMC3     H 8276   0.470   0.798  11.604  0.5527 -1.0521  1.2428
  554TMC3    H1 8277   0.863   0.736  11.765 -0.8439  2.9898  1.1167
  554TMC3    H2 8278   0.811   0.828  11.355 -1.6752 -0.3332 -0.3817
  554TMC3    C7 8279   0.983   0.848  11.576  0.7727 -0.4639 -0.4736
  554TMC3    C8 8280   0.552   0.856  11.349  0.1937 -0.1500  0.0489
  554TMC3    O1 8281   1.068   0.797  11.651  0.0938  0.5439 -0.1980
  554TMC3    O2 8282   0.618   0.920  11.268  0.6153 -0.1809 -0.1287
  555TMC3    C1 8283   4.318   0.254  15.288  0.3940  0.4045  0.4583
  555TMC3    C2 8284   4.259   0.324  15.388 -0.1438  0.7728 -0.2993
  555TMC3    C3 8285   4.224   0.255  15.502  0.1109 -0.2403 -0.1219
  555TMC3    C4 8286   4.366   0.132  15.307  0.7415 -0.0491 -0.7822
  555TMC3    C5 8287   4.351   0.074  15.425  0.1416  0.2414  0.2331
  555TMC3    C6 8288   4.275   0.131  15.527  0.1128  0.0164 -0.0252
  555TMC3     C 8289   4.366   0.341  15.175 -0.0657  0.5093 -0.2482
  555TMC3     O 8290   4.476   0.314  15.128  0.0049  0.6384 -0.2576
  555TMC3     H 8291   4.201   0.411  15.361 -0.1959 -0.3895 -3.9091
  555TMC3    H1 8292   4.424   0.084  15.229  2.3725 -3.1026  2.2839
  555TMC3    H2 8293   4.242   0.067  15.608 -0.6893  1.0754  0.4870
  555TMC3    C7 8294   4.395   4.670  15.440  0.0423 -0.3721  0.2420
  555TMC3    C8 8295   4.207   0.342  15.612 -0.6955 -0.1182 -0.0037
  555TMC3    O1 8296   4.339   4.602  15.526  0.2737  0.4199 -0.0434
  555TMC3    O2 8297   4.143   0.446  15.586 -0.3262 -0.4939 -0.0614
  556MPD2     C 8298   2.065   2.172  11.008 -0.5226 -0.9426  0.1685
  556MPD2    C1 8299   2.156   2.074  11.033 -0.2396 -0.0047 -0.7919
  556MPD2    C2 8300   2.215   2.009  10.927 -0.1414 -0.2471  0.3248
  556MPD2    C3 8301   2.184   2.035  10.795 -0.1573 -0.5808  0.4571
  556MPD2    C4 8302   2.086   2.129  10.771 -0.2426 -0.3353  0.1790
  556MPD2    C5 8303   2.031   2.196  10.878 -0.5918 -0.1514  0.4462
  556MPD2     H 8304   2.300   1.945  10.946 -0.4742 -0.0499  2.4535
  556MPD2    H1 8305   2.062   2.169  10.673  1.9147  1.9311  0.5725
  556MPD2    H2 8306   2.011   2.224  11.086 -4.1741 -0.6650 -2.5548
  556MPD2    H3 8307   1.957   2.271  10.854  0.3814  0.2046 -1.4450
  556MPD2     N 8308   2.248   1.968  10.690  0.1695 -0.7893  0.2954
  556MPD2    H5 8309   2.322   1.907  10.723  1.9346 -0.0642 -2.3069
  556MPD2    N1 8310   2.201   2.041  11.165  0.1165  0.2554 -0.0220
  556MPD2    H7 8311   2.287   1.986  11.168  0.7530  1.2599 -0.1658
  557TMC3    C1 8312   2.304   1.883  10.475  0.1034  0.3365 -0.3950
  557TMC3    C2 8313   2.242   1.816  10.373 -0.5838 -0.5167 -0.3149
  557TMC3    C3 8314   2.281   1.687  10.341 -0.2983  0.5163 -0.3250
  557TMC3    C4 8315   2.408   1.836  10.547 -0.0518  0.4729 -0.2483
  557TMC3    C5 8316   2.461   1.720  10.496 -0.4269  0.4300  0.3989
  557TMC3    C6 8317   2.404   1.647  10.391  0.5295  0.0861 -0.2164
  557TMC3     C 8318   2.220   1.972  10.553  0.2891  0.0623 -0.3639
  557TMC3     O 8319   2.138   2.038  10.483 -0.5212  0.3372 -0.8500
  557TMC3     H 8320   2.144   1.843  10.335 -0.4878 -0.7599 -0.7326
  557TMC3    H1 8321   2.466   1.898  10.614  1.6532  1.5571 -2.7229
  557TMC3    H2 8322   2.432   1.546  10.367  1.1640 -0.1117  1.3456
  557TMC3    C7 8323   2.495   1.638  10.613 -0.2760 -0.4096 -0.6503
  557TMC3    C8 8324   2.176   1.603  10.277 -0.2797 -0.7203 -0.9912
  557TMC3    O1 8325   2.464   1.690  10.721 -0.3829  0.2049  0.0794
  557TMC3    O2 8326   2.079   1.654  10.218 -0.4343 -0.0508  0.3657
  558TMC3    C1 8327   4.621   4.192  10.733 -0.2901  0.3808 -0.3173
  558TMC3    C2 8328   4.503   4.188  10.804  0.3088 -0.6326 -0.0383
  558TMC3    C3 8329   4.385   4.205  10.736 -0.0099  0.1702 -0.8407
  558TMC3    C4 8330   4.618   4.172  10.596 -0.2913  0.0684  0.1255
  558TMC3    C5 8331   4.497   4.168  10.536  0.1446  0.0015  0.9356
  558TMC3    C6 8332   4.379   4.184  10.602 -0.7619  0.3344 -0.4346
  558TMC3     C 8333   0.003   4.202  10.808  0.5964  0.2492 -0.6260
  558TMC3     O 8334   0.004   4.269  10.908  0.4013  0.1629 -0.2533
  558TMC3     H 8335   4.501   4.212  10.910 -0.2150  0.2357 -0.2433
  558TMC3    H1 8336   4.703   4.161  10.528 -0.1962 -0.3680  0.3135
  558TMC3    H2 8337   4.292   4.213  10.544  0.7182  1.3718 -2.1483
  558TMC3    C7 8338   4.504   4.148  10.393 -0.3478  0.1511 -0.0562
  558TMC3    C8 8339   4.273   4.262  10.805 -0.1015  0.1159  0.2223
  558TMC3    O1 8340   4.609   4.110  10.344 -0.6767  0.1979 -0.3083
  558TMC3    O2 8341   4.170   4.202  10.775  0.6915 -0.5783 -0.5611
  559MPD2     C 8342   0.364   0.905  10.452 -0.8173 -0.6520 -0.4385
  559MPD2    C1 8343   0.302   0.794  10.506 -0.2106  0.2116 -0.2495
  559MPD2    C2 8344   0.351   0.730  10.620 -0.5500  0.4225 -0.2160
  559MPD2    C3 8345   0.461   0.787  10.682 -0.3137 -0.1613  0.0481
  559MPD2    C4 8346   0.525   0.900  10.638  0.1045  0.0582  0.6796
  559MPD2    C5 8347   0.483   0.952  10.517 -0.4712  0.2689  0.0030
  559MPD2     H 8348   0.306   0.645  10.668 -0.9992  1.5863  1.4254
  559MPD2    H1 8349   0.604   0.946  10.697  0.9424 -0.3508 -0.1188
  559MPD2    H2 8350   0.325   0.951  10.362  1.3508  0.7680 -0.6458
  559MPD2    H3 8351   0.538   1.035  10.473  1.0618 -0.7016  0.0746
  559MPD2     N 8352   0.485   0.728  10.811 -0.3144  0.7592  0.2118
  559MPD2    H5 8353   0.429   0.649  10.841  2.3423 -0.9903  0.5774
  559MPD2    N1 8354   0.172   0.752  10.456 -0.3264 -0.5055 -0.1641
  559MPD2    H7 8355   0.120   0.813  10.394  0.0974 -0.7700 -0.7837
  560TMC3    C1 8356   0.587   0.678  11.017 -0.6910  0.0529 -0.2005
  560TMC3    C2 8357   0.473   0.618  11.057 -0.0047 -0.2121 -0.8387
  560TMC3    C3 8358   0.483   0.548  11.171 -0.1443  0.2511  0.3566
  560TMC3    C4 8359   0.708   0.662  11.073 -0.2145  0.1171 -0.7399
  560TMC3    C5 8360   0.717   0.583  11.186 -0.4293 -0.0705  0.0665
  560TMC3    C6 8361   0.601   0.533  11.239 -0.2775  0.1098  0.3845
  560TMC3     C 8362   0.590   0.758  10.896  0.1200  0.1433  0.1778
  560TMC3     O 8363   0.682   0.836  10.878  0.1817  0.1942 -0.4254
  560TMC3     H 8364   0.378   0.635  11.006 -0.5830  1.5463  0.8421
  560TMC3    H1 8365   0.801   0.696  11.030 -0.2672  1.7094  0.3955
  560TMC3    H2 8366   0.597   0.489  11.338  0.7418 -0.6419  0.0909
  560TMC3    C7 8367   0.820   0.483  11.200 -0.5994  0.5274 -0.2069
  560TMC3    C8 8368   0.371   0.463  11.201 -0.1279 -0.8209 -0.0057
  560TMC3    O1 8369   0.784   0.376  11.251 -0.3165  0.0301  0.1395
  560TMC3    O2 8370   0.253   0.495  11.177 -0.8643  0.1138 -0.0601
  561TMC3    C1 8371   3.348   4.257  11.325 -0.3021  0.4665 -0.6400
  561TMC3    C2 8372   3.301   4.194  11.444  0.1388 -0.0382  0.7091
  561TMC3    C3 8373   3.248   4.278  11.547  0.2554  0.7693 -0.3101
  561TMC3    C4 8374   3.324   4.387  11.301  0.3814  0.8143  0.2663
  561TMC3    C5 8375   3.284   4.462  11.409  1.4039  0.0502  0.4374
  561TMC3    C6 8376   3.250   4.411  11.534 -0.2507 -0.3594 -0.9944
  561TMC3     C 8377   3.391   4.174  11.211 -0.3065  0.0316  0.3304
  561TMC3     O 8378   3.369   4.053  11.213  0.0146 -0.1404  0.3645
  561TMC3     H 8379   3.313   4.087  11.458 -0.7288 -0.2617 -0.3040
  561TMC3    H1 8380   3.350   4.435  11.208  1.7275  0.7415  0.5950
  561TMC3    H2 8381   3.220   4.477  11.616 -1.2219 -1.5022 -0.4240
  561TMC3    C7 8382   3.260   4.609  11.401  0.4315 -0.3952 -0.5950
  561TMC3    C8 8383   3.155   4.208  11.629 -0.3391  0.3406  0.0484
  561TMC3    O1 8384   3.283   4.660  11.508  0.1931  0.0352  0.1558
  561TMC3    O2 8385   3.145   4.085  11.610  0.1668  0.2118  1.2169
  562TMC3    C1 8386   3.788   0.733  16.552  0.1160 -0.6063 -0.1904
  562TMC3    C2 8387   3.783   0.832  16.449  0.6011  0.5939 -0.5186
  562TMC3    C3 8388   3.839   0.806  16.325 -0.0974  0.2030 -0.1180
  562TMC3    C4 8389   3.854   0.616  16.528 -0.0203 -0.0631  0.0335
  562TMC3    C5 8390   3.906   0.596  16.404  0.1844  0.2633 -0.2246
  562TMC3    C6 8391   3.907   0.689  16.303 -0.1483  0.2347  0.2169
  562TMC3     C 8392   3.746   0.758  16.689  0.2575  0.6985  0.6944
  562TMC3     O 8393   3.758   0.663  16.772  0.4519 -0.4052 -0.3189
  562TMC3     H 8394   3.723   0.922  16.455  1.5677  1.0916  1.6678
  562TMC3    H1 8395   3.848   0.538  16.603  0.2130  1.3364  1.5102
  562TMC3    H2 8396   3.939   0.661  16.203  1.5024  0.3613  0.7158
  562TMC3    C7 8397   4.002   0.494  16.398  0.6756  0.6161  0.2903
  562TMC3    C8 8398   3.840   0.916  16.228  0.0617  0.2161 -0.3142
  562TMC3    O1 8399   4.036   0.458  16.283 -0.0596  0.1951  0.8090
  562TMC3    O2 8400   3.771   1.015  16.247 -0.3283 -0.5159 -0.2386
  563MPD2     C 8401   1.916   2.319  15.968  0.6161  0.2351  0.1723
  563MPD2    C1 8402   1.929   2.208  16.052 -0.2768  0.3014 -0.6974
  563MPD2    C2 8403   2.023   2.112  16.018  0.1563  0.4013 -0.0691
  563MPD2    C3 8404   2.111   2.130  15.912  0.3199  0.3244  0.8645
  563MPD2    C4 8405   2.098   2.246  15.839 -0.0804  0.1355 -0.3430
  563MPD2    C5 8406   2.002   2.334  15.864 -0.3288 -0.7758 -0.1583
  563MPD2     H 8407   2.022   2.015  16.066  0.3404  0.2831 -0.3053
  563MPD2    H1 8408   2.160   2.277  15.755 -2.3005  0.2099 -1.9744
  563MPD2    H2 8409   1.844   2.397  15.989 -0.3516 -1.0006  1.4256
  563MPD2    H3 8410   2.001   2.419  15.795  0.1180 -1.9522 -1.6080
  563MPD2     N 8411   2.211   2.031  15.893  0.0442  0.7426  0.2493
  563MPD2    H5 8412   2.196   1.942  15.940 -0.8703  2.7572  3.7766
  563MPD2    N1 8413   1.862   2.193  16.177 -0.7082  0.3502  0.1735
  563MPD2    H7 8414   1.866   2.099  16.215 -0.2652  0.7844  1.1944
  564TMC3    C1 8415   1.721   2.225  16.357 -0.4415 -0.3879 -0.2284
  564TMC3    C2 8416   1.588   2.191  16.339  0.2541 -0.3437  0.0112
  564TMC3    C3 8417   1.556   2.069  16.389  0.0752 -0.0585 -0.0373
  564TMC3    C4 8418   1.808   2.143  16.414 -0.0121 -1.1741  0.3754
  564TMC3    C5 8419   1.763   2.021  16.463 -0.1412 -0.6000 -0.6129
  564TMC3    C6 8420   1.629   1.992  16.471 -0.4930 -0.2369  0.2058
  564TMC3     C 8421   1.767   2.275  16.230 -1.0384 -0.3848 -0.1342
  564TMC3     O 8422   1.728   2.385  16.201 -0.2429 -0.1094 -0.2834
  564TMC3     H 8423   1.532   2.254  16.270  0.1660 -0.5545 -0.1087
  564TMC3    H1 8424   1.912   2.170  16.421 -0.4769 -0.0554  2.9601
  564TMC3    H2 8425   1.578   1.910  16.520 -2.0826 -0.4223 -1.7541
  564TMC3    C7 8426   1.851   1.914  16.506  0.3509 -0.2241 -0.0846
  564TMC3    C8 8427   1.434   1.996  16.336  0.2435  0.2204  0.5762
  564TMC3    O1 8428   1.969   1.947  16.513  0.2790 -0.3748  0.1226
  564TMC3    O2 8429   1.405   1.890  16.389 -0.3779  0.3901 -0.8312
  565TMC3    C1 8430   2.220   3.575  10.461 -0.3705 -0.2741  0.0348
  565TMC3    C2 8431   2.241   3.446  10.495 -0.0235 -0.5153  0.1542
  565TMC3    C3 8432   2.140   3.353  10.486  0.3807 -0.2751 -0.2009
  565TMC3    C4 8433   2.096   3.620  10.432 -0.4670 -0.0780  0.1410
  565TMC3    C5 8434   1.991   3.534  10.448  0.2522  0.5327 -0.2687
  565TMC3    C6 8435   2.010   3.402  10.474  0.4249  0.0399 -0.2578
  565TMC3     C 8436   2.331   3.663  10.443  0.2215  0.2113 -0.1007
  565TMC3     O 8437   2.310   3.766  10.377  1.1664 -0.0880 -0.1708
  565TMC3     H 8438   2.343   3.409  10.500  0.2543 -0.1198 -2.1943
  565TMC3    H1 8439   2.079   3.722  10.400 -2.3635 -0.9509 -1.6285
  565TMC3    H2 8440   1.934   3.326  10.460  0.1021 -0.1590  2.7324
  565TMC3    C7 8441   1.873   3.576  10.377  0.7463  0.3893  0.2074
  565TMC3    C8 8442   2.145   3.234  10.562 -0.3397  0.1102 -0.5357
  565TMC3    O1 8443   1.886   3.674  10.309  0.3544 -0.3689  0.2129
  565TMC3    O2 8444   2.038   3.188  10.603  0.2558  1.2455  0.2217
  566MPD2     C 8445   3.324   0.203  14.393 -0.5434 -1.0260  0.4396
  566MPD2    C1 8446   3.367   0.252  14.272 -0.8383  0.1515 -0.8961
  566MPD2    C2 8447   3.300   0.220  14.157  0.8039  0.1250  0.1797
  566MPD2    C3 8448   3.203   0.119  14.150  0.0542 -0.1233  0.0397
  566MPD2    C4 8449   3.159   0.062  14.267  0.1973  0.3481  0.3433
  566MPD2    C5 8450   3.222   0.103  14.389  0.0372  0.2596  0.1093
  566MPD2     H 8451   3.331   0.266  14.064 -1.6297 -2.1582 -1.7558
  566MPD2    H1 8452   3.103   4.707  14.272 -0.4347  0.5651 -3.2834
  566MPD2    H2 8453   3.383   0.212  14.483 -1.3182 -3.4914  1.1663
  566MPD2    H3 8454   3.193   0.053  14.481  0.5556 -0.4080 -0.0916
  566MPD2     N 8455   3.138   0.071  14.035  0.0119  0.2117 -0.7438
  566MPD2    H5 8456   3.072   4.735  14.059 -0.1506  0.5039 -0.2965
  566MPD2    N1 8457   3.476   0.344  14.263  0.2134  0.4733  0.2449
  566MPD2    H7 8458   3.523   0.355  14.352  1.9688  2.3401 -0.9014
  567TMC3    C1 8459   3.639   0.479  14.158 -0.4279 -0.0458 -0.0404
  567TMC3    C2 8460   3.669   0.535  14.035 -0.3689 -0.0041  0.8812
  567TMC3    C3 8461   3.792   0.589  14.021 -0.2194 -0.0746  0.4513
  567TMC3    C4 8462   3.726   0.477  14.264 -0.7442  0.0732 -0.4171
  567TMC3    C5 8463   3.848   0.542  14.244 -0.4773 -0.2181  0.3275
  567TMC3    C6 8464   3.882   0.599  14.120  0.0393  0.5172 -0.0513
  567TMC3     C 8465   3.505   0.419  14.159  1.1611 -0.3535  0.3057
  567TMC3     O 8466   3.437   0.455  14.061 -0.3982 -0.5787  0.0951
  567TMC3     H 8467   3.614   0.518  13.944 -2.2567  0.6413  1.9010
  567TMC3    H1 8468   3.696   0.431  14.358 -0.3377 -1.6238 -1.1186
  567TMC3    H2 8469   3.985   0.633  14.108  1.1035 -2.9925 -1.0560
  567TMC3    C7 8470   3.947   0.536  14.356 -0.5430  0.0228  0.0428
  567TMC3    C8 8471   3.810   0.676  13.905  0.8126 -0.3537  0.3772
  567TMC3    O1 8472   4.041   0.616  14.346 -0.6106 -0.6589 -0.4129
  567TMC3    O2 8473   3.719   0.685  13.825 -0.3048 -0.2701  0.0646
  568MPD2     C 8474   1.161   0.675  16.165  0.2864 -0.1676 -0.3363
  568MPD2    C1 8475   1.187   0.731  16.293  0.3463 -0.3429  0.2266
  568MPD2    C2 8476   1.142   0.862  16.308  0.1742 -0.4167  0.1232
  568MPD2    C3 8477   1.074   0.938  16.210 -0.3376  0.0008 -0.6153
  568MPD2    C4 8478   1.050   0.877  16.086 -0.0240 -0.2502 -0.4914
  568MPD2    C5 8479   1.097   0.747  16.069  0.7215 -0.6331 -0.5173
  568MPD2     H 8480   1.148   0.912  16.404 -0.2388 -0.8974  0.4018
  568MPD2    H1 8481   1.000   0.927  16.004  1.1069  1.4116 -0.1738
  568MPD2    H2 8482   1.190   0.573  16.143 -0.9285 -1.0683  2.1233
  568MPD2    H3 8483   1.067   0.694  15.980  0.4972 -0.7912 -0.3482
  568MPD2     N 8484   1.041   1.075  16.231  0.6133 -0.5483 -0.1398
  568MPD2    H5 8485   1.070   1.113  16.321 -1.7809  0.5581  0.1618
  568MPD2    N1 8486   1.280   0.667  16.384 -0.0161  0.0257 -0.9446
  568MPD2    H7 8487   1.310   0.574  16.354  1.6848  0.0055  0.8046
  569TMC3    C1 8488   0.955   1.295  16.204  0.8812 -0.4348 -0.1826
  569TMC3    C2 8489   0.973   1.322  16.341 -0.6416  0.0929 -0.4731
  569TMC3    C3 8490   0.954   1.450  16.386  0.0715  0.0301  0.6489
  569TMC3    C4 8491   0.929   1.400  16.122 -0.1944  0.0336  0.5319
  569TMC3    C5 8492   0.929   1.524  16.166  0.5306 -0.3585  0.1687
  569TMC3    C6 8493   0.928   1.551  16.294  0.3294 -0.6025  0.6072
  569TMC3     C 8494   0.983   1.164  16.143  0.3479 -0.4990  0.3555
  569TMC3     O 8495   0.953   1.145  16.026  0.5343  0.4475  0.3680
  569TMC3     H 8496   1.007   1.243  16.406 -2.3261 -0.2509 -0.0187
  569TMC3    H1 8497   0.935   1.383  16.015  0.3036  0.8905  0.4206
  569TMC3    H2 8498   0.919   1.650  16.337  0.4762  0.1367 -1.0967
  569TMC3    C7 8499   0.959   1.642  16.076  0.1883 -0.3269 -0.0838
  569TMC3    C8 8500   1.038   1.499  16.489 -0.0515 -0.8935  0.0774
  569TMC3    O1 8501   0.939   1.637  15.958  0.4426  0.8180 -0.2170
  569TMC3    O2 8502   1.125   1.579  16.450  0.2646 -0.1032 -0.2721
  570TMC3    C1 8503   0.709   4.708  16.160  0.2751 -0.5637 -0.0214
  570TMC3    C2 8504   0.808   4.656  16.079  0.4879 -0.1334 -0.0064
  570TMC3    C3 8505   0.934   4.652  16.131  0.3925  0.2057  0.1276
  570TMC3    C4 8506   0.735   0.020  16.285  0.1554  0.4313  0.2230
  570TMC3    C5 8507   0.868   0.020  16.327  0.5522  0.2685 -0.5908
  570TMC3    C6 8508   0.964   4.711  16.247 -0.3547 -0.6482 -0.0015
  570TMC3     C 8509   0.576   4.663  16.133 -0.1279 -0.0865  0.2925
  570TMC3     O 8510   0.541   4.664  16.018  0.3889  0.8189  0.2295
  570TMC3     H 8511   0.777   4.622  15.981 -0.6225 -0.9867  0.6348
  570TMC3    H1 8512   0.643   0.047  16.336 -1.5263 -0.5866 -2.2632
  570TMC3    H2 8513   1.067   4.706  16.279 -0.1241  0.6315 -0.5362
  570TMC3    C7 8514   0.896   0.014  16.471  0.2468 -0.1348  0.0513
  570TMC3    C8 8515   1.039   4.645  16.038 -0.3377  0.2192  0.5138
  570TMC3    O1 8516   0.982   4.672  16.499  0.4283 -0.0382  0.6505
  570TMC3    O2 8517   1.117   0.004  16.051  1.1679 -0.0916  0.2533
  571MPD2     C 8518   3.624   1.017   0.109  1.0998  0.4856  0.4459
  571MPD2    C1 8519   3.514   1.020   0.198  0.0307  0.8052 -0.6001
  571MPD2    C2 8520   3.487   1.141   0.267 -0.0913 -0.0890 -0.9718
  571MPD2    C3 8521   3.566   1.251   0.247  0.4646 -0.1664 -0.3848
  571MPD2    C4 8522   3.672   1.241   0.165  0.2276 -0.0813 -0.7284
  571MPD2    C5 8523   3.710   1.126   0.104 -0.0205 -0.0063  0.2293
  571MPD2     H 8524   3.404   1.139   0.338  0.8843  0.5699  0.1849
  571MPD2    H1 8525   3.736   1.321   0.129 -0.4206  1.0593  0.6747
  571MPD2    H2 8526   3.638   0.934   0.040  1.3811  1.7829 -1.0545
  571MPD2    H3 8527   3.789   1.127   0.029 -2.5356  1.4714 -2.3725
  571MPD2     N 8528   3.538   1.373   0.316  0.5123 -0.1354  0.1700
  571MPD2    H5 8529   3.615   1.439   0.311 -0.4779  0.8530 -2.5133
  571MPD2    N1 8530   3.445   0.899   0.212  0.0690 -0.4156  0.1752
  571MPD2    H7 8531   3.468   0.822   0.150  1.0572  0.0176 -0.0003
  572TMC3    C1 8532   3.466   1.538   0.455 -0.1547  0.5962 -0.1155
  572TMC3    C2 8533   3.421   1.565   0.584  0.0975  0.5537  0.0251
  572TMC3    C3 8534   3.441   1.687   0.644  0.3682 -0.7061  0.3224
  572TMC3    C4 8535   3.522   1.636   0.383 -0.3010  0.0298 -0.0108
  572TMC3    C5 8536   3.533   1.762   0.445  0.0814  0.2995  0.3786
  572TMC3    C6 8537   3.496   1.796   0.575  0.4454  0.4827 -0.1772
  572TMC3     C 8538   3.454   1.398   0.418  0.0021 -0.1869 -0.5013
  572TMC3     O 8539   3.378   1.322   0.481  0.7561  0.6258  0.3931
  572TMC3     H 8540   3.391   1.480   0.645 -0.1042 -0.4273 -1.4324
  572TMC3    H1 8541   3.549   1.625   0.279  3.0598  1.2994  0.7250
  572TMC3    H2 8542   3.489   1.894   0.621 -2.7171  0.2274 -0.1149
  572TMC3    C7 8543   3.623   1.857   0.381 -0.5360 -0.1806  0.5006
  572TMC3    C8 8544   3.436   1.694   0.793 -0.6745 -0.2215 -0.1223
  572TMC3    O1 8545   3.620   1.855   0.259  0.2110 -0.4612 -0.5351
  572TMC3    O2 8546   3.520   1.760   0.847  0.2269 -0.3809 -0.5941
  573MPD2     C 8547   0.346   2.101   0.705 -0.6082 -0.5828 -0.1496
  573MPD2    C1 8548   0.211   2.092   0.699  0.5500 -0.5960 -0.0770
  573MPD2    C2 8549   0.145   2.081   0.573 -0.1431  0.2437 -0.1435
  573MPD2    C3 8550   0.213   2.086   0.450 -0.1757  0.1328 -0.4455
  573MPD2    C4 8551   0.353   2.099   0.460 -0.6191  0.4366  0.3689
  573MPD2    C5 8552   0.413   2.107   0.586  0.6527  0.4421 -0.3182
  573MPD2     H 8553   0.037   2.078   0.567 -0.1154 -0.5003 -0.1698
  573MPD2    H1 8554   0.419   2.107   0.374 -0.6180 -0.5472  0.2748
  573MPD2    H2 8555   0.406   2.102   0.795 -0.6897 -0.5325 -0.0961
  573MPD2    H3 8556   0.521   2.117   0.581  0.8275 -1.1592  0.5036
  573MPD2     N 8557   0.149   2.074   0.326 -0.1033 -0.9606  0.6187
  573MPD2    H5 8558   0.210   2.075   0.244 -1.7531 -1.5566 -0.6199
  573MPD2    N1 8559   0.147   2.069   0.821  1.3177  0.4381 -0.8008
  573MPD2    H7 8560   0.209   2.068   0.902 -0.3329  0.8121  0.4625
  574TMC3    C1 8561   4.725   2.046   0.162 -0.6613 -0.3090 -0.6438
  574TMC3    C2 8562   4.601   2.006   0.127  0.2856  0.0804  0.1676
  574TMC3    C3 8563   4.562   2.031   0.001 -0.4136  0.0020  0.2731
  574TMC3    C4 8564   0.071   2.106   0.073 -0.3338  0.2509  0.0591
  574TMC3    C5 8565   0.028   2.123  17.694 -0.1227 -0.2373  0.7118
  574TMC3    C6 8566   4.641   2.088  17.658  0.7828  0.6904  0.0225
  574TMC3     C 8567   0.019   2.040   0.304  0.0834 -1.1296 -0.0685
  574TMC3     O 8568   4.669   2.006   0.379  0.1229 -0.5457 -0.1702
  574TMC3     H 8569   4.527   1.965   0.194 -1.0070  1.5490 -0.3701
  574TMC3    H1 8570   0.158   2.164   0.102 -0.9401  0.3647  1.6350
  574TMC3    H2 8571   4.610   2.092  17.555 -1.7156  1.3977  0.7808
  574TMC3    C7 8572   0.142   2.100  17.600  1.0107  0.3483 -0.0767
  574TMC3    C8 8573   4.424   2.042  17.721 -0.2040  0.8164 -0.3743
  574TMC3    O1 8574   0.238   2.048  17.650  0.1197 -0.0554  0.5771
  574TMC3    O2 8575   4.353   1.947   0.000 -0.6194 -0.0121 -0.5313
  575TMC3    C1 8576   1.888   2.820  11.315 -0.2900 -0.6673  0.3286
  575TMC3    C2 8577   1.752   2.786  11.304  0.3442  0.1433 -0.0531
  575TMC3    C3 8578   1.705   2.796  11.172 -0.3188 -0.0241 -0.1013
  575TMC3    C4 8579   1.968   2.864  11.218  0.2725 -0.1607 -0.0767
  575TMC3    C5 8580   1.909   2.891  11.099  0.0701 -0.7410 -0.5499
  575TMC3    C6 8581   1.781   2.856  11.067  0.3885 -0.4341  0.2934
  575TMC3     C 8582   1.950   2.795  11.437  0.0312  0.3074  0.0084
  575TMC3     O 8583   1.871   2.776  11.527 -0.0210  0.1488 -0.2962
  575TMC3     H 8584   1.695   2.727  11.374  0.1607  0.9995  0.5056
  575TMC3    H1 8585   2.062   2.911  11.242 -1.8550  3.4884  1.0873
  575TMC3    H2 8586   1.750   2.860  10.963 -0.8293  0.5405  0.6921
  575TMC3    C7 8587   1.988   2.962  11.001  0.1096  0.1013  0.3934
  575TMC3    C8 8588   1.563   2.785  11.135 -0.0470  0.1550 -0.3855
  575TMC3    O1 8589   1.922   3.015  10.915 -0.4760  0.3038 -0.7162
  575TMC3    O2 8590   1.540   2.809  11.014 -0.1499  0.0206  0.3594
  576MPD2     C 8591   2.186   0.036  12.542 -0.1472 -0.3940 -0.4068
  576MPD2    C1 8592   2.239   0.088  12.429  0.3323  0.3309 -0.2008
  576MPD2    C2 8593   2.192   0.213  12.377 -0.9347  0.6132  0.0023
  576MPD2    C3 8594   2.099   0.281  12.448  0.1373  0.1889  0.0435
  576MPD2    C4 8595   2.042   0.218  12.562 -0.5624 -0.2082  0.3371
  576MPD2    C5 8596   2.081   0.095  12.602  0.1747  0.4093  0.6754
  576MPD2     H 8597   2.240   0.262  12.293 -1.9267 -1.2915 -1.6560
  576MPD2    H1 8598   1.971   0.277  12.618 -0.7758  0.5926 -0.7656
  576MPD2    H2 8599   2.216   4.681  12.590  0.9998 -0.1682 -0.6699
  576MPD2    H3 8600   2.039   0.060  12.695  3.0468 -0.1728  1.7747
  576MPD2     N 8601   2.058   0.411  12.409 -0.4078  0.5138 -0.1826
  576MPD2    H5 8602   2.113   0.452  12.334  0.8800  0.5967  0.8056
  576MPD2    N1 8603   2.327   0.016  12.348 -0.7255  0.3876 -0.5343
  576MPD2    H7 8604   2.342   0.053  12.254 -0.0680  3.4869  0.7701
  577TMC3    C1 8605   2.489   4.618  12.261 -0.3609 -0.2876 -0.6982
  577TMC3    C2 8606   2.488   4.492  12.204 -0.1363 -0.2667 -0.1043
  577TMC3    C3 8607   2.525   4.488  12.073 -0.6073 -0.3209  0.4414
  577TMC3    C4 8608   2.513   4.728  12.179  0.0457 -0.0247  0.1084
  577TMC3    C5 8609   2.543   4.714  12.052  0.2208  0.0193  0.3323
  577TMC3    C6 8610   2.543   4.593  11.985 -0.5762  0.0740 -0.2048
  577TMC3     C 8611   2.386   4.637  12.368 -0.5663 -0.3345 -0.5094
  577TMC3     O 8612   2.381   4.564  12.465  0.5956  0.0231 -0.8963
  577TMC3     H 8613   2.457   4.403  12.256  1.0599 -0.4333  0.3167
  577TMC3    H1 8614   2.530   0.087  12.225 -0.1274 -0.6432  1.4757
  577TMC3    H2 8615   2.562   4.578  11.879 -0.8020 -1.0223 -0.0976
  577TMC3    C7 8616   2.547   0.102  11.977 -0.6247 -0.6772  1.0534
  577TMC3    C8 8617   2.573   4.361  12.034 -0.4499 -0.9809  0.1379
  577TMC3    O1 8618   2.579   0.204  12.036 -0.1750  0.7956 -0.5154
  577TMC3    O2 8619   2.546   4.265  12.108  0.3140  0.4590 -0.1702
  578MPD2     C 8620   4.468   4.563   0.468 -0.2545  0.3381 -0.1736
  578MPD2    C1 8621   4.532   4.446   0.436  0.5485 -0.1727  0.3047
  578MPD2    C2 8622   4.639   4.412   0.513 -0.0854  0.3926 -0.2733
  578MPD2    C3 8623   4.673   4.490   0.626  0.2915 -0.2801 -0.1589
  578MPD2    C4 8624   4.604   4.602   0.657 -0.3045 -0.2215  0.3020
  578MPD2    C5 8625   4.496   4.634   0.579  0.5309  0.1487 -0.3051
  578MPD2     H 8626   4.710   4.337   0.481  0.6017  1.0474 -0.2988
  578MPD2    H1 8627   4.626   4.649   0.753  0.6422  2.7186 -1.3662
  578MPD2    H2 8628   4.386   4.605   0.411  0.9037  0.7215 -1.5648
  578MPD2    H3 8629   4.435   4.716   0.614  1.2338 -0.0193  1.3242
  578MPD2     N 8630   0.055   4.458   0.689 -0.3035 -0.1731 -0.6951
  578MPD2    H5 8631   0.094   4.369   0.659 -2.6917 -1.2177 -0.7410
  578MPD2    N1 8632   4.484   4.382   0.319  0.1199 -0.1334  0.2781
  578MPD2    H7 8633   4.408   4.427   0.269  1.2404 -0.4988 -1.7510
  579TMC3    C1 8634   0.255   4.470   0.806  0.0570  0.5342 -0.2849
  579TMC3    C2 8635   0.349   4.573   0.818  0.0641  0.3285  0.5080
  579TMC3    C3 8636   0.483   4.543   0.817 -0.2638  0.5164  0.5601
  579TMC3    C4 8637   0.295   4.337   0.791 -0.3079  0.2551  0.6606
  579TMC3    C5 8638   0.428   4.309   0.800 -0.1733 -0.5532  0.2361
  579TMC3    C6 8639   0.522   4.410   0.818 -1.0840 -0.6045  0.0218
  579TMC3     C 8640   0.117   4.524   0.786  0.5510 -0.4819  0.1619
  579TMC3     O 8641   0.110   4.638   0.828  0.0582 -0.4426 -0.0099
  579TMC3     H 8642   0.322   4.678   0.812  1.0718  0.5347 -0.6406
  579TMC3    H1 8643   0.222   4.257   0.787 -1.9133  1.8280 -1.9681
  579TMC3    H2 8644   0.625   4.382   0.837 -0.4784  1.6038  0.0236
  579TMC3    C7 8645   0.464   4.165   0.810  0.2855  1.2960 -0.5413
  579TMC3    C8 8646   0.579   4.662   0.836  0.4641  0.4962 -0.1627
  579TMC3    O1 8647   0.568   4.145   0.869  0.0180 -0.4077 -0.4585
  579TMC3    O2 8648   0.520   0.028   0.859  0.3239  0.0338 -0.0773
  580TMC3    C1 8649   4.215   3.286  12.049 -0.2902 -0.1878  0.6324
  580TMC3    C2 8650   4.215   3.248  11.919  0.8073  1.0675 -0.6940
  580TMC3    C3 8651   4.246   3.117  11.882  0.0708  0.1629 -0.7271
  580TMC3    C4 8652   4.251   3.189  12.141 -0.2261  0.7700  0.0044
  580TMC3    C5 8653   4.286   3.060  12.101 -0.0912  0.4922  0.2346
  580TMC3    C6 8654   4.290   3.019  11.972 -0.0335  0.0551 -0.2945
  580TMC3     C 8655   4.261   3.420  12.059  0.4585  0.6129 -0.8898
  580TMC3     O 8656   4.273   3.481  11.951 -0.1698 -0.0565  0.4913
  580TMC3     H 8657   4.166   3.308  11.843 -0.3108  1.2712  0.1692
  580TMC3    H1 8658   4.251   3.209  12.247  0.2365 -1.4304  0.4142
  580TMC3    H2 8659   4.354   2.937  11.941  0.5536  0.3535  0.1349
  580TMC3    C7 8660   4.341   2.977  12.204 -0.5658 -0.6636  0.4602
  580TMC3    C8 8661   4.305   3.107  11.751  0.2487  1.3072 -0.3847
  580TMC3    O1 8662   4.391   3.035  12.300  0.4104 -0.4667  0.0169
  580TMC3    O2 8663   4.327   2.996  11.704  0.1960 -0.1346 -0.5598
  581MPD2     C 8664   2.283   3.140  15.141  0.1427  0.3811 -0.0269
  581MPD2    C1 8665   2.339   3.266  15.161  0.0456 -0.1207 -1.1340
  581MPD2    C2 8666   2.256   3.375  15.163  0.0085  0.0188 -0.8566
  581MPD2    C3 8667   2.124   3.372  15.119 -0.0191 -0.2584  0.0435
  581MPD2    C4 8668   2.070   3.241  15.090 -0.2402  0.1440 -0.3844
  581MPD2    C5 8669   2.152   3.130  15.112 -0.5586  0.2819 -0.6018
  581MPD2     H 8670   2.301   3.473  15.177  1.1032 -0.3130 -1.9937
  581MPD2    H1 8671   1.971   3.215  15.056  0.3769 -1.0657 -1.2518
  581MPD2    H2 8672   2.343   3.049  15.145 -0.0840  0.1079 -2.8119
  581MPD2    H3 8673   2.111   3.031  15.098 -3.0540  1.0069  1.4936
  581MPD2     N 8674   2.049   3.494  15.107  0.2866  0.0936  0.1953
  581MPD2    H5 8675   2.094   3.579  15.137  0.7138  0.1471 -0.6031
  581MPD2    N1 8676   2.479   3.272  15.181 -0.5344 -0.0179 -0.3768
  581MPD2    H7 8677   2.527   3.185  15.163  0.9781  0.4248  1.4434
  582TMC3    C1 8678   2.689   3.354  15.253  0.3799 -0.0862 -0.3679
  582TMC3    C2 8679   2.744   3.408  15.370 -0.3345 -0.1289  0.4852
  582TMC3    C3 8680   2.856   3.351  15.427  0.3991  0.5236  0.4378
  582TMC3    C4 8681   2.749   3.257  15.185 -0.4421 -0.0242 -1.2503
  582TMC3    C5 8682   2.858   3.204  15.249  0.3558 -0.3624 -0.2909
  582TMC3    C6 8683   2.925   3.256  15.356  0.3136 -0.3454 -0.4261
  582TMC3     C 8684   2.551   3.381  15.236 -0.1388  0.9281  0.2348
  582TMC3     O 8685   2.512   3.488  15.283 -0.0770 -0.3500  0.0994
  582TMC3     H 8686   2.692   3.491  15.417  0.6667 -0.3675  2.0117
  582TMC3    H1 8687   2.701   3.230  15.091  0.6619  2.6885 -2.5978
  582TMC3    H2 8688   3.023   3.217  15.381  1.0182  1.2240 -0.7837
  582TMC3    C7 8689   2.909   3.080  15.198 -0.0200 -0.7847  0.0024
  582TMC3    C8 8690   2.841   3.322  15.565  0.6377 -1.0187 -0.3381
  582TMC3    O1 8691   3.024   3.069  15.157 -0.3772 -0.3775 -0.5063
  582TMC3    O2 8692   2.728   3.304  15.611  0.1808  0.2729  0.2688
  583MPD2     C 8693   2.716   0.313  16.958  0.2322  0.8023 -0.4129
  583MPD2    C1 8694   2.656   0.335  16.840  0.2604  0.5220 -0.2508
  583MPD2    C2 8695   2.533   0.390  16.846  0.3917  0.9080 -0.2012
  583MPD2    C3 8696   2.457   0.420  16.962 -0.5932  1.0303 -0.2727
  583MPD2    C4 8697   2.524   0.386  17.082  0.3954  0.1413 -0.4223
  583MPD2    C5 8698   2.648   0.335  17.080 -0.6036 -0.1400  0.0714
  583MPD2     H 8699   2.485   0.413  16.752 -0.4762 -1.2693 -0.2719
  583MPD2    H1 8700   2.480   0.385  17.182 -0.9337  1.1144 -0.9984
  583MPD2    H2 8701   2.822   0.290  16.958 -0.2074 -1.2512 -1.4707
  583MPD2    H3 8702   2.697   0.313  17.174  0.1130  0.2131 -0.2210
  583MPD2     N 8703   2.333   0.480  16.952  0.4046  0.2711 -0.6540
  583MPD2    H5 8704   2.302   0.503  16.858 -0.7243  1.1875 -0.0594
  583MPD2    N1 8705   2.705   0.312  16.709 -0.2739 -0.2058  0.0033
  583MPD2    H7 8706   2.650   0.350  16.632 -0.8538  0.1228  0.5761
  584TMC3    C1 8707   2.129   0.577  17.014 -0.3922  0.2882 -0.3541
  584TMC3    C2 8708   2.146   0.701  16.961  0.0895  0.4188 -0.5025
  584TMC3    C3 8709   2.041   0.793  16.962 -0.3414 -0.5026  0.2612
  584TMC3    C4 8710   2.010   0.540  17.069 -0.1988 -0.0227 -0.6976
  584TMC3    C5 8711   1.905   0.634  17.064 -0.5885  0.2404  0.0356
  584TMC3    C6 8712   1.922   0.766  17.023 -0.4891  0.4618 -0.0853
  584TMC3     C 8713   2.245   0.502  17.056  0.1158 -0.1085  0.3573
  584TMC3     O 8714   2.256   0.461  17.172  0.0420 -0.3627 -0.4994
  584TMC3     H 8715   2.245   0.727  16.926 -0.1612  1.6170 -0.3127
  584TMC3    H1 8716   2.001   0.438  17.106 -1.6330  0.7103  0.9932
  584TMC3    H2 8717   1.848   0.845  17.036  0.4192  0.9369  2.1506
  584TMC3    C7 8718   1.824   0.615  17.190 -1.1924  0.1729 -0.1346
  584TMC3    C8 8719   2.080   0.928  16.940  0.4632  0.0078 -0.1243
  584TMC3    O1 8720   1.840   0.511  17.253 -0.0233  0.8557 -0.3150
  584TMC3    O2 8721   1.994   0.994  16.876  0.4798 -0.3339  0.3521
  585MPD2     C 8722   2.174   4.183   0.340  0.1169 -0.2153  0.5480
  585MPD2    C1 8723   2.201   4.167   0.213  0.4934  0.3777  0.5578
  585MPD2    C2 8724   2.148   4.053   0.145 -0.4822  0.4959  0.7418
  585MPD2    C3 8725   2.052   3.974   0.200 -0.1317 -0.1347 -0.6609
  585MPD2    C4 8726   2.017   4.006   0.334  0.2959  0.4203 -0.3581
  585MPD2    C5 8727   2.081   4.097   0.403  0.6997 -0.1602 -0.0643
  585MPD2     H 8728   2.182   4.030   0.045  2.1730 -1.3210  2.0769
  585MPD2    H1 8729   1.940   3.951   0.388  0.2536  1.0164  0.1827
  585MPD2    H2 8730   2.219   4.270   0.386  1.6254 -0.6924 -0.0145
  585MPD2    H3 8731   2.059   4.123   0.505 -0.5031 -0.6356 -0.2091
  585MPD2     N 8732   1.977   3.876   0.121  0.0483 -0.6780 -0.2204
  585MPD2    H5 8733   1.899   3.835   0.171 -0.9012  0.4105 -0.8113
  585MPD2    N1 8734   2.292   4.254   0.157 -0.4601  0.1821  0.0106
  585MPD2    H7 8735   2.338   4.326   0.212  0.9326 -0.5909 -0.1586
  586TMC3    C1 8736   1.872   3.793  17.674 -0.1715  0.2753  0.1165
  586TMC3    C2 8737   1.887   3.731  17.559  0.4235  1.0363  0.4339
  586TMC3    C3 8738   1.782   3.666  17.507  0.0826 -0.0526 -0.8257
  586TMC3    C4 8739   1.753   3.785  17.745  0.5595 -0.6933 -0.7832
  586TMC3    C5 8740   1.651   3.706  17.693  0.3016 -0.3422 -0.0157
  586TMC3    C6 8741   1.668   3.640  17.576 -1.0069 -0.4385 -0.5802
  586TMC3     C 8742   1.994   3.846  17.736  0.7132 -0.7613  0.8774
  586TMC3     O 8743   2.075   3.885  17.657 -0.5219 -0.2931  0.1899
  586TMC3     H 8744   1.982   3.734  17.507 -0.2661 -1.7982 -0.9820
  586TMC3    H1 8745   1.740   3.852   0.079  0.1334  0.4154 -1.7432
  586TMC3    H2 8746   1.595   3.567  17.543  1.2923 -2.4644 -1.2192
  586TMC3    C7 8747   1.512   3.698  17.749  0.4325  0.1653 -0.2465
  586TMC3    C8 8748   1.799   3.605  17.376 -0.9122  0.5138  0.0885
  586TMC3    O1 8749   1.434   3.637  17.677  0.0221  0.2214 -0.4002
  586TMC3    O2 8750   1.747   3.496  17.355 -0.0987  0.9186 -0.2132
  587TMC3    C1 8751   4.230   2.428  16.628 -0.2195 -0.9614 -0.3265
  587TMC3    C2 8752   4.217   2.515  16.732  0.2161  0.0240  0.8490
  587TMC3    C3 8753   4.267   2.484  16.855 -1.0315  0.5772  0.7767
  587TMC3    C4 8754   4.278   2.304  16.636 -0.3401  0.4841 -0.3162
  587TMC3    C5 8755   4.343   2.279  16.754 -0.0681  0.8787  0.3424
  587TMC3    C6 8756   4.325   2.363  16.864  0.2722  0.0921  0.4923
  587TMC3     C 8757   4.160   2.456  16.501 -0.4882 -0.0651 -0.5209
  587TMC3     O 8758   4.212   2.427  16.394  0.4641 -0.5321 -0.0291
  587TMC3     H 8759   4.171   2.610  16.711  2.9634  0.7008 -2.0471
  587TMC3    H1 8760   4.288   2.228  16.560 -2.9218 -0.3784  0.1772
  587TMC3    H2 8761   4.356   2.328  16.962 -1.6289  0.7049  1.3105
  587TMC3    C7 8762   4.370   2.138  16.787  0.2661 -0.2669 -0.3593
  587TMC3    C8 8763   4.313   2.595  16.940  0.2127  0.2914  0.3812
  587TMC3    O1 8764   4.325   2.055  16.708  0.6676 -0.5790 -0.8028
  587TMC3    O2 8765   4.397   2.558  17.018  0.5345  0.3959 -0.3939
  588TMC3    C1 8766   1.723   0.763  10.315 -0.1991 -0.0512  0.3884
  588TMC3    C2 8767   1.691   0.636  10.347  0.4463  0.4865  0.4774
  588TMC3    C3 8768   1.781   0.566  10.413  0.4474 -0.0818 -0.1774
  588TMC3    C4 8769   1.838   0.823  10.358  0.4756  0.1555  0.7459
  588TMC3    C5 8770   1.908   0.756  10.447  0.6343  0.1020  0.3760
  588TMC3    C6 8771   1.893   0.621  10.471  0.3434 -0.4823  0.1550
  588TMC3     C 8772   1.623   0.845  10.257  0.7897 -0.6587  0.0981
  588TMC3     O 8773   1.525   0.792  10.205  0.0126  0.6341 -0.0083
  588TMC3     H 8774   1.599   0.593  10.308  0.1477  1.1715  0.4173
  588TMC3    H1 8775   1.873   0.918  10.319 -0.9572  0.7880  0.9923
  588TMC3    H2 8776   1.964   0.565  10.531 -0.5978 -2.2705 -0.4110
  588TMC3    C7 8777   2.013   0.835  10.518 -0.8541  0.3781  0.5272
  588TMC3    C8 8778   1.749   0.435  10.452 -0.6756  0.7296  0.3972
  588TMC3    O1 8779   2.124   0.789  10.521  0.3783 -0.2830 -0.3294
  588TMC3    O2 8780   1.628   0.413  10.471 -0.3809  1.2937  0.1835
  589TMC3    C1 8781   0.911   2.381   1.368 -0.0345  0.0373 -0.3542
  589TMC3    C2 8782   1.022   2.413   1.442 -0.2363 -0.1034 -0.4262
  589TMC3    C3 8783   1.134   2.348   1.403 -0.3967 -0.4586  0.9923
  589TMC3    C4 8784   0.910   2.306   1.257  0.9425  0.1668 -0.4149
  589TMC3    C5 8785   1.025   2.237   1.221  0.4197  0.0740 -0.4681
  589TMC3    C6 8786   1.139   2.259   1.298  0.0989 -0.1892  0.2137
  589TMC3     C 8787   0.794   2.458   1.396 -0.1182  0.0551  0.7822
  589TMC3     O 8788   0.701   2.462   1.313 -0.2708 -0.3294 -0.7464
  589TMC3     H 8789   1.024   2.472   1.533  0.7541  0.9373 -1.1283
  589TMC3    H1 8790   0.811   2.291   1.214  0.8536  2.3394 -0.9664
  589TMC3    H2 8791   1.223   2.191   1.302  1.3289  1.3111  0.1743
  589TMC3    C7 8792   1.016   2.121   1.135 -0.3356 -0.3418 -0.1530
  589TMC3    C8 8793   1.252   2.371   1.483  0.0314 -0.8139 -0.2388
  589TMC3    O1 8794   0.902   2.079   1.115  0.3369  0.1100  0.2440
  589TMC3    O2 8795   1.228   2.414   1.597 -0.1092  0.0686  0.1117
  590MPD2     C 8796   0.180   0.739  16.041  0.4595 -0.1526 -0.3000
  590MPD2    C1 8797   0.113   0.856  15.999  0.2256  0.2542 -0.2805
  590MPD2    C2 8798   0.190   0.967  15.959  0.5468  0.3875 -0.7507
  590MPD2    C3 8799   0.330   0.962  15.959  0.3538  0.2106 -0.3535
  590MPD2    C4 8800   0.386   0.840  15.993  0.4183  0.0086 -0.1249
  590MPD2    C5 8801   0.311   0.737  16.025  0.4930 -0.6389 -0.2755
  590MPD2     H 8802   0.135   1.057  15.934 -1.6976 -1.2863 -1.8451
  590MPD2    H1 8803   0.493   0.827  16.003  0.4070 -0.9908 -1.2877
  590MPD2    H2 8804   0.134   0.646  16.071 -3.9169  1.6196 -1.6348
  590MPD2    H3 8805   0.373   0.650  16.044 -0.8767 -1.5129  0.1848
  590MPD2     N 8806   0.399   1.080  15.918  0.4011  0.1663  0.3695
  590MPD2    H5 8807   0.349   1.159  15.879 -0.0959 -0.5290 -0.4196
  590MPD2    N1 8808   4.711   0.850  16.008  0.6296  0.6258 -0.3300
  590MPD2    H7 8809   4.668   0.766  16.047  1.4469  0.6366  0.5961
  591TMC3    C1 8810   0.573   1.224  15.841  0.1412 -0.5263 -0.3852
  591TMC3    C2 8811   0.683   1.232  15.764  0.0092 -0.4307  0.0559
  591TMC3    C3 8812   0.754   1.345  15.753  0.7025  0.9852 -0.5299
  591TMC3    C4 8813   0.533   1.339  15.908  0.0311  0.4862 -0.0167
  591TMC3    C5 8814   0.594   1.455  15.884  0.4032 -0.1831  0.8120
  591TMC3    C6 8815   0.709   1.463  15.810  0.3316  0.0608  0.5347
  591TMC3     C 8816   0.535   1.093  15.888  0.2196  0.4280 -0.0778
  591TMC3     O 8817   0.618   1.005  15.897  0.4028  0.4306  0.0428
  591TMC3     H 8818   0.724   1.146  15.711 -1.1055 -0.9575  0.0461
  591TMC3    H1 8819   0.442   1.333  15.966  1.4752  0.1426  2.1826
  591TMC3    H2 8820   0.767   1.554  15.798  0.2806  0.0474  0.1768
  591TMC3    C7 8821   0.580   1.556  15.987  0.3632 -0.5622 -1.0432
  591TMC3    C8 8822   0.885   1.339  15.690  0.2592 -0.4390  0.1870
  591TMC3    O1 8823   0.523   1.512  16.088  0.5519  0.8431 -0.3850
  591TMC3    O2 8824   0.916   1.248  15.618 -0.2324  0.2845  0.4022
  592MPD2     C 8825   0.839   3.117  11.526 -0.1710  0.4111 -0.0143
  592MPD2    C1 8826   0.788   3.159  11.653  0.2318  0.1846  0.2736
  592MPD2    C2 8827   0.704   3.063  11.715  0.2030  0.3202  0.0132
  592MPD2    C3 8828   0.678   2.936  11.668 -0.0788  0.3104  0.2297
  592MPD2    C4 8829   0.732   2.899  11.542  0.5505  0.8132  0.8767
  592MPD2    C5 8830   0.809   2.993  11.483  0.4925  0.2754 -0.7597
  592MPD2     H 8831   0.658   3.105  11.803 -2.0241 -0.7681 -0.6428
  592MPD2    H1 8832   0.717   2.800  11.502  1.2111 -0.2320  3.2493
  592MPD2    H2 8833   0.897   3.187  11.466  1.1425 -0.0388  0.7185
  592MPD2    H3 8834   0.845   2.962  11.385  0.2152  3.1750 -1.7595
  592MPD2     N 8835   0.595   2.850  11.743  0.3286 -0.0190 -0.4964
  592MPD2    H5 8836   0.569   2.882  11.836 -0.3838  1.6436 -1.2445
  592MPD2    N1 8837   0.815   3.298  11.688 -0.5203 -0.4563 -0.3397
  592MPD2    H7 8838   0.880   3.355  11.635  0.9141 -0.3044  1.5858
  593TMC3    C1 8839   0.802   3.499  11.805  0.2008  0.0041  0.0965
  593TMC3    C2 8840   0.787   3.553  11.928 -0.3071  0.4448 -0.2425
  593TMC3    C3 8841   0.846   3.677  11.953  0.2999 -0.0035 -0.1145
  593TMC3    C4 8842   0.864   3.565  11.704 -0.3505  0.3710 -0.4451
  593TMC3    C5 8843   0.935   3.685  11.738  0.1911  0.8855 -0.0449
  593TMC3    C6 8844   0.921   3.745  11.862  0.2407  0.2055 -0.9701
  593TMC3     C 8845   0.749   3.362  11.786  0.2191  0.5444 -0.4041
  593TMC3     O 8846   0.653   3.320  11.852  0.4499 -0.2949 -0.0289
  593TMC3     H 8847   0.731   3.490  11.997  1.0690 -1.6076 -0.9837
  593TMC3    H1 8848   0.879   3.525  11.605 -3.1079 -0.5634 -0.4802
  593TMC3    H2 8849   0.955   3.846  11.881  0.6316 -0.2059  0.5040
  593TMC3    C7 8850   1.026   3.744  11.638  0.1759  0.6066 -0.0350
  593TMC3    C8 8851   0.815   3.732  12.088  0.2327  0.2576 -0.3669
  593TMC3    O1 8852   1.103   3.827  11.689  0.2036  0.3244 -0.2567
  593TMC3    O2 8853   0.722   3.690  12.155 -0.5943  0.4721 -0.1691
  594MPD2     C 8854   0.084   1.846  14.865  0.4585 -0.0753 -0.5366
  594MPD2    C1 8855   0.017   1.828  14.747  0.1844  0.4350 -0.2177
  594MPD2    C2 8856   0.078   1.866  14.636 -0.1331 -0.0306 -0.2830
  594MPD2    C3 8857   0.217   1.904  14.632 -0.7492  0.0007 -0.4826
  594MPD2    C4 8858   0.277   1.905  14.752 -0.2836  0.1476 -0.3886
  594MPD2    C5 8859   0.212   1.893  14.869 -0.5315 -0.1144  0.1016
  594MPD2     H 8860   0.023   1.855  14.543 -0.6247  0.5765 -0.0638
  594MPD2    H1 8861   0.383   1.924  14.761 -0.8837  1.8281  2.8515
  594MPD2    H2 8862   0.039   1.807  14.956  0.7393  4.1865  1.4156
  594MPD2    H3 8863   0.269   1.889  14.961 -0.4405 -0.5489  0.0251
  594MPD2     N 8864   0.292   1.951  14.521 -0.2780  0.0262 -0.3483
  594MPD2    H5 8865   0.384   1.988  14.546 -2.0255  2.8984  1.7806
  594MPD2    N1 8866   4.616   1.792  14.764 -0.0309  0.4526  0.3890
  594MPD2    H7 8867   4.584   1.788  14.860  0.0408  0.1321  0.4010
  595TMC3    C1 8868   0.529   2.178  14.323 -0.5467  0.9674 -0.5970
  595TMC3    C2 8869   0.455   2.069  14.353  0.2329  0.2917 -0.6309
  595TMC3    C3 8870   0.321   2.074  14.326  0.4317  0.6670  0.3396
  595TMC3    C4 8871   0.465   2.292  14.284  0.3659 -0.0262  0.3651
  595TMC3    C5 8872   0.328   2.296  14.262 -0.0702  0.4320 -0.4724
  595TMC3    C6 8873   0.255   2.179  14.274 -0.0947  0.2844  0.0435
  595TMC3     C 8874   0.663   2.188  14.379 -0.0639  0.4387 -0.4995
  595TMC3     O 8875   0.702   2.300  14.407  0.4707  0.5669 -0.3223
  595TMC3     H 8876   0.503   1.979  14.389  0.6009  0.8626  0.3104
  595TMC3    H1 8877   0.524   2.382  14.269  1.7216 -1.3984 -2.3883
  595TMC3    H2 8878   0.147   2.188  14.273 -0.1475 -0.1886  1.3163
  595TMC3    C7 8879   0.248   2.417  14.283  0.5991 -0.4826  0.7016
  595TMC3    C8 8880   0.237   1.982  14.398 -0.7349 -1.3636  0.1692
  595TMC3    O1 8881   0.125   2.415  14.293  0.2536  0.3969  0.1240
  595TMC3    O2 8882   0.119   1.989  14.374 -0.5706 -0.4238  0.8500
  596MPD2     C 8883   3.632   0.386  16.758  0.4621  0.1372  0.8570
  596MPD2    C1 8884   3.554   0.433  16.651  0.4178  0.9418 -0.2100
  596MPD2    C2 8885   3.564   0.369  16.529  0.6572  0.7769 -0.2716
  596MPD2    C3 8886   3.638   0.252  16.521 -0.8848 -0.3835 -0.6560
  596MPD2    C4 8887   3.714   0.201  16.623  0.5118  1.1773 -0.7312
  596MPD2    C5 8888   3.714   0.277  16.740 -0.0959 -0.5030 -0.6911
  596MPD2     H 8889   3.495   0.400  16.452 -3.5923 -0.9670  2.7857
  596MPD2    H1 8890   3.773   0.110  16.623  0.4176  1.1153 -1.1099
  596MPD2    H2 8891   3.628   0.448  16.847 -0.2688 -1.5703  2.0002
  596MPD2    H3 8892   3.785   0.239  16.813  0.4534  0.2890 -0.8190
  596MPD2     N 8893   3.625   0.192  16.394  0.1463  0.3075  0.3006
  596MPD2    H5 8894   3.586   0.253  16.323  0.1638 -0.6822 -0.5641
  596MPD2    N1 8895   3.456   0.534  16.674  0.2409 -0.5499  0.0270
  596MPD2    H7 8896   3.399   0.566  16.595 -0.2071 -0.3850  0.4142
  597TMC3    C1 8897   3.343   0.708  16.762  0.0979 -1.1110 -0.1753
  597TMC3    C2 8898   3.361   0.785  16.649 -0.5736  0.7823 -0.5465
  597TMC3    C3 8899   3.324   0.916  16.661 -0.0001 -1.1896  0.4521
  597TMC3    C4 8900   3.288   0.765  16.877 -0.5748 -0.2217 -0.1261
  597TMC3    C5 8901   3.241   0.894  16.866 -0.1783 -0.0175  0.0734
  597TMC3    C6 8902   3.257   0.975  16.760  0.1789  0.5106  0.2323
  597TMC3     C 8903   3.428   0.596  16.789  0.5169 -0.2443 -0.0960
  597TMC3     O 8904   3.439   0.552  16.905 -0.0385 -0.2448 -0.4820
  597TMC3     H 8905   3.431   0.756  16.571 -1.6440  2.6715 -2.2083
  597TMC3    H1 8906   3.257   0.709  16.965 -0.6211  1.0518  0.6735
  597TMC3    H2 8907   3.236   1.081  16.771 -0.7090  0.4553 -0.9094
  597TMC3    C7 8908   3.124   0.921  16.937 -0.1748  0.0164 -0.4238
  597TMC3    C8 8909   3.404   1.003  16.577  0.3319  0.1608 -0.0182
  597TMC3    O1 8910   3.121   0.875  17.048  0.1961  0.7252  0.1063
  597TMC3    O2 8911   3.494   0.953  16.506 -0.3222  0.0733  0.0420
  598TMC3    C1 8912   1.901   1.461  15.187  0.5613 -0.9323 -0.9266
  598TMC3    C2 8913   1.838   1.348  15.145  0.0046 -0.2924  0.0555
  598TMC3    C3 8914   1.791   1.355  15.017  0.3685  0.1133  0.0325
  598TMC3    C4 8915   1.904   1.571  15.108  0.4231  0.0864 -0.3683
  598TMC3    C5 8916   1.845   1.574  14.984  0.4799 -0.0603 -0.2367
  598TMC3    C6 8917   1.797   1.459  14.932 -0.6910 -0.0286  0.3131
  598TMC3     C 8918   1.974   1.471  15.318  1.2294  0.3227 -0.7060
  598TMC3     O 8919   2.024   1.577  15.345 -0.5594  0.0321 -0.3701
  598TMC3     H 8920   1.811   1.264  15.208  0.0237 -1.7811 -1.9105
  598TMC3    H1 8921   1.962   1.657  15.140  3.1968 -1.5170 -1.0924
  598TMC3    H2 8922   1.744   1.457  14.837 -2.7735  2.0294  1.4276
  598TMC3    C7 8923   1.858   1.684  14.892 -0.5149  0.2292  0.4780
  598TMC3    C8 8924   1.727   1.237  14.971 -0.5665  0.0732 -0.3149
  598TMC3    O1 8925   1.851   1.651  14.771 -0.0053  0.3466  0.0569
  598TMC3    O2 8926   1.686   1.163  15.056 -0.8614 -0.0230  0.3826
  599MPD2     C 8927   1.573   3.796  15.645 -0.5589  0.4365  0.0742
  599MPD2    C1 8928   1.566   3.707  15.746 -0.4669 -0.1315  0.0069
  599MPD2    C2 8929   1.457   3.715  15.830  0.4271 -0.5376 -0.0852
  599MPD2    C3 8930   1.354   3.802  15.804  0.4789 -0.1408  0.9592
  599MPD2    C4 8931   1.359   3.886  15.695  0.0774  0.0199 -0.2516
  599MPD2    C5 8932   1.471   3.884  15.620  0.1506 -0.1614 -0.0357
  599MPD2     H 8933   1.457   3.646  15.913 -0.4806  1.9818  1.9912
  599MPD2    H1 8934   1.276   3.954  15.681  0.1194  0.0661 -0.2761
  599MPD2    H2 8935   1.666   3.805  15.590  0.3143  1.6819  1.7542
  599MPD2    H3 8936   1.487   3.961  15.545 -0.9647 -0.2189 -0.3365
  599MPD2     N 8937   1.250   3.806  15.895 -0.5783 -0.1498  0.0404
  599MPD2    H5 8938   1.182   3.882  15.894 -2.7929 -2.1269 -2.4439
  599MPD2    N1 8939   1.678   3.622  15.758  0.5701 -0.6397 -0.4386
  599MPD2    H7 8940   1.756   3.642  15.696  1.3790 -0.4660  0.6396
  600TMC3    C1 8941   1.138   3.780  16.093 -0.3017  0.1207  1.0245
  600TMC3    C2 8942   1.035   3.711  16.143  0.4376 -0.0609 -0.8300
  600TMC3    C3 8943   0.930   3.778  16.207 -0.0263  0.2088 -0.0230
  600TMC3    C4 8944   1.153   3.911  16.129 -0.0702  0.6787  0.4598
  600TMC3    C5 8945   1.057   3.979  16.207 -0.0491 -0.5999 -0.5896
  600TMC3    C6 8946   0.942   3.909  16.246  0.6794 -0.2457 -0.2957
  600TMC3     C 8947   1.227   3.724  15.999  0.8628  0.0035 -0.3852
  600TMC3     O 8948   1.257   3.604  16.014 -0.1238 -0.1018  0.2017
  600TMC3     H 8949   1.035   3.603  16.129 -1.0270 -0.0790 -0.7003
  600TMC3    H1 8950   1.245   3.965  16.111  0.1579 -0.7541 -2.6259
  600TMC3    H2 8951   0.874   3.965  16.309  2.0226  0.5925  0.4112
  600TMC3    C7 8952   1.106   4.078  16.303  0.1073 -1.1572  0.0004
  600TMC3    C8 8953   0.842   3.699  16.293 -0.7439  0.0393  0.3083
  600TMC3    O1 8954   1.021   4.146  16.357  0.1050  0.2789  0.3809
  600TMC3    O2 8955   0.887   3.590  16.326 -0.3074 -0.0943 -0.6119
  601MPD2     C 8956   3.894   2.290   0.353  0.3477  0.4277  0.2694
  601MPD2    C1 8957   3.816   2.225   0.255  0.4193 -0.2594  0.1473
  601MPD2    C2 8958   3.741   2.113   0.293  0.5769  0.0302  0.1447
  601MPD2    C3 8959   3.740   2.070   0.426 -0.1848 -0.7103 -0.3728
  601MPD2    C4 8960   3.808   2.141   0.521 -0.0260  0.4869 -0.3627
  601MPD2    C5 8961   3.888   2.248   0.482  0.2462 -0.4998 -0.0414
  601MPD2     H 8962   3.683   2.060   0.218 -0.0252 -0.9022  1.2845
  601MPD2    H1 8963   3.795   2.112   0.625 -0.4356 -1.4517 -0.9428
  601MPD2    H2 8964   3.953   2.373   0.316  1.4132  0.3922  1.9232
  601MPD2    H3 8965   3.940   2.293   0.566  1.3569  1.0805 -1.5647
  601MPD2     N 8966   3.675   1.957   0.468 -0.1146  0.1140  0.0628
  601MPD2    H5 8967   3.685   1.936   0.567 -2.1744 -0.9996  0.0124
  601MPD2    N1 8968   3.818   2.274   0.124  0.3428  0.2295 -0.0847
  601MPD2    H7 8969   3.780   2.220   0.046 -1.0959  0.6403  0.3361
  602TMC3    C1 8970   3.827   2.424  17.697  0.3024 -1.2511 -0.6256
  602TMC3    C2 8971   3.892   2.527  17.631  0.0342 -0.0987  0.0078
  602TMC3    C3 8972   3.833   2.578  17.513  0.3695  0.8541  0.1234
  602TMC3    C4 8973   3.722   2.362  17.640  0.2707  0.8196 -0.1476
  602TMC3    C5 8974   3.684   2.400  17.515 -0.4129  0.2057 -0.3449
  602TMC3    C6 8975   3.732   2.510  17.450  0.3630 -0.6110 -0.1867
  602TMC3     C 8976   3.869   2.397   0.083  0.4430  0.1708 -0.5112
  602TMC3     O 8977   3.919   2.493   0.142 -0.0496 -0.9311 -0.4910
  602TMC3     H 8978   3.975   2.578  17.678 -0.3966  1.3690 -0.8275
  602TMC3    H1 8979   3.658   2.293  17.695  1.8596  0.1321  0.8523
  602TMC3    H2 8980   3.712   2.533  17.346 -0.6187  2.0249  0.5794
  602TMC3    C7 8981   3.550   2.365  17.484 -0.3061 -1.1999 -0.0680
  602TMC3    C8 8982   3.826   2.725  17.514  0.5711 -0.2396  0.1652
  602TMC3    O1 8983   3.494   2.283  17.555  0.1826 -0.9310 -0.2565
  602TMC3    O2 8984   3.905   2.791  17.582  0.9509 -0.1988  0.0130
  603TMC3    C1 8985   1.429   2.894  11.804  0.1779 -0.8459 -1.1889
  603TMC3    C2 8986   1.498   2.865  11.917 -0.0721  0.1059 -0.4582
  603TMC3    C3 8987   1.634   2.898  11.919 -0.4125 -0.5992  0.5002
  603TMC3    C4 8988   1.482   2.950  11.693 -0.1996 -0.2794  0.1347
  603TMC3    C5 8989   1.618   2.977  11.695 -0.2453  0.4049 -0.3230
  603TMC3    C6 8990   1.698   2.934  11.805 -0.3720  0.4499 -0.8512
  603TMC3     C 8991   1.290   2.863  11.803  0.5934 -0.1812  0.4563
  603TMC3     O 8992   1.232   2.908  11.704 -0.0809  0.5495 -0.1501
  603TMC3     H 8993   1.457   2.835  12.013  1.0079  2.0526  0.6395
  603TMC3    H1 8994   1.420   2.994  11.616  1.3906  2.7904  0.5834
  603TMC3    H2 8995   1.797   2.978  11.811 -0.3354  0.5125 -1.8710
  603TMC3    C7 8996   1.674   3.063  11.597 -0.3907 -0.6128 -0.1695
  603TMC3    C8 8997   1.705   2.860  12.046 -0.0641  0.4772 -0.3630
  603TMC3    O1 8998   1.783   3.119  11.630 -0.1968  0.4946 -0.2844
  603TMC3    O2 8999   1.649   2.767  12.101 -0.0634  0.6309 -0.3578
  604MPD2     C 9000   2.881   1.573  16.155  0.7663 -0.5901 -0.2143
  604MPD2    C1 9001   2.785   1.474  16.167  0.4433  0.6331 -0.1068
  604MPD2    C2 9002   2.768   1.376  16.063  0.1822 -0.2557 -0.2487
  604MPD2    C3 9003   2.847   1.384  15.949  0.2547 -0.2797  0.0389
  604MPD2    C4 9004   2.949   1.487  15.947 -0.0608 -0.2936  0.6211
  604MPD2    C5 9005   2.968   1.576  16.048  0.7111 -0.0746  0.1208
  604MPD2     H 9006   2.709   1.286  16.072  1.7340 -1.3134 -0.6222
  604MPD2    H1 9007   3.018   1.494  15.864 -0.2408  0.4410  0.5294
  604MPD2    H2 9008   2.878   1.641  16.239 -0.1374  0.4754 -1.1024
  604MPD2    H3 9009   3.039   1.657  16.043 -0.7763  1.2910  0.9903
  604MPD2     N 9010   2.841   1.284  15.852  0.0180  0.0710 -0.3070
  604MPD2    H5 9011   2.778   1.207  15.871 -0.1302  0.3843  0.4419
  604MPD2    N1 9012   2.700   1.480  16.286 -0.4076  0.4894 -0.3301
  604MPD2    H7 9013   2.717   1.552  16.355  2.0770 -0.9759  0.5793
  605TMC3    C1 9014   2.566   1.418  16.460 -0.1918 -0.8472  1.1187
  605TMC3    C2 9015   2.664   1.461  16.545  0.0532 -0.3657  0.3943
  605TMC3    C3 9016   2.624   1.520  16.662 -0.3329 -0.3967  0.2744
  605TMC3    C4 9017   2.435   1.452  16.478  0.1354  0.7966  0.0620
  605TMC3    C5 9018   2.401   1.524  16.588  0.3800 -1.4005  0.4888
  605TMC3    C6 9019   2.493   1.559  16.684 -0.2757 -0.0256  0.6105
  605TMC3     C 9020   2.607   1.389  16.320  0.3271  0.6831 -0.6661
  605TMC3     O 9021   2.552   1.299  16.256  0.0006 -0.0801  0.2850
  605TMC3     H 9022   2.768   1.432  16.536  0.5120  1.7779 -1.2456
  605TMC3    H1 9023   2.362   1.432  16.401 -1.3327  1.2700  1.3238
  605TMC3    H2 9024   2.474   1.623  16.769 -1.8495  0.9386 -0.4709
  605TMC3    C7 9025   2.267   1.573  16.599 -0.3579  0.9363  0.1507
  605TMC3    C8 9026   2.728   1.605  16.715 -0.8649  0.1016  1.0472
  605TMC3    O1 9027   2.253   1.682  16.653  0.4715  0.4088 -0.2433
  605TMC3    O2 9028   2.826   1.614  16.642 -0.1031 -0.3633 -0.5096
  606TMC3    C1 9029   3.231   0.268   0.923 -0.0361 -0.5018  0.5490
  606TMC3    C2 9030   3.355   0.236   0.964 -0.1221  0.1001 -0.1077
  606TMC3    C3 9031   3.389   0.107   0.991  0.2591  0.6109 -0.3903
  606TMC3    C4 9032   3.141   0.167   0.883  0.3694  0.5014  0.6237
  606TMC3    C5 9033   3.181   0.040   0.887 -0.6958 -0.1329 -0.6639
  606TMC3    C6 9034   3.298   0.010   0.946 -0.0053 -0.3650  0.9949
  606TMC3     C 9035   3.185   0.405   0.931  0.0417  0.0413 -0.0352
  606TMC3     O 9036   3.269   0.488   0.957 -0.3507 -0.2239  0.4352
  606TMC3     H 9037   3.411   0.315   1.013  0.3030 -0.8945  1.0040
  606TMC3    H1 9038   3.041   0.182   0.846  0.1497 -0.9959  0.6030
  606TMC3    H2 9039   3.327   4.643   0.940 -2.2002 -0.9699  1.2566
  606TMC3    C7 9040   3.088   4.673   0.849 -0.1370  0.2336 -0.2002
  606TMC3    C8 9041   3.527   0.057   0.998 -0.4684 -0.3901 -0.8326
  606TMC3    O1 9042   3.075   4.585   0.932  0.0268 -0.1535  0.0535
  606TMC3    O2 9043   3.539   4.674   1.000 -0.0199 -0.2390  0.1558
  607MPD2     C 9044   1.065   3.188  11.915 -0.2330 -0.3466 -0.1795
  607MPD2    C1 9045   1.069   3.258  12.040  0.0290 -0.3764 -0.3946
  607MPD2    C2 9046   1.026   3.196  12.156  0.3173 -0.3412 -0.0607
  607MPD2    C3 9047   0.978   3.073  12.162  0.1765  0.4731  0.1454
  607MPD2    C4 9048   0.968   3.003  12.043 -0.6157  0.2100 -0.0562
  607MPD2    C5 9049   1.005   3.062  11.924  0.1180  0.3327  0.9697
  607MPD2     H 9050   1.028   3.250  12.250  2.5960 -1.1441  0.3583
  607MPD2    H1 9051   0.929   2.902  12.038 -0.4013  0.2422 -2.0777
  607MPD2    H2 9052   1.101   3.210  11.815 -0.5621 -0.2208 -0.2690
  607MPD2    H3 9053   0.977   3.004  11.837 -1.1392  0.7076  1.1234
  607MPD2     N 9054   0.969   3.015  12.295 -0.6016  0.3563 -0.1837
  607MPD2    H5 9055   0.991   3.084  12.366 -0.6572  2.2700 -2.0187
  607MPD2    N1 9056   1.119   3.386  12.058  0.3459 -0.0414  0.0165
  607MPD2    H7 9057   1.098   3.420  12.151  2.5440  1.0063  0.1240
  608TMC3    C1 9058   1.312   3.537  12.038 -0.4354 -0.3362 -0.0458
  608TMC3    C2 9059   1.356   3.499  12.161  0.3649 -0.4081 -0.4084
  608TMC3    C3 9060   1.488   3.506  12.193 -0.6467  0.2923 -0.5985
  608TMC3    C4 9061   1.408   3.575  11.945  0.5553  0.7445  0.2232
  608TMC3    C5 9062   1.538   3.600  11.989  0.7579  0.1331  0.5318
  608TMC3    C6 9063   1.579   3.563  12.114  0.5288  0.4014  0.5871
  608TMC3     C 9064   1.207   3.452  11.975 -0.2120  0.2632  0.2118
  608TMC3     O 9065   1.223   3.422  11.858 -0.3783  0.2492 -0.6212
  608TMC3     H 9066   1.283   3.470  12.236 -1.4930 -0.5056 -2.2502
  608TMC3    H1 9067   1.379   3.599  11.844 -0.1003 -0.9799  0.0028
  608TMC3    H2 9068   1.679   3.592  12.144  0.3838  1.9902 -0.4094
  608TMC3    C7 9069   1.625   3.652  11.894  0.0436  0.0002 -0.5024
  608TMC3    C8 9070   1.530   3.493  12.334 -0.7362  0.1760  0.5072
  608TMC3    O1 9071   1.574   3.714  11.802 -0.0128  0.0436 -0.0563
  608TMC3    O2 9072   1.621   3.566  12.380 -0.0425  0.3285  0.6630
  609TMC3    C1 9073   4.511   1.405   9.229 -0.0669  0.9888  0.0293
  609TMC3    C2 9074   4.422   1.310   9.196  0.0943 -0.4671  0.1802
  609TMC3    C3 9075   4.473   1.197   9.138  0.8576  0.5729 -0.5727
  609TMC3    C4 9076   4.649   1.392   9.215 -0.0033  0.3944  0.2406
  609TMC3    C5 9077   4.699   1.278   9.150  0.0985 -0.7386  0.3600
  609TMC3    C6 9078   4.609   1.181   9.098  0.1698  0.5325  0.4890
  609TMC3     C 9079   4.454   1.537   9.261 -0.0193  0.6144 -0.0236
  609TMC3     O 9080   4.331   1.542   9.255  0.1002 -0.6879  0.3354
  609TMC3     H 9081   4.317   1.333   9.182  0.4525  0.5606 -0.8505
  609TMC3    H1 9082   4.717   1.469   9.249 -0.2636  0.4164  0.7125
  609TMC3    H2 9083   4.641   1.093   9.042 -1.2171 -0.7126  1.6477
  609TMC3    C7 9084   0.088   1.224   9.180  0.3641  0.4420  0.2658
  609TMC3    C8 9085   4.375   1.117   9.074  0.0732 -0.5576 -0.7485
  609TMC3    O1 9086   0.099   1.112   9.128 -0.0239  0.1615  0.1329
  609TMC3    O2 9087   4.405   1.064   8.967  0.5775 -0.0630 -0.4424
  610TMC3    C1 9088   1.595   2.887  12.832 -0.1236 -0.1556  0.1771
  610TMC3    C2 9089   1.599   2.977  12.731  0.0100  0.3296 -0.4314
  610TMC3    C3 9090   1.706   2.976  12.651 -0.4765 -0.6216  0.1599
  610TMC3    C4 9091   1.700   2.802  12.855  0.2912 -0.1015  0.2459
  610TMC3    C5 9092   1.818   2.820  12.793  0.5299  0.2774 -0.1902
  610TMC3    C6 9093   1.825   2.907  12.688  0.7944  0.0053  0.1089
  610TMC3     C 9094   1.468   2.861  12.891 -0.5016  0.1428 -0.6234
  610TMC3     O 9095   1.406   2.963  12.893 -0.2803  0.0246 -0.6241
  610TMC3     H 9096   1.526   3.056  12.724 -0.1182  0.1001 -1.6629
  610TMC3    H1 9097   1.691   2.730  12.936  1.6573  3.1246  3.3200
  610TMC3    H2 9098   1.903   2.904  12.612 -0.0499  3.6563 -0.8837
  610TMC3    C7 9099   1.943   2.790  12.862  0.9783 -0.5647 -0.7961
  610TMC3    C8 9100   1.699   3.029  12.518  0.0682 -0.8276  0.8340
  610TMC3    O1 9101   1.932   2.715  12.959 -0.5946  0.1457  0.3985
  610TMC3    O2 9102   1.803   3.077  12.471 -0.8106  0.9035  0.0332
  611MPD2     C 9103   0.665   2.841  11.047  0.8542 -1.3435 -0.0321
  611MPD2    C1 9104   0.696   2.810  10.917 -0.8647 -0.4429 -0.1590
  611MPD2    C2 9105   0.813   2.856  10.863 -0.0527  0.0807  0.4554
  611MPD2    C3 9106   0.898   2.928  10.943  0.0054  0.3486 -0.2633
  611MPD2    C4 9107   0.865   2.959  11.071  0.5518 -0.0165 -0.4964
  611MPD2    C5 9108   0.744   2.922  11.119  0.1218 -0.0068 -0.5119
  611MPD2     H 9109   0.835   2.841  10.758 -2.8158 -1.8198  0.1492
  611MPD2    H1 9110   0.928   3.009  11.143  2.9642  2.6549 -4.4828
  611MPD2    H2 9111   0.579   2.790  11.089 -1.1112  0.6544 -1.6781
  611MPD2    H3 9112   0.710   2.962  11.214  0.8972  0.9567 -0.6371
  611MPD2     N 9113   1.020   2.978  10.894  0.4131 -0.1096 -0.1294
  611MPD2    H5 9114   1.064   3.031  10.968  0.3140 -0.8630  0.4673
  611MPD2    N1 9115   0.609   2.719  10.850 -0.3359  0.2459  0.7150
  611MPD2    H7 9116   0.528   2.684  10.899 -0.7703  0.0115 -0.1633
  612TMC3    C1 9117   1.211   2.989  10.746 -0.6359  0.0516 -0.0246
  612TMC3    C2 9118   1.288   3.045  10.838 -0.2665  0.7427  0.0337
  612TMC3    C3 9119   1.394   3.124  10.799  0.8657  0.2878  0.0072
  612TMC3    C4 9120   1.239   2.998  10.610 -0.1077 -0.0204 -1.1492
  612TMC3    C5 9121   1.337   3.083  10.574 -0.5097 -0.3460  0.4212
  612TMC3    C6 9122   1.424   3.132  10.667 -0.0811 -0.0448 -0.5597
  612TMC3     C 9123   1.071   2.957  10.770  0.2370  0.3054 -0.3976
  612TMC3     O 9124   1.016   2.923  10.667  0.1381  0.1978  0.2268
  612TMC3     H 9125   1.262   3.035  10.942 -2.1366  0.3224 -0.4842
  612TMC3    H1 9126   1.181   2.954  10.529  0.5533  0.0075 -1.6466
  612TMC3    H2 9127   1.504   3.194  10.628  0.5892  0.1368  1.0963
  612TMC3    C7 9128   1.355   3.099  10.430  0.0708 -0.4677 -0.6889
  612TMC3    C8 9129   1.486   3.184  10.895  0.0742 -0.2125 -0.2544
  612TMC3    O1 9130   1.254   3.087  10.361 -0.7730  0.4478 -0.5676
  612TMC3    O2 9131   1.580   3.228  10.837 -0.5261  0.4718 -0.3909
  613MPD2     C 9132   4.621   0.808  16.690 -0.5645 -0.0524 -0.4314
  613MPD2    C1 9133   4.711   0.703  16.675 -0.4920 -0.0757 -0.9152
  613MPD2    C2 9134   4.720   0.612  16.783  0.5602  0.2964 -0.0549
  613MPD2    C3 9135   4.659   0.630  16.904 -0.2943 -0.1921 -0.4332
  613MPD2    C4 9136   4.583   0.749  16.919  0.2163  0.1011 -0.5416
  613MPD2    C5 9137   4.555   0.838  16.808 -0.3406 -0.1206  0.3124
  613MPD2     H 9138   0.046   0.525  16.767  0.3438  0.1119  0.0788
  613MPD2    H1 9139   4.536   0.767  17.015 -0.4434 -2.2638 -0.4122
  613MPD2    H2 9140   4.593   0.868  16.603 -2.4930 -0.8074 -0.3303
  613MPD2    H3 9141   4.484   0.919  16.821 -0.6554 -0.1470 -1.2418
  613MPD2     N 9142   4.648   0.527  17.002  0.2242  0.0660 -0.2968
  613MPD2    H5 9143   4.587   0.546  17.081 -0.1706  0.5319 -0.7158
  613MPD2    N1 9144   0.034   0.680  16.543 -0.1668  0.2188  0.1253
  613MPD2    H7 9145   0.006   0.739  16.466  0.0375  0.3017  0.1144
  614TMC3    C1 9146   0.132   0.550  16.384  0.6778 -0.4988  0.3002
  614TMC3    C2 9147   0.175   0.418  16.391 -0.5695  0.3610 -0.4445
  614TMC3    C3 9148   0.094   0.321  16.345  0.1711  0.0222  0.2307
  614TMC3    C4 9149   0.016   0.585  16.322  0.0748  0.1268 -0.5273
  614TMC3    C5 9150   4.673   0.485  16.275 -0.4950  0.5710  0.0882
  614TMC3    C6 9151   4.705   0.352  16.292  0.1629  0.2745  0.1492
  614TMC3     C 9152   0.139   0.596  16.525  0.0763 -0.6849 -0.0398
  614TMC3     O 9153   0.212   0.542  16.605 -0.3403 -0.5135 -0.0817
  614TMC3     H 9154   0.262   0.377  16.442 -1.3980 -2.4512 -1.2742
  614TMC3    H1 9155   4.733   0.689  16.298  1.1202  0.7024  1.0630
  614TMC3    H2 9156   4.640   0.271  16.261 -0.1282  0.2803  0.7445
  614TMC3    C7 9157   4.538   0.523  16.236 -0.0850  0.2197 -0.0463
  614TMC3    C8 9158   0.083   0.200  16.421  0.7865  0.2517  0.4003
  614TMC3    O1 9159   4.505   0.635  16.271  0.3373 -0.0873  0.1314
  614TMC3    O2 9160   4.710   0.158  16.447  0.3206  0.2186  0.5823
  615MPD2     C 9161   4.395   1.519  16.262 -0.5732 -0.0455 -0.1680
  615MPD2    C1 9162   4.288   1.604  16.265  0.8719  0.1554 -0.7062
  615MPD2    C2 9163   4.176   1.553  16.195  0.0713 -0.3220 -0.0711
  615MPD2    C3 9164   4.174   1.437  16.125  0.5480 -0.3657  0.4092
  615MPD2    C4 9165   4.279   1.356  16.134 -0.0914 -0.2087 -0.2517
  615MPD2    C5 9166   4.384   1.397  16.207 -0.1190  0.7542  0.2263
  615MPD2     H 9167   4.083   1.608  16.195 -0.0999 -0.6226 -2.2793
  615MPD2    H1 9168   4.282   1.264  16.077  1.0175 -0.0374 -0.4760
  615MPD2    H2 9169   4.488   1.556  16.304 -0.1034 -1.7196  0.2790
  615MPD2    H3 9170   4.475   1.339  16.211 -0.8368 -0.2629  2.1506
  615MPD2     N 9171   4.071   1.399  16.033 -0.7994  0.2144 -0.4454
  615MPD2    H5 9172   4.093   1.328  15.964 -2.6690 -1.1313  0.3452
  615MPD2    N1 9173   4.299   1.731  16.307  0.1524 -0.7973  0.0680
  615MPD2    H7 9174   4.386   1.750  16.357 -0.6772  2.6145  0.1879
  616TMC3    C1 9175   4.269   1.963  16.312  0.6861  0.3911 -0.3191
  616TMC3    C2 9176   4.360   1.949  16.417 -0.3163  0.8693  0.3208
  616TMC3    C3 9177   4.467   2.037  16.422 -0.5918  0.3528  0.2239
  616TMC3    C4 9178   4.290   2.054  16.215  0.2142  0.4974 -0.3545
  616TMC3    C5 9179   4.396   2.141  16.224 -0.9349 -0.8556 -0.3933
  616TMC3    C6 9180   4.483   2.134  16.331 -0.2001 -0.6384 -0.2150
  616TMC3     C 9181   4.217   1.834  16.278 -0.1185  0.4705  0.3327
  616TMC3     O 9182   4.110   1.831  16.219  0.0395  0.7079 -0.3315
  616TMC3     H 9183   4.337   1.896  16.508 -0.4687 -0.5620 -0.5534
  616TMC3    H1 9184   4.221   2.060  16.132  1.0193  0.8627 -0.9943
  616TMC3    H2 9185   4.583   2.177  16.327  0.1535 -1.2734  1.4515
  616TMC3    C7 9186   4.423   2.224  16.109 -0.1506  0.6822  0.5156
  616TMC3    C8 9187   4.581   1.991  16.508  0.0962 -0.5296 -0.5321
  616TMC3    O1 9188   4.361   2.199  16.009  0.4257  0.2292 -0.1863
  616TMC3    O2 9189   4.586   1.870  16.533  0.3029  0.2274  0.1633
  617MPD2     C 9190   2.038   4.258  13.267  0.2646  0.0229 -0.5647
  617MPD2    C1 9191   2.076   4.309  13.387 -0.3031 -0.0514 -0.2418
  617MPD2    C2 9192   2.011   4.261  13.503  0.8108 -0.0070  0.3818
  617MPD2    C3 9193   1.925   4.149  13.496 -0.0397 -0.1730 -0.4473
  617MPD2    C4 9194   1.887   4.104  13.369 -0.9857  0.4511 -0.0559
  617MPD2    C5 9195   1.941   4.160  13.253  0.3786 -0.8762  0.2088
  617MPD2     H 9196   2.056   4.282  13.599  0.9009  3.8687 -0.4868
  617MPD2    H1 9197   1.816   4.023  13.355 -0.8853  0.5275 -1.0775
  617MPD2    H2 9198   2.090   4.298  13.181  0.9134 -0.0995 -0.2291
  617MPD2    H3 9199   1.918   4.115  13.157  1.6599 -1.1766  0.0388
  617MPD2     N 9200   1.876   4.070  13.609  0.0656 -0.4630 -0.0343
  617MPD2    H5 9201   1.817   3.993  13.580  1.8344 -1.0744 -2.0588
  617MPD2    N1 9202   2.166   4.412  13.383 -0.1097  0.7232  0.3450
  617MPD2    H7 9203   2.212   4.418  13.292 -2.3805  0.0419 -0.8558
  618TMC3    C1 9204   2.287   4.607  13.432  0.1261  0.5489  0.4464
  618TMC3    C2 9205   2.395   4.616  13.513 -0.1782 -0.0986  0.3203
  618TMC3    C3 9206   2.518   4.606  13.446  0.2841  0.1030  0.3921
  618TMC3    C4 9207   2.296   4.609  13.295  0.1274 -0.3498  0.2313
  618TMC3    C5 9208   2.424   4.585  13.237 -0.4339  0.3785  0.1095
  618TMC3    C6 9209   2.533   4.577  13.312  0.2257  0.6285  0.0894
  618TMC3     C 9210   2.188   4.501  13.481 -0.2938  0.5125 -0.5762
  618TMC3     O 9211   2.170   4.487  13.604 -0.2204  0.0714  0.0268
  618TMC3     H 9212   2.395   4.612  13.622  0.2631 -1.8806  0.2524
  618TMC3    H1 9213   2.205   4.602  13.236  0.2433  1.8467 -0.2186
  618TMC3    H2 9214   2.629   4.581  13.262  0.6362  2.0897  1.0072
  618TMC3    C7 9215   2.413   4.471  13.151  0.2069  0.7571 -0.0162
  618TMC3    C8 9216   2.623   4.565  13.535 -0.1423 -0.4767 -0.9632
  618TMC3    O1 9217   2.306   4.409  13.147 -0.1784 -0.2077 -0.5933
  618TMC3    O2 9218   2.630   4.611  13.646  0.1917 -0.1560 -0.1958
  619MPD2     C 9219   3.884   1.042  14.159  1.0561  0.2120  0.0017
  619MPD2    C1 9220   3.852   1.114  14.047 -0.2641  0.5508 -0.0515
  619MPD2    C2 9221   3.721   1.107  13.997  0.0752 -0.3209 -1.1791
  619MPD2    C3 9222   3.617   1.032  14.056  0.8359  0.5725 -0.2990
  619MPD2    C4 9223   3.655   0.959  14.167  0.4548 -0.3369  0.3636
  619MPD2    C5 9224   3.784   0.957  14.212  0.8885 -0.2768 -0.3051
  619MPD2     H 9225   3.708   1.157  13.901 -2.3388  0.4125 -0.4528
  619MPD2    H1 9226   3.581   0.893  14.211 -0.8911 -0.2415 -1.7187
  619MPD2    H2 9227   3.978   1.033  14.212  1.4370 -0.2980 -0.7653
  619MPD2    H3 9228   3.807   0.886  14.290  0.2730  0.2314  0.3398
  619MPD2     N 9229   3.483   1.032  13.999  0.0768  0.3394  0.4880
  619MPD2    H5 9230   3.417   0.961  14.026  1.6580 -0.5690  1.9717
  619MPD2    N1 9231   3.944   1.191  13.974  0.0400  0.5153 -0.4492
  619MPD2    H7 9232   3.923   1.226  13.881  0.9686 -1.5515 -1.4532
  620TMC3    C1 9233   4.142   1.290  13.899 -0.8207  0.2981  0.0314
  620TMC3    C2 9234   4.095   1.254  13.774 -0.4890 -0.6607  0.3336
  620TMC3    C3 9235   4.072   1.342  13.675  0.2337 -0.4313  0.4547
  620TMC3    C4 9236   4.173   1.422  13.925 -0.3277  0.2813 -0.5536
  620TMC3    C5 9237   4.150   1.509  13.823  0.3842  0.5761  0.5236
  620TMC3    C6 9238   4.110   1.471  13.696 -0.7577  0.6787 -0.2974
  620TMC3     C 9239   4.073   1.230  14.018 -0.4608  0.0471 -0.0408
  620TMC3     O 9240   4.137   1.222  14.115 -0.1037 -0.0773  0.6673
  620TMC3     H 9241   4.074   1.149  13.754 -2.4321  0.0309 -1.2325
  620TMC3    H1 9242   4.190   1.466  14.023 -1.0692 -0.0587 -0.2744
  620TMC3    H2 9243   4.102   1.547  13.619 -0.2757  0.3080 -0.7169
  620TMC3    C7 9244   4.129   1.651  13.846  0.3416  0.2752  0.5499
  620TMC3    C8 9245   3.926   1.351  13.644 -0.8455 -0.4267 -0.1022
  620TMC3    O1 9246   4.070   1.704  13.756 -0.0628 -0.6196 -0.0770
  620TMC3    O2 9247   3.862   1.278  13.714 -0.2296  0.2990 -0.1285
  621MPD2     C 9248   4.054   1.878  10.221  0.0784  0.1508 -0.3946
  621MPD2    C1 9249   4.147   1.870  10.109  0.2577  0.2657 -0.0937
  621MPD2    C2 9250   4.128   1.972  10.016  0.5253 -0.3103 -0.3439
  621MPD2    C3 9251   4.047   2.087  10.033  0.3151 -0.0265 -0.3212
  621MPD2    C4 9252   3.962   2.082  10.143 -0.2463 -0.3994  0.1713
  621MPD2    C5 9253   3.970   1.984  10.234  0.3273 -0.5322  0.3872
  621MPD2     H 9254   4.193   1.974   9.929  0.2768 -0.9560 -0.5401
  621MPD2    H1 9255   3.887   2.160  10.155  0.6903  0.7471 -1.3352
  621MPD2    H2 9256   4.039   1.795  10.288  1.4194 -0.6048 -1.0173
  621MPD2    H3 9257   3.903   1.985  10.319 -2.2554 -2.8213 -1.6380
  621MPD2     N 9258   4.053   2.196   9.944  0.0970  0.2862 -0.2137
  621MPD2    H5 9259   4.022   2.288   9.976 -1.9764 -0.9870  1.4619
  621MPD2    N1 9260   4.243   1.766  10.088  0.5253 -0.1698 -0.2159
  621MPD2    H7 9261   4.309   1.772  10.010  1.3833  1.2272  0.6095
  622TMC3    C1 9262   4.349   1.555  10.111  0.2828 -0.4439  0.1713
  622TMC3    C2 9263   4.332   1.445  10.191  0.5905  0.4347  0.6307
  622TMC3    C3 9264   4.310   1.327  10.131  0.4720 -0.1298  0.0802
  622TMC3    C4 9265   4.358   1.542   9.974  0.2759 -0.3061 -0.0059
  622TMC3    C5 9266   4.360   1.420   9.918 -0.5427 -0.0016  0.3959
  622TMC3    C6 9267   4.336   1.304   9.993  0.4420 -0.3247  0.4436
  622TMC3     C 9268   4.252   1.657  10.160 -0.2177 -0.9941  0.1180
  622TMC3     O 9269   4.182   1.613  10.253 -0.4506  0.4836  0.1101
  622TMC3     H 9270   4.335   1.460  10.298 -1.7570  0.1531  0.7423
  622TMC3    H1 9271   4.360   1.622   9.900  2.0157  0.2051  0.6098
  622TMC3    H2 9272   4.330   1.204   9.952 -1.5281  0.0384 -0.1538
  622TMC3    C7 9273   4.476   1.395   9.829 -0.1089  0.3818 -0.5817
  622TMC3    C8 9274   4.204   1.247  10.185  1.0230 -0.1604  0.6897
  622TMC3    O1 9275   4.560   1.481   9.835 -0.0337  0.7580 -0.0428
  622TMC3    O2 9276   4.211   1.126  10.169 -0.0723  0.1540 -0.0473
  623MPD2     C 9277   3.008   2.160  15.870 -0.5783  0.2134 -0.5605
  623MPD2    C1 9278   2.937   2.085  15.961 -0.6092 -0.0310 -0.2618
  623MPD2    C2 9279   2.977   2.089  16.090  0.1940  0.7693  0.1804
  623MPD2    C3 9280   3.099   2.147  16.120 -0.1709  0.2291  0.4761
  623MPD2    C4 9281   3.161   2.225  16.029  0.6222 -0.1134  0.6799
  623MPD2    C5 9282   3.118   2.234  15.903 -0.6303  0.2006 -0.1874
  623MPD2     H 9283   2.927   2.025  16.162 -3.2533  1.1269 -1.8776
  623MPD2    H1 9284   3.252   2.277  16.059  0.9885 -0.0058 -0.5872
  623MPD2    H2 9285   2.986   2.150  15.765 -1.7527  0.1920 -0.3153
  623MPD2    H3 9286   3.178   2.278  15.825 -0.2723  1.4331  0.7961
  623MPD2     N 9287   3.145   2.142  16.257 -0.3772 -0.0339 -0.9796
  623MPD2    H5 9288   3.089   2.090  16.324  2.8139 -0.4071  1.4196
  623MPD2    N1 9289   2.819   2.021  15.910 -0.2601  0.4319  0.4570
  623MPD2    H7 9290   2.793   2.028  15.813  0.8305 -2.5070 -0.0573
  624TMC3    C1 9291   3.405   2.067  16.620 -0.6503  0.9371 -0.9631
  624TMC3    C2 9292   3.293   2.044  16.701  0.2335 -0.1136  0.4293
  624TMC3    C3 9293   3.168   2.082  16.651 -0.3858 -0.2841 -0.8049
  624TMC3    C4 9294   3.392   2.118  16.495  0.2943  0.2250  0.0651
  624TMC3    C5 9295   3.271   2.143  16.438 -0.1003 -0.5789 -0.2467
  624TMC3    C6 9296   3.154   2.123  16.518  0.0936 -0.2040  0.0651
  624TMC3     C 9297   3.501   1.963  16.642  0.1587 -0.4156 -0.3139
  624TMC3     O 9298   3.514   1.914  16.755  0.2874  0.4344 -0.3277
  624TMC3     H 9299   3.309   1.996  16.797  0.9590 -0.2828  0.2273
  624TMC3    H1 9300   3.482   2.123  16.435 -0.2839 -0.3973 -0.8620
  624TMC3    H2 9301   3.054   2.151  16.485 -0.5079 -4.6315 -1.8663
  624TMC3    C7 9302   3.260   2.197  16.309  0.0191  0.4093  0.4449
  624TMC3    C8 9303   3.055   2.007  16.702  0.5656  0.4468 -0.2329
  624TMC3    O1 9304   3.342   2.268  16.254  0.6604 -0.2435 -0.0005
  624TMC3    O2 9305   2.953   2.002  16.628  0.9490  0.4659 -0.1718
  625MPD2     C 9306   3.643   3.032   0.563 -0.4564  0.0970 -0.0835
  625MPD2    C1 9307   3.580   3.122   0.640 -0.1486 -0.0525  0.7087
  625MPD2    C2 9308   3.646   3.193   0.736  0.2585  0.1709  0.4164
  625MPD2    C3 9309   3.779   3.161   0.769  0.2019 -1.7386 -0.0487
  625MPD2    C4 9310   3.846   3.060   0.692  0.8329  0.2410  0.3588
  625MPD2    C5 9311   3.772   2.998   0.594 -0.3167 -0.6332 -0.3011
  625MPD2     H 9312   3.602   3.281   0.782 -1.3126  0.2750 -1.3176
  625MPD2    H1 9313   3.951   3.040   0.710  1.3084  1.7234 -0.7997
  625MPD2    H2 9314   3.600   2.975   0.483 -0.9893  0.4633 -0.0561
  625MPD2    H3 9315   3.812   2.922   0.528  3.3785  0.1606  1.0128
  625MPD2     N 9316   3.832   3.219   0.881 -0.5534 -0.4227  0.1749
  625MPD2    H5 9317   3.773   3.287   0.928  1.9238 -0.3729  3.2139
  625MPD2    N1 9318   3.453   3.166   0.607  0.9349  0.1794 -0.6916
  625MPD2    H7 9319   3.426   3.255   0.646 -0.6103 -1.5345  2.1592
  626TMC3    C1 9320   3.228   3.171   0.515  0.4846 -0.4714 -0.1702
  626TMC3    C2 9321   3.147   3.154   0.408  0.1958  0.0674 -0.0609
  626TMC3    C3 9322   3.025   3.209   0.409  0.1931 -0.7066 -0.3970
  626TMC3    C4 9323   3.184   3.231   0.630 -0.1847 -0.2907  0.1405
  626TMC3    C5 9324   3.057   3.281   0.624 -0.2072 -0.3643 -0.7356
  626TMC3    C6 9325   2.982   3.276   0.517 -0.5606  0.3949 -0.0989
  626TMC3     C 9326   3.363   3.110   0.520 -0.3820  0.5686  0.4910
  626TMC3     O 9327   3.375   3.017   0.435 -0.4932 -0.2447  0.0341
  626TMC3     H 9328   3.183   3.092   0.328 -0.0290  0.3139 -0.3519
  626TMC3    H1 9329   3.242   3.224   0.721  1.5103  2.2328 -0.7550
  626TMC3    H2 9330   2.893   3.338   0.508 -1.1791 -0.6290 -0.9935
  626TMC3    C7 9331   2.989   3.311   0.748  0.0050  0.9218 -0.6423
  626TMC3    C8 9332   2.982   3.248   0.277 -0.1942 -0.1522  0.7786
  626TMC3    O1 9333   3.055   3.309   0.852  0.0679  0.6296  0.5590
  626TMC3    O2 9334   3.063   3.242   0.190  0.1499  0.2667  0.3300
  627MPD2     C 9335   1.565   3.517  14.488 -0.3976 -0.0194 -0.2979
  627MPD2    C1 9336   1.577   3.469  14.622  0.3285  0.2051  0.2625
  627MPD2    C2 9337   1.540   3.339  14.647  0.7687  0.7757  0.5650
  627MPD2    C3 9338   1.503   3.249  14.548 -0.0435 -0.0608  0.3686
  627MPD2    C4 9339   1.486   3.305  14.419  0.2376  0.5712  0.1890
  627MPD2    C5 9340   1.515   3.435  14.390  0.3353 -0.2340 -0.4230
  627MPD2     H 9341   1.556   3.301  14.748  2.2551 -1.0158 -0.3229
  627MPD2    H1 9342   1.457   3.232  14.343  0.9103 -2.1479  2.5430
  627MPD2    H2 9343   1.603   3.611  14.450 -0.4254  0.9781  2.1452
  627MPD2    H3 9344   1.504   3.461  14.285  0.1588 -0.0270 -0.3518
  627MPD2     N 9345   1.489   3.113  14.577 -0.1915 -0.2820 -0.7343
  627MPD2    H5 9346   1.502   3.079  14.672 -0.0209  0.1425 -0.6012
  627MPD2    N1 9347   1.611   3.543  14.730 -0.2620 -0.8767 -0.6521
  627MPD2    H7 9348   1.591   3.494  14.817  3.6040 -1.0515  0.1374
  628TMC3    C1 9349   1.705   3.717  14.864  0.0386 -0.8972 -0.4639
  628TMC3    C2 9350   1.743   3.614  14.950  0.1796 -0.1111  0.1574
  628TMC3    C3 9351   1.875   3.621  15.009  0.2005 -0.6435 -0.4501
  628TMC3    C4 9352   1.780   3.829  14.845 -0.0928  0.0686  0.2047
  628TMC3    C5 9353   1.904   3.831  14.900  0.1874  0.6568  0.0975
  628TMC3    C6 9354   1.959   3.719  14.960  0.4884  0.9351 -0.6333
  628TMC3     C 9355   1.675   3.671  14.730 -0.9066  0.2043 -0.0122
  628TMC3     O 9356   1.728   3.740  14.642 -0.5823 -0.5596  0.0589
  628TMC3     H 9357   1.672   3.537  14.976  0.8823 -1.2015 -1.1312
  628TMC3    H1 9358   1.725   3.911  14.800 -1.8050  0.8203  3.6956
  628TMC3    H2 9359   2.055   3.724  15.010  0.0286  0.1880  0.3283
  628TMC3    C7 9360   1.992   3.913  14.818  1.0988 -0.3975 -0.2595
  628TMC3    C8 9361   1.930   3.493  15.041  0.6752 -0.3649 -0.4630
  628TMC3    O1 9362   2.093   3.965  14.867 -0.4945 -0.5973 -0.1125
  628TMC3    O2 9363   1.859   3.403  14.997  0.8349  0.1108 -0.2982
  629MPD2     C 9364   0.280   2.029  16.767  0.0019  0.0866 -0.1571
  629MPD2    C1 9365   0.262   2.151  16.711  0.2298 -0.5943 -0.0058
  629MPD2    C2 9366   0.148   2.168  16.632 -0.6152  0.1439 -0.4592
  629MPD2    C3 9367   0.046   2.073  16.620  0.3111 -0.8703 -0.6248
  629MPD2    C4 9368   0.055   1.961  16.701 -0.4488 -0.3839  0.4644
  629MPD2    C5 9369   0.173   1.938  16.764 -0.4372 -0.3619  0.9567
  629MPD2     H 9370   0.152   2.263  16.580  0.4842  0.0539 -0.5360
  629MPD2    H1 9371   4.712   1.889  16.707 -0.0539 -0.6367  2.5913
  629MPD2    H2 9372   0.373   2.009  16.817 -0.6157 -2.0306  0.1542
  629MPD2    H3 9373   0.177   1.843  16.817  1.1278 -0.7676  0.1216
  629MPD2     N 9374   4.669   2.096  16.535 -0.2820  0.4160 -0.7217
  629MPD2    H5 9375   4.651   2.188  16.498  0.7598  0.6588 -0.6227
  629MPD2    N1 9376   0.358   2.250  16.729 -0.6018 -0.6535 -0.1295
  629MPD2    H7 9377   0.437   2.220  16.785  0.3296  0.3192 -0.9324
  630TMC3    C1 9378   0.508   2.413  16.714  0.1400  0.1279  0.1961
  630TMC3    C2 9379   0.582   2.496  16.632 -0.2490  0.1967  0.4523
  630TMC3    C3 9380   0.702   2.551  16.679 -0.0934  0.3547 -0.7426
  630TMC3    C4 9381   0.552   2.362  16.831 -0.4706  1.1583  0.1742
  630TMC3    C5 9382   0.681   2.399  16.863 -0.4074  0.0851  0.4168
  630TMC3    C6 9383   0.755   2.492  16.795 -0.2328  0.5614  0.3014
  630TMC3     C 9384   0.382   2.367  16.667 -0.3654  0.2938 -0.5455
  630TMC3     O 9385   0.329   2.423  16.571 -0.0951  0.1061 -0.5083
  630TMC3     H 9386   0.546   2.531  16.536  1.2308  1.0690  0.2117
  630TMC3    H1 9387   0.491   2.319  16.909  1.2670  0.3051  1.0524
  630TMC3    H2 9388   0.847   2.531  16.837  0.5297 -2.6449  1.5820
  630TMC3    C7 9389   0.750   2.309  16.944 -0.7567 -0.2470 -0.1862
  630TMC3    C8 9390   0.803   2.618  16.601  0.2248 -0.2145  0.2089
  630TMC3    O1 9391   0.676   2.219  16.982 -0.3150 -0.2054  0.1667
  630TMC3    O2 9392   0.899   2.667  16.661  0.2017 -0.4179 -0.3628
  631MPD2     C 9393   3.217   1.878  15.735 -0.1962  0.0152 -0.5024
  631MPD2    C1 9394   3.344   1.912  15.691  0.5170 -0.3146  0.1681
  631MPD2    C2 9395   3.432   1.804  15.681 -0.1133  0.4260 -1.1834
  631MPD2    C3 9396   3.410   1.688  15.745 -0.5638 -0.8482  0.4655
  631MPD2    C4 9397   3.288   1.661  15.804  1.0095  0.0758  0.3993
  631MPD2    C5 9398   3.191   1.757  15.793  0.0981 -0.0892  0.0930
  631MPD2     H 9399   3.523   1.807  15.623 -0.6078 -1.1230 -2.0379
  631MPD2    H1 9400   3.265   1.575  15.866 -0.6838 -0.8169 -1.4797
  631MPD2    H2 9401   3.140   1.954  15.744 -0.6574 -0.2663 -2.1054
  631MPD2    H3 9402   3.092   1.747  15.835  0.3470  1.3790  1.0338
  631MPD2     N 9403   3.520   1.597  15.745  0.0167  0.4755  0.3814
  631MPD2    H5 9404   3.601   1.623  15.690  0.9305 -0.7816  1.1276
  631MPD2    N1 9405   3.368   2.042  15.637  0.1332  0.1482  0.1054
  631MPD2    H7 9406   3.292   2.108  15.620  0.2813  0.0246 -1.0484
  632TMC3    C1 9407   3.498   2.220  15.557  0.2422  0.3806 -0.8668
  632TMC3    C2 9408   3.395   2.304  15.586 -0.0523  0.2599  0.0034
  632TMC3    C3 9409   3.412   2.436  15.545 -0.1866 -0.1280  0.5017
  632TMC3    C4 9410   3.604   2.256  15.484  0.2227  0.7412  0.3574
  632TMC3    C5 9411   3.616   2.382  15.436  0.2107  0.0251 -0.0945
  632TMC3    C6 9412   3.518   2.478  15.465 -0.1313 -0.6993 -1.1041
  632TMC3     C 9413   3.493   2.082  15.604 -0.4655 -0.2253  0.8712
  632TMC3     O 9414   3.603   2.026  15.625 -0.0932  0.2957 -0.3614
  632TMC3     H 9415   3.328   2.275  15.666  0.1032  0.9648  0.3952
  632TMC3    H1 9416   3.666   2.173  15.452 -0.3119 -0.3180  2.0659
  632TMC3    H2 9417   3.521   2.568  15.406  0.3681  0.5373  0.7933
  632TMC3    C7 9418   3.713   2.412  15.340  0.9776 -0.5537 -0.0900
  632TMC3    C8 9419   3.283   2.502  15.538  0.1285  0.3648  0.2127
  632TMC3    O1 9420   3.687   2.495  15.255 -0.1320  0.3506  0.0454
  632TMC3    O2 9421   3.187   2.443  15.581  0.1937 -0.7684  0.2205
  633MPD2     C 9422   2.822   0.570  17.523 -0.4419 -0.0566  0.0513
  633MPD2    C1 9423   2.838   0.449  17.448  0.3112 -0.3196 -0.1431
  633MPD2    C2 9424   2.800   0.328  17.506  0.2302 -0.0359 -0.5377
  633MPD2    C3 9425   2.757   0.329  17.640 -0.5687 -0.1272  0.0378
  633MPD2    C4 9426   2.759   0.449  17.710 -0.0731  0.1057 -0.2842
  633MPD2    C5 9427   2.784   0.569  17.653 -0.2170 -0.2409 -0.2173
  633MPD2     H 9428   2.803   0.241  17.442  0.2492 -0.0799 -0.4768
  633MPD2    H1 9429   2.740   0.453   0.067 -0.3458 -0.8555 -0.2931
  633MPD2    H2 9430   2.850   0.663  17.475  0.6020  0.2834  1.3467
  633MPD2    H3 9431   2.780   0.663  17.707  2.4136  0.7378 -1.7173
  633MPD2     N 9432   2.703   0.215  17.701 -0.4961 -0.5241  0.0557
  633MPD2    H5 9433   2.649   0.228   0.036  0.3102  0.2317  0.4517
  633MPD2    N1 9434   2.884   0.449  17.314  0.3684 -0.4308 -0.0804
  633MPD2    H7 9435   2.886   0.357  17.272  0.2812 -0.4698  0.0025
  634TMC3    C1 9436   2.982   0.544  17.119 -0.0466  1.3266 -0.2663
  634TMC3    C2 9437   3.088   0.456  17.111  0.6393  0.0178  0.6413
  634TMC3    C3 9438   3.142   0.414  16.988  0.3043 -0.1423 -0.1856
  634TMC3    C4 9439   2.932   0.604  17.006 -0.2827 -0.2495 -0.9281
  634TMC3    C5 9440   2.990   0.566  16.884 -0.4324  0.2875 -0.8942
  634TMC3    C6 9441   3.095   0.478  16.878 -0.1359  0.2528 -0.2829
  634TMC3     C 9442   2.916   0.565  17.241 -0.5109  0.0648  0.0613
  634TMC3     O 9443   2.891   0.680  17.266 -0.5048  0.1489 -0.3653
  634TMC3     H 9444   3.112   0.404  17.204  3.8286  0.3323 -0.0116
  634TMC3    H1 9445   2.857   0.681  17.017  1.5421  1.5420 -0.9244
  634TMC3    H2 9446   3.134   0.444  16.783  1.0967  2.5436 -0.6129
  634TMC3    C7 9447   2.923   0.605  16.761 -0.5090 -0.0739  0.2275
  634TMC3    C8 9448   3.199   0.280  16.990 -0.2605  0.5006 -0.1715
  634TMC3    O1 9449   2.994   0.607  16.660 -0.3986  0.1123  0.4887
  634TMC3    O2 9450   3.166   0.202  17.077 -0.2160  0.2619 -0.2966
  635TMC3    C1 9451   3.304   0.728   0.278 -0.0127  0.7690  0.2946
  635TMC3    C2 9452   3.391   0.632   0.234 -0.0348  0.4352 -0.4318
  635TMC3    C3 9453   3.337   0.510   0.207  0.1446 -0.3995  0.1186
  635TMC3    C4 9454   3.169   0.711   0.289  0.2627 -0.7534  0.7661
  635TMC3    C5 9455   3.125   0.588   0.254  0.1885  0.0415  0.2494
  635TMC3    C6 9456   3.208   0.481   0.222  0.4778  0.4411 -0.3545
  635TMC3     C 9457   3.347   0.868   0.297  0.5420  0.7291  0.2765
  635TMC3     O 9458   3.279   0.942   0.369 -0.0692  0.2998 -0.5144
  635TMC3     H 9459   3.496   0.650   0.250 -0.5020  3.8320 -0.9956
  635TMC3    H1 9460   3.093   0.781   0.323 -0.1868 -1.2654  0.8052
  635TMC3    H2 9461   3.161   0.383   0.214  0.4666  0.4764 -0.7146
  635TMC3    C7 9462   2.991   0.541   0.295  0.2495 -0.1955  0.0030
  635TMC3    C8 9463   3.436   0.399   0.195 -0.2086  0.1134  0.1899
  635TMC3    O1 9464   2.979   0.434   0.350  0.2419 -0.0543  0.0567
  635TMC3    O2 9465   3.548   0.421   0.235  0.3885  0.1036 -0.7823
  636MPD2     C 9466   4.264   0.363  16.418  0.3707 -0.6236  0.4503
  636MPD2    C1 9467   4.180   0.391  16.532 -0.7476  0.2327  0.1182
  636MPD2    C2 9468   4.220   0.337  16.653 -0.0944  0.5623 -0.5556
  636MPD2    C3 9469   4.342   0.273  16.673 -0.2034 -0.2657  0.6408
  636MPD2    C4 9470   4.422   0.253  16.570 -0.0850  0.3823 -1.0166
  636MPD2    C5 9471   4.381   0.295  16.443  0.2168  0.6030 -0.2610
  636MPD2     H 9472   4.158   0.364  16.738 -0.0264  0.4213 -0.4594
  636MPD2    H1 9473   4.522   0.215  16.588 -1.2098 -2.4064 -0.7974
  636MPD2    H2 9474   4.250   0.382  16.312 -0.7718 -4.3830 -0.0738
  636MPD2    H3 9475   4.451   0.266  16.365  1.9385  2.7791  0.4568
  636MPD2     N 9476   4.394   0.227  16.796  0.1324  0.9634  0.4915
  636MPD2    H5 9477   4.491   0.200  16.794 -0.7111 -2.0155 -0.4584
  636MPD2    N1 9478   4.064   0.469  16.527 -0.0636 -0.3034  0.5915
  636MPD2    H7 9479   4.024   0.511  16.610  1.2374  0.1233  1.0126
  637TMC3    C1 9480   4.426   0.203  17.019  0.1485 -0.0696  0.2131
  637TMC3    C2 9481   4.503   0.304  17.074 -0.2830 -0.7638 -0.6518
  637TMC3    C3 9482   4.638   0.296  17.076  0.3504  0.5587 -0.4370
  637TMC3    C4 9483   4.481   0.082  16.989 -0.1539 -0.2802  0.7123
  637TMC3    C5 9484   4.617   0.073  17.004  0.2376  0.2482  0.2922
  637TMC3    C6 9485   4.693   0.172  17.045  1.2278 -0.1854 -0.2020
  637TMC3     C 9486   4.337   0.249  16.920  0.2527  0.1763  0.2334
  637TMC3     O 9487   4.242   0.318  16.959 -0.0503 -0.7310 -0.4355
  637TMC3     H 9488   4.457   0.401  17.059  0.5021 -0.1786  0.7487
  637TMC3    H1 9489   4.414   0.009  16.944 -0.9315  0.4444  0.6838
  637TMC3    H2 9490   0.063   0.177  17.059  1.3587 -1.4994 -0.7948
  637TMC3    C7 9491   4.680   0.011  16.888  1.1259  0.0247 -0.3513
  637TMC3    C8 9492   4.703   0.402  16.992  0.4635  0.4702 -0.2163
  637TMC3    O1 9493   4.612   0.006  16.781 -0.0475  0.0713 -0.3236
  637TMC3    O2 9494   0.068   0.368  16.937 -0.4704  0.3537 -0.1215
  638MPD2     C 9495   4.254   3.992  15.028  0.1611 -0.0545  0.5237
  638MPD2    C1 9496   4.318   3.909  14.938  0.3099 -0.0309 -0.2413
  638MPD2    C2 9497   4.310   3.768  14.945  0.2043  0.2372 -0.9723
  638MPD2    C3 9498   4.249   3.707  15.056 -0.7426  0.2255 -0.2044
  638MPD2    C4 9499   4.183   3.792  15.150  0.6777 -0.1120 -0.1358
  638MPD2    C5 9500   4.195   3.934  15.137 -0.6275  0.0311  0.6583
  638MPD2     H 9501   4.369   3.703  14.882  2.7835  1.4953  0.1407
  638MPD2    H1 9502   4.137   3.752  15.240 -0.9738  2.7126  0.2562
  638MPD2    H2 9503   4.250   4.100  15.016  4.0745 -0.1059 -1.3118
  638MPD2    H3 9504   4.144   4.000  15.206  0.4433  0.5851  0.9179
  638MPD2     N 9505   4.255   3.567  15.082  0.7533 -0.4483  0.5163
  638MPD2    H5 9506   4.312   3.504  15.026 -2.4205 -1.8726 -1.1152
  638MPD2    N1 9507   4.356   3.970  14.812  0.4879 -0.2465  0.4651
  638MPD2    H7 9508   4.346   4.070  14.797 -0.9522 -0.2144  1.6255
  639TMC3    C1 9509   4.210   3.353  15.181 -0.0135  0.2944 -0.4897
  639TMC3    C2 9510   4.114   3.266  15.139  0.1875 -0.5043  0.2585
  639TMC3    C3 9511   4.146   3.144  15.089 -0.7914 -0.0345  0.2352
  639TMC3    C4 9512   4.342   3.321  15.159 -1.0268  0.3796 -0.6946
  639TMC3    C5 9513   4.367   3.195  15.118 -0.0590  0.1785  0.2296
  639TMC3    C6 9514   4.272   3.110  15.065 -0.7931  0.4550 -0.6965
  639TMC3     C 9515   4.184   3.495  15.179  0.3642 -0.2398 -0.1600
  639TMC3     O 9516   4.087   3.529  15.241  0.1097 -0.1490 -0.5806
  639TMC3     H 9517   4.008   3.291  15.144  0.0720 -1.0504  0.5228
  639TMC3    H1 9518   4.414   3.396  15.191  1.2261 -2.1278  0.0796
  639TMC3    H2 9519   4.305   3.023  15.009  1.6831  1.0930 -0.2329
  639TMC3    C7 9520   4.495   3.136  15.138  0.3470 -0.2370  0.3806
  639TMC3    C8 9521   4.063   3.102  14.978 -0.2156  0.1888 -0.1229
  639TMC3    O1 9522   4.496   3.015  15.134  0.3166  0.0406 -0.3801
  639TMC3    O2 9523   4.111   3.108  14.868  0.4442  0.0643 -0.2283
  640MPD2     C 9524   4.683   2.518  10.513  0.2665 -0.4994 -0.0038
  640MPD2    C1 9525   4.735   2.616  10.431 -0.3233  0.0988  0.7308
  640MPD2    C2 9526   4.701   2.750  10.447 -0.0954 -0.0495 -0.1186
  640MPD2    C3 9527   4.616   2.788  10.549  0.1698  0.4041 -0.2895
  640MPD2    C4 9528   4.568   2.691  10.630  0.2744 -0.9005 -0.6874
  640MPD2    C5 9529   4.599   2.558  10.610 -0.5836  0.1445  0.0296
  640MPD2     H 9530   0.003   2.827  10.382 -1.2686  1.2348  0.6881
  640MPD2    H1 9531   4.498   2.714  10.710  0.8248 -0.0280 -0.4503
  640MPD2    H2 9532   4.709   2.414  10.496  0.1917 -0.7501  1.4238
  640MPD2    H3 9533   4.553   2.480  10.668  1.2307 -2.0374 -1.4680
  640MPD2     N 9534   4.578   2.921  10.570  0.5181  0.1905 -0.5012
  640MPD2    H5 9535   4.515   2.929  10.649  1.5527 -1.1919  0.4630
  640MPD2    N1 9536   0.070   2.574  10.323 -0.5707  0.5403  0.3074
  640MPD2    H7 9537   0.116   2.484  10.330 -3.6512 -1.0240  0.4283
  641TMC3    C1 9538   0.103   2.548  10.093  0.4257 -0.3786  0.1721
  641TMC3    C2 9539   0.188   2.439  10.106 -0.1000  0.6149  0.2196
  641TMC3    C3 9540   0.199   2.355  10.004 -0.2434  0.0443 -0.1667
  641TMC3    C4 9541   0.034   2.570   9.977 -0.3645 -0.1202 -0.2814
  641TMC3    C5 9542   0.074   2.492   9.871  0.4166  1.1038 -0.3922
  641TMC3    C6 9543   0.157   2.384   9.875  0.1178  0.5966 -0.1249
  641TMC3     C 9544   0.074   2.640  10.203  0.0284  0.7611  0.4197
  641TMC3     O 9545   0.025   2.747  10.176 -0.2441  0.1723 -0.1532
  641TMC3     H 9546   0.242   2.427  10.199  1.7016 -1.1263 -1.0462
  641TMC3    H1 9547   4.703   2.653   9.963  1.0645  1.1918  0.4356
  641TMC3    H2 9548   0.163   2.315   9.792 -1.9551  2.1565 -1.5697
  641TMC3    C7 9549   0.024   2.532   9.745  0.0444 -0.4669 -0.0138
  641TMC3    C8 9550   0.270   2.229  10.014 -0.1818 -1.2569  0.0940
  641TMC3    O1 9551   4.667   2.609   9.744  0.2926 -0.0995 -0.3180
  641TMC3    O2 9552   0.326   2.185   9.913 -0.3585 -0.0797 -0.0725
  642TMC3    C1 9553   0.816   3.419  12.675  0.0948  1.0821 -0.4653
  642TMC3    C2 9554   0.907   3.495  12.605  0.1105 -0.1403 -0.3120
  642TMC3    C3 9555   0.915   3.486  12.474  0.2759 -0.2696 -0.1910
  642TMC3    C4 9556   0.730   3.335  12.611 -0.4545 -0.0932 -0.3771
  642TMC3    C5 9557   0.741   3.343  12.469  0.3989 -0.2029  0.8508
  642TMC3    C6 9558   0.835   3.409  12.400  0.9633  0.3979 -0.2826
  642TMC3     C 9559   0.784   3.439  12.821 -0.7144  0.3288  0.4176
  642TMC3     O 9560   0.880   3.427  12.893 -0.6825  0.0839  0.5443
  642TMC3     H 9561   0.972   3.554  12.669 -0.6446  0.3062  0.0427
  642TMC3    H1 9562   0.663   3.276  12.672 -0.5891  2.2765  1.7842
  642TMC3    H2 9563   0.842   3.394  12.293  1.4472  0.2434 -0.2302
  642TMC3    C7 9564   0.651   3.254  12.389  0.0666  0.2071 -0.4265
  642TMC3    C8 9565   1.038   3.537  12.403  0.1277 -0.2832 -0.2847
  642TMC3    O1 9566   0.698   3.208  12.282 -0.0055  0.2965  0.0551
  642TMC3    O2 9567   1.054   3.516  12.284  0.3141  0.4488 -0.1361
  643TMC3    C1 9568   0.244   2.461   0.164  1.2848  0.1784 -0.6946
  643TMC3    C2 9569   0.127   2.471   0.094  0.3720  0.0546  0.4236
  643TMC3    C3 9570   0.131   2.439  17.710  0.2723  0.0855 -0.1386
  643TMC3    C4 9571   0.362   2.430   0.104 -0.1217 -0.4239  0.2880
  643TMC3    C5 9572   0.359   2.410  17.718  0.4908  0.0874 -0.1480
  643TMC3    C6 9573   0.243   2.394  17.650  0.0777 -0.2198  0.1821
  643TMC3     C 9574   0.243   2.501   0.302 -0.2824  0.8448 -0.3602
  643TMC3     O 9575   0.165   2.590   0.344 -0.3128 -0.6102  0.1373
  643TMC3     H 9576   0.040   2.506   0.149  0.6229  0.6405  0.4576
  643TMC3    H1 9577   0.459   2.438   0.152 -0.6838 -0.0001  1.3623
  643TMC3    H2 9578   0.247   2.371  17.544 -1.1266  0.1286  0.0551
  643TMC3    C7 9579   0.487   2.358  17.660  0.1933  0.1290  0.5043
  643TMC3    C8 9580   0.038   2.510  17.625 -1.0088 -0.1457 -0.1227
  643TMC3    O1 9581   0.571   2.322  17.742  0.2285  0.8134  0.4450
  643TMC3    O2 9582   0.030   2.466  17.513  0.2062  0.4138 -0.1201
  644MPD2     C 9583   4.402   3.100   9.603 -0.4275 -0.1959 -0.6718
  644MPD2    C1 9584   4.486   3.179   9.670 -0.6289  0.4454  0.1933
  644MPD2    C2 9585   4.442   3.296   9.723 -0.3328 -0.6404 -0.4247
  644MPD2    C3 9586   4.308   3.331   9.724 -0.2237  0.2006  0.4899
  644MPD2    C4 9587   4.220   3.248   9.662 -0.0263  0.4061  0.9795
  644MPD2    C5 9588   4.269   3.132   9.600 -0.0070 -0.7815  0.0808
  644MPD2     H 9589   4.514   3.360   9.774 -0.8759 -0.2562 -0.1471
  644MPD2    H1 9590   4.112   3.258   9.662 -0.2220 -1.6207 -0.1185
  644MPD2    H2 9591   4.426   3.001   9.567 -0.3689 -0.3781 -0.1352
  644MPD2    H3 9592   4.200   3.059   9.559 -1.1725 -0.3008  1.1668
  644MPD2     N 9593   4.279   3.450   9.792 -0.5343 -0.3795 -0.2677
  644MPD2    H5 9594   4.359   3.509   9.814 -0.8830  0.2951 -0.8370
  644MPD2    N1 9595   4.620   3.147   9.681 -0.2644 -0.3713  0.6491
  644MPD2    H7 9596   4.681   3.210   9.731  0.8314 -1.5188  0.7661
  645TMC3    C1 9597   4.154   3.640   9.865 -0.0419 -0.3038  0.3747
  645TMC3    C2 9598   4.273   3.698   9.914  0.3186  0.1764 -0.6144
  645TMC3    C3 9599   4.261   3.824   9.969 -0.5087 -0.2814 -0.2030
  645TMC3    C4 9600   4.047   3.720   9.844  0.1998 -0.0506  0.3441
  645TMC3    C5 9601   4.045   3.845   9.889 -0.3532 -0.2930 -0.4339
  645TMC3    C6 9602   4.144   3.899   9.962 -0.9750  0.1877 -0.8133
  645TMC3     C 9603   4.158   3.510   9.799 -0.5023 -0.1875 -0.1040
  645TMC3     O 9604   4.046   3.469   9.760  0.0422  0.3504  0.4762
  645TMC3     H 9605   4.357   3.640   9.951  1.6580  1.8026 -1.1210
  645TMC3    H1 9606   3.955   3.674   9.810  0.8700 -1.9056  1.0392
  645TMC3    H2 9607   4.140   4.003   9.989  1.8612  0.6048 -2.0258
  645TMC3    C7 9608   3.965   3.937   9.818 -0.1885  0.9312 -0.2840
  645TMC3    C8 9609   4.322   3.834  10.098 -0.1299 -0.2389  0.3709
  645TMC3    O1 9610   3.904   4.022   9.875  0.1048 -0.5225 -0.0755
  645TMC3    O2 9611   4.444   3.820  10.109 -0.0730  0.1442  0.5346
  646MPD2     C 9612   4.618   2.616  14.182  0.1654 -0.5834  0.7185
  646MPD2    C1 9613   4.551   2.597  14.300 -0.0970 -0.0969 -0.1992
  646MPD2    C2 9614   4.430   2.655  14.317 -0.5965 -0.0019 -0.1823
  646MPD2    C3 9615   4.376   2.748  14.228  0.0686 -0.4320 -0.2760
  646MPD2    C4 9616   4.447   2.772  14.106  0.3696  0.5036 -0.4071
  646MPD2    C5 9617   4.566   2.707  14.091  0.5443 -0.1992  0.1223
  646MPD2     H 9618   4.359   2.633  14.395 -2.0105  3.4637 -0.4972
  646MPD2    H1 9619   4.421   2.833  14.021  1.6816 -0.3698 -1.4277
  646MPD2    H2 9620   4.710   2.566  14.153  0.9144  1.4821 -0.4576
  646MPD2    H3 9621   4.630   2.728  14.006  1.0115 -1.3346  0.1990
  646MPD2     N 9622   4.245   2.787  14.249  0.2152 -0.4773 -0.1197
  646MPD2    H5 9623   4.197   2.736  14.323  1.0180 -0.3642  0.4819
  646MPD2    N1 9624   4.606   2.504  14.397 -0.0069 -0.4894 -0.6581
  646MPD2    H7 9625   4.683   2.446  14.364  1.8083 -0.1599  3.0062
  647TMC3    C1 9626   4.628   2.380  14.598  0.3229  0.5698  0.7225
  647TMC3    C2 9627   4.557   2.307  14.687 -1.3572  0.0697 -0.3943
  647TMC3    C3 9628   4.625   2.215  14.766 -0.0591 -0.9965 -0.1015
  647TMC3    C4 9629   0.020   2.360  14.574 -0.5692  0.0279  0.1579
  647TMC3    C5 9630   0.081   2.265  14.646  0.2574  0.4883 -0.0551
  647TMC3    C6 9631   0.019   2.188  14.742  0.0987 -0.6255 -1.0389
  647TMC3     C 9632   4.551   2.481  14.523  0.0002  0.5684 -0.3319
  647TMC3     O 9633   4.439   2.506  14.567  0.0416 -0.0300  0.2336
  647TMC3     H 9634   4.450   2.321  14.702 -1.7574 -2.0407 -1.2209
  647TMC3    H1 9635   0.077   2.428  14.512  0.4985 -1.9054 -0.9841
  647TMC3    H2 9636   0.070   2.108  14.794  0.4213 -1.1837 -2.2015
  647TMC3    C7 9637   0.222   2.271  14.644 -0.5542  0.7088  0.1582
  647TMC3    C8 9638   4.573   2.187  14.898 -0.5344  0.4466 -0.2345
  647TMC3    O1 9639   0.277   2.350  14.566 -0.1374  0.1697  0.2033
  647TMC3    O2 9640   4.623   2.098  14.959  0.2547 -0.0258  0.3656
  648TMC3    C1 9641   3.671   0.054  16.216 -0.1715 -0.4443 -0.3493
  648TMC3    C2 9642   3.696   4.665  16.170 -1.1071 -0.3865  0.1676
  648TMC3    C3 9643   3.644   4.628  16.049 -0.4221 -1.1356  0.8380
  648TMC3    C4 9644   3.593   0.148  16.144  0.3306 -0.1074  0.9031
  648TMC3    C5 9645   3.557   0.110  16.017  0.4042 -0.0843 -0.2986
  648TMC3    C6 9646   3.584   4.723  15.968 -0.4326  0.5677 -0.1938
  648TMC3     C 9647   3.682   0.070  16.357  0.2716  0.0235  0.3244
  648TMC3     O 9648   3.719   4.715  16.428 -0.1680  0.4000  0.2373
  648TMC3     H 9649   3.745   4.583  16.221  0.0457  0.7649  0.8999
  648TMC3    H1 9650   3.581   0.254  16.162 -0.8790 -0.2436  0.9135
  648TMC3    H2 9651   3.550   4.695  15.869  0.6370 -2.4718  0.3024
  648TMC3    C7 9652   3.510   0.210  15.920 -0.0892 -0.3763 -0.6225
  648TMC3    C8 9653   3.640   4.494  15.996  0.0313  0.3679 -1.2856
  648TMC3    O1 9654   3.531   0.177  15.805  0.3392 -0.0254 -0.4351
  648TMC3    O2 9655   3.533   4.450  15.951  0.4097  0.5913 -0.2313
  649TMC3    C1 9656   3.017   1.044  13.052  0.0639 -0.0264 -0.1709
  649TMC3    C2 9657   3.113   0.990  13.139 -0.1908 -0.0642  0.6730
  649TMC3    C3 9658   3.070   0.893  13.226  0.3733 -0.4760 -0.2393
  649TMC3    C4 9659   2.888   1.003  13.049 -0.0407  0.2878 -0.4326
  649TMC3    C5 9660   2.850   0.911  13.145 -0.9365  0.0291  0.0082
  649TMC3    C6 9661   2.941   0.850  13.224  0.3192  0.1643  0.3481
  649TMC3     C 9662   3.056   1.149  12.960  0.3813  0.3123 -0.9160
  649TMC3     O 9663   2.963   1.197  12.891  0.3075 -0.3210  0.3673
  649TMC3     H 9664   3.217   1.021  13.139  0.1070 -1.0544 -0.6038
  649TMC3    H1 9665   2.818   1.060  12.988  0.0131  1.7426  0.8389
  649TMC3    H2 9666   2.908   0.774  13.293 -0.2695 -0.3792 -0.5291
  649TMC3    C7 9667   2.713   0.920  13.192 -0.8471 -0.3359 -1.0465
  649TMC3    C8 9668   3.149   0.849  13.337  0.1071  1.0569  0.3974
  649TMC3    O1 9669   2.648   1.027  13.177  0.1486  0.3812 -0.5725
  649TMC3    O2 9670   3.108   0.751  13.398 -0.6238  0.1320  0.0659
  650TMC3    C1 9671   0.244   2.749  12.817 -0.0925  1.2377  0.2057
  650TMC3    C2 9672   0.191   2.870  12.853 -0.5545 -0.1190 -0.4699
  650TMC3    C3 9673   0.064   2.905  12.807 -0.6862 -0.2559 -0.2707
  650TMC3    C4 9674   0.187   2.669  12.718 -0.5792  0.3850  1.0605
  650TMC3    C5 9675   0.066   2.712  12.665 -0.0589 -0.0095 -0.3244
  650TMC3    C6 9676   0.010   2.827  12.706  0.3157 -0.1028 -0.6431
  650TMC3     C 9677   0.373   2.721  12.870 -0.2981  0.6930 -0.7244
  650TMC3     O 9678   0.424   2.814  12.937  0.0005  0.2385 -0.2066
  650TMC3     H 9679   0.231   2.941  12.924 -0.4473  0.5799 -1.2329
  650TMC3    H1 9680   0.231   2.585  12.665  0.7083  0.8652  1.3711
  650TMC3    H2 9681   4.643   2.838  12.682  0.1534 -0.8958 -0.2991
  650TMC3    C7 9682   0.015   2.637  12.553 -0.0551 -0.1188 -0.2067
  650TMC3    C8 9683   0.029   3.038  12.832  1.0543 -0.4484 -0.4402
  650TMC3    O1 9684   0.063   2.527  12.530 -0.1773 -0.5889 -0.1490
  650TMC3    O2 9685   0.070   3.095  12.937 -0.4036 -0.0050  0.1058
  651MPD2     C 9686   3.995   0.161  10.450 -1.0889 -0.2256 -0.9155
  651MPD2    C1 9687   3.984   0.276  10.527  0.6399 -0.2304 -0.2294
  651MPD2    C2 9688   4.093   0.347  10.540  0.8710 -0.4700  0.2481
  651MPD2    C3 9689   4.211   0.317  10.479  0.5972  0.2221  0.3738
  651MPD2    C4 9690   4.220   0.201  10.394 -0.0582  0.1512 -0.5842
  651MPD2    C5 9691   4.108   0.125  10.380 -0.1713 -0.0174 -0.0299
  651MPD2     H 9692   4.085   0.442  10.590 -1.0915  0.1104 -1.1661
  651MPD2    H1 9693   4.312   0.158  10.356  0.2433 -0.9494  1.4099
  651MPD2    H2 9694   3.917   0.086  10.446 -0.8970 -0.2847 -4.1751
  651MPD2    H3 9695   4.106   0.038  10.316  1.7920 -1.0216  1.2836
  651MPD2     N 9696   4.320   0.407  10.502 -0.4843 -0.1287 -0.6234
  651MPD2    H5 9697   4.302   0.480  10.571  0.4495 -0.0051 -0.5107
  651MPD2    N1 9698   3.866   0.315  10.591 -0.3634  0.3298  0.0196
  651MPD2    H7 9699   3.873   0.389  10.660 -0.5006  1.5640 -1.2996
  652TMC3    C1 9700   4.705   0.649  10.476 -0.4193  0.0299  0.3541
  652TMC3    C2 9701   4.645   0.527  10.456 -0.1159 -0.2143 -0.3486
  652TMC3    C3 9702   4.514   0.517  10.470 -0.1309 -0.3368  0.4033
  652TMC3    C4 9703   4.644   0.758  10.537  0.1999  0.4140  0.1570
  652TMC3    C5 9704   4.511   0.751  10.530 -0.5714  0.1937  0.3667
  652TMC3    C6 9705   4.443   0.637  10.493  0.1948  0.7482 -0.2116
  652TMC3     C 9706   0.107   0.634  10.492  0.1381  0.2423 -1.3699
  652TMC3     O 9707   0.144   0.527  10.545  0.1554  0.0596 -1.0248
  652TMC3     H 9708   4.698   0.453  10.397 -1.0866 -1.1428 -0.0491
  652TMC3    H1 9709   4.695   0.840  10.586  0.6450  0.8179 -0.9954
  652TMC3    H2 9710   4.336   0.649  10.479  0.3152 -0.1614 -1.8708
  652TMC3    C7 9711   4.428   0.870  10.549 -0.2952  0.3039  0.3414
  652TMC3    C8 9712   4.441   0.395  10.439  0.2072  0.1819  0.3161
  652TMC3    O1 9713   4.314   0.854  10.588  0.4019  0.4695  0.2764
  652TMC3    O2 9714   4.496   0.297  10.389 -0.3429  0.8193 -0.1634
  653MPD2     C 9715   2.343   0.228  17.604  0.2027 -0.4419 -0.8448
  653MPD2    C1 9716   2.313   0.285  17.482 -0.1065  0.4560 -0.0252
  653MPD2    C2 9717   2.277   0.204  17.381  0.1816 -0.8950  0.2127
  653MPD2    C3 9718   2.267   0.065  17.400 -0.2298  0.0742  0.2304
  653MPD2    C4 9719   2.287   0.009  17.524  0.0891  0.1967  0.4563
  653MPD2    C5 9720   2.320   0.095  17.624 -0.2496 -0.2151 -0.2926
  653MPD2     H 9721   2.252   0.249  17.285 -2.8750 -1.2366  0.8411
  653MPD2    H1 9722   2.269   4.642  17.542 -0.2428  0.1228 -0.2965
  653MPD2    H2 9723   2.375   0.286  17.690 -2.1135  0.6050 -0.6935
  653MPD2    H3 9724   2.332   0.058  17.725  2.2110  0.3277 -0.3906
  653MPD2     N 9725   2.242   4.725  17.283 -0.4574 -0.1725 -0.0127
  653MPD2    H5 9726   2.230   0.028  17.191  1.2176  2.7509  1.0644
  653MPD2    N1 9727   2.322   0.425  17.453  0.2795  0.2819  0.8118
  653MPD2    H7 9728   2.333   0.455  17.356  1.2141  1.0813  1.1608
  654TMC3    C1 9729   2.166   4.543  17.155  0.0858 -0.6714 -0.5091
  654TMC3    C2 9730   2.089   4.619  17.076 -0.7211 -0.4208 -0.1287
  654TMC3    C3 9731   2.080   4.591  16.940 -0.2815  0.1090 -0.3141
  654TMC3    C4 9732   2.245   4.443  17.097 -0.3442 -0.1337  0.0710
  654TMC3    C5 9733   2.225   4.408  16.965  0.6366  0.3779  0.1497
  654TMC3    C6 9734   2.134   4.476  16.885 -0.4006  0.1264 -0.3576
  654TMC3     C 9735   2.213   4.588  17.284  0.6784  0.6776  0.1550
  654TMC3     O 9736   2.240   4.501  17.369  0.3315  0.4856  0.1325
  654TMC3     H 9737   2.025   4.696  17.117  0.4625  0.5423 -0.1004
  654TMC3    H1 9738   2.324   4.401  17.159 -0.6102  0.3623  0.7411
  654TMC3    H2 9739   2.097   4.433  16.792 -2.5113  4.2900 -1.4583
  654TMC3    C7 9740   2.320   4.321  16.898  0.6310 -0.1551 -0.7641
  654TMC3    C8 9741   1.976   4.663  16.872 -0.0250  0.3238 -0.4129
  654TMC3    O1 9742   2.319   4.319  16.777  0.8167  0.2040 -0.0017
  654TMC3    O2 9743   1.913   0.012  16.935 -0.4149 -0.1705 -0.0902
  655MPD2     C 9744   3.964   4.734  15.811 -0.8628  0.7975  0.0138
  655MPD2    C1 9745   3.940   0.099  15.714 -0.6484  0.8193 -0.0550
  655MPD2    C2 9746   3.939   0.072  15.584 -0.3464  0.1652 -0.6525
  655MPD2    C3 9747   3.967   4.681  15.540 -0.2759 -0.1683 -0.3370
  655MPD2    C4 9748   4.007   4.582  15.634  0.3847  0.0275  0.3541
  655MPD2    C5 9749   4.007   4.610  15.764  0.4042  0.5503 -0.1149
  655MPD2     H 9750   3.919   0.158  15.521  1.4709  0.6339 -0.5839
  655MPD2    H1 9751   4.046   4.484  15.611  0.7099  0.4035 -0.6917
  655MPD2    H2 9752   3.978   0.012  15.918  1.7366 -0.7875 -0.1029
  655MPD2    H3 9753   4.026   4.531  15.835 -0.5099 -1.3063 -1.9676
  655MPD2     N 9754   3.956   4.651  15.398  0.7435  0.3063 -0.0657
  655MPD2    H5 9755   3.938   4.553  15.381 -0.4572  1.1093 -3.3413
  655MPD2    N1 9756   3.908   0.230  15.755 -0.0585  0.3673  0.0096
  655MPD2    H7 9757   3.878   0.299  15.686 -0.6810  1.4117  1.3296
  656TMC3    C1 9758   3.871   0.420  15.880 -0.1567 -0.7686  0.6793
  656TMC3    C2 9759   3.816   0.460  15.999 -0.4108  0.4263 -0.4553
  656TMC3    C3 9760   3.720   0.556  15.999  0.4034  0.0206  0.7132
  656TMC3    C4 9761   3.840   0.483  15.759  0.6715 -0.2300  0.3583
  656TMC3    C5 9762   3.744   0.577  15.760 -0.7933  0.7353  0.7390
  656TMC3    C6 9763   3.678   0.609  15.872  1.1659 -0.3844 -0.5325
  656TMC3     C 9764   3.922   0.284  15.880 -0.4440  0.1548 -0.1884
  656TMC3     O 9765   3.955   0.230  15.985 -0.0719  0.4770 -0.3026
  656TMC3     H 9766   3.845   0.412  16.092  2.1565 -2.7434 -2.9026
  656TMC3    H1 9767   3.907   0.485  15.673 -0.5927  1.7522 -0.5712
  656TMC3    H2 9768   3.582   0.658  15.868  1.8049  0.8429 -0.6526
  656TMC3    C7 9769   3.697   0.630  15.630 -0.0030  0.1756 -0.7942
  656TMC3    C8 9770   3.624   0.557  16.110 -0.1559  0.2509  0.1762
  656TMC3    O1 9771   3.745   0.576  15.530  0.1217 -0.5697 -0.3615
  656TMC3    O2 9772   3.627   0.469  16.191 -0.1294 -0.0431 -0.0017
  657TMC3    C1 9773   2.811   4.231  14.968 -0.1945  0.4701  0.2528
  657TMC3    C2 9774   2.858   4.264  15.098  0.1368  0.1169  0.0673
  657TMC3    C3 9775   2.798   4.368  15.171 -0.6691  0.4129 -0.1651
  657TMC3    C4 9776   2.732   4.327  14.908  0.1564  0.3469 -0.5312
  657TMC3    C5 9777   2.687   4.432  14.975  0.3057  0.5595 -0.3574
  657TMC3    C6 9778   2.698   4.443  15.109 -0.0393 -0.3030 -0.0369
  657TMC3     C 9779   2.889   4.146  14.884  0.3104  0.5016 -0.2521
  657TMC3     O 9780   2.856   4.149  14.767 -0.1940 -0.1249 -0.1443
  657TMC3     H 9781   2.948   4.219  15.140  0.4650  0.2677 -0.4770
  657TMC3    H1 9782   2.722   4.319  14.801 -0.9439  0.3954 -0.4330
  657TMC3    H2 9783   2.643   4.519  15.164  1.2347 -0.1272  1.0157
  657TMC3    C7 9784   2.613   4.527  14.890  0.2765  0.2225  0.7906
  657TMC3    C8 9785   2.813   4.390  15.312 -0.6361 -0.5064  1.3362
  657TMC3    O1 9786   2.583   4.490  14.778  0.3145  0.1438 -0.1969
  657TMC3    O2 9787   2.741   4.474  15.369  0.7896 -0.0438  0.2095
  658MPD2     C 9788   4.168   0.322  14.761 -0.1131  0.3048  0.5353
  658MPD2    C1 9789   4.040   0.278  14.756 -0.3163  0.4754  0.0919
  658MPD2    C2 9790   3.960   0.324  14.651  0.3409  0.5504  0.4304
  658MPD2    C3 9791   4.005   0.410  14.556 -0.5756 -0.5097  0.3239
  658MPD2    C4 9792   4.134   0.465  14.567 -0.6596  0.2935 -0.0150
  658MPD2    C5 9793   4.205   0.413  14.667  0.0637 -0.0192  0.2630
  658MPD2     H 9794   3.854   0.304  14.644  0.7070 -1.7085  1.2148
  658MPD2    H1 9795   4.181   0.542  14.507  1.2763 -1.6461 -0.9986
  658MPD2    H2 9796   4.245   0.292  14.832  1.1062 -0.0260 -0.9252
  658MPD2    H3 9797   4.306   0.452  14.676 -0.7870  1.8316  1.8979
  658MPD2     N 9798   3.922   0.443  14.446 -0.3277 -0.2498  0.0530
  658MPD2    H5 9799   3.836   0.389  14.440 -0.0421 -0.9512  2.1432
  658MPD2    N1 9800   4.001   0.189  14.856 -0.0034  0.0952  0.1207
  658MPD2    H7 9801   4.075   0.155  14.917 -0.9479 -0.3291  1.0337
  659TMC3    C1 9802   3.851   0.052  14.962  0.5362  0.1983 -0.7744
  659TMC3    C2 9803   3.940   0.037  15.065 -0.0292  0.2404 -0.0234
  659TMC3    C3 9804   3.902   4.699  15.169  0.4964 -0.0376 -0.3277
  659TMC3    C4 9805   3.728   4.734  14.962  0.1689  0.1821  0.1770
  659TMC3    C5 9806   3.691   4.675  15.076 -0.9722 -0.3887 -0.2036
  659TMC3    C6 9807   3.775   4.639  15.179 -0.2154  0.2060 -0.1370
  659TMC3     C 9808   3.871   0.146  14.862  0.4836 -0.1541 -0.1725
  659TMC3     O 9809   3.775   0.177  14.793 -0.1002 -0.4233  0.5648
  659TMC3     H 9810   4.030   0.096  15.068 -0.0748  0.3314 -0.3767
  659TMC3    H1 9811   3.653   0.030  14.890 -0.0544 -0.1543  0.2530
  659TMC3    H2 9812   3.753   4.585  15.271  0.4515  0.6960  0.3121
  659TMC3    C7 9813   3.553   4.658  15.118 -0.2829  0.3618 -0.2847
  659TMC3    C8 9814   3.968   0.002  15.295  0.3276 -0.1265 -0.5093
  659TMC3    O1 9815   3.530   4.621  15.231 -0.4703 -0.0553  0.2281
  659TMC3    O2 9816   4.001   0.118  15.300  0.4564  0.2586  0.4286
  660MPD2     C 9817   1.871   3.898  12.999 -0.8797 -0.1151 -0.2858
  660MPD2    C1 9818   1.730   3.903  13.012 -0.6671 -0.9489  0.3980
  660MPD2    C2 9819   1.676   3.827  13.117 -1.1460 -0.2753  0.4862
  660MPD2    C3 9820   1.759   3.749  13.200 -0.8424  0.1527  0.7992
  660MPD2    C4 9821   1.895   3.755  13.184  0.2662 -0.3841  0.1341
  660MPD2    C5 9822   1.950   3.832  13.087 -0.1449  0.2137 -0.1146
  660MPD2     H 9823   1.567   3.825  13.122 -1.2127  0.8810 -0.6087
  660MPD2    H1 9824   1.956   3.702  13.256  0.1449 -0.4696  0.1746
  660MPD2    H2 9825   1.916   3.949  12.915 -2.4157 -0.5354 -1.3721
  660MPD2    H3 9826   2.057   3.846  13.083  0.0284 -1.3424 -1.0089
  660MPD2     N 9827   1.709   3.666  13.299 -0.2712 -0.0092 -0.1422
  660MPD2    H5 9828   1.780   3.620  13.356 -0.1937  0.9277  0.5227
  660MPD2    N1 9829   1.665   3.975  12.909  0.4417 -0.2631  0.2439
  660MPD2    H7 9830   1.718   4.016  12.833 -1.8816  2.5608  0.1269
  661TMC3    C1 9831   1.492   4.091  12.799  0.8916 -0.2655 -0.5123
  661TMC3    C2 9832   1.586   4.115  12.700 -0.3597  0.8961  0.5700
  661TMC3    C3 9833   1.536   4.143  12.569 -0.5010  0.6237  0.3344
  661TMC3    C4 9834   1.361   4.106  12.771  0.1052  1.0822  0.4557
  661TMC3    C5 9835   1.319   4.120  12.645 -0.2462  0.3528 -0.1151
  661TMC3    C6 9836   1.401   4.149  12.541  0.0484 -0.4140 -0.5345
  661TMC3     C 9837   1.530   4.003  12.905  0.1329 -0.6524  0.5656
  661TMC3     O 9838   1.435   3.956  12.972  0.8064  0.2097 -0.1851
  661TMC3     H 9839   1.692   4.099  12.714 -0.8334  0.3380  3.4904
  661TMC3    H1 9840   1.288   4.084  12.847  0.6748 -1.0715  0.3610
  661TMC3    H2 9841   1.368   4.165  12.439  1.9715 -0.0142 -1.0782
  661TMC3    C7 9842   1.172   4.097  12.619 -0.1141 -1.4180 -0.3848
  661TMC3    C8 9843   1.624   4.155  12.456 -0.3526 -0.3417 -0.8694
  661TMC3    O1 9844   1.108   4.098  12.723 -0.0092 -0.7579 -0.0500
  661TMC3    O2 9845   1.712   4.073  12.463 -0.1118  0.3059  0.2948
  662MPD2     C 9846   2.007   3.547  16.911  0.4432 -0.0813  0.4178
  662MPD2    C1 9847   1.975   3.459  17.011  1.1057 -0.6093  0.1418
  662MPD2    C2 9848   1.934   3.513  17.137 -0.7145  0.3435  0.7131
  662MPD2    C3 9849   1.915   3.645  17.163 -0.1457  0.0818  0.5100
  662MPD2    C4 9850   1.928   3.727  17.057 -0.5724 -0.0415 -0.1615
  662MPD2    C5 9851   1.982   3.678  16.940  0.2942 -0.1140  0.1304
  662MPD2     H 9852   1.936   3.440  17.217 -0.4358 -2.5835 -1.9856
  662MPD2    H1 9853   1.912   3.835  17.059 -0.5083 -0.0639  1.5622
  662MPD2    H2 9854   2.040   3.521  16.811 -0.9728  0.3840 -0.1657
  662MPD2    H3 9855   2.001   3.754  16.865  2.1297 -0.4727  0.2530
  662MPD2     N 9856   1.865   3.688  17.284  0.3351  0.1156 -0.3598
  662MPD2    H5 9857   1.868   3.788  17.302  0.6147  0.2649 -1.2818
  662MPD2    N1 9858   1.996   3.318  17.001 -0.5320  0.1273 -0.3765
  662MPD2    H7 9859   1.965   3.259  17.077  1.9033  1.2586  1.4761
  663TMC3    C1 9860   2.076   3.120  16.922 -0.0909  0.1326  0.2672
  663TMC3    C2 9861   2.157   3.095  17.029 -0.3945  0.2638  0.7564
  663TMC3    C3 9862   2.261   3.000  17.012  0.2000  0.0225 -0.8692
  663TMC3    C4 9863   2.075   3.028  16.820 -0.3452 -0.0471 -0.0866
  663TMC3    C5 9864   2.168   2.929  16.815  0.0026  0.3403  0.4848
  663TMC3    C6 9865   2.255   2.905  16.919  0.2666  0.6469  0.0492
  663TMC3     C 9866   2.049   3.251  16.892 -0.1609 -0.2156 -0.9122
  663TMC3     O 9867   2.091   3.290  16.783 -0.3680 -0.0281  0.6138
  663TMC3     H 9868   2.181   3.172  17.101  0.6143 -0.1626  0.8683
  663TMC3    H1 9869   2.005   3.040  16.738  1.7700  0.1292 -1.8535
  663TMC3    H2 9870   2.345   2.845  16.908  0.5245  0.8393  1.1414
  663TMC3    C7 9871   2.159   2.814  16.728  1.1252 -0.1069 -1.1561
  663TMC3    C8 9872   2.296   2.937  17.139  0.0682  0.1405  0.6542
  663TMC3    O1 9873   2.097   2.831  16.623  0.0765 -0.3270 -0.2948
  663TMC3    O2 9874   2.367   2.833  17.126 -0.4430  0.1817 -0.0022
  664MPD2     C 9875   0.184   1.687  17.504 -0.2075  0.7729 -0.2305
  664MPD2    C1 9876   0.285   1.726  17.585  0.5328 -0.5369 -0.3427
  664MPD2    C2 9877   0.267   1.706  17.717 -0.8625  0.0972 -0.2642
  664MPD2    C3 9878   0.146   1.666   0.027 -0.3658 -0.2292  0.0297
  664MPD2    C4 9879   0.043   1.629  17.694  0.7044 -0.1767  0.0669
  664MPD2    C5 9880   0.071   1.628  17.553 -0.0436  0.3621  0.2750
  664MPD2     H 9881   0.345   1.737   0.035 -2.8327  1.7872  1.2083
  664MPD2    H1 9882   4.685   1.598  17.734 -0.0050 -1.0773 -2.3536
  664MPD2    H2 9883   0.192   1.680  17.396 -0.3561  0.4216 -0.2207
  664MPD2    H3 9884   4.731   1.597  17.485 -1.0237 -1.4096  2.2395
  664MPD2     N 9885   0.143   1.662   0.165 -0.4755  0.2465  0.1318
  664MPD2    H5 9886   0.228   1.696   0.209 -0.0622 -0.5433 -0.0630
  664MPD2    N1 9887   0.421   1.749  17.545  0.4524  0.0844  0.2906
  664MPD2    H7 9888   0.488   1.762  17.620  4.0181 -1.0743 -2.7089
  665TMC3    C1 9889   0.063   1.663   0.384 -0.1550  0.0292 -0.0166
  665TMC3    C2 9890   4.709   1.699   0.482 -0.3794  0.6117 -0.0525
  665TMC3    C3 9891   0.017   1.743   0.602  0.2128  0.8356 -0.3915
  665TMC3    C4 9892   0.202   1.669   0.416  0.0533 -0.4526  0.5839
  665TMC3    C5 9893   0.239   1.711   0.538 -0.1482 -0.0591 -0.2038
  665TMC3    C6 9894   0.148   1.750   0.641  0.0351  0.2475  0.4021
  665TMC3     C 9895   0.031   1.642   0.251  0.7200 -0.2437 -0.3917
  665TMC3     O 9896   4.654   1.632   0.217 -0.3198 -0.6599  0.0829
  665TMC3     H 9897   4.602   1.689   0.472 -0.0863 -0.8030 -1.8564
  665TMC3    H1 9898   0.265   1.607   0.354  0.1163  0.7268 -0.5260
  665TMC3    H2 9899   0.168   1.789   0.740 -3.2468  0.4653  0.9678
  665TMC3    C7 9900   0.385   1.734   0.553  0.2909  0.0844 -0.2964
  665TMC3    C8 9901   4.666   1.728   0.720 -0.5701  1.0288  0.3829
  665TMC3    O1 9902   0.451   1.724   0.452  0.5479  0.3636  0.2800
  665TMC3    O2 9903   4.712   1.688   0.827 -0.0079 -0.1115 -0.2871
  666TMC3    C1 9904   4.157   2.306   9.774  0.1622 -0.3172  0.5275
  666TMC3    C2 9905   4.291   2.275   9.767  0.1568  0.7114 -0.0785
  666TMC3    C3 9906   4.376   2.363   9.830 -0.1546 -0.3947 -0.0375
  666TMC3    C4 9907   4.106   2.417   9.830  0.1341  0.3265  0.5536
  666TMC3    C5 9908   4.195   2.491   9.902  0.4222 -0.8289 -0.1239
  666TMC3    C6 9909   4.334   2.476   9.895  0.7956 -0.5094 -0.4286
  666TMC3     C 9910   4.088   2.191   9.813  0.1961  0.1919  0.2957
  666TMC3     O 9911   4.107   2.087   9.744  0.5055 -0.2140  0.1936
  666TMC3     H 9912   4.323   2.177   9.735  1.9082  1.7372 -1.5193
  666TMC3    H1 9913   3.998   2.418   9.833  0.0826 -2.6646 -0.2809
  666TMC3    H2 9914   4.401   2.516   9.971  0.4861  1.6233 -1.2727
  666TMC3    C7 9915   4.137   2.550  10.027 -0.1971  0.3041 -0.1009
  666TMC3    C8 9916   4.498   2.306   9.880 -0.5732  0.1795 -0.2119
  666TMC3    O1 9917   4.020   2.516  10.047  0.0051 -0.3914  0.4133
  666TMC3    O2 9918   4.543   2.334   9.986  0.9133 -0.8202 -0.5966
  667MPD2     C 9919   1.408   1.380  14.979  0.1217  0.3036  0.2719
  667MPD2    C1 9920   1.303   1.448  15.038  0.2420 -0.3499 -0.2700
  667MPD2    C2 9921   1.171   1.400  15.033 -0.0911  0.3013 -0.4829
  667MPD2    C3 9922   1.146   1.276  14.965 -0.3057 -0.4236 -0.0280
  667MPD2    C4 9923   1.256   1.194  14.927  0.1273  0.0945 -0.2252
  667MPD2    C5 9924   1.380   1.259  14.923  0.1071 -0.3605 -0.5502
  667MPD2     H 9925   1.092   1.465  15.067 -1.0321 -0.8085 -0.5796
  667MPD2    H1 9926   1.262   1.090  14.898 -1.9223 -0.4546  1.2974
  667MPD2    H2 9927   1.512   1.411  14.976 -0.5830  2.7616  1.0390
  667MPD2    H3 9928   1.458   1.191  14.890 -0.6772 -1.3991 -0.2779
  667MPD2     N 9929   1.019   1.213  14.968 -0.3617  0.6871  0.0766
  667MPD2    H5 9930   1.004   1.123  14.924  1.2478  0.9036 -0.9074
  667MPD2    N1 9931   1.315   1.581  15.089 -0.4805 -0.6777  0.0479
  667MPD2    H7 9932   1.229   1.632  15.105 -0.1240  0.2423 -0.9713
  668TMC3    C1 9933   1.414   1.781  15.175  0.3305 -0.2929  0.5324
  668TMC3    C2 9934   1.508   1.881  15.170  0.6327 -0.3845  0.4739
  668TMC3    C3 9935   1.490   1.980  15.264 -0.1665  0.0831  0.0363
  668TMC3    C4 9936   1.311   1.778  15.272  0.3480 -0.2095 -0.2818
  668TMC3    C5 9937   1.303   1.875  15.366 -0.2118  0.1302  0.6195
  668TMC3    C6 9938   1.389   1.981  15.362  0.2272 -0.2913  0.3369
  668TMC3     C 9939   1.437   1.650  15.118 -0.8248  0.5202  0.1617
  668TMC3     O 9940   1.545   1.597  15.107  0.2227  0.2929  0.1265
  668TMC3     H 9941   1.580   1.892  15.090 -0.4127  2.5661 -0.0504
  668TMC3    H1 9942   1.244   1.694  15.287 -0.6668  0.6086 -0.1625
  668TMC3    H2 9943   1.385   2.063  15.434 -0.6346  0.8303 -0.9957
  668TMC3    C7 9944   1.204   1.879  15.472  0.9497 -0.0927  0.1954
  668TMC3    C8 9945   1.566   2.108  15.260 -0.0685 -0.1522  0.0352
  668TMC3    O1 9946   1.240   1.918  15.580  0.2828 -0.0836 -0.1861
  668TMC3    O2 9947   1.576   2.165  15.369  0.3030 -0.2608 -0.0198
  669TMC3    C1 9948   4.290   1.571  14.827 -0.1883 -0.6811 -0.7211
  669TMC3    C2 9949   4.167   1.600  14.765 -0.1514 -0.0580 -0.8515
  669TMC3    C3 9950   4.170   1.700  14.675  0.9832  0.5093 -0.5025
  669TMC3    C4 9951   4.405   1.638  14.815 -0.3374  0.2052  0.2039
  669TMC3    C5 9952   4.404   1.735  14.721  0.2355 -0.1863  0.3882
  669TMC3    C6 9953   4.285   1.766  14.647  0.3176  0.7315 -0.1474
  669TMC3     C 9954   4.294   1.450  14.912 -0.3626  0.3737 -0.4378
  669TMC3     O 9955   4.191   1.394  14.947 -0.1039 -0.4581 -0.1540
  669TMC3     H 9956   4.077   1.546  14.793  0.3987 -0.4181  0.2198
  669TMC3    H1 9957   4.484   1.635  14.890  0.6477 -1.6015 -0.9171
  669TMC3    H2 9958   4.286   1.842  14.570  1.4934  1.6860  0.8196
  669TMC3    C7 9959   4.528   1.766  14.660 -0.3646 -0.6509  0.8184
  669TMC3    C8 9960   4.053   1.713  14.590 -0.1443  0.0279  0.4606
  669TMC3    O1 9961   4.547   1.782  14.544  0.2259  0.8794  0.2932
  669TMC3    O2 9962   3.976   1.619  14.588  0.1740  0.1076  1.4179
  670MPD2     C 9963   2.275   4.053  13.890 -0.3236 -0.1163  0.8409
  670MPD2    C1 9964   2.224   3.927  13.870 -0.5977  0.0268 -0.5282
  670MPD2    C2 9965   2.200   3.848  13.981 -0.0463  0.1959  0.3177
  670MPD2    C3 9966   2.227   3.889  14.108 -0.0868 -0.2913  0.3204
  670MPD2    C4 9967   2.273   4.014  14.127 -0.0609 -0.2880 -0.2343
  670MPD2    C5 9968   2.300   4.091  14.019 -0.6958  0.2320 -0.2168
  670MPD2     H 9969   2.170   3.744  13.971  1.5515 -0.2570  0.2408
  670MPD2    H1 9970   2.283   4.068  14.221 -0.5553 -0.8113  0.1170
  670MPD2    H2 9971   2.300   4.124  13.811  1.5468 -1.3744  0.3000
  670MPD2    H3 9972   2.328   4.195  14.035 -0.1804  0.2521 -1.2363
  670MPD2     N 9973   2.202   3.804  14.222  0.5101  0.1570  0.4698
  670MPD2    H5 9974   2.130   3.734  14.213  0.2289  0.2077  2.3139
  670MPD2    N1 9975   2.198   3.870  13.742  0.3636  0.2914 -1.1099
  670MPD2    H7 9976   2.155   3.778  13.743 -1.1232  1.0032  0.0095
  671TMC3    C1 9977   2.219   3.743  14.453 -0.3075 -0.3549 -0.8381
  671TMC3    C2 9978   2.310   3.729  14.556  0.5286 -0.4058 -0.1195
  671TMC3    C3 9979   2.260   3.676  14.678 -0.2243  0.3640  0.4093
  671TMC3    C4 9980   2.099   3.683  14.452  0.1481 -0.2323 -0.3620
  671TMC3    C5 9981   2.065   3.613  14.568 -0.2034  1.0287 -0.4680
  671TMC3    C6 9982   2.148   3.602  14.678 -0.4384 -0.3177 -0.3943
  671TMC3     C 9983   2.262   3.829  14.346 -0.6325 -0.0496 -0.3004
  671TMC3     O 9984   2.369   3.888  14.349  0.1506 -0.1388  0.0352
  671TMC3     H 9985   2.399   3.790  14.551 -0.7299  1.3743 -0.9829
  671TMC3    H1 9986   2.030   3.702  14.371 -0.5250  1.1031  0.5326
  671TMC3    H2 9987   2.129   3.535  14.762 -2.8037  1.7595  0.7327
  671TMC3    C7 9988   1.966   3.510  14.541 -0.8808 -0.8452 -0.0133
  671TMC3    C8 9989   2.360   3.642  14.777 -0.6362  0.0214 -0.2994
  671TMC3    O1 9990   1.922   3.524  14.430 -0.2846  0.1722 -0.6994
  671TMC3    O2 9991   2.338   3.626  14.897 -0.5742  0.0681 -0.1158
  672MPD2     C 9992   2.388   0.455   0.754 -0.2841  1.4818 -0.1180
  672MPD2    C1 9993   2.478   0.369   0.817 -0.6815 -0.1384  0.1066
  672MPD2    C2 9994   2.544   0.415   0.930  0.1937 -0.1371  0.5748
  672MPD2    C3 9995   2.531   0.543   0.978 -0.7106 -0.0047 -0.5896
  672MPD2    C4 9996   2.455   0.630   0.909  0.2289 -0.0263 -0.4581
  672MPD2    C5 9997   2.387   0.586   0.796 -0.3869 -0.5714 -0.3155
  672MPD2     H 9998   2.608   0.346   0.984 -0.2187  1.4078  3.0321
  672MPD2    H1 9999   2.448   0.734   0.939 -0.0182 -0.6698  1.6823
  672MPD2    H210000   2.323   0.427   0.672 -1.0295  0.0650  0.9536
  672MPD2    H310001   2.326   0.661   0.746 -1.2635 -1.1781 -0.1527
  672MPD2     N10002   2.603   0.595   1.089 -0.2601  0.1923  0.2634
  672MPD2    H510003   2.594   0.695   1.101 -0.1369  0.0820  1.2151
  672MPD2    N110004   2.489   0.232   0.778 -0.3270  0.3595  0.1318
  672MPD2    H710005   2.548   0.176   0.838  0.8586  0.1675 -1.2025
  673TMC3    C110006   2.474   0.036   0.650  0.1027  0.6670 -0.1128
  673TMC3    C210007   2.474   4.690   0.754 -0.4635 -0.2312 -0.0913
  673TMC3    C310008   2.452   4.559   0.725  0.0626  0.7641 -0.5299
  673TMC3    C410009   2.444   4.734   0.524 -0.2769 -0.0809 -0.8075
  673TMC3    C510010   2.419   4.600   0.500 -1.3842  0.6925  0.1788
  673TMC3    C610011   2.419   4.516   0.604  0.1455 -0.0360  0.5356
  673TMC3     C10012   2.421   0.170   0.676  0.2867  0.5276  0.3827
  673TMC3     O10013   2.323   0.209   0.609  0.1716 -0.2426 -0.1671
  673TMC3     H10014   2.504   4.725   0.853 -2.3737 -1.6080  0.9799
  673TMC3    H110015   2.422   0.067   0.445  2.2131  0.7220 -0.7723
  673TMC3    H210016   2.384   4.414   0.591  0.9074 -0.4059  1.3996
  673TMC3    C710017   2.351   4.564   0.378 -0.4363 -0.3365  0.2424
  673TMC3    C810018   2.494   4.471   0.826 -0.1052 -0.3943  0.4184
  673TMC3    O110019   2.386   4.467   0.313 -0.2734  0.1795 -0.1171
  673TMC3    O210020   2.426   4.369   0.836  0.1773 -0.2223 -0.8524
  674MPD2     C10021   2.347   3.646  17.138 -0.0551  0.0399  0.0282
  674MPD2    C110022   2.281   3.626  17.261  0.4046  0.1282 -0.2198
  674MPD2    C210023   2.227   3.738  17.332 -0.4535 -0.7035 -0.4069
  674MPD2    C310024   2.236   3.864  17.273  0.6534 -0.4493 -0.5361
  674MPD2    C410025   2.295   3.877  17.151  0.0481 -0.6317  0.4142
  674MPD2    C510026   2.342   3.771  17.081 -0.0230  0.1490  0.1038
  674MPD2     H10027   2.174   3.726  17.425 -2.4749 -2.1691 -1.7351
  674MPD2    H110028   2.306   3.977  17.112  0.3465 -0.2942  1.3894
  674MPD2    H210029   2.398   3.566  17.085 -0.3643 -1.0166  1.3245
  674MPD2    H310030   2.380   3.792  16.982  2.2559  1.2229  1.1943
  674MPD2     N10031   2.209   3.975  17.349  0.0228 -0.6449 -0.1782
  674MPD2    H510032   2.159   3.976  17.437  1.1385 -0.2008  0.4631
  674MPD2    N110033   2.275   3.485  17.300 -0.1609  0.3941 -0.3535
  674MPD2    H710034   2.317   3.418  17.238  0.0799  0.3192 -0.1070
  675TMC3    C110035   2.180   3.488  17.519 -0.4595 -0.0102  0.4390
  675TMC3    C210036   2.081   3.441  17.607 -0.6434  1.1943 -0.0006
  675TMC3    C310037   2.075   3.470  17.743  0.5717 -0.4386  0.1684
  675TMC3    C410038   2.294   3.545  17.576  0.4286  0.5124  0.2109
  675TMC3    C510039   2.283   3.576  17.713 -0.3166 -0.5648 -1.1935
  675TMC3    C610040   2.175   3.548   0.042  0.2309 -0.2286  0.0811
  675TMC3     C10041   2.185   3.432  17.385 -0.0690  0.4068  0.6966
  675TMC3     O10042   2.137   3.319  17.376 -0.0475 -0.1681 -0.5545
  675TMC3     H10043   2.011   3.370  17.564 -0.9214  0.1579  2.1506
  675TMC3    H110044   2.382   3.570  17.518 -0.6257 -1.3053 -2.1451
  675TMC3    H210045   2.152   3.598   0.136 -1.0927 -0.7521  0.0368
  675TMC3    C710046   2.349   3.699  17.749 -0.0097  0.2300 -0.1290
  675TMC3    C810047   1.957   3.452   0.067 -0.2201  0.3473 -0.4328
  675TMC3    O110048   2.327   3.734   0.113 -0.0935  0.4592 -0.0831
  675TMC3    O210049   1.853   3.462   0.004 -0.0227  0.0155 -0.2979
  676MPD2     C10050   4.678   2.756  11.349  0.0287 -0.2227 -0.3763
  676MPD2    C110051   4.645   2.660  11.444 -0.0087  0.9534 -0.1145
  676MPD2    C210052   4.657   2.529  11.408  0.1247  0.1975 -0.8891
  676MPD2    C310053   4.725   2.490  11.294 -0.4581  0.1116 -0.2376
  676MPD2    C410054   0.025   2.583  11.205  0.1788 -0.4628  0.7748
  676MPD2    C510055   0.005   2.713  11.241 -0.5194 -0.3518 -0.1136
  676MPD2     H10056   4.624   2.450  11.475  2.6552  0.0843  0.2442
  676MPD2    H110057   0.073   2.552  11.113 -2.3145 -1.2435 -0.2645
  676MPD2    H210058   4.651   2.860  11.362 -0.1101 -0.1502 -1.2280
  676MPD2    H310059   0.037   2.787  11.168 -1.7525 -0.5162 -0.8221
  676MPD2     N10060   0.015   2.350  11.266  0.7025 -0.4021  0.0258
  676MPD2    H510061   0.094   2.333  11.204  0.3798 -2.1287  0.0815
  676MPD2    N110062   4.586   2.695  11.568  0.4982  0.3346 -0.4410
  676MPD2    H710063   4.537   2.622  11.619  1.3055  1.0016  1.2813
  677TMC3    C110064   4.562   2.806  11.768 -0.0484  0.2078  0.4368
  677TMC3    C210065   4.559   2.680  11.822 -0.4667  0.0717  0.2390
  677TMC3    C310066   4.593   2.665  11.950  0.6201 -0.0544 -0.5294
  677TMC3    C410067   4.578   2.914  11.849  0.0718  0.1600 -0.2305
  677TMC3    C510068   4.617   2.898  11.979  0.0975  0.7651 -0.3241
  677TMC3    C610069   4.618   2.771  12.032  0.4324 -0.0575 -0.4259
  677TMC3     C10070   4.602   2.819  11.628  0.4217  0.5730  0.3757
  677TMC3     O10071   4.672   2.920  11.596  0.0889  0.7035 -0.0396
  677TMC3     H10072   4.536   2.589  11.768  2.5166  1.2634 -3.0378
  677TMC3    H110073   4.568   3.011  11.803 -0.0772 -0.9242 -2.5030
  677TMC3    H210074   4.636   2.742  12.135  1.3653  1.3593 -0.1761
  677TMC3    C710075   4.655   3.012  12.062  0.6601 -0.3631  0.2195
  677TMC3    C810076   4.706   2.571  11.943  0.0815 -0.0036  0.4109
  677TMC3    O110077   4.653   2.994  12.183 -0.1172 -0.1936 -0.0462
  677TMC3    O210078   0.010   2.553  11.831  0.8473 -0.0332 -0.1419
  678MPD2     C10079   1.744   2.468   1.542  1.0596 -0.3262  0.9169
  678MPD2    C110080   1.731   2.448   1.405  0.0367  0.2586 -0.1651
  678MPD2    C210081   1.604   2.416   1.366 -0.4067  0.0007  0.7703
  678MPD2    C310082   1.497   2.400   1.457 -0.2359 -0.3273  0.4777
  678MPD2    C410083   1.516   2.419   1.590 -0.6339  0.5902 -0.0271
  678MPD2    C510084   1.645   2.460   1.631  0.6535  0.1388 -0.6551
  678MPD2     H10085   1.587   2.412   1.259  1.1549  1.2978  0.4744
  678MPD2    H110086   1.444   2.423   1.671 -0.7809  0.5189 -0.1533
  678MPD2    H210087   1.843   2.496   1.577  0.5129 -0.2834  2.4301
  678MPD2    H310088   1.667   2.485   1.735 -0.9667  0.4673 -0.4007
  678MPD2     N10089   1.366   2.361   1.411  0.0138 -0.2226 -0.4513
  678MPD2    H510090   1.352   2.339   1.313 -1.6384  0.4367 -0.3746
  678MPD2    N110091   1.831   2.448   1.304 -0.2840  0.4668 -0.0671
  678MPD2    H710092   1.810   2.442   1.205  0.6133  1.0939 -0.2990
  679TMC3    C110093   2.277   2.505   1.176 -0.1245  0.4840 -0.1755
  679TMC3    C210094   2.180   2.467   1.262  0.1001 -0.2139 -0.4699
  679TMC3    C310095   2.049   2.508   1.226 -0.5460 -0.0567 -0.3092
  679TMC3    C410096   2.253   2.561   1.058 -0.0330 -1.0348 -0.1383
  679TMC3    C510097   2.127   2.610   1.028 -0.2063 -0.2440  0.4527
  679TMC3    C610098   2.020   2.583   1.114 -0.3197 -0.7848  0.4209
  679TMC3     C10099   2.409   2.451   1.201  0.3341  0.1753  0.7854
  679TMC3     O10100   2.465   2.403   1.106  0.3316  0.2313  0.4863
  679TMC3     H10101   2.200   2.417   1.355  2.5767  0.2165 -0.7760
  679TMC3    H110102   2.335   2.564   0.987  0.1504  1.2097  0.1569
  679TMC3    H210103   1.922   2.618   1.082 -0.1388  0.7462  1.5015
  679TMC3    C710104   2.109   2.696   0.912 -0.0905  0.3028  0.0363
  679TMC3    C810105   1.960   2.477   1.335 -0.5970 -0.2306  0.4539
  679TMC3    O110106   2.005   2.700   0.849 -0.4875  0.6672 -0.9981
  679TMC3    O210107   2.010   2.481   1.446 -0.7535  0.3764  0.4719
  680MPD2     C10108   2.574   1.708  13.545  0.3849  0.0796 -0.0063
  680MPD2    C110109   2.531   1.679  13.673  0.2695 -0.0496 -0.1116
  680MPD2    C210110   2.555   1.775  13.771  1.1064 -0.3557 -0.1340
  680MPD2    C310111   2.604   1.898  13.739  0.1805 -0.1508  0.3047
  680MPD2    C410112   2.647   1.922  13.606  0.1972 -0.2999  0.2614
  680MPD2    C510113   2.636   1.824  13.512  0.2605  0.1634  0.3495
  680MPD2     H10114   2.549   1.755  13.877 -0.3790 -1.3321 -0.3870
  680MPD2    H110115   2.684   2.021  13.580 -0.9641  0.4322  1.3449
  680MPD2    H210116   2.565   1.623  13.478 -0.5557  0.7109 -0.6728
  680MPD2    H310117   2.674   1.847  13.413 -1.7249  0.9827 -0.2270
  680MPD2     N10118   2.631   1.998  13.834 -0.9013  0.2467 -0.0724
  680MPD2    H510119   2.669   2.086  13.799  0.8115  0.3549  2.0841
  680MPD2    N110120   2.478   1.553  13.721  0.2815 -0.0236  0.6071
  680MPD2    H710121   2.449   1.546  13.818  1.6936 -2.1818  0.8746
  681TMC3    C110122   2.402   1.340  13.710 -0.1944  0.1209  0.1371
  681TMC3    C210123   2.440   1.320  13.846  0.6679  0.1067 -0.2818
  681TMC3    C310124   2.392   1.213  13.910 -0.0434 -0.5950 -0.3455
  681TMC3    C410125   2.321   1.251  13.653  0.3514  0.0121 -0.0429
  681TMC3    C510126   2.287   1.141  13.722 -0.1666 -0.5683  0.3414
  681TMC3    C610127   2.318   1.120  13.851  0.7373  1.2892  0.3941
  681TMC3     C10128   2.455   1.450  13.637 -0.4876 -0.1839 -0.1339
  681TMC3     O10129   2.441   1.443  13.514  0.0677 -1.2206  0.1188
  681TMC3     H10130   2.523   1.379  13.884  0.7023 -0.8392  1.0749
  681TMC3    H110131   2.286   1.265  13.552 -0.7536  0.0689  0.3442
  681TMC3    H210132   2.273   1.041  13.910  2.3087 -0.4562 -0.7955
  681TMC3    C710133   2.274   1.018  13.653 -0.3065  0.1473 -0.0900
  681TMC3    C810134   2.446   1.179  14.037  0.7712 -0.1296 -0.7585
  681TMC3    O110135   2.205   0.934  13.705 -0.1506  0.1970  0.0848
  681TMC3    O210136   2.470   1.062  14.060 -0.4247 -0.3291 -0.0690
  682MPD2     C10137   3.555   3.079  11.059  0.0350 -0.1195 -0.3963
  682MPD2    C110138   3.609   2.953  11.073 -0.5402 -0.2622  0.5958
  682MPD2    C210139   3.677   2.921  11.185  0.2578 -0.1742  0.4029
  682MPD2    C310140   3.676   3.009  11.288 -0.8007 -0.3629 -0.6736
  682MPD2    C410141   3.616   3.136  11.280  0.0649  0.3413 -0.5684
  682MPD2    C510142   3.565   3.179  11.157 -0.3516  0.3257  0.2399
  682MPD2     H10143   3.727   2.826  11.193  1.1998  0.1462 -1.5582
  682MPD2    H110144   3.619   3.205  11.364 -1.3483  1.3007 -1.3150
  682MPD2    H210145   3.496   3.110  10.974 -2.0302  3.7466  2.4410
  682MPD2    H310146   3.523   3.278  11.142 -2.4731 -0.2700  2.3634
  682MPD2     N10147   3.723   2.959  11.415 -0.3002  0.5039 -0.4621
  682MPD2    H510148   3.678   3.001  11.495 -0.3105 -1.8075  0.7381
  682MPD2    N110149   3.592   2.868  10.968 -0.2113 -0.1169 -0.1961
  682MPD2    H710150   3.569   2.901  10.875  0.1426  0.2911 -0.1383
  683TMC3    C110151   3.803   2.920  11.800  0.8195 -0.4752  0.5893
  683TMC3    C210152   3.814   2.789  11.847  0.3956 -0.8248 -0.3322
  683TMC3    C310153   3.830   2.688  11.755  0.4871 -0.2051 -0.3583
  683TMC3    C410154   3.810   2.953  11.671 -0.9715  0.4063 -0.1844
  683TMC3    C510155   3.845   2.850  11.577 -0.1607 -0.9594 -0.9120
  683TMC3    C610156   3.850   2.718  11.620 -0.1261  0.3869 -0.6357
  683TMC3     C10157   3.829   3.020  11.893  0.5329 -0.0248  0.1292
  683TMC3     O10158   3.806   3.135  11.855 -0.0446  0.5866 -1.0406
  683TMC3     H10159   3.795   2.764  11.951 -1.4676  1.8977 -0.0153
  683TMC3    H110160   3.816   3.058  11.641  2.8528  0.1781 -0.2745
  683TMC3    H210161   3.876   2.649  11.540  1.3275  0.8082 -0.5251
  683TMC3    C710162   3.827   2.870  11.433 -0.2835  0.1878 -0.7840
  683TMC3    C810163   3.858   2.553  11.807 -0.2968  0.7919 -0.4587
  683TMC3    O110164   3.891   2.801  11.353 -0.5231 -0.1014 -0.4320
  683TMC3    O210165   3.827   2.529  11.924  0.0922 -0.1431  0.4530
  684MPD2     C10166   2.346   1.849  16.372 -0.3765 -0.7225 -0.0915
  684MPD2    C110167   2.349   1.915  16.252 -0.3685  0.3475  0.1468
  684MPD2    C210168   2.347   2.050  16.245  0.5968  0.3300 -0.4537
  684MPD2    C310169   2.366   2.125  16.361 -0.1928  0.6879 -0.1879
  684MPD2    C410170   2.357   2.064  16.487  0.2575  0.4914 -0.2565
  684MPD2    C510171   2.351   1.926  16.488  0.0660  0.4217 -0.4251
  684MPD2     H10172   2.338   2.105  16.152  0.4445  2.4595  0.8178
  684MPD2    H110173   2.375   2.120  16.578  1.6021  0.7686 -0.6922
  684MPD2    H210174   2.337   1.741  16.381 -0.7080 -0.3984  3.3236
  684MPD2    H310175   2.346   1.883  16.587  1.7581  0.0551 -0.4950
  684MPD2     N10176   2.382   2.267  16.342  0.2895 -0.6791  0.1610
  684MPD2    H510177   2.361   2.302  16.250  0.6384  0.2263  0.4243
  684MPD2    N110178   2.360   1.858  16.130 -0.1490 -0.2126  0.1900
  684MPD2    H710179   2.394   1.917  16.055  0.5293  0.4514  1.0223
  685TMC3    C110180   2.436   1.736  15.960  0.2416 -0.1110  0.7305
  685TMC3    C210181   2.358   1.824  15.890 -0.7353  0.6779  0.5873
  685TMC3    C310182   2.414   1.931  15.828  0.2166 -0.3019  0.2273
  685TMC3    C410183   2.572   1.769  15.974  0.2477 -0.6183 -0.1443
  685TMC3    C510184   2.627   1.879  15.916 -0.2765 -0.0437 -0.3119
  685TMC3    C610185   2.547   1.960  15.838  1.0136 -0.4029  0.0488
  685TMC3     C10186   2.374   1.729  16.095  0.2097  0.3067  0.0974
  685TMC3     O10187   2.373   1.626  16.163  0.0963 -0.9163 -0.0846
  685TMC3     H10188   2.254   1.796  15.879 -0.7693  1.6735 -1.6334
  685TMC3    H110189   2.635   1.699  16.026  2.2900  0.1386 -1.6161
  685TMC3    H210190   2.582   2.052  15.791 -0.4583 -1.4566 -3.1137
  685TMC3    C710191   2.743   1.934  15.989 -0.1780  0.6974  0.2027
  685TMC3    C810192   2.321   2.042  15.813 -0.2357 -0.0694  0.4383
  685TMC3    O110193   2.752   1.899  16.108  0.1699  0.2508  0.0980
  685TMC3    O210194   2.353   2.133  15.739  0.2268 -0.1337  0.1560
  686MPD2     C10195   3.845   1.874  15.503 -0.1511 -0.3092  0.0503
  686MPD2    C110196   3.839   1.797  15.613 -0.5453  0.4245 -0.4897
  686MPD2    C210197   3.896   1.668  15.610  0.3456 -0.7296  0.0505
  686MPD2    C310198   3.902   1.600  15.492 -0.4027 -0.2250 -0.2393
  686MPD2    C410199   3.905   1.678  15.379  0.1409 -0.1600 -0.2005
  686MPD2    C510200   3.880   1.811  15.386  0.2231  0.1544 -0.0988
  686MPD2     H10201   3.923   1.619  15.703  2.6396 -0.4950 -0.4855
  686MPD2    H110202   3.918   1.631  15.282 -0.0196 -0.9797  0.1765
  686MPD2    H210203   3.813   1.977  15.515 -1.1312 -0.2598 -2.9568
  686MPD2    H310204   3.870   1.876  15.300  0.5235  0.3178 -0.0096
  686MPD2     N10205   3.926   1.461  15.472 -0.4737  0.4675  0.1359
  686MPD2    H510206   3.951   1.436  15.376 -1.1683  3.0917 -0.7449
  686MPD2    N110207   3.788   1.859  15.726  0.1612  0.1311  0.2169
  686MPD2    H710208   3.747   1.951  15.712  1.1919  0.4864 -0.4167
  687TMC3    C110209   3.854   1.380  15.686 -0.1034  0.5589  0.2748
  687TMC3    C210210   3.719   1.416  15.686 -0.2197  0.9112  0.0491
  687TMC3    C310211   3.661   1.427  15.814  0.9119 -0.5919  0.2631
  687TMC3    C410212   3.928   1.364  15.799 -0.1549 -0.2389  0.4862
  687TMC3    C510213   3.868   1.377  15.925  0.6712  0.3067  0.2054
  687TMC3    C610214   3.734   1.410  15.926  0.2461  0.6219 -0.2238
  687TMC3     C10215   3.927   1.360  15.567 -0.1528 -0.2725 -0.3700
  687TMC3     O10216   3.968   1.243  15.555 -0.8913  0.3110 -0.5333
  687TMC3     H10217   3.666   1.434  15.593 -0.5411  1.4121  0.3307
  687TMC3    H110218   4.035   1.347  15.792 -0.1228  0.0530  0.2562
  687TMC3    H210219   3.687   1.430  16.022  0.0011 -0.0111 -0.2155
  687TMC3    C710220   3.945   1.444  16.033 -1.4803 -0.5952 -0.5507
  687TMC3    C810221   3.533   1.494  15.832 -0.4355 -0.1946 -1.1622
  687TMC3    O110222   3.883   1.494  16.123 -0.0547  0.4687 -0.1619
  687TMC3    O210223   3.464   1.476  15.932  0.3504  0.1520 -0.4721
  688MPD2     C10224   2.610   0.940  16.939  0.4190  0.0626  1.2312
  688MPD2    C110225   2.703   0.913  17.044 -0.1323 -0.4118  0.2231
  688MPD2    C210226   2.836   0.939  17.024 -0.1837 -0.3842  0.0233
  688MPD2    C310227   2.883   0.989  16.902 -0.1333  0.3166  0.4627
  688MPD2    C410228   2.789   1.025  16.808  0.0258  0.0794  0.2612
  688MPD2    C510229   2.655   0.999  16.827  0.1249 -0.3047  0.5654
  688MPD2     H10230   2.905   0.902  17.099  0.1234  0.7297  0.2852
  688MPD2    H110231   2.817   1.073  16.715  0.9228  0.1894  0.5810
  688MPD2    H210232   2.502   0.935  16.946  0.2991  0.7225 -0.1501
  688MPD2    H310233   2.579   1.020  16.752 -0.1021  3.6901  1.9232
  688MPD2     N10234   3.024   0.992  16.865  0.5426  0.4508 -0.2525
  688MPD2    H510235   3.037   1.022  16.769  1.1790  1.0911  0.0329
  688MPD2    N110236   2.665   0.853  17.160  0.4786 -0.9384  0.0777
  688MPD2    H710237   2.731   0.849  17.237  0.1359  0.5024  0.4466
  689TMC3    C110238   2.526   0.766  17.329  0.4608 -0.1368  0.2984
  689TMC3    C210239   2.587   0.841  17.423  0.0521  0.2438 -1.0877
  689TMC3    C310240   2.540   0.822  17.548  0.6081 -0.6113 -0.1969
  689TMC3    C410241   2.437   0.664  17.358  0.7360 -0.1338  0.1147
  689TMC3    C510242   2.402   0.645  17.494 -0.1249 -0.8125 -0.4280
  689TMC3    C610243   2.449   0.732  17.588  0.3145  0.3530 -0.6894
  689TMC3     C10244   2.535   0.809  17.188  0.3463  0.0328 -0.4730
  689TMC3     O10245   2.432   0.803  17.120  0.3685  0.1331 -0.1457
  689TMC3     H10246   2.628   0.938  17.397 -0.5549  0.4055 -1.4625
  689TMC3    H110247   2.401   0.605  17.274  1.4810 -1.4029  0.7003
  689TMC3    H210248   2.426   0.722  17.693  0.1719 -0.5350 -0.8024
  689TMC3    C710249   2.344   0.525  17.546 -0.3436 -0.1626 -0.0552
  689TMC3    C810250   2.583   0.914  17.650  0.0425 -0.0641  0.3450
  689TMC3    O110251   2.332   0.516  17.664 -0.3603  0.3718 -0.2031
  689TMC3    O210252   2.504   0.922  17.746  0.2622  0.9437 -0.8010
  690MPD2     C10253   0.650   2.982  16.030  0.1536  0.0416 -1.2714
  690MPD2    C110254   0.592   2.943  15.916 -0.4952  0.0040  0.3051
  690MPD2    C210255   0.616   3.010  15.799 -0.4746  0.0813 -0.3969
  690MPD2    C310256   0.705   3.113  15.807  0.9563 -0.2721 -0.0731
  690MPD2    C410257   0.761   3.165  15.923 -0.0144 -0.3388  0.3769
  690MPD2    C510258   0.734   3.088  16.028 -0.6966  0.5293 -0.5892
  690MPD2     H10259   0.589   2.973  15.701 -0.0752 -0.7122 -0.2031
  690MPD2    H110260   0.830   3.249  15.924 -2.1542  1.4472 -1.1844
  690MPD2    H210261   0.650   2.918  16.117 -0.7531 -1.3627 -2.3106
  690MPD2    H310262   0.793   3.105  16.118  0.1719 -3.0666 -0.4862
  690MPD2     N10263   0.748   3.160  15.680 -0.0384  0.5212  0.4013
  690MPD2    H510264   0.692   3.124  15.604 -3.1989  1.9675  2.0516
  690MPD2    N110265   0.534   2.816  15.896 -0.7708 -0.1404 -0.2321
  690MPD2    H710266   0.503   2.793  15.802  2.3379 -2.8816 -0.6264
  691TMC3    C110267   0.455   2.598  15.948 -0.3971 -0.2592  0.3894
  691TMC3    C210268   0.441   2.567  15.810  0.0827 -0.7341 -0.1413
  691TMC3    C310269   0.434   2.433  15.771 -0.1470 -1.0267 -0.5122
  691TMC3    C410270   0.461   2.502  16.043 -0.0335 -0.2382  0.2291
  691TMC3    C510271   0.452   2.375  16.003 -0.6738 -0.1490 -0.3074
  691TMC3    C610272   0.441   2.338  15.864 -0.0215 -0.2866  0.3800
  691TMC3     C10273   0.510   2.726  15.995 -0.3941  0.2054 -0.0782
  691TMC3     O10274   0.510   2.749  16.116 -0.2627 -0.0561  0.5104
  691TMC3     H10275   0.446   2.649  15.739 -0.6930 -0.1734  0.4513
  691TMC3    H110276   0.465   2.527  16.149 -1.5993 -1.2729  0.5346
  691TMC3    H210277   0.443   2.233  15.837 -1.5547  0.2577 -1.8620
  691TMC3    C710278   0.371   2.292  16.093  0.7632 -0.1643  0.5455
  691TMC3    C810279   0.359   2.401  15.651  0.1088 -0.3041  0.3486
  691TMC3    O110280   0.400   2.295  16.213  0.1447  0.2758 -0.5137
  691TMC3    O210281   0.340   2.282  15.638 -0.7256  0.1760  0.5295
  692TMC3    C110282   1.808   3.448  15.816  0.2237  0.5322 -0.0469
  692TMC3    C210283   1.917   3.533  15.817  0.8112 -0.1221  0.0159
  692TMC3    C310284   2.042   3.477  15.824  0.9978 -0.2394  0.0773
  692TMC3    C410285   1.807   3.312  15.825  0.2298  0.1859 -0.6042
  692TMC3    C510286   1.933   3.260  15.833  0.2945  0.7709 -0.0139
  692TMC3    C610287   2.052   3.335  15.819 -0.5970  0.4732 -0.1040
  692TMC3     C10288   1.676   3.504  15.817  0.0357 -0.1838 -0.3583
  692TMC3     O10289   1.590   3.437  15.867 -0.0236  0.3824 -0.3751
  692TMC3     H10290   1.899   3.631  15.861  0.4502 -0.5069  0.7395
  692TMC3    H110291   1.721   3.249  15.803 -0.8182  0.9802  1.1742
  692TMC3    H210292   2.148   3.288  15.840 -0.4496  0.6814 -0.3145
  692TMC3    C710293   1.938   3.117  15.818 -0.6521 -0.1073 -0.8801
  692TMC3    C810294   2.132   3.525  15.920  0.5973  0.4740  0.4229
  692TMC3    O110295   1.842   3.059  15.758  0.0723  0.0485  0.0734
  692TMC3    O210296   2.205   3.441  15.966  0.3919  0.0351 -0.2360
  693MPD2     C10297   1.730   1.800  10.952 -0.6438  0.0028 -0.4294
  693MPD2    C110298   1.685   1.697  11.031  0.4044  0.2303 -0.5736
  693MPD2    C210299   1.781   1.623  11.102 -0.2479  0.3224 -0.2074
  693MPD2    C310300   1.920   1.645  11.089 -0.7203  0.3809  0.6335
  693MPD2    C410301   1.954   1.755  11.018  0.4300  0.1466  0.4037
  693MPD2    C510302   1.859   1.835  10.955  0.0413 -1.0269  0.3960
  693MPD2     H10303   1.749   1.539  11.162 -0.3680 -0.4932 -1.4303
  693MPD2    H110304   2.060   1.775  11.005  0.2336  1.0669  0.2481
  693MPD2    H210305   1.661   1.871  10.907 -1.5011 -0.0227  0.8352
  693MPD2    H310306   1.887   1.925  10.902  1.1736 -0.2583  2.3284
  693MPD2     N10307   2.028   1.574  11.150  0.2400 -0.8201 -0.2909
  693MPD2    H510308   2.124   1.589  11.122 -0.4332  0.1611 -2.0265
  693MPD2    N110309   1.550   1.672  11.054 -0.3144  0.2793 -0.0677
  693MPD2    H710310   1.526   1.601  11.123 -1.5786 -1.3808 -2.1950
  694TMC3    C110311   1.320   1.711  11.055  0.4407 -0.5749 -0.0124
  694TMC3    C210312   1.214   1.697  10.968  0.5453 -0.1474 -0.4605
  694TMC3    C310313   1.101   1.627  11.009 -0.3425 -0.7098 -0.1310
  694TMC3    C410314   1.319   1.640  11.175  0.2235 -0.0390 -0.1031
  694TMC3    C510315   1.216   1.556  11.205  0.1313  0.3777  0.2810
  694TMC3    C610316   1.105   1.548  11.124 -0.1738 -0.0683 -0.5136
  694TMC3     C10317   1.445   1.724  10.988  0.0571  0.8041  0.0144
  694TMC3     O10318   1.442   1.774  10.880  0.3269 -0.1952 -0.4277
  694TMC3     H10319   1.214   1.750  10.873  2.6376 -0.2478 -0.5126
  694TMC3    H110320   1.410   1.640  11.234 -1.1183  1.9137  1.9568
  694TMC3    H210321   1.019   1.486  11.147 -1.0827  2.1953  2.3919
  694TMC3    C710322   1.219   1.492  11.336  0.6669  0.0006  0.1216
  694TMC3    C810323   0.997   1.594  10.918  1.4413 -0.2154 -0.3120
  694TMC3    O110324   1.299   1.538  11.420  0.3179 -0.4019 -0.5382
  694TMC3    O210325   0.952   1.480  10.930 -0.4378  0.5166  0.5303
  695MPD2     C10326   2.467   3.324  13.864 -0.2098  1.0494 -0.2035
  695MPD2    C110327   2.480   3.215  13.945  0.3984 -0.8738 -0.2956
  695MPD2    C210328   2.369   3.133  13.959 -0.0135  0.1726  0.6896
  695MPD2    C310329   2.247   3.160  13.895 -0.3719 -0.2941  0.2410
  695MPD2    C410330   2.238   3.275  13.814 -0.0125 -0.2666 -0.3214
  695MPD2    C510331   2.350   3.349  13.803 -0.0622 -0.5250  0.0727
  695MPD2     H10332   2.375   3.045  14.022 -0.6490 -0.2775  0.1244
  695MPD2    H110333   2.148   3.298  13.757 -0.3618 -2.1430 -0.5359
  695MPD2    H210334   2.546   3.396  13.850  1.9471 -1.4491 -0.8120
  695MPD2    H310335   2.361   3.439  13.743  2.0538  0.4939  2.0019
  695MPD2     N10336   2.134   3.084  13.933  0.0778 -0.1003  0.5649
  695MPD2    H510337   2.143   3.001  13.990 -1.8523  0.4283  1.6327
  695MPD2    N110338   2.596   3.191  14.030 -0.1502 -0.1110  0.2703
  695MPD2    H710339   2.597   3.116  14.098  1.3090  0.4463  0.8621
  696TMC3    C110340   1.926   3.000  13.948 -0.1188  0.2287  0.3352
  696TMC3    C210341   1.931   2.973  14.083  0.0909 -0.0337  0.6044
  696TMC3    C310342   1.824   2.918  14.143 -0.1210 -0.1692 -0.0360
  696TMC3    C410343   1.803   2.987  13.889 -0.4115 -0.2490 -0.2257
  696TMC3    C510344   1.690   2.948  13.950  0.0513 -0.7016  0.1711
  696TMC3    C610345   1.699   2.909  14.081  0.0662  0.4690 -0.0746
  696TMC3     C10346   2.006   3.105  13.897 -0.3692  0.0615 -0.1577
  696TMC3     O10347   1.946   3.196  13.842 -0.6229 -0.3955 -0.2589
  696TMC3     H10348   2.015   2.997  14.147 -1.0467  1.5009  1.5028
  696TMC3    H110349   1.781   3.019  13.788 -1.1763  0.3994  0.1353
  696TMC3    H210350   1.615   2.908  14.150  0.4218 -0.5979  0.3492
  696TMC3    C710351   1.575   3.039  13.938 -0.3651 -0.2077  0.4858
  696TMC3    C810352   1.820   2.928  14.287  0.1842 -0.7777 -0.6007
  696TMC3    O110353   1.470   2.993  13.987  0.0326 -0.4112  0.8252
  696TMC3    O210354   1.828   2.824  14.351 -0.3984  0.3990 -0.0917
  697MPD2     C10355   1.813   0.684  15.599  0.9331 -0.5531 -0.1800
  697MPD2    C110356   1.767   0.638  15.481  0.9479 -0.1621 -0.7623
  697MPD2    C210357   1.794   0.702  15.358 -1.4102 -0.1234 -0.5461
  697MPD2    C310358   1.872   0.818  15.365 -0.2147 -0.9466 -0.2840
  697MPD2    C410359   1.919   0.870  15.482  0.2224 -0.0545  0.2378
  697MPD2    C510360   1.889   0.803  15.594 -0.0577 -0.1531 -0.6511
  697MPD2     H10361   1.769   0.652  15.266  0.8642 -0.1286 -1.1802
  697MPD2    H110362   1.996   0.946  15.488  0.8777 -0.4892 -2.3107
  697MPD2    H210363   1.785   0.645  15.696 -1.2017  1.2979 -0.0521
  697MPD2    H310364   1.928   0.838  15.689  0.5081 -1.4616 -0.3942
  697MPD2     N10365   1.916   0.870  15.240  0.3828 -0.1582  0.0946
  697MPD2    H510366   1.895   0.813  15.159 -0.3014 -0.7551  0.6845
  697MPD2    N110367   1.686   0.518  15.472  0.5764 -0.1757 -0.1727
  697MPD2    H710368   1.645   0.493  15.383 -1.7155 -2.0365  1.4167
  698TMC3    C110369   1.999   1.022  15.085  0.4747 -0.0205  0.4612
  698TMC3    C210370   2.072   1.133  15.076 -0.0494  0.4307 -0.4554
  698TMC3    C310371   2.136   1.154  14.952  0.2928 -0.3228  0.3640
  698TMC3    C410372   1.986   0.930  14.982  0.3506 -0.9281 -0.4589
  698TMC3    C510373   2.052   0.954  14.862 -0.3742  0.2351 -0.5729
  698TMC3    C610374   2.128   1.064  14.848  0.4485  0.1590 -0.1606
  698TMC3     C10375   1.947   0.999  15.218 -0.3398 -0.2122 -0.4006
  698TMC3     O10376   1.942   1.096  15.291  0.3778  0.3287 -1.2957
  698TMC3     H10377   2.081   1.205  15.157 -0.7611 -1.7434  1.5622
  698TMC3    H110378   1.931   0.839  15.004 -0.1636 -0.7661 -1.0778
  698TMC3    H210379   2.180   1.080  14.754  1.6915  2.3690  0.8855
  698TMC3    C710380   2.048   0.858  14.758 -0.1966  0.8640  0.5241
  698TMC3    C810381   2.133   1.284  14.901 -0.2030  0.3534 -0.0255
  698TMC3    O110382   1.963   0.773  14.772 -0.4781  0.6698  0.5714
  698TMC3    O210383   2.103   1.297  14.783  0.8770  0.9128 -0.4815
  699TMC3    C110384   1.563   3.522  13.411 -0.5990 -0.2878 -0.0122
  699TMC3    C210385   1.668   3.436  13.440  0.2645 -0.0434  0.4263
  699TMC3    C310386   1.639   3.329  13.520 -0.1124  0.3132 -0.6167
  699TMC3    C410387   1.435   3.508  13.456 -0.1876 -0.0332 -0.0874
  699TMC3    C510388   1.419   3.393  13.526 -0.0558  0.3058 -0.2279
  699TMC3    C610389   1.516   3.307  13.562 -0.1565 -0.3259 -0.1988
  699TMC3     C10390   1.576   3.639  13.322  0.5967 -0.7664 -0.2029
  699TMC3     O10391   1.471   3.679  13.272  0.3344  0.3584 -0.3720
  699TMC3     H10392   1.769   3.456  13.408  0.1638  0.3330  0.3437
  699TMC3    H110393   1.360   3.584  13.435  0.7013  1.0558  0.6907
  699TMC3    H210394   1.496   3.236  13.642 -0.5114 -1.6504 -1.4668
  699TMC3    C710395   1.282   3.359  13.570  0.4884 -0.2157 -0.2004
  699TMC3    C810396   1.740   3.231  13.552 -0.2525 -0.6124  1.1463
  699TMC3    O110397   1.199   3.449  13.552  0.1844  0.2703 -0.1014
  699TMC3    O210398   1.703   3.124  13.597 -0.1419 -0.4151 -0.0310
  700TMC3    C110399   0.757   1.033  17.406 -0.9074 -0.3192  0.4008
  700TMC3    C210400   0.847   0.955  17.339  0.2105  0.3921 -0.7864
  700TMC3    C310401   0.964   0.913  17.394  0.5941  0.0274 -0.3481
  700TMC3    C410402   0.791   1.080  17.529 -0.3263  0.0519 -0.1526
  700TMC3    C510403   0.911   1.045  17.580  0.1668 -0.3006  0.1395
  700TMC3    C610404   1.001   0.954  17.519 -0.3986  0.5669 -0.2675
  700TMC3     C10405   0.691   1.129  17.318 -0.5886 -0.4736 -0.1520
  700TMC3     O10406   0.568   1.153  17.326  0.0606 -0.1746 -0.1036
  700TMC3     H10407   0.825   0.926  17.237 -1.4106  1.2764 -0.6922
  700TMC3    H110408   0.725   1.146  17.585 -1.1219 -0.3100 -0.6667
  700TMC3    H210409   1.099   0.924  17.555  0.1269  1.7302 -0.7193
  700TMC3    C710410   0.975   1.135  17.675 -0.1200 -0.3202 -0.4568
  700TMC3    C810411   1.051   0.851  17.300 -0.1351 -0.1451  0.0717
  700TMC3    O110412   1.099   1.132  17.669 -0.5763 -0.3768 -0.2983
  700TMC3    O210413   1.046   0.886  17.182  0.5744 -0.2010 -0.0356
  701TMC3    C110414   0.873   0.141  15.431  0.5843  0.4667  0.5418
  701TMC3    C210415   0.886   0.130  15.294 -0.4602  0.3475 -0.3560
  701TMC3    C310416   1.005   0.170  15.235  0.2569  0.1854 -0.0960
  701TMC3    C410417   0.975   0.184  15.510 -0.0742 -1.0052 -0.3031
  701TMC3    C510418   1.093   0.214  15.446  0.3070 -0.3386 -0.5052
  701TMC3    C610419   1.116   0.194  15.310  0.3059  0.4007 -0.3591
  701TMC3     C10420   0.748   0.191  15.477  0.4981  0.3892  0.0236
  701TMC3     O10421   0.749   0.312  15.493 -0.2328  0.4648  0.7551
  701TMC3     H10422   0.795   0.128  15.236  0.7512  0.4908 -2.2760
  701TMC3    H110423   0.952   0.206  15.613 -0.4913 -3.3366  0.1102
  701TMC3    H210424   1.212   0.214  15.266  0.3237  0.1588 -0.4297
  701TMC3    C710425   1.171   0.326  15.499 -0.6007  0.3534 -0.7983
  701TMC3    C810426   1.012   0.225  15.099 -0.2684 -0.6179  0.1469
  701TMC3    O110427   1.226   0.390  15.416  0.0796 -0.4561  0.5256
  701TMC3    O210428   1.059   0.337  15.095 -0.0009  0.0532  0.5211
  702MPD2     C10429   0.596   2.048  11.099  0.8888 -0.2847  0.0627
  702MPD2    C110430   0.470   2.074  11.043  0.0382 -0.3064  0.1972
  702MPD2    C210431   0.478   2.144  10.927  0.6522  0.7832  0.1909
  702MPD2    C310432   0.591   2.167  10.853  0.4447  0.5708 -0.0575
  702MPD2    C410433   0.713   2.125  10.907  0.2526 -0.1767  0.0116
  702MPD2    C510434   0.713   2.066  11.034 -0.1509  0.1256 -0.0131
  702MPD2     H10435   0.383   2.181  10.890  1.0972  0.9578 -0.7813
  702MPD2    H110436   0.808   2.117  10.857 -1.0590  2.4729 -2.9067
  702MPD2    H210437   0.605   1.999  11.195 -0.4286 -0.3318  0.1698
  702MPD2    H310438   0.804   2.023  11.072 -1.0779 -1.8924 -0.1086
  702MPD2     N10439   0.586   2.245  10.738  0.5953  0.6282  0.1998
  702MPD2    H510440   0.669   2.279  10.691  0.3930 -0.0051 -0.5994
  702MPD2    N110441   0.342   2.061  11.107  0.1394 -0.1532 -0.7049
  702MPD2    H710442   0.262   2.119  11.080 -1.7753 -2.2288  0.5124
  703TMC3    C110443   0.469   2.375  10.579 -0.2369 -0.4189 -0.4952
  703TMC3    C210444   0.339   2.419  10.587  0.1264 -0.7834 -0.2275
  703TMC3    C310445   0.310   2.517  10.676 -0.4355 -0.3551 -0.2006
  703TMC3    C410446   0.573   2.461  10.614  0.0453 -0.6916  0.0639
  703TMC3    C510447   0.536   2.568  10.696 -0.2606  0.4042  0.2229
  703TMC3    C610448   0.404   2.599  10.732 -0.0537 -0.0443  0.2734
  703TMC3     C10449   0.471   2.259  10.660 -0.3816 -0.4281  0.6000
  703TMC3     O10450   0.362   2.206  10.677 -0.3099 -0.3721 -0.4230
  703TMC3     H10451   0.260   2.370  10.532  0.7642 -1.8315 -0.2150
  703TMC3    H110452   0.676   2.444  10.583 -0.0172  0.7865 -0.9409
  703TMC3    H210453   0.360   2.675  10.796 -1.2390  0.6879 -1.4126
  703TMC3    C710454   0.646   2.650  10.737 -1.0906  0.1516  0.4555
  703TMC3    C810455   0.196   2.493  10.754  0.3527  0.0740  0.8923
  703TMC3    O110456   0.742   2.642  10.661 -0.1026  0.1459 -0.2467
  703TMC3    O210457   0.161   2.580  10.834  0.0652  0.4973 -0.4511
  704TMC3    C110458   2.628   0.864  12.165  0.5249  0.1074  0.7180
  704TMC3    C210459   2.756   0.836  12.133  0.1018  0.5159 -0.0859
  704TMC3    C310460   2.837   0.813  12.239  0.1527 -0.3907  0.5164
  704TMC3    C410461   2.578   0.872  12.292 -0.4038 -0.7852  0.6559
  704TMC3    C510462   2.660   0.867  12.393 -0.9027  0.0263 -0.1267
  704TMC3    C610463   2.791   0.834  12.368  0.1184 -0.3487  0.1995
  704TMC3     C10464   2.544   0.928  12.068  0.3860  0.2741 -0.2561
  704TMC3     O10465   2.434   0.973  12.099  0.2425  0.4763 -0.0444
  704TMC3     H10466   2.791   0.803  12.035  1.5839  0.0513  0.6098
  704TMC3    H110467   2.476   0.907  12.302 -0.6839 -1.5168  0.3433
  704TMC3    H210468   2.862   0.838  12.450 -0.9976 -3.3116  1.3192
  704TMC3    C710469   2.604   0.755  12.474  0.5354 -0.4241  0.1144
  704TMC3    C810470   2.930   0.703  12.219  0.0167 -0.2579 -0.5804
  704TMC3    O110471   2.696   0.678  12.496  0.0687 -0.1320  0.3122
  704TMC3    O210472   3.005   0.705  12.123 -0.3122 -0.1387 -0.1294
  705MPD2     C10473   2.150   3.079  16.370  0.1339  0.0976 -0.4525
  705MPD2    C110474   2.162   3.204  16.420 -0.4720 -0.0906 -0.1386
  705MPD2    C210475   2.049   3.247  16.485  0.3634  0.3465 -0.2772
  705MPD2    C310476   1.932   3.174  16.483  0.2411 -0.5347  0.1612
  705MPD2    C410477   1.925   3.053  16.419 -0.1286 -0.1556 -1.0442
  705MPD2    C510478   2.035   3.007  16.363 -0.0368 -0.3314  0.5073
  705MPD2     H10479   2.049   3.351  16.514 -1.0255  0.3916 -0.3988
  705MPD2    H110480   1.835   2.993  16.418  1.1042 -2.0249 -1.8159
  705MPD2    H210481   2.241   3.030  16.335 -0.0562 -1.2926  1.0060
  705MPD2    H310482   2.027   2.907  16.322  0.0516  1.2537 -3.3632
  705MPD2     N10483   1.812   3.228  16.534  0.2185 -0.0715  0.3405
  705MPD2    H510484   1.732   3.167  16.524  1.7253 -1.6360 -2.1984
  705MPD2    N110485   2.283   3.278  16.421 -0.7957  0.2540 -0.4258
  705MPD2    H710486   2.288   3.359  16.482  0.2207 -0.4415  0.4124
  706TMC3    C110487   2.714   3.412  16.283  0.2312 -0.1559  0.1254
  706TMC3    C210488   2.715   3.518  16.366  1.1407  0.2689 -0.0301
  706TMC3    C310489   2.602   3.545  16.440 -0.0975 -0.4378  0.1080
  706TMC3    C410490   2.612   3.320  16.270  0.2137  0.2028 -0.4708
  706TMC3    C510491   2.502   3.354  16.340 -0.3469 -0.4892 -0.3080
  706TMC3    C610492   2.491   3.468  16.422 -0.3383 -0.0609 -0.1276
  706TMC3     C10493   2.829   3.399  16.203 -0.4155 -0.4066 -0.5961
  706TMC3     O10494   2.933   3.433  16.256  0.3487  0.2517  0.3109
  706TMC3     H10495   2.798   3.587  16.366 -1.0174  2.8433  1.5676
  706TMC3    H110496   2.629   3.223  16.225  0.5713 -0.0575  0.2307
  706TMC3    H210497   2.395   3.507  16.454 -0.6018 -0.9290  0.1391
  706TMC3    C710498   2.395   3.254  16.342 -0.2529 -0.8019  0.5652
  706TMC3    C810499   2.585   3.690  16.475 -0.0227 -0.1837 -0.5350
  706TMC3    O110500   2.414   3.166  16.259 -0.3619  0.3270  0.0566
  706TMC3    O210501   2.647   3.769  16.407  0.2682  0.1720  0.7136
  707TMC3    C110502   3.957   2.633   1.385  0.4039  0.2031 -1.1502
  707TMC3    C210503   3.921   2.605   1.512  0.1509  0.2813  0.2482
  707TMC3    C310504   3.794   2.564   1.533 -0.1891 -0.5786  0.1695
  707TMC3    C410505   3.866   2.620   1.283  0.2457  0.6077  0.6633
  707TMC3    C510506   3.732   2.598   1.306 -0.3329  0.1275  0.1682
  707TMC3    C610507   3.701   2.559   1.432  0.3434  0.6988 -0.4560
  707TMC3     C10508   4.082   2.580   1.346  0.3674 -0.3429  0.0015
  707TMC3     O10509   4.122   2.489   1.417  0.6130 -0.2370 -0.5601
  707TMC3     H10510   4.001   2.604   1.585 -0.6648  0.7704  1.1508
  707TMC3    H110511   3.899   2.597   1.182  1.1497  3.0485  0.4014
  707TMC3    H210512   3.604   2.518   1.456  0.4686 -0.3333 -1.7130
  707TMC3    C710513   3.659   2.556   1.185 -0.5115 -0.1155  0.2756
  707TMC3    C810514   3.794   2.465   1.635 -0.1093 -0.2936  0.2649
  707TMC3    O110515   3.716   2.525   1.079 -0.1255  0.0992 -0.0848
  707TMC3    O210516   3.695   2.463   1.705 -0.5814  0.4198 -0.4968
  708MPD2     C10517   1.053   1.012  14.117  0.0412  0.6723 -0.1269
  708MPD2    C110518   0.949   1.104  14.105 -0.6163 -0.2165 -0.3989
  708MPD2    C210519   0.904   1.170  14.219 -0.3056 -0.7719 -0.0430
  708MPD2    C310520   0.958   1.149  14.342 -0.0311  0.0570 -0.3927
  708MPD2    C410521   1.060   1.055  14.354  0.2165 -0.1232  0.0528
  708MPD2    C510522   1.102   0.976  14.244 -0.4400 -0.7254 -0.6625
  708MPD2     H10523   0.839   1.257  14.214  0.4611 -0.2421 -0.7527
  708MPD2    H110524   1.093   1.032  14.454  0.0313 -0.0092  0.1406
  708MPD2    H210525   1.076   0.951  14.031  0.7779 -2.3442  2.2261
  708MPD2    H310526   1.171   0.894  14.261 -2.7261 -2.1130  1.9891
  708MPD2     N10527   0.913   1.230  14.454  0.1152  0.0040 -0.1949
  708MPD2    H510528   0.846   1.300  14.425  0.1443  0.5948  1.1829
  708MPD2    N110529   0.899   1.138  13.975  0.4742  0.0082  0.3958
  708MPD2    H710530   0.951   1.106  13.894  1.3322  0.2332  0.8544
  709TMC3    C110531   0.760   1.287  13.845 -0.4696  0.2760  0.1222
  709TMC3    C210532   0.863   1.307  13.758  0.4797  0.2365 -0.5323
  709TMC3    C310533   0.876   1.436  13.710  0.2155 -0.2318 -0.1892
  709TMC3    C410534   0.656   1.374  13.864  0.4098  0.7584 -0.1560
  709TMC3    C510535   0.671   1.499  13.807 -0.1433  0.0508 -0.0716
  709TMC3    C610536   0.778   1.533  13.727  0.0449 -0.4625 -0.3043
  709TMC3     C10537   0.780   1.202  13.962  0.2172 -0.1551 -0.0490
  709TMC3     O10538   0.690   1.208  14.047 -0.2364  0.4852 -0.1451
  709TMC3     H10539   0.947   1.238  13.753  2.6340  2.5322  4.6485
  709TMC3    H110540   0.570   1.355  13.927  0.7917  0.9119  0.4063
  709TMC3    H210541   0.782   1.638  13.701  0.4147 -0.4513 -0.2040
  709TMC3    C710542   0.601   1.605  13.882 -0.3304 -0.8311  0.2215
  709TMC3    C810543   0.996   1.463  13.628 -0.3661  0.3972 -0.6015
  709TMC3    O110544   0.491   1.633  13.844  0.0971  0.1552 -0.5121
  709TMC3    O210545   1.091   1.385  13.639 -0.1942  1.0657  0.6979
  710TMC3    C110546   1.709   3.054   0.233  0.3407  0.7461 -0.1698
  710TMC3    C210547   1.767   3.060   0.103 -0.1628  0.5504  0.2009
  710TMC3    C310548   1.896   3.022   0.097  0.7409 -0.3100 -0.5262
  710TMC3    C410549   1.784   3.029   0.342 -0.8002  0.0596 -0.3300
  710TMC3    C510550   1.913   3.002   0.327 -0.3278 -0.3325 -0.7897
  710TMC3    C610551   1.973   2.991   0.204 -0.2569 -0.6478 -1.4378
  710TMC3     C10552   1.561   3.080   0.247  0.1882  0.0021 -0.6876
  710TMC3     O10553   1.492   3.127   0.153  0.3921  0.1639  0.2847
  710TMC3     H10554   1.709   3.070   0.013 -0.8436 -0.7553  0.5046
  710TMC3    H110555   1.743   3.024   0.442  0.2364  1.1703  0.1474
  710TMC3    H210556   2.076   2.961   0.198 -0.9542 -3.3445  0.3950
  710TMC3    C710557   1.985   2.938   0.433 -0.0024  0.2317  0.4266
  710TMC3    C810558   1.953   3.007  17.712 -0.3313 -0.5074 -0.9519
  710TMC3    O110559   1.909   2.883   0.516  0.4900 -0.5683  0.6419
  710TMC3    O210560   1.891   3.056  17.621 -0.4265 -0.7629 -0.2428
  711TMC3    C110561   1.468   4.122  15.269 -0.5914  0.0815  0.9274
  711TMC3    C210562   1.501   4.239  15.325  0.5787  0.3425 -0.2927
  711TMC3    C310563   1.615   4.252  15.394 -0.3430 -0.3080  0.1200
  711TMC3    C410564   1.558   4.021  15.263  0.9272  0.3727  0.3820
  711TMC3    C510565   1.675   4.038  15.335 -0.9289 -0.7923  0.3635
  711TMC3    C610566   1.711   4.159  15.390  0.0650  0.1063 -0.2964
  711TMC3     C10567   1.344   4.111  15.191  0.2456  0.1160 -0.1701
  711TMC3     O10568   1.312   3.997  15.160 -0.5698  0.3200  0.4738
  711TMC3     H10569   1.433   4.323  15.332  2.4288  1.8763 -0.5997
  711TMC3    H110570   1.536   3.929  15.209 -0.1925  0.8879 -0.0384
  711TMC3    H210571   1.795   4.151  15.459 -0.3308  1.0131  0.2918
  711TMC3    C710572   1.763   3.924  15.353  0.1491  0.2923  0.6137
  711TMC3    C810573   1.619   4.361  15.482  0.3409 -1.0286 -0.1897
  711TMC3    O110574   1.878   3.941  15.387 -0.5787  0.0854  0.3614
  711TMC3    O210575   1.518   4.425  15.502 -0.0736 -0.4846 -0.1292
  712MPD2     C10576   2.951   0.374  14.028  0.1167 -0.4681  0.5086
  712MPD2    C110577   2.910   0.426  13.906  0.1886 -0.0333 -0.1763
  712MPD2    C210578   2.956   0.550  13.866 -1.2091  0.3602 -0.5756
  712MPD2    C310579   3.052   0.615  13.951 -0.9196  0.3938 -0.0696
  712MPD2    C410580   3.101   0.554  14.064  0.1156  0.8299  0.0542
  712MPD2    C510581   3.039   0.441  14.109 -0.3466 -0.4663  0.1069
  712MPD2     H10582   2.919   0.588  13.771 -1.5864  2.1377  0.2905
  712MPD2    H110583   3.179   0.599  14.124 -1.6679  2.5958  1.0659
  712MPD2    H210584   2.931   0.274  14.067 -1.4072 -0.6191 -0.6588
  712MPD2    H310585   3.077   0.386  14.195  0.5886  3.3096  2.1113
  712MPD2     N10586   3.101   0.748  13.921 -0.0718 -0.0740 -0.1336
  712MPD2    H510587   3.178   0.773  13.983  1.5925 -0.0654 -2.2026
  712MPD2    N110588   2.822   0.359  13.822  0.2261 -0.0354  0.0676
  712MPD2    H710589   2.816   0.405  13.732 -0.3469 -0.2065  0.0187
  713TMC3    C110590   3.140   0.949  13.796  0.1624  0.3397 -0.2330
  713TMC3    C210591   3.249   0.975  13.876 -0.5256 -0.0869 -0.4130
  713TMC3    C310592   3.300   1.104  13.872 -0.4435 -0.0889 -0.0960
  713TMC3    C410593   3.085   1.041  13.707 -0.6343 -0.0676  0.2277
  713TMC3    C510594   3.141   1.162  13.702 -0.0969  0.7496 -0.3049
  713TMC3    C610595   3.237   1.198  13.797  0.3780 -0.0588 -1.0157
  713TMC3     C10596   3.056   0.828  13.817 -0.2061  0.1318  0.5962
  713TMC3     O10597   2.943   0.822  13.763 -0.1722  0.0214 -0.1148
  713TMC3     H10598   3.300   0.891  13.922 -2.4385 -0.2979  1.3429
  713TMC3    H110599   3.001   1.012  13.645  0.6133 -0.1567 -1.3889
  713TMC3    H210600   3.285   1.293  13.774  0.8678 -0.0642 -0.0493
  713TMC3    C710601   3.064   1.269  13.642 -0.0813 -0.4388 -0.5186
  713TMC3    C810602   3.438   1.127  13.912  0.3079  0.1194  0.1408
  713TMC3    O110603   3.109   1.382  13.667 -0.1157 -0.2632  0.0127
  713TMC3    O210604   3.482   1.234  13.879 -0.7023  0.9826  0.9615
  714MPD2     C10605   0.925   3.505   1.362 -0.4167  0.4841  0.3737
  714MPD2    C110606   0.814   3.435   1.351 -0.1539 -0.6342  0.0255
  714MPD2    C210607   0.704   3.487   1.281  0.7117 -0.8370  0.2208
  714MPD2    C310608   0.700   3.616   1.237  0.0140  0.9005 -0.6018
  714MPD2    C410609   0.816   3.696   1.247 -0.2717 -0.4281 -0.4046
  714MPD2    C510610   0.923   3.637   1.314  0.2137 -0.5974 -0.4373
  714MPD2     H10611   0.611   3.432   1.275  0.8743 -1.2090  1.0180
  714MPD2    H110612   0.823   3.797   1.209 -1.2218 -0.6992 -1.3138
  714MPD2    H210613   1.017   3.464   1.401 -1.6524 -2.8875 -0.2455
  714MPD2    H310614   1.012   3.696   1.336  0.9208 -0.7924 -2.7492
  714MPD2     N10615   0.578   3.668   1.185  0.0174  0.1613 -0.3113
  714MPD2    H510616   0.501   3.603   1.194 -2.0074  2.6517  0.4576
  714MPD2    N110617   0.815   3.304   1.402  0.1523  0.4226 -0.1519
  714MPD2    H710618   0.901   3.271   1.446 -0.6302 -1.1542  0.1755
  715TMC3    C110619   0.738   3.080   1.466 -0.5164 -0.1203 -0.0608
  715TMC3    C210620   0.749   2.971   1.390 -0.3678 -0.0002  0.1320
  715TMC3    C310621   0.855   2.888   1.431 -0.1912  0.2595  0.4265
  715TMC3    C410622   0.803   3.098   1.584 -0.1066  0.7381 -0.2437
  715TMC3    C510623   0.897   3.008   1.629  0.7736  0.2947 -0.3579
  715TMC3    C610624   0.926   2.901   1.545 -0.6763  0.8241  0.0546
  715TMC3     C10625   0.722   3.200   1.387 -0.0180 -0.0119 -0.3230
  715TMC3     O10626   0.632   3.191   1.303  0.1308  0.1520 -0.0736
  715TMC3     H10627   0.682   2.953   1.307 -0.0512 -0.7103  0.0342
  715TMC3    H110628   0.771   3.184   1.642  0.3206  0.0656  0.9866
  715TMC3    H210629   1.005   2.830   1.568 -2.0899 -0.9339 -0.4641
  715TMC3    C710630   0.975   3.027   1.746 -0.4623  0.4396 -0.2801
  715TMC3    C810631   0.908   2.796   1.328  0.0980  0.0440 -0.1130
  715TMC3    O110632   1.083   2.968   1.767 -0.0332  0.0140  0.2884
  715TMC3    O210633   0.849   2.793   1.222  0.0472 -0.4095  0.2186
  716MPD2     C10634   0.376   2.037  10.310 -0.7269  0.4675  0.2361
  716MPD2    C110635   0.347   2.053  10.176  0.2193  0.3681 -0.6342
  716MPD2    C210636   0.402   1.961  10.082  0.4402  0.1963 -1.1654
  716MPD2    C310637   0.483   1.857  10.115 -0.8453  0.6880 -0.3193
  716MPD2    C410638   0.529   1.859  10.245 -0.3505 -0.1499  0.1401
  716MPD2    C510639   0.469   1.944  10.338 -0.5453 -0.4833  0.3238
  716MPD2     H10640   0.373   1.973   9.979 -1.6645  2.1885 -0.3423
  716MPD2    H110641   0.608   1.793  10.280 -0.9993 -0.9675  0.0580
  716MPD2    H210642   0.346   2.114  10.380 -1.1603  0.6170 -0.1126
  716MPD2    H310643   0.501   1.942  10.441 -1.5298  1.5049  0.6679
  716MPD2     N10644   0.531   1.767  10.016  0.3128 -0.1816 -0.5730
  716MPD2    H510645   0.498   1.785   9.921 -0.1043  0.3550 -0.3236
  716MPD2    N110646   0.274   2.168  10.143  0.3780 -0.2614  0.3128
  716MPD2    H710647   0.227   2.220  10.216  1.9432  0.7475  0.5960
  717TMC3    C110648   0.662   1.600   9.914  0.3419  0.5724  0.3491
  717TMC3    C210649   0.572   1.603   9.810  0.2382  0.5172 -0.5270
  717TMC3    C310650   0.624   1.558   9.692 -0.2931  0.2846  0.1985
  717TMC3    C410651   0.789   1.546   9.912 -1.0003 -0.3934  0.6080
  717TMC3    C510652   0.833   1.501   9.791 -0.3072  0.0620 -0.1946
  717TMC3    C610653   0.754   1.512   9.679  0.3799  0.7738 -0.4514
  717TMC3     C10654   0.626   1.668  10.036 -0.2123  0.1600  0.2196
  717TMC3     O10655   0.692   1.639  10.138 -0.3629  0.2155 -0.6318
  717TMC3     H10656   0.466   1.621   9.820  1.0133  4.1555  0.9519
  717TMC3    H110657   0.850   1.550  10.002 -0.5541 -4.0071  0.4761
  717TMC3    H210658   0.797   1.497   9.580  3.5069  1.2571  0.8158
  717TMC3    C710659   0.973   1.478   9.776  0.3218 -0.2580  0.5376
  717TMC3    C810660   0.527   1.519   9.594 -0.1143 -0.1529 -0.0269
  717TMC3    O110661   1.047   1.535   9.857 -0.0467  0.1400 -0.4582
  717TMC3    O210662   0.429   1.589   9.583 -0.1873 -0.4519  0.1022
  718MPD2     C10663   4.010   0.959  12.424 -0.3544 -0.2223  0.1571
  718MPD2    C110664   4.113   0.889  12.487 -0.4660 -0.4409  0.3345
  718MPD2    C210665   4.128   0.883  12.620 -0.5361 -1.0178 -0.1835
  718MPD2    C310666   4.038   0.957  12.701 -0.1293  0.2570 -0.0188
  718MPD2    C410667   3.937   1.035  12.644  0.2822  0.3487  0.0511
  718MPD2    C510668   3.930   1.036  12.507  0.3420  0.4438 -0.2772
  718MPD2     H10669   4.208   0.828  12.667  1.0692  1.5772  0.1253
  718MPD2    H110670   3.869   1.098  12.700  0.4737  0.5149  0.0979
  718MPD2    H210671   3.992   0.962  12.317  2.3854 -2.7257 -0.3495
  718MPD2    H310672   3.855   1.108  12.477  1.5210  0.5520 -2.9209
  718MPD2     N10673   4.047   0.961  12.841  0.2697  0.4252  0.2239
  718MPD2    H510674   3.973   1.008  12.891  0.5933 -1.0001  2.0405
  718MPD2    N110675   4.215   0.842  12.404  0.0061  0.1554  0.2377
  718MPD2    H710676   4.188   0.850  12.307 -1.3601  1.6839  0.7348
  719TMC3    C110677   4.390   0.684  12.326  0.4136 -0.3507  0.3632
  719TMC3    C210678   4.420   0.570  12.392 -0.8299  0.4006  0.3358
  719TMC3    C310679   4.549   0.524  12.393  0.3349  0.5298 -0.3622
  719TMC3    C410680   4.485   0.754  12.257 -0.4777 -0.3780  0.0870
  719TMC3    C510681   4.615   0.699  12.262  0.2572  0.6406 -0.2678
  719TMC3    C610682   4.650   0.590  12.336 -0.6437  0.4890 -0.1654
  719TMC3     C10683   4.324   0.758  12.433  0.5997  0.0395 -0.6860
  719TMC3     O10684   4.360   0.711  12.537 -0.7260 -0.0361 -0.3070
  719TMC3     H10685   4.336   0.508  12.418 -0.4725 -0.1311  0.2312
  719TMC3    H110686   4.468   0.857  12.228  3.0238  0.9085  2.5883
  719TMC3    H210687   0.017   0.562  12.338 -0.8175 -0.1779 -0.4266
  719TMC3    C710688   4.723   0.797  12.248 -0.0722  0.0558 -1.1856
  719TMC3    C810689   4.587   0.451  12.510 -0.3086  0.5348 -0.1331
  719TMC3    O110690   4.725   0.865  12.140  0.5505  0.0250  0.2108
  719TMC3    O210691   4.698   0.398  12.527 -0.2415 -0.4346 -0.0348
  720MPD2     C10692   3.212   2.551  14.352  0.0245  0.0683 -0.2908
  720MPD2    C110693   3.292   2.544  14.232  0.3418  0.0203  0.2711
  720MPD2    C210694   3.430   2.517  14.253 -0.0584 -0.5140 -0.0649
  720MPD2    C310695   3.484   2.516  14.379  0.5238 -0.4081  0.2107
  720MPD2    C410696   3.404   2.530  14.490 -0.1678 -0.0660  0.3742
  720MPD2    C510697   3.270   2.545  14.471 -0.0254 -0.0080  0.7347
  720MPD2     H10698   3.496   2.516  14.168  1.6648  2.5621  1.2453
  720MPD2    H110699   3.440   2.545  14.591 -1.8769  3.2526  0.5028
  720MPD2    H210700   3.107   2.577  14.348  0.0790 -0.0817 -2.6651
  720MPD2    H310701   3.212   2.547  14.562  0.8824  0.7686  1.2980
  720MPD2     N10702   3.624   2.498  14.398 -0.1074 -0.4089 -0.1140
  720MPD2    H510703   3.678   2.519  14.315  2.2333 -1.1737  1.1929
  720MPD2    N110704   3.242   2.563  14.103  0.2811  0.9164  0.8671
  720MPD2    H710705   3.308   2.540  14.029 -0.5045 -1.0410  0.7630
  721TMC3    C110706   3.826   2.470  14.529  0.2995 -0.0171 -0.2350
  721TMC3    C210707   3.883   2.434  14.657 -0.2102 -0.6170 -0.5443
  721TMC3    C310708   4.016   2.424  14.682  0.0720  0.4283  0.6280
  721TMC3    C410709   3.915   2.475  14.423  0.5505 -0.6482 -0.1884
  721TMC3    C510710   4.049   2.465  14.458  0.5725  0.3720 -0.0453
  721TMC3    C610711   4.100   2.463  14.586 -0.0522  0.0123 -0.3218
  721TMC3     C10712   3.681   2.453  14.516  0.2460 -0.3203 -0.1523
  721TMC3     O10713   3.630   2.408  14.618  0.1549  0.5092  0.0737
  721TMC3     H10714   3.823   2.412  14.745 -0.3200  0.9181 -0.2280
  721TMC3    H110715   3.886   2.478  14.319 -0.3106  2.7211  0.1247
  721TMC3    H210716   4.204   2.452  14.614 -0.1794  3.5882  1.5211
  721TMC3    C710717   4.139   2.428  14.356 -0.0553  0.5668 -0.1854
  721TMC3    C810718   4.070   2.354  14.798  0.6564  0.6728 -0.0624
  721TMC3    O110719   4.131   2.479  14.243  0.1370  0.0418 -0.5943
  721TMC3    O210720   4.180   2.302  14.794 -0.1781  0.5176 -0.0635
  722MPD2     C10721   2.116   0.854  12.914  0.5722  0.0688 -0.3649
  722MPD2    C110722   2.068   0.984  12.900  0.1634 -0.7245 -0.2420
  722MPD2    C210723   1.944   0.995  12.846  0.0666  0.0877 -0.5361
  722MPD2    C310724   1.870   0.889  12.809  0.1038  0.0438  0.2537
  722MPD2    C410725   1.912   0.764  12.837  0.4756  0.4933  0.8664
  722MPD2    C510726   2.037   0.748  12.888 -0.4871 -0.0597  0.8019
  722MPD2     H10727   1.916   1.091  12.805 -3.1030 -0.8738 -0.5927
  722MPD2    H110728   1.866   0.668  12.816 -1.5168  1.7462 -0.4498
  722MPD2    H210729   2.212   0.829  12.957  0.5672 -2.3498 -1.7935
  722MPD2    H310730   2.069   0.646  12.909  2.2835  0.8615  1.0511
  722MPD2     N10731   1.746   0.915  12.740 -0.4364 -0.7332  0.4802
  722MPD2    H510732   1.728   1.011  12.711  0.2394  0.2889  3.4410
  722MPD2    N110733   2.151   1.097  12.924 -1.0646  0.0538  0.1248
  722MPD2    H710734   2.114   1.189  12.903 -0.3003 -0.0524 -1.6477
  723TMC3    C110735   1.544   0.870  12.638  0.5345 -0.0415  0.2329
  723TMC3    C210736   1.428   0.799  12.642 -0.0379  0.6484 -0.0516
  723TMC3    C310737   1.311   0.861  12.615  0.1734 -0.5775  0.2540
  723TMC3    C410738   1.543   1.005  12.603  0.3812 -0.1448 -0.6714
  723TMC3    C510739   1.422   1.055  12.562  0.3608 -0.3928  0.1336
  723TMC3    C610740   1.304   0.992  12.574  0.1537 -0.3259 -0.3857
  723TMC3     C10741   1.656   0.814  12.705  0.3570  0.1761 -0.2102
  723TMC3     O10742   1.660   0.691  12.713  0.0293 -0.7165 -0.4743
  723TMC3     H10743   1.434   0.696  12.675 -1.2742  1.2646  2.1107
  723TMC3    H110744   1.634   1.059  12.582 -0.6362  2.4667  1.6106
  723TMC3    H210745   1.206   1.039  12.570 -0.5837 -1.8214  0.2981
  723TMC3    C710746   1.418   1.197  12.548  0.2305 -0.8344  0.1739
  723TMC3    C810747   1.183   0.803  12.646 -0.1911  0.2426  0.0541
  723TMC3    O110748   1.330   1.242  12.476 -0.6607 -0.4980 -0.6622
  723TMC3    O210749   1.079   0.873  12.630  0.0229 -0.2450 -0.1322
  724TMC3    C110750   2.256   3.956  10.704 -0.2923  0.1271 -0.2039
  724TMC3    C210751   2.222   4.015  10.579 -0.0422 -1.0535 -0.0040
  724TMC3    C310752   2.310   4.101  10.524  0.4175  0.0458 -0.1200
  724TMC3    C410753   2.369   3.997  10.772  0.4933  0.3757  0.6709
  724TMC3    C510754   2.449   4.095  10.718  0.6091 -0.1317  0.4535
  724TMC3    C610755   2.417   4.153  10.602 -0.4290 -0.0428  0.2846
  724TMC3     C10756   2.179   3.843  10.746  0.4364  0.7283 -0.0910
  724TMC3     O10757   2.238   3.772  10.825  0.1904  0.0782 -0.4789
  724TMC3     H10758   2.145   3.966  10.520 -0.8421  0.8401 -0.5397
  724TMC3    H110759   2.409   3.950  10.861 -1.2938 -1.0405  0.7364
  724TMC3    H210760   2.489   4.220  10.557 -1.7514  2.2904  1.6462
  724TMC3    C710761   2.548   4.161  10.796  0.2981  0.5875 -0.0597
  724TMC3    C810762   2.262   4.176  10.404 -0.7777  0.3581  0.1000
  724TMC3    O110763   2.634   4.223  10.739 -0.1988  0.8093 -0.3790
  724TMC3    O210764   2.148   4.156  10.363  0.3365  0.4441  0.2837
  725TMC3    C110765   3.839   2.715  12.735  0.3835 -0.3888  0.2348
  725TMC3    C210766   3.776   2.780  12.634  0.2343 -0.7526  0.0563
  725TMC3    C310767   3.726   2.703  12.527  0.2197 -0.5437  0.8891
  725TMC3    C410768   3.842   2.580  12.735 -0.7065  0.0306 -0.2122
  725TMC3    C510769   3.793   2.510  12.636 -0.0084 -0.3654  0.3558
  725TMC3    C610770   3.728   2.565  12.533 -0.2011 -0.1318  0.0895
  725TMC3     C10771   3.920   2.796  12.824 -0.7143 -0.1799 -0.3990
  725TMC3     O10772   3.887   2.914  12.835 -0.0707  0.3357  0.1172
  725TMC3     H10773   3.767   2.888  12.632  0.2909 -0.7926 -2.4725
  725TMC3    H110774   3.880   2.539  12.828  2.0229  2.3301 -0.2838
  725TMC3    H210775   3.681   2.502  12.458 -0.2532 -1.3643  1.1547
  725TMC3    C710776   3.824   2.367  12.625 -0.4573  0.6136  0.2139
  725TMC3    C810777   3.664   2.778  12.427 -0.2373 -0.0186  0.1720
  725TMC3    O110778   3.762   2.311  12.537  0.1607 -0.0302 -0.2362
  725TMC3    O210779   3.655   2.901  12.434 -0.1322 -0.5405  0.3890
  726MPD2     C10780   1.641   4.244  10.740  0.3521  0.3041 -0.5921
  726MPD2    C110781   1.549   4.330  10.791  0.4192 -0.0189  0.1016
  726MPD2    C210782   1.431   4.282  10.835 -0.0262  0.1604  0.0101
  726MPD2    C310783   1.405   4.151  10.833  0.3665  0.2681 -0.1433
  726MPD2    C410784   1.498   4.070  10.787 -0.4786  0.4594 -0.7392
  726MPD2    C510785   1.619   4.111  10.733  0.0830  0.1592  0.4019
  726MPD2     H10786   1.362   4.355  10.876  0.5568  0.1947  0.9291
  726MPD2    H110787   1.478   3.963  10.786 -0.5389  0.4514  1.2843
  726MPD2    H210788   1.736   4.275  10.699  1.0866  1.4223  1.9656
  726MPD2    H310789   1.693   4.043  10.693 -0.0879  1.2088 -1.6598
  726MPD2     N10790   1.281   4.095  10.858 -0.3038  0.3080 -0.7429
  726MPD2    H510791   1.260   4.005  10.816  0.2442 -1.2761  2.3798
  726MPD2    N110792   1.571   4.468  10.786 -0.0355  0.1780 -0.5926
  726MPD2    H710793   1.487   4.523  10.799  0.2758  0.1878  1.3432
  727TMC3    C110794   1.657   4.669  10.725  0.3116  0.1297  0.4620
  727TMC3    C210795   1.746   0.020  10.782 -0.4182 -0.0177  0.1203
  727TMC3    C310796   1.718   0.150  10.772 -0.4677  0.0316  0.8030
  727TMC3    C410797   1.549   4.706  10.658  0.7385  0.7933  0.0934
  727TMC3    C510798   1.521   0.103  10.641  0.1285  0.6748 -0.6304
  727TMC3    C610799   1.610   0.196  10.696  0.2770  0.3155 -0.6273
  727TMC3     C10800   1.687   4.529  10.735 -0.3071 -0.5559 -0.3544
  727TMC3     O10801   1.797   4.493  10.709 -0.2453 -0.0295  0.6686
  727TMC3     H10802   1.823   4.713  10.844 -1.2901 -0.5374  0.8334
  727TMC3    H110803   1.486   4.631  10.612  1.2030  0.2842  0.2782
  727TMC3    H210804   1.590   0.303  10.694 -0.4694  0.1709 -0.7822
  727TMC3    C710805   1.395   0.132  10.578 -0.0185 -0.7526 -0.9707
  727TMC3    C810806   1.818   0.242  10.821  0.0794  0.6447  0.2250
  727TMC3    O110807   1.312   0.046  10.575  0.3992 -0.0066 -0.0436
  727TMC3    O210808   1.934   0.203  10.846  0.8390 -0.5242  0.5728
  728TMC3    C110809   0.873   3.277  15.516 -0.8725 -0.2106 -0.4353
  728TMC3    C210810   0.999   3.251  15.478 -0.1945  0.0643 -0.8689
  728TMC3    C310811   1.021   3.194  15.350 -0.1950 -0.4104 -0.3571
  728TMC3    C410812   0.769   3.255  15.434  0.0122  0.2721 -0.1360
  728TMC3    C510813   0.793   3.211  15.304 -0.2567  0.6047 -0.1132
  728TMC3    C610814   0.919   3.181  15.262  0.3165  0.4147 -0.3508
  728TMC3     C10815   0.854   3.240  15.656  0.3599  0.0059  0.7131
  728TMC3     O10816   0.952   3.257  15.729  0.0104 -0.0848 -0.2705
  728TMC3     H10817   1.076   3.270  15.551 -2.5543 -0.6384  1.8228
  728TMC3    H110818   0.670   3.273  15.474  0.4416  4.2513 -0.8315
  728TMC3    H210819   0.939   3.127  15.170  2.2982 -1.2763  1.0754
  728TMC3    C710820   0.692   3.231  15.198  0.4052  0.9728  0.7186
  728TMC3    C810821   1.108   3.078  15.354  0.3378 -0.3684  0.0770
  728TMC3    O110822   0.574   3.210  15.230 -0.1119 -0.0463  0.9471
  728TMC3    O210823   1.152   3.034  15.246  1.0052  0.0927 -0.3178
  729MPD2     C10824   2.764   4.389  17.029  0.4166  0.2751 -0.0942
  729MPD2    C110825   2.845   4.351  17.130  0.4038 -0.1965  0.2414
  729MPD2    C210826   2.792   4.366  17.258 -0.3838 -0.4404 -0.5820
  729MPD2    C310827   2.678   4.429  17.286  0.3429 -0.5038  0.3322
  729MPD2    C410828   2.600   4.472  17.177  0.3773  0.0488 -0.3059
  729MPD2    C510829   2.642   4.440  17.054  0.0303 -0.0931  0.2658
  729MPD2     H10830   2.847   4.328  17.343 -1.3709 -1.0829 -0.2372
  729MPD2    H110831   2.503   4.518  17.193 -0.6128 -1.9106 -0.7482
  729MPD2    H210832   2.783   4.368  16.925  1.3423  2.2370 -0.3305
  729MPD2    H310833   2.582   4.476  16.971 -1.3308 -1.1671  0.7668
  729MPD2     N10834   2.623   4.460  17.409 -0.4025 -0.7966 -1.6543
  729MPD2    H510835   2.531   4.505  17.406  0.5189  1.3379  1.3266
  729MPD2    N110836   2.969   4.284  17.095 -0.4569 -0.2217 -0.8634
  729MPD2    H710837   2.995   4.294  16.997  0.7320 -0.7031 -0.5990
  730TMC3    C110838   2.602   4.499  17.646 -0.1208 -0.0855 -0.5162
  730TMC3    C210839   2.663   4.471   0.016  0.5210 -0.6186  0.2467
  730TMC3    C310840   2.687   4.570   0.110  0.2024 -0.1109  0.5060
  730TMC3    C410841   2.567   4.634  17.627  0.2559  0.3692  0.1130
  730TMC3    C510842   2.607   4.729  17.712  1.0017  0.7949 -0.0162
  730TMC3    C610843   2.661   4.699   0.083  0.2120  0.5034 -0.7103
  730TMC3     C10844   2.678   4.443  17.531 -0.0817 -0.3042 -0.0614
  730TMC3     O10845   2.779   4.379  17.562  0.0476 -0.0799 -0.4928
  730TMC3     H10846   2.702   4.371   0.032 -0.3978 -0.7986  1.3356
  730TMC3    H110847   2.534   4.669  17.529 -0.3273 -0.1409  0.1275
  730TMC3    H210848   2.694   0.048   0.138 -0.0460 -1.3031  2.2943
  730TMC3    C710849   2.681   0.093  17.638 -0.6523 -0.3753  0.4177
  730TMC3    C810850   2.744   4.508   0.233  0.3462  0.2939  0.3483
  730TMC3    O110851   2.714   0.055  17.528 -0.0902  0.2736  0.2866
  730TMC3    O210852   2.763   4.387   0.239 -0.2969  0.0174 -0.2795
  731MPD2     C10853   2.773   2.200  12.461 -0.2174  0.3652 -0.3904
  731MPD2    C110854   2.882   2.139  12.398  0.4159  0.9494  0.2069
  731MPD2    C210855   3.006   2.159  12.457 -0.3778  0.2656 -0.2814
  731MPD2    C310856   3.012   2.211  12.585 -0.2976  0.0424 -0.2776
  731MPD2    C410857   2.904   2.273  12.636  0.4754  0.3634 -0.1190
  731MPD2    C510858   2.787   2.268  12.570  0.0426 -0.6078  0.2281
  731MPD2     H10859   3.097   2.122  12.409 -0.4134  1.2860 -1.1239
  731MPD2    H110860   2.899   2.323  12.732 -1.6973 -0.1405  0.0312
  731MPD2    H210861   2.672   2.183  12.425 -0.5432  4.3284 -1.3631
  731MPD2    H310862   2.702   2.312  12.621 -0.3664  1.3520 -2.1411
  731MPD2     N10863   3.138   2.214  12.654  0.0593 -0.1812 -0.4743
  731MPD2    H510864   3.208   2.174  12.593 -0.9820 -1.6128 -0.7397
  731MPD2    N110865   2.860   2.075  12.278 -0.4550  0.1098 -0.3348
  731MPD2    H710866   2.764   2.067  12.245 -0.3825 -3.3876  0.2766
  732TMC3    C110867   2.912   1.972  12.066 -0.2085 -0.1234 -0.6003
  732TMC3    C210868   2.784   1.928  12.044  0.2236  0.5104 -0.2820
  732TMC3    C310869   2.753   1.864  11.930 -0.0682 -0.0152  0.0237
  732TMC3    C410870   3.004   1.941  11.976 -0.4717  0.9546 -0.1033
  732TMC3    C510871   2.975   1.860  11.869  0.4827  0.1299  0.7685
  732TMC3    C610872   2.851   1.823  11.839  0.2733  0.2151  0.0900
  732TMC3     C10873   2.954   2.034  12.190  0.1163  0.5028 -0.6422
  732TMC3     O10874   3.076   2.036  12.209 -0.3163  0.4326  0.9069
  732TMC3     H10875   2.708   1.968  12.111 -0.1455 -0.6614  0.0011
  732TMC3    H110876   3.107   1.969  11.996 -0.4568  1.1274 -0.4153
  732TMC3    H210877   2.828   1.765  11.751 -1.6379  0.1661  0.6142
  732TMC3    C710878   3.083   1.791  11.804 -0.4420  0.9065  0.3172
  732TMC3    C810879   2.615   1.838  11.887 -0.2638 -0.1038 -0.2604
  732TMC3    O110880   3.062   1.735  11.696 -0.0663 -0.1095 -0.1603
  732TMC3    O210881   2.592   1.757  11.790 -0.0604 -0.2807  0.2243
  733TMC3    C110882   4.055   0.771  13.247 -0.3360  0.3527  0.2894
  733TMC3    C210883   4.022   0.845  13.134  0.0493 -0.2823  0.2089
  733TMC3    C310884   4.127   0.897  13.061 -0.0166 -0.0180  0.1013
  733TMC3    C410885   4.180   0.737  13.279  0.2898  0.0026 -0.5073
  733TMC3    C510886   4.282   0.794  13.212 -0.7278  0.5065 -0.3828
  733TMC3    C610887   4.254   0.883  13.110  0.2687  0.3853  0.3687
  733TMC3     C10888   3.940   0.708  13.311 -0.1394 -0.4569  0.0513
  733TMC3     O10889   3.832   0.710  13.255 -0.1363 -0.0384 -0.5663
  733TMC3     H10890   3.923   0.845  13.092  0.4690  1.0875 -0.7953
  733TMC3    H110891   4.203   0.657  13.348  1.9218 -0.0959 -1.1730
  733TMC3    H210892   4.337   0.917  13.050 -0.5385  0.9265 -0.4367
  733TMC3    C710893   4.384   0.699  13.175  0.5525  0.1796 -0.0571
  733TMC3    C810894   4.131   0.882  12.915  0.0218 -0.4908  0.3585
  733TMC3    O110895   4.432   0.632  13.263  0.6164  0.0140  0.0352
  733TMC3    O210896   4.231   0.819  12.884  0.5735  0.0825  0.1324
  734MPD2     C10897   1.368   3.280  12.783 -0.4255  0.2397  0.0519
  734MPD2    C110898   1.287   3.248  12.679 -0.0917 -0.0269 -0.1873
  734MPD2    C210899   1.323   3.288  12.548  0.2055 -0.2787  0.2147
  734MPD2    C310900   1.428   3.370  12.526 -0.1259 -0.3929 -0.0823
  734MPD2    C410901   1.505   3.411  12.631  0.1397  0.0297 -0.3025
  734MPD2    C510902   1.470   3.366  12.760 -0.4531  0.1616  0.1319
  734MPD2     H10903   1.265   3.259  12.462 -1.4043  1.3857  0.7372
  734MPD2    H110904   1.589   3.479  12.620 -0.9802  1.5046  0.2950
  734MPD2    H210905   1.347   3.245  12.883 -1.5789  0.7680 -0.0078
  734MPD2    H310906   1.534   3.398  12.842 -0.9473  1.4812 -0.0083
  734MPD2     N10907   1.448   3.402  12.392  0.3292 -0.3732 -0.2049
  734MPD2    H510908   1.393   3.347  12.326  2.8311 -1.9876 -0.9695
  734MPD2    N110909   1.175   3.160  12.706 -0.3205  0.1866 -0.6891
  734MPD2    H710910   1.173   3.111  12.795 -0.8110  1.4507 -0.0071
  735TMC3    C110911   1.013   3.017  12.631  0.2539 -0.2538 -0.0421
  735TMC3    C210912   0.928   2.998  12.527  0.0636 -0.2685 -0.2046
  735TMC3    C310913   0.906   2.876  12.469  0.6530  0.4882  0.6089
  735TMC3    C410914   1.087   2.916  12.679 -0.1583  0.0753 -0.8527
  735TMC3    C510915   1.064   2.800  12.620  0.5544  0.1256  0.3569
  735TMC3    C610916   0.981   2.774  12.517 -0.3322 -0.2647  0.2280
  735TMC3     C10917   1.080   3.136  12.615  0.0313  0.2295  0.9164
  735TMC3     O10918   1.061   3.183  12.503  0.5409  0.0369  0.1612
  735TMC3     H10919   0.861   3.078  12.496  0.9918  0.8091  0.5603
  735TMC3    H110920   1.173   2.925  12.744 -1.1795 -4.8088  1.2109
  735TMC3    H210921   0.983   2.682  12.461  1.5943  0.4824 -0.9311
  735TMC3    C710922   1.166   2.700  12.632 -0.5281 -0.0720 -0.2129
  735TMC3    C810923   0.908   2.899  12.330  0.0048 -0.3192 -0.9334
  735TMC3    O110924   1.279   2.744  12.624  0.7488 -0.0071  0.6123
  735TMC3    O210925   0.847   2.819  12.258  0.8543 -0.0003 -0.0488
  736MPD2     C10926   1.107   2.349  12.734 -0.4959 -1.2597 -0.2411
  736MPD2    C110927   1.182   2.466  12.712  0.0031  0.2738  0.1702
  736MPD2    C210928   1.322   2.455  12.713  0.0083 -0.1853  0.0041
  736MPD2    C310929   1.384   2.336  12.750  0.4460 -0.4192  0.4371
  736MPD2    C410930   1.307   2.223  12.788 -0.5598  0.5881 -0.2395
  736MPD2    C510931   1.170   2.233  12.767  0.5422  0.2431  0.1416
  736MPD2     H10932   1.383   2.542  12.694  0.9662 -0.9207 -0.3254
  736MPD2    H110933   1.356   2.133  12.824 -0.0197  0.8798 -0.2465
  736MPD2    H210934   0.999   2.349  12.731 -0.5698  3.8335  1.0540
  736MPD2    H310935   1.102   2.153  12.795 -0.3264  0.1885 -2.0937
  736MPD2     N10936   1.524   2.321  12.744  0.3999  0.0812 -0.3612
  736MPD2    H510937   1.557   2.226  12.761 -1.5665 -1.0433 -2.8593
  736MPD2    N110938   1.113   2.578  12.664  0.4596  0.5490  0.4328
  736MPD2    H710939   1.015   2.571  12.640  0.2081  1.8785  1.0877
  737TMC3    C110940   1.750   2.366  12.704  0.3741 -0.2077 -0.2084
  737TMC3    C210941   1.851   2.462  12.703  0.5280  0.3873  0.5756
  737TMC3    C310942   1.944   2.460  12.601  0.1521  0.6218  0.2997
  737TMC3    C410943   1.760   2.265  12.611 -0.0493 -0.0607 -0.0766
  737TMC3    C510944   1.841   2.268  12.504  0.1245 -0.1939 -0.7014
  737TMC3    C610945   1.947   2.359  12.505 -0.3511  0.9918  0.0378
  737TMC3     C10946   1.616   2.425  12.727 -0.6619  0.0022 -0.1634
  737TMC3     O10947   1.604   2.544  12.704 -0.3842  0.0904 -0.3251
  737TMC3     H10948   1.844   2.550  12.766 -0.0488  1.6379 -1.2289
  737TMC3    H110949   1.686   2.186  12.620  0.0963 -0.0643  1.1761
  737TMC3    H210950   2.026   2.356  12.431 -1.9722 -0.2641 -1.6547
  737TMC3    C710951   1.844   2.146  12.420 -0.0058 -0.1393 -0.3557
  737TMC3    C810952   2.015   2.580  12.545 -0.1059 -0.8067  0.2225
  737TMC3    O110953   1.770   2.053  12.451 -0.5834  0.3781  0.4253
  737TMC3    O210954   2.093   2.642  12.618  0.1878  0.7331  0.2402
  738MPD2     C10955   2.176   1.573  14.855 -0.4032  0.2138 -0.1803
  738MPD2    C110956   2.229   1.512  14.961  0.2937 -0.2474  0.4287
  738MPD2    C210957   2.313   1.572  15.057 -0.7188 -0.7054 -0.2018
  738MPD2    C310958   2.353   1.703  15.022 -0.1014  0.1511  0.5916
  738MPD2    C410959   2.277   1.773  14.927 -0.8031  0.2459  0.8622
  738MPD2    C510960   2.192   1.708  14.838 -0.8429 -0.3240 -0.3671
  738MPD2     H10961   2.341   1.506  15.138  0.7823  1.0453  0.6867
  738MPD2    H110962   2.294   1.875  14.895  2.2266 -0.6904 -0.5146
  738MPD2    H210963   2.109   1.522  14.787 -2.8708  2.2463  0.7043
  738MPD2    H310964   2.118   1.752  14.773 -0.5123  1.1067  0.2273
  738MPD2     N10965   2.456   1.772  15.088  0.2784  0.2133  0.8265
  738MPD2    H510966   2.483   1.863  15.052  1.8424 -1.7847 -3.1277
  738MPD2    N110967   2.198   1.371  14.987  0.1208 -0.5632 -0.0108
  738MPD2    H710968   2.235   1.340  15.076  1.7175 -0.7185 -0.7353
  739TMC3    C110969   2.669   1.785  15.149  0.0768  0.6306  0.4444
  739TMC3    C210970   2.695   1.840  15.024  0.0193 -0.3922  0.5114
  739TMC3    C310971   2.818   1.893  14.997  0.4919 -0.1403  0.6002
  739TMC3    C410972   2.770   1.765  15.234 -0.1610 -0.3521 -0.0322
  739TMC3    C510973   2.894   1.819  15.206 -0.4149 -0.5115  0.2210
  739TMC3    C610974   2.916   1.885  15.090  0.6059  0.2343 -0.9664
  739TMC3     C10975   2.551   1.706  15.162  0.0191 -0.0816 -0.4445
  739TMC3     O10976   2.547   1.596  15.221  0.3598  0.6292 -0.2377
  739TMC3     H10977   2.638   1.833  14.932 -0.4399  2.0274  0.5994
  739TMC3    H110978   2.752   1.721  15.332  0.8135 -1.8650 -0.5259
  739TMC3    H210979   3.015   1.905  15.051  1.1985  0.4101  0.5851
  739TMC3    C710980   3.009   1.767  15.287 -0.0724  0.6454  0.1896
  739TMC3    C810981   2.840   1.952  14.864  0.5650  0.3588 -0.8019
  739TMC3    O110982   2.991   1.670  15.359 -0.3869 -0.1666 -0.2137
  739TMC3    O210983   2.758   1.921  14.778 -0.3508 -0.1403 -0.4243
  740TMC3    C110984   3.102   2.866  14.712  0.4991  0.2798 -0.1861
  740TMC3    C210985   3.158   2.827  14.831 -0.2242  0.4467  0.1629
  740TMC3    C310986   3.290   2.787  14.820  0.6335 -0.4286  0.1780
  740TMC3    C410987   3.173   2.882  14.595  0.9514  0.3955 -0.1363
  740TMC3    C510988   3.311   2.847  14.591 -0.2326 -0.4563  0.6918
  740TMC3    C610989   3.360   2.781  14.702 -0.3139 -0.0104  0.4437
  740TMC3     C10990   2.969   2.925  14.715 -0.7340 -0.1581  0.1625
  740TMC3     O10991   2.951   3.009  14.628  0.1725 -0.1642 -0.7270
  740TMC3     H10992   3.100   2.820  14.923 -0.2659  0.2710  0.1226
  740TMC3    H110993   3.112   2.923  14.515  1.6129 -2.6073 -2.1811
  740TMC3    H210994   3.467   2.764  14.714 -0.0646  0.9727 -0.3439
  740TMC3    C710995   3.394   2.858  14.467  0.1436  0.0116  0.2584
  740TMC3    C810996   3.359   2.769  14.940 -0.2295  0.0663  0.0199
  740TMC3    O110997   3.512   2.832  14.478  0.0990  0.6746  0.7114
  740TMC3    O210998   3.449   2.688  14.941 -0.1337 -0.3450 -0.5513
  741TMC3    C110999   2.421   2.305  14.605  0.0384  0.3856 -0.0294
  741TMC3    C211000   2.342   2.212  14.539 -0.4650  0.1251 -0.4551
  741TMC3    C311001   2.334   2.087  14.597 -0.1842 -0.2941  0.1438
  741TMC3    C411002   2.483   2.276  14.724 -0.5100 -0.4421  0.4821
  741TMC3    C511003   2.485   2.147  14.776 -0.2411  0.8769  0.5008
  741TMC3    C611004   2.403   2.056  14.715 -0.0608  0.5581 -0.0143
  741TMC3     C11005   2.433   2.435  14.540 -0.1963  0.8118  0.6467
  741TMC3     O11006   2.342   2.481  14.475  0.6218 -0.0095  0.6649
  741TMC3     H11007   2.283   2.234  14.451 -0.0166 -0.6881 -0.9676
  741TMC3    H111008   2.545   2.355  14.766 -0.6404 -0.0452 -0.0835
  741TMC3    H211009   2.405   1.956  14.755 -3.4196  0.4750 -0.0859
  741TMC3    C711010   2.514   2.124  14.917 -0.9797  0.3807  0.5480
  741TMC3    C811011   2.248   1.986  14.533  0.0626  0.1906  0.2613
  741TMC3    O111012   2.458   2.027  14.970 -0.0546 -0.1922 -0.0897
  741TMC3    O211013   2.166   2.022  14.451  0.4846 -0.3758 -0.4464
  742TMC3    C111014   2.280   0.159  15.782  0.0507  0.2126  0.1802
  742TMC3    C211015   2.223   0.193  15.662  0.4623 -0.2044  0.1615
  742TMC3    C311016   2.311   0.199  15.554  0.0527  0.2089 -0.0422
  742TMC3    C411017   2.413   0.170  15.805 -0.2601 -0.3002 -0.1311
  742TMC3    C511018   2.493   0.185  15.695  0.3924 -0.9618  0.3677
  742TMC3    C611019   2.445   0.179  15.567 -0.3921  0.1110 -0.1421
  742TMC3     C11020   2.198   0.155  15.903 -0.7622 -0.6145 -0.2518
  742TMC3     O11021   2.235   0.165  16.022  0.1612 -0.4263  0.4857
  742TMC3     H11022   2.121   0.171  15.633  0.3354 -0.1077  0.5442
  742TMC3    H111023   2.446   0.144  15.905  0.9618  1.1756 -0.1457
  742TMC3    H211024   2.514   0.199  15.486 -0.6309  1.4772 -0.0107
  742TMC3    C711025   2.637   0.168  15.715  0.7095 -0.1222  0.3490
  742TMC3    C811026   2.261   0.177  15.418  0.1191 -0.4525 -0.0417
  742TMC3    O111027   2.698   0.156  15.609 -0.0852  0.0415  0.8008
  742TMC3    O211028   2.340   0.125  15.341 -0.0248 -0.0689  0.1147
  743MPD2     C11029   4.671   1.775   2.028 -0.9702 -0.9932  0.4977
  743MPD2    C111030   4.717   1.775   1.900 -0.1757 -0.0750 -0.3221
  743MPD2    C211031   0.114   1.761   1.882  0.2346 -0.5534  0.5172
  743MPD2    C311032   0.197   1.736   1.990  0.2305 -0.8151  0.0161
  743MPD2    C411033   0.146   1.734   2.115 -0.0343  0.0455  0.6142
  743MPD2    C511034   0.014   1.754   2.132 -0.4640  0.5230 -0.1137
  743MPD2     H11035   0.164   1.765   1.786  0.9397  0.6305  0.9305
  743MPD2    H111036   0.203   1.693   2.198  2.9422  0.6778 -1.0904
  743MPD2    H211037   4.563   1.778   2.040 -1.0018  0.7856 -0.1940
  743MPD2    H311038   4.696   1.733   2.223 -0.2471 -1.6399 -0.4612
  743MPD2     N11039   0.329   1.699   1.957  0.8628 -0.3420 -0.7220
  743MPD2    H511040   0.347   1.701   1.858 -0.4108  1.4538 -0.9411
  743MPD2    N111041   4.624   1.782   1.795  0.1992 -0.1570 -0.2640
  743MPD2    H711042   4.530   1.800   1.828  0.9806 -1.2381  2.5243
  744TMC3    C111043   4.533   1.787   1.576  0.6854 -0.9369  0.1302
  744TMC3    C211044   4.425   1.858   1.627  0.5718 -0.3436 -0.8130
  744TMC3    C311045   4.350   1.928   1.528  0.4372 -0.4153  0.0928
  744TMC3    C411046   4.549   1.762   1.444 -0.6101  0.0901  1.3661
  744TMC3    C511047   4.464   1.811   1.358 -0.2558  0.5161  0.1507
  744TMC3    C611048   4.367   1.897   1.396  0.2748  0.2067  0.4850
  744TMC3     C11049   4.642   1.750   1.662  0.3892 -0.1571 -0.5921
  744TMC3     O11050   0.013   1.710   1.618 -0.7071  0.0236 -0.2126
  744TMC3     H11051   4.402   1.873   1.732 -1.0595  2.0645 -1.4941
  744TMC3    H111052   4.633   1.708   1.401 -1.7424 -0.0542 -0.6843
  744TMC3    H211053   4.296   1.940   1.327  0.8628 -0.6858 -0.6830
  744TMC3    C711054   4.472   1.788   1.217 -0.1562 -0.5091 -0.3962
  744TMC3    C811055   4.227   1.998   1.556 -0.8294 -0.1425 -0.2970
  744TMC3    O111056   4.580   1.750   1.172  0.3411 -0.3185  0.4353
  744TMC3    O211057   4.162   2.033   1.457  0.1426 -0.3415  0.0332
  745TMC3    C111058   2.668   0.198  13.749 -0.7746 -0.3025  0.8638
  745TMC3    C211059   2.541   0.165  13.781 -0.0392 -0.5854 -0.2105
  745TMC3    C311060   2.439   0.177  13.693  0.7392 -0.3299  0.7202
  745TMC3    C411061   2.700   0.233  13.622 -0.3177 -0.5813  0.0436
  745TMC3    C511062   2.598   0.225  13.526  0.9812  0.2803 -0.3572
  745TMC3    C611063   2.469   0.201  13.563 -0.7860  0.0905  0.5301
  745TMC3     C11064   2.745   0.255  13.859 -0.5582 -0.1190  0.6306
  745TMC3     O11065   2.719   0.226  13.973  0.2553 -0.1107  0.9922
  745TMC3     H11066   2.524   0.134  13.884 -0.7882 -0.0042 -0.1608
  745TMC3    H111067   2.793   0.281  13.591 -0.9403  0.0013 -0.9192
  745TMC3    H211068   2.387   0.219  13.495  0.6745 -0.3983 -1.3635
  745TMC3    C711069   2.632   0.229  13.389  0.7672 -0.3997  0.7436
  745TMC3    C811070   2.338   0.274  13.739  0.3787  0.2711  0.0748
  745TMC3    O111071   2.539   0.255  13.316  0.1541 -0.2483  0.0277
  745TMC3    O211072   2.235   0.297  13.679  0.4422  0.5039  0.2642
  746TMC3    C111073   0.002   2.114  11.279  0.1448  0.1724  0.1987
  746TMC3    C211074   0.141   2.106  11.286  0.5827  0.5090  0.2310
  746TMC3    C311075   0.200   1.982  11.269  0.0371  0.0945 -0.5162
  746TMC3    C411076   4.670   2.006  11.249  0.4976 -0.0734  0.2908
  746TMC3    C511077   4.734   1.890  11.220  0.3803  0.0038 -0.4685
  746TMC3    C611078   0.128   1.871  11.233  0.0112  0.1607 -0.1929
  746TMC3     C11079   4.671   2.241  11.305  0.4375 -0.0486  0.9020
  746TMC3     O11080   4.559   2.239  11.356 -0.4668 -0.4841 -0.1289
  746TMC3     H11081   0.204   2.190  11.314 -1.1146  1.3007  1.6636
  746TMC3    H111082   4.562   2.013  11.243  0.6550  1.3520 -0.7084
  746TMC3    H211083   0.181   1.781  11.205  0.1692  0.1715  0.0753
  746TMC3    C711084   4.645   1.782  11.181  0.5568  0.7122  0.2494
  746TMC3    C811085   0.331   1.973  11.215  0.2360 -0.0469 -0.1467
  746TMC3    O111086   4.526   1.809  11.145 -0.6035 -0.2836  0.1773
  746TMC3    O211087   0.400   1.874  11.244 -0.1746 -0.9189  0.1719
  747TMC3    C111088   2.189   2.054  11.412  0.0256 -0.1644  0.3191
  747TMC3    C211089   2.099   2.039  11.518  0.6743  0.0366 -0.1153
  747TMC3    C311090   2.149   2.064  11.641 -0.2845  0.4882 -0.1068
  747TMC3    C411091   2.322   2.070  11.431  0.4103  0.2115  0.9678
  747TMC3    C511092   2.368   2.067  11.557 -0.0360 -0.8068  0.1706
  747TMC3    C611093   2.281   2.071  11.665 -0.6244 -0.3015 -0.4401
  747TMC3     C11094   2.128   2.065  11.277 -0.8837 -0.0140  0.1792
  747TMC3     O11095   2.009   2.096  11.284  0.6440  0.1473 -0.3916
  747TMC3     H11096   1.992   2.044  11.500  0.5039 -0.1548  0.8747
  747TMC3    H111097   2.389   2.070  11.346 -1.3042  0.1541 -0.3834
  747TMC3    H211098   2.313   2.082  11.768  0.2871  1.7011 -0.9469
  747TMC3    C711099   2.505   2.088  11.590  0.2457  0.3759  0.5415
  747TMC3    C811100   2.065   2.001  11.743 -0.1492  0.2576 -0.1452
  747TMC3    O111101   2.531   2.128  11.703 -0.2970  0.3324 -0.2644
  747TMC3    O211102   1.966   1.933  11.697  0.3008 -0.0512 -0.2371
  748MPD2     C11103   3.799   3.033   1.346  0.4427 -0.1475 -0.1149
  748MPD2    C111104   3.865   2.988   1.233 -0.2895  0.8400 -0.0845
  748MPD2    C211105   4.002   2.971   1.231 -0.3408  0.0280 -0.0614
  748MPD2    C311106   4.077   3.003   1.341 -0.2857  0.5476  1.2646
  748MPD2    C411107   4.008   3.042   1.457  0.2246 -0.0149  0.0693
  748MPD2    C511108   3.873   3.058   1.454 -0.3535  0.3346  0.5437
  748MPD2     H11109   4.054   2.944   1.140  0.3644 -1.3997  0.7634
  748MPD2    H111110   4.064   3.065   1.547 -0.7444  1.5501  0.2579
  748MPD2    H211111   3.691   3.045   1.341  0.4622 -0.4247 -1.1940
  748MPD2    H311112   3.824   3.086   1.547  0.4266  2.0046  0.4350
  748MPD2     N11113   4.221   2.994   1.336 -0.5331 -0.3512 -0.8291
  748MPD2    H511114   4.268   2.987   1.247 -0.2191  1.5276 -0.8105
  748MPD2    N111115   3.783   2.945   1.122  0.2252  0.1764 -0.4295
  748MPD2    H711116   3.685   2.966   1.134  0.5815  1.2992  0.6247
  749TMC3    C111117   4.453   2.969   1.421  0.5531 -0.5155 -0.7941
  749TMC3    C211118   4.535   2.937   1.525 -0.1234 -0.2124  0.7546
  749TMC3    C311119   4.657   2.896   1.491  0.5646  0.1179  0.0575
  749TMC3    C411120   4.494   2.984   1.293  0.1869  0.0365 -0.1465
  749TMC3    C511121   4.620   2.943   1.265 -0.6966  0.4664 -0.6884
  749TMC3    C611122   4.699   2.896   1.362  0.2135 -0.2256  0.5881
  749TMC3     C11123   4.303   2.982   1.446 -0.6339  0.4208  0.1149
  749TMC3     O11124   4.274   2.997   1.561  0.4873 -0.3393 -0.6754
  749TMC3     H11125   4.497   2.923   1.626  0.9357  1.7907  1.4447
  749TMC3    H111126   4.428   3.025   1.218  1.3154  0.4833 -0.8929
  749TMC3    H211127   0.065   2.875   1.339  0.2052  0.8589 -0.4372
  749TMC3    C711128   4.673   2.984   1.131  0.1098 -0.3044 -0.4427
  749TMC3    C811129   4.738   2.832   1.595  0.2432  0.5020 -0.0559
  749TMC3    O111130   4.629   3.093   1.089 -0.3590  0.8426 -0.0801
  749TMC3    O211131   4.695   2.849   1.709  0.4284  0.2993 -0.1987
  750MPD2     C11132   0.206   4.074  11.403 -0.1002  0.8600 -0.5413
  750MPD2    C111133   0.091   4.017  11.451  0.2431 -0.7161 -0.5656
  750MPD2    C211134   0.043   3.908  11.389  0.9349 -0.1649 -0.1044
  750MPD2    C311135   0.100   3.860  11.271  0.3380 -0.2718 -0.6075
  750MPD2    C411136   0.211   3.911  11.219  0.2968  0.4216  0.7788
  750MPD2    C511137   0.261   4.023  11.292 -0.5996  0.3322  0.5410
  750MPD2     H11138   4.697   3.853  11.431 -0.8119  1.2812 -1.6849
  750MPD2    H111139   0.274   3.871  11.140  0.8270  1.0134  0.8956
  750MPD2    H211140   0.246   4.166  11.444 -2.1765  1.0922  0.9539
  750MPD2    H311141   0.352   4.069  11.255  0.7675 -1.9412  1.0489
  750MPD2     N11142   0.049   3.753  11.199 -0.0573 -0.1952 -0.1923
  750MPD2    H511143   0.100   3.735  11.113 -0.8986 -0.1485 -0.7030
  750MPD2    N111144   0.044   4.062  11.579  0.0902 -0.3978  0.1202
  750MPD2    H711145   0.095   4.141  11.617 -1.0039  0.6585 -0.6050
  751TMC3    C111146   4.660   3.565  11.128  0.7723  0.4425 -0.4900
  751TMC3    C211147   4.534   3.523  11.113  0.2782 -1.1494 -0.6174
  751TMC3    C311148   4.517   3.417  11.027  0.6210 -0.4524 -0.1951
  751TMC3    C411149   0.035   3.503  11.080  0.4270 -0.2257  0.4022
  751TMC3    C511150   0.009   3.401  10.998 -0.0730 -0.6675 -0.4018
  751TMC3    C611151   4.621   3.366  10.953 -0.5369 -0.4231  0.4949
  751TMC3     C11152   4.671   3.678  11.217  0.2857 -0.0411  0.0531
  751TMC3     O11153   4.584   3.712  11.300  0.3501  0.0117 -0.2166
  751TMC3     H11154   4.453   3.571  11.167  0.4430 -0.7672 -0.7114
  751TMC3    H111155   0.130   3.545  11.113  0.5700 -1.7592  1.9640
  751TMC3    H211156   4.600   3.273  10.900 -1.2014 -0.2003  0.3663
  751TMC3    C711157   0.128   3.352  10.919  0.2182  0.2385 -0.1667
  751TMC3    C811158   4.421   3.318  11.059 -0.8301  1.0567 -0.3076
  751TMC3    O111159   0.234   3.412  10.930 -0.2042 -0.0041 -0.4736
  751TMC3    O211160   4.411   3.219  10.989  0.0476 -0.0741 -0.4705
  752TMC3    C111161   3.317   3.864   0.301 -0.4958 -0.0283 -0.0680
  752TMC3    C211162   3.358   3.849   0.426  0.1612 -0.6574 -0.1954
  752TMC3    C311163   3.282   3.887   0.535  0.1423  0.9557 -0.0113
  752TMC3    C411164   3.198   3.927   0.282 -0.9385  0.4537  0.1287
  752TMC3    C511165   3.117   3.959   0.390 -0.0464  0.6333  0.0519
  752TMC3    C611166   3.160   3.946   0.521 -0.1868  0.3566  0.3815
  752TMC3     C11167   3.407   3.829   0.189 -0.4163  0.0570 -0.0494
  752TMC3     O11168   3.512   3.780   0.221  0.5061 -0.3861 -0.4655
  752TMC3     H11169   3.444   3.786   0.444 -0.9695 -2.4855 -1.0677
  752TMC3    H111170   3.145   3.925   0.188 -0.8993 -1.1740  0.1343
  752TMC3    H211171   3.107   3.968   0.613  0.7463  0.8152  0.8108
  752TMC3    C711172   2.980   3.988   0.363 -0.4361 -0.2332  0.2348
  752TMC3    C811173   3.323   3.854   0.676 -0.5740 -0.4052  0.6210
  752TMC3    O111174   2.937   3.986   0.249  0.1734  0.1577 -0.2548
  752TMC3    O211175   3.236   3.831   0.757 -0.5048  0.4836 -0.0548
  753TMC3    C111176   1.260   4.488  13.549  0.1340  0.8409  0.2561
  753TMC3    C211177   1.308   4.526  13.671 -0.4542 -0.7881  0.0838
  753TMC3    C311178   1.295   4.431  13.763 -0.5867  0.5795  0.5963
  753TMC3    C411179   1.178   4.386  13.517  0.9115  0.7291  1.2814
  753TMC3    C511180   1.157   4.302  13.624 -0.5583  0.3708 -0.7252
  753TMC3    C611181   1.222   4.316  13.743 -0.3190  0.2605  0.1850
  753TMC3     C11182   1.259   4.597  13.448 -0.6138  0.6413 -0.5023
  753TMC3     O11183   1.173   4.677  13.466 -0.4719  0.4371 -0.3892
  753TMC3     H11184   1.372   4.613  13.680  0.7504 -1.7724  1.0647
  753TMC3    H111185   1.144   4.373  13.415 -0.1517 -1.9435  1.9839
  753TMC3    H211186   1.220   4.241  13.821 -0.0373 -1.1948 -1.2154
  753TMC3    C711187   1.066   4.182  13.621  0.1030 -0.2335  0.2666
  753TMC3    C811188   1.364   4.452  13.890  0.3461 -0.2336 -0.5456
  753TMC3    O111189   1.073   4.111  13.720  0.3079  0.0130  0.9825
  753TMC3    O211190   1.375   4.361  13.968 -0.1642 -0.6351  0.7102
  754MPD2     C11191   0.059   3.890  13.452  0.0806 -0.6761 -0.1235
  754MPD2    C111192   0.085   3.765  13.401  0.2991  0.3061 -0.4942
  754MPD2    C211193   4.729   3.697  13.324 -0.5015  0.1455 -0.0166
  754MPD2    C311194   4.603   3.745  13.306  0.3625  0.0529  1.2643
  754MPD2    C411195   4.579   3.869  13.350  0.0337  0.2267  0.4447
  754MPD2    C511196   4.680   3.945  13.417  0.1408 -0.4001 -0.1646
  754MPD2     H11197   0.020   3.601  13.281 -0.1951  1.1708 -2.1169
  754MPD2    H111198   4.483   3.917  13.332  0.5062  1.0222  0.0705
  754MPD2    H211199   0.127   3.946  13.514 -1.9183 -1.0946  2.4533
  754MPD2    H311200   4.651   4.044  13.450  0.7922 -0.4362  0.5103
  754MPD2     N11201   4.498   3.671  13.246  0.5065  0.6913  0.4162
  754MPD2    H511202   4.412   3.719  13.221  1.0226 -0.0633 -2.7635
  754MPD2    N111203   0.207   3.711  13.444 -0.0796 -0.1087 -0.5559
  754MPD2    H711204   0.285   3.776  13.439 -0.9782  1.1955  2.4183
  755MPD2     C11205   3.757   3.974  13.410 -0.0565  0.4108 -0.7929
  755MPD2    C111206   3.709   3.855  13.366  0.2234  0.3727 -0.2724
  755MPD2    C211207   3.805   3.761  13.320 -0.4696 -0.3911  0.3242
  755MPD2    C311208   3.941   3.792  13.309 -0.2329 -0.1224 -0.3741
  755MPD2    C411209   3.981   3.915  13.359  0.2536  0.5847 -0.7002
  755MPD2    C511210   3.893   4.002  13.415  0.6021 -0.2187 -0.3252
  755MPD2     H11211   3.775   3.664  13.281  2.2970 -1.7679  1.5919
  755MPD2    H111212   4.081   3.956  13.356  1.3627 -2.1384 -0.3193
  755MPD2    H211213   3.692   4.054  13.444 -0.4778 -0.6099  0.8298
  755MPD2    H311214   3.935   4.094  13.456  2.2717 -1.2375  0.2459
  755MPD2     N11215   4.045   3.717  13.247  0.0841 -0.0227 -0.0201
  755MPD2    H511216   4.141   3.747  13.261  0.7271 -0.8247 -2.6734
  755MPD2    N111217   3.569   3.836  13.354 -0.4544 -0.4161 -0.3781
  755MPD2    H711218   3.536   3.750  13.314  1.9710 -1.3849 -0.3053
  756MPD2     C11219   4.472   4.145  10.098  0.8241 -0.5204 -0.2245
  756MPD2    C111220   4.373   4.177  10.194 -0.1737  0.2199 -0.6778
  756MPD2    C211221   4.251   4.233  10.140 -0.8109  0.0633 -0.1733
  756MPD2    C311222   4.229   4.237   9.997 -0.6483  0.2894 -0.7733
  756MPD2    C411223   4.322   4.179   9.913 -0.3946  0.5256 -1.0108
  756MPD2    C511224   4.444   4.142   9.964 -0.1817  0.8738  0.2104
  756MPD2     H11225   4.185   4.285  10.208  0.9855 -0.4264  1.9253
  756MPD2    H111226   4.314   4.194   9.806 -1.1192 -1.1895 -1.1796
  756MPD2    H211227   4.576   4.128  10.124  0.5779 -0.4101  0.8378
  756MPD2    H311228   4.523   4.106   9.900 -2.6737 -1.6531 -1.4529
  756MPD2     N11229   4.109   4.296   9.953  1.0184 -0.3765  0.4510
  756MPD2    H511230   4.048   4.310  10.033  0.6740  0.5781  0.0175
  756MPD2    N111231   4.386   4.178  10.332  0.8451  0.3688  0.0957
  756MPD2    H711232   4.306   4.208  10.387  0.4233 -0.4652 -0.0767
  757MPD2     C11233   3.447   3.822  10.144  0.2923  0.0493 -0.4582
  757MPD2    C111234   3.586   3.815  10.131  0.1546  0.3777 -0.2095
  757MPD2    C211235   3.647   3.917  10.065 -0.9885  0.1212  0.2668
  757MPD2    C311236   3.582   4.030  10.020  0.2371  0.2896 -0.8332
  757MPD2    C411237   3.441   4.036  10.037 -0.7344  0.0487  0.4676
  757MPD2    C511238   3.374   3.930  10.101  0.7325  0.1824 -0.0069
  757MPD2     H11239   3.755   3.912  10.050 -1.2662 -1.5138 -1.0891
  757MPD2    H111240   3.382   4.115   9.992  0.4370  0.0457 -1.0513
  757MPD2    H211241   3.392   3.745  10.196 -0.4477  2.1867  1.9136
  757MPD2    H311242   3.267   3.934  10.113  0.8678 -1.5353  1.7932
  757MPD2     N11243   3.653   4.129   9.950  0.6557 -0.9238 -0.1136
  757MPD2    H511244   3.749   4.100   9.930  1.0798 -0.2148  0.8687
  757MPD2    N111245   3.645   3.693  10.173 -0.1343 -0.2433 -0.6695
  757MPD2    H711246   3.581   3.630  10.220 -0.2065  0.4831  0.2284
  758MPD2     C11247   4.673   3.806  16.169 -0.8331 -0.2941 -0.7095
  758MPD2    C111248   4.708   3.713  16.262  0.4973  0.4758  0.3947
  758MPD2    C211249   4.620   3.672  16.359  0.5891 -0.3715  0.0195
  758MPD2    C311250   4.486   3.701  16.354  0.1100 -0.1549  0.1920
  758MPD2    C411251   4.452   3.789  16.253  0.2871  1.2266  0.2800
  758MPD2    C511252   4.542   3.834  16.157 -0.0257  0.2167 -0.6208
  758MPD2     H11253   4.650   3.605  16.439 -1.4904 -0.9129  0.3464
  758MPD2    H111254   4.347   3.817  16.249 -0.3047 -1.2666 -2.2483
  758MPD2    H211255   0.013   3.856  16.111  0.0535 -2.2694 -1.2364
  758MPD2    H311256   4.512   3.902  16.078  2.0507  0.6761 -1.0270
  758MPD2     N11257   4.382   3.651  16.438  0.8098 -0.3329  0.0875
  758MPD2    H511258   4.293   3.699  16.429  0.9098 -0.1382  0.1495
  758MPD2    N111259   0.100   3.676  16.263 -0.0828 -0.1990 -0.1978
  758MPD2    H711260   0.162   3.736  16.209 -0.4524  0.2915 -0.0756
  759MPD2     C11261   3.637   2.217  10.083  0.2636  0.9227  0.7024
  759MPD2    C111262   3.641   2.093  10.030  0.4355  0.4135 -0.6602
  759MPD2    C211263   3.677   2.082   9.899  0.0519 -0.5979 -0.0797
  759MPD2    C311264   3.716   2.193   9.823  0.0280  0.2134  0.9710
  759MPD2    C411265   3.724   2.323   9.881  0.7521 -0.7754 -0.2466
  759MPD2    C511266   3.679   2.325  10.009 -0.1865 -0.2036  0.6393
  759MPD2     H11267   3.660   1.991   9.844  0.4809 -1.0805  0.5894
  759MPD2    H111268   3.778   2.404   9.831 -2.3924  0.4413 -1.6566
  759MPD2    H211269   3.595   2.237  10.181 -0.6594 -0.1779  0.5325
  759MPD2    H311270   3.677   2.422  10.056  0.7957 -0.1088  0.4858
  759MPD2     N11271   3.749   2.177   9.686  0.4027  0.1950  0.2550
  759MPD2    H511272   3.760   2.081   9.655  0.6121 -0.2973  1.8635
  759MPD2    N111273   3.594   1.975  10.094  0.9305  0.7894 -0.4200
  759MPD2    H711274   3.590   1.889  10.040 -4.0043  0.1759  0.9338
  760MPD2     C11275   3.009   3.823  12.032 -0.5370 -0.2306 -0.0305
  760MPD2    C111276   3.136   3.854  11.970 -0.0752  0.4809  0.2848
  760MPD2    C211277   3.188   3.755  11.893 -0.6683 -0.6022  0.1442
  760MPD2    C311278   3.121   3.638  11.872 -0.8565  0.9596 -0.3073
  760MPD2    C411279   3.005   3.607  11.934  0.0378 -0.2418 -0.4658
  760MPD2    C511280   2.951   3.699  12.018  0.1523 -0.7005 -0.2204
  760MPD2     H11281   3.279   3.786  11.844  0.7803  0.8291  3.7143
  760MPD2    H111282   2.960   3.509  11.945 -1.7720  0.5796 -0.5026
  760MPD2    H211283   2.952   3.891  12.093  0.5820 -0.0561  0.8011
  760MPD2    H311284   2.864   3.670  12.076 -0.1954  0.1184 -0.3269
  760MPD2     N11285   3.180   3.528  11.805 -0.3226  0.3785  0.0865
  760MPD2    H511286   3.147   3.438  11.839  2.7564 -0.7182  0.1949
  760MPD2    N111287   3.204   3.978  11.991  0.4824  0.2925  0.6366
  760MPD2    H711288   3.284   3.993  11.931 -0.5793  0.0169 -0.8391
  761MPD2     C11289   4.045   3.124  11.340  0.1296  0.0427  0.1232
  761MPD2    C111290   4.128   3.062  11.250 -0.2679  0.1720  0.5972
  761MPD2    C211291   4.223   3.141  11.196  0.2462  0.2617 -0.3983
  761MPD2    C311292   4.241   3.276  11.218 -0.4932  0.3269  0.0748
  761MPD2    C411293   4.158   3.333  11.321 -0.2600  0.2514  0.1407
  761MPD2    C511294   4.063   3.253  11.378  0.4725 -0.8885  0.1787
  761MPD2     H11295   4.290   3.082  11.135  0.6528 -0.3554  0.6316
  761MPD2    H111296   4.168   3.435  11.357 -1.2346  1.1993 -2.2803
  761MPD2    H211297   3.973   3.062  11.394  1.2504 -2.4418 -1.2208
  761MPD2    H311298   4.003   3.305  11.451 -0.2972 -2.2150  0.4774
  761MPD2     N11299   4.345   3.354  11.167  0.3485  0.1163 -0.2082
  761MPD2    H511300   4.344   3.448  11.207 -4.6169  0.7111 -1.6980
  761MPD2    N111301   4.106   2.923  11.219 -0.0534  0.6316  0.4632
  761MPD2    H711302   4.034   2.876  11.272 -0.4126  1.0876  0.3781
  762MPD2     C11303   4.594   2.181  10.978 -0.0414  0.5500 -0.1407
  762MPD2    C111304   4.585   2.311  10.950  0.0660 -0.3216  0.0797
  762MPD2    C211305   4.683   2.375  10.870  0.1193 -0.5389 -0.3902
  762MPD2    C311306   0.061   2.305  10.833 -0.1799  0.4193 -0.0129
  762MPD2    C411307   0.065   2.173  10.859  0.0120  0.1442  0.9478
  762MPD2    C511308   4.709   2.113  10.933  0.7815  0.6885 -0.2104
  762MPD2     H11309   4.681   2.481  10.849 -0.3329 -0.9300 -2.3195
  762MPD2    H111310   0.155   2.119  10.831  1.0170  0.8226  2.8526
  762MPD2    H211311   4.532   2.121  11.043 -2.1784  2.7766 -0.1631
  762MPD2    H311312   4.707   2.006  10.952  1.5332  0.6975 -0.0860
  762MPD2     N11313   0.166   2.356  10.758 -0.2603  0.2656 -0.0183
  762MPD2    H511314   0.233   2.299  10.707  0.8882  1.3011  0.3406
  762MPD2    N111315   4.474   2.370  11.007  0.3527 -0.1330 -0.1845
  762MPD2    H711316   4.417   2.308  11.064  1.1485 -0.1522  0.5920
  763MPD2     C11317   1.819   3.355  16.216 -0.3194  0.0894  0.2160
  763MPD2    C111318   1.699   3.393  16.162  0.0584 -0.4194 -0.2506
  763MPD2    C211319   1.666   3.532  16.152  0.0215  0.4224  0.5293
  763MPD2    C311320   1.759   3.627  16.189 -0.5067 -0.3368 -0.3549
  763MPD2    C411321   1.879   3.579  16.246 -0.6849  0.4467 -0.0328
  763MPD2    C511322   1.898   3.446  16.269  0.1987 -0.5688  0.7527
  763MPD2     H11323   1.564   3.557  16.127 -0.4792  0.5875  2.7492
  763MPD2    H111324   1.951   3.651  16.284 -1.0691 -1.0867  3.5397
  763MPD2    H211325   1.843   3.250  16.223  0.6590  0.0602 -3.2920
  763MPD2    H311326   1.990   3.410  16.315  0.8763  1.4510  1.0061
  763MPD2     N11327   1.747   3.769  16.180 -0.6189  0.0172  0.7178
  763MPD2    H511328   1.831   3.822  16.203  0.1983 -0.6651 -0.7087
  763MPD2    N111329   1.604   3.299  16.104  0.1851  0.0773 -0.1853
  763MPD2    H711330   1.544   3.335  16.032 -0.9158 -0.0310  0.6854
  764MPD2     C11331   3.655   4.087   0.177 -0.4603 -0.1792 -0.1659
  764MPD2    C111332   3.605   4.127   0.298  0.0429  0.9605  0.2833
  764MPD2    C211333   3.686   4.128   0.407 -0.1510 -0.2671  0.4139
  764MPD2    C311334   3.819   4.108   0.393 -0.2202 -0.0803 -0.5422
  764MPD2    C411335   3.875   4.077   0.271  0.0889 -0.0886 -0.0466
  764MPD2    C511336   3.787   4.058   0.162 -0.9644 -0.9959  1.1979
  764MPD2     H11337   3.649   4.138   0.509 -1.3650  1.3699 -0.1978
  764MPD2    H111338   3.981   4.060   0.257  0.2322 -2.3098  3.6164
  764MPD2    H211339   3.593   4.071   0.090 -2.1505 -0.9234  1.1517
  764MPD2    H311340   3.822   4.017   0.068  0.5844 -0.2865  1.4549
  764MPD2     N11341   3.902   4.130   0.505  0.5447  0.0027 -0.2136
  764MPD2    H511342   3.861   4.119   0.596  0.9076  2.6629  0.2642
  764MPD2    N111343   3.471   4.157   0.294 -0.1360  0.6717 -0.3335
  764MPD2    H711344   3.438   4.158   0.198 -0.1624  0.3607 -0.3291
  765MPD2     C11345   0.005   2.512  15.295  0.2093 -0.3231  0.1629
  765MPD2    C111346   0.031   2.622  15.376  0.0382 -1.1513  0.4609
  765MPD2    C211347   0.135   2.623  15.464 -0.7480 -0.1962 -0.1701
  765MPD2    C311348   0.205   2.505  15.489  0.7219 -0.0463 -0.0534
  765MPD2    C411349   0.162   2.389  15.423  0.0399  0.0818 -0.5041
  765MPD2    C511350   0.072   2.399  15.319 -0.4311  0.4724 -0.8202
  765MPD2     H11351   0.160   2.712  15.520  1.3248 -0.0935 -1.2735
  765MPD2    H111352   0.212   2.294  15.437  0.2679  0.2634 -0.0650
  765MPD2    H211353   4.656   2.500  15.232 -0.2972 -0.8941  0.9778
  765MPD2    H311354   0.049   2.308  15.264 -1.7141 -1.7287  3.3851
  765MPD2     N11355   0.302   2.512  15.585  0.6210 -0.4818  0.9135
  765MPD2    H511356   0.317   2.608  15.614  0.2707 -0.3040  0.4963
  765MPD2    N111357   4.675   2.728  15.369  0.4473 -0.4260  0.1802
  765MPD2    H711358   4.600   2.722  15.302  0.3939 -2.1299  0.3966
  766MPD2     C11359   4.013   2.760  15.122 -0.1946 -0.0484 -0.0762
  766MPD2    C111360   4.152   2.767  15.113 -0.3349 -0.0559 -0.7011
  766MPD2    C211361   4.211   2.738  14.991  0.5043  0.1548  0.1001
  766MPD2    C311362   4.130   2.739  14.871  0.5069 -0.4328 -0.3080
  766MPD2    C411363   3.994   2.731  14.882  0.4239  0.7418 -0.3771
  766MPD2    C511364   3.936   2.740  15.007  0.0226  0.3702  0.3144
  766MPD2     H11365   4.319   2.736  14.982  0.6689  0.6042  2.0475
  766MPD2    H111366   3.935   2.744  14.792 -2.0594  2.3577  1.5130
  766MPD2    H211367   3.962   2.768  15.217 -1.5382 -3.1306 -0.5636
  766MPD2    H311368   3.828   2.746  15.014 -0.0538 -0.2585 -0.3633
  766MPD2     N11369   4.179   2.770  14.738 -0.2606  1.1614 -0.6658
  766MPD2    H511370   4.104   2.802  14.678 -0.5098  2.5615  0.3940
  766MPD2    N111371   4.235   2.810  15.215 -0.5279 -0.1813  0.6801
  766MPD2    H711372   4.336   2.816  15.207 -0.4421 -2.9641 -0.2829
  767MPD2     C11373   3.700   3.058  14.962  0.1842 -0.9890  0.1471
  767MPD2    C111374   3.826   3.047  14.923 -0.3828 -0.0207  0.6492
  767MPD2    C211375   3.843   3.011  14.792  0.6707 -0.3551  0.4804
  767MPD2    C311376   3.739   3.003  14.700  0.8885  0.5855 -0.0751
  767MPD2    C411377   3.613   3.033  14.741 -0.6048  0.5731  0.6488
  767MPD2    C511378   3.593   3.067  14.873 -0.3376  0.3898  0.2998
  767MPD2     H11379   3.946   2.993  14.763  1.1838  1.0673  1.4127
  767MPD2    H111380   3.526   3.026  14.678  0.2946  1.6828 -0.7059
  767MPD2    H211381   3.675   3.088  15.063 -0.6177  0.1166 -0.3701
  767MPD2    H311382   3.496   3.104  14.905 -0.4263  1.1173 -0.8016
  767MPD2     N11383   3.755   2.962  14.572  0.7387  0.3738  0.1960
  767MPD2    H511384   3.677   2.982  14.510  1.8741  2.5297 -0.5712
  767MPD2    N111385   3.930   3.082  15.013  0.2585 -0.5625  0.6764
  767MPD2    H711386   3.903   3.095  15.110 -0.3771  1.6371  0.1934
  768MPD2     C11387   0.095   1.882  10.664  0.4477  0.3264 -0.7934
  768MPD2    C111388   0.057   1.802  10.767 -0.6807  0.0857  0.1455
  768MPD2    C211389   0.155   1.744  10.844  0.0084  0.0279  0.1035
  768MPD2    C311390   0.288   1.771  10.820 -1.0639 -0.3265  0.1977
  768MPD2    C411391   0.321   1.871  10.737 -0.0554 -0.6733  0.3019
  768MPD2    C511392   0.231   1.914  10.651 -0.1717 -0.1881  0.1408
  768MPD2     H11393   0.116   1.673  10.916  0.4251 -1.7451 -1.4432
  768MPD2    H111394   0.420   1.914  10.725  0.2188 -0.9661  1.4901
  768MPD2    H211395   0.023   1.919  10.593 -0.3355 -0.2853 -0.3184
  768MPD2    H311396   0.260   1.987  10.577  0.6873 -1.1657 -0.5011
  768MPD2     N11397   0.393   1.716  10.899  0.2822  0.4369 -0.0734
  768MPD2    H511398   0.489   1.744  10.880  1.1634 -3.2318 -0.9808
  768MPD2    N111399   4.655   1.773  10.792 -0.5211 -0.4711 -0.0923
  768MPD2    H711400   4.633   1.715  10.872 -2.7445 -1.4269 -1.3852
  769MPD2     C11401   0.760   0.287  14.649 -0.8709 -0.7698 -0.2612
  769MPD2    C111402   0.752   0.155  14.696 -0.1387 -0.1001 -0.7465
  769MPD2    C211403   0.804   0.130  14.818 -0.2054 -0.0216 -0.8016
  769MPD2    C311404   0.873   0.219  14.893 -0.2312 -0.2533 -0.3828
  769MPD2    C411405   0.876   0.354  14.850  0.2805  0.1931 -0.7973
  769MPD2    C511406   0.816   0.385  14.732  0.2218 -0.5199 -0.2693
  769MPD2     H11407   0.792   0.028  14.854 -0.2076  0.4747  0.6033
  769MPD2    H111408   0.922   0.430  14.912  0.7391 -0.5488 -0.2279
  769MPD2    H211409   0.717   0.318  14.554  0.5479  2.9422  0.2879
  769MPD2    H311410   0.811   0.493  14.717 -1.2550 -0.5794 -0.1570
  769MPD2     N11411   0.919   0.166  15.016 -0.1922 -0.3214 -0.2633
  769MPD2    H511412   0.895   0.068  15.029  0.5243 -0.3885  0.5527
  769MPD2    N111413   0.688   0.061  14.606  0.4537 -0.2425 -0.1696
  769MPD2    H711414   0.661   0.097  14.515 -0.3889 -0.1464  0.1219
  770MPD2     C11415   0.274   3.918  14.744  0.4359  0.0837  0.7650
  770MPD2    C111416   0.397   3.942  14.795 -0.0295 -0.2302  1.4405
  770MPD2    C211417   0.476   4.038  14.738  0.6035 -0.7922 -0.2647
  770MPD2    C311418   0.433   4.111  14.632  0.5481 -0.3724  0.2190
  770MPD2    C411419   0.302   4.099  14.591 -0.2619  0.8397 -0.0014
  770MPD2    C511420   0.221   4.004  14.653 -1.0287 -0.5501  0.2966
  770MPD2     H11421   0.573   4.069  14.775 -0.6541 -0.3353  2.6363
  770MPD2    H111422   0.268   4.150  14.502 -0.0302  0.2482 -0.4323
  770MPD2    H211423   0.206   3.841  14.780 -0.9745  0.5802 -0.8600
  770MPD2    H311424   0.118   3.996  14.622 -2.0929  2.7991  2.9462
  770MPD2     N11425   0.525   4.201  14.570 -0.1761 -0.1157  0.6978
  770MPD2    H511426   0.603   4.238  14.625  0.3903 -1.8011  1.0166
  770MPD2    N111427   0.429   3.853  14.902 -0.6364  0.0495  0.0946
  770MPD2    H711428   0.356   3.793  14.938  1.2672 -2.2158  0.1789
  771MPD2     C11429   2.255   2.042  13.511 -0.1395  0.2767 -0.5111
  771MPD2    C111430   2.147   2.113  13.556  0.1521  0.1324  0.1305
  771MPD2    C211431   2.017   2.065  13.527 -0.3079 -0.5017 -0.7384
  771MPD2    C311432   1.998   1.944  13.469 -0.7904 -0.4686 -0.3363
  771MPD2    C411433   2.111   1.871  13.429  0.4894 -0.3234 -0.6112
  771MPD2    C511434   2.238   1.919  13.441 -0.0063 -0.2842  0.5647
  771MPD2     H11435   1.928   2.124  13.545 -0.9347 -1.3900 -0.9113
  771MPD2    H111436   2.098   1.788  13.361  0.1953  0.3501 -1.3644
  771MPD2    H211437   2.356   2.080  13.520 -0.3478  1.0477 -1.4105
  771MPD2    H311438   2.319   1.858  13.402  0.1591 -0.0769  0.5877
  771MPD2     N11439   1.863   1.904  13.442  0.4029 -0.0063 -0.3878
  771MPD2    H511440   1.787   1.962  13.476  2.3632  2.4012 -0.0804
  771MPD2    N111441   2.163   2.236  13.624  0.4659 -0.6520  0.2775
  771MPD2    H711442   2.081   2.275  13.671 -1.6160 -0.2627 -3.6108
  772MPD2     C11443   1.793   2.585  14.114 -1.2443 -0.4613  0.2771
  772MPD2    C111444   1.813   2.528  13.989 -0.5281 -0.0417  0.5274
  772MPD2    C211445   1.705   2.476  13.922  0.0477  0.9905 -0.1670
  772MPD2    C311446   1.583   2.474  13.978  0.5338  0.1976 -0.4068
  772MPD2    C411447   1.556   2.521  14.103  0.1759  0.2874 -0.1618
  772MPD2    C511448   1.665   2.573  14.169  0.6937  0.7711  0.0855
  772MPD2     H11449   1.717   2.433  13.823  0.6111  1.8223 -0.4665
  772MPD2    H111450   1.462   2.512  14.157 -0.0616 -0.4220 -0.7066
  772MPD2    H211451   1.869   2.622  14.182 -1.9805  0.1260  0.7786
  772MPD2    H311452   1.643   2.605  14.271  0.5048 -0.6980  0.4965
  772MPD2     N11453   1.467   2.434  13.912 -0.4328 -0.1906 -1.1358
  772MPD2    H511454   1.381   2.451  13.963  0.8432  0.9954  0.6095
  772MPD2    N111455   1.941   2.516  13.924  0.0896  0.4866 -0.6789
  772MPD2    H711456   1.940   2.459  13.840  0.6783 -2.9817  1.6575
  773MPD2     C11457   0.333   3.438   0.381  0.2079  0.3762  0.0757
  773MPD2    C111458   0.278   3.329   0.308  0.0086  0.7594  0.0487
  773MPD2    C211459   0.313   3.198   0.342  0.2280 -0.7743 -0.2202
  773MPD2    C311460   0.399   3.176   0.449 -0.4318  0.3702 -0.7486
  773MPD2    C411461   0.444   3.286   0.525  0.1067  1.1822 -0.0964
  773MPD2    C511462   0.414   3.413   0.485 -0.4171  0.7635 -0.0273
  773MPD2     H11463   0.269   3.116   0.286 -0.9780  0.5634 -1.2113
  773MPD2    H111464   0.515   3.282   0.607 -0.8948  1.7901  0.7938
  773MPD2    H211465   0.308   3.540   0.354  1.5795  0.7863  0.3858
  773MPD2    H311466   0.455   3.495   0.544 -2.1411  0.3666  1.7120
  773MPD2     N11467   0.438   3.046   0.489  0.1707 -0.1829 -0.3951
  773MPD2    H511468   0.412   2.973   0.424  1.7059 -0.9246 -0.1633
  773MPD2    N111469   0.187   3.348   0.208  0.0344 -0.1260 -0.4711
  773MPD2    H711470   0.155   3.265   0.159 -0.5128  0.9072 -1.8983
  774MPD2     C11471   0.154   2.643  13.379 -0.3974 -0.2304  0.1551
  774MPD2    C111472   0.085   2.668  13.495 -0.4060 -0.1899 -0.3045
  774MPD2    C211473   0.042   2.794  13.525 -0.2744 -0.4513 -0.3351
  774MPD2    C311474   0.058   2.897  13.426  0.2641 -0.7405 -0.8145
  774MPD2    C411475   0.102   2.861  13.298  0.4223 -0.5251  0.4382
  774MPD2    C511476   0.155   2.734  13.280 -0.2266  0.5887  0.0468
  774MPD2     H11477   4.737   2.822  13.621 -1.3899  3.4980 -1.9818
  774MPD2    H111478   0.087   2.925  13.212  1.2400 -2.9945 -1.5249
  774MPD2    H211479   0.189   2.543  13.354 -2.2215 -0.9636  0.5039
  774MPD2    H311480   0.191   2.707  13.181  0.5074 -1.2614  0.8076
  774MPD2     N11481   0.027   3.031  13.460 -0.1811  1.1096 -0.2822
  774MPD2    H511482   4.719   3.054  13.548 -0.0861 -1.5967  0.4572
  774MPD2    N111483   0.081   2.570  13.596 -0.2067  0.1426 -0.5789
  774MPD2    H711484   0.131   2.484  13.578  2.2777  1.2987  0.9282
  775MPD2     C11485   1.007   4.523  15.703  0.2697 -0.0853  0.1084
  775MPD2    C111486   1.074   4.585  15.805 -0.1474  1.2233 -0.2245
  775MPD2    C211487   1.199   4.642  15.784 -0.3029  0.1450  0.1445
  775MPD2    C311488   1.250   4.648  15.653 -0.3826 -0.0044  0.1459
  775MPD2    C411489   1.175   4.594  15.551  0.1477  0.0610  0.7706
  775MPD2    C511490   1.058   4.538  15.576  0.5031 -0.5905  0.4263
  775MPD2     H11491   1.253   4.663  15.875 -1.5971  1.5679  0.5780
  775MPD2    H111492   1.200   4.610  15.446  0.7607 -0.8700  0.7760
  775MPD2    H211493   0.908   4.480  15.716 -0.3405  0.8813 -1.3709
  775MPD2    H311494   1.009   4.504  15.486 -3.0982  1.7077  1.5596
  775MPD2     N11495   1.373   4.712  15.624 -0.6203 -0.2053  0.0287
  775MPD2    H511496   1.418   4.695  15.534 -1.7608 -1.6902 -0.2649
  775MPD2    N111497   1.002   4.582  15.925  0.3692  0.9482 -0.4500
  775MPD2    H711498   0.914   4.531  15.923  0.8458  0.1917 -2.0065
  776MPD2     C11499   0.189   4.540  12.207 -0.5324 -0.5759 -0.3190
  776MPD2    C111500   0.126   4.546  12.082 -0.0072 -0.1306 -0.5354
  776MPD2    C211501   0.139   4.647  12.000 -0.7304 -0.0764  0.2364
  776MPD2    C311502   0.226   0.013  12.032 -0.4916  0.0273 -0.3462
  776MPD2    C411503   0.281   0.012  12.151  0.2113 -0.6766  0.3089
  776MPD2    C511504   0.261   4.647  12.240  0.3934  0.2499  0.7194
  776MPD2     H11505   0.080   4.651  11.909  1.1179 -0.6882 -0.9860
  776MPD2    H111506   0.353   0.088  12.180 -1.4548  1.3377 -0.8120
  776MPD2    H211507   0.173   4.462  12.281 -0.8438  1.1496  1.4160
  776MPD2    H311508   0.313   4.652  12.335 -0.0471 -2.1807  1.0928
  776MPD2     N11509   0.263   0.119  11.952 -0.7173 -0.1528  0.2878
  776MPD2    H511510   0.329   0.188  11.986 -0.4532 -0.7366  0.9525
  776MPD2    N111511   0.052   4.430  12.054 -0.4220 -0.0599 -0.1759
  776MPD2    H711512   0.051   4.353  12.120  1.8762 -0.7870 -0.9911
  777MPD2     C11513   0.758   1.975   0.815 -0.3482  0.0996  0.1683
  777MPD2    C111514   0.647   1.953   0.901 -0.5767 -0.0428 -0.1373
  777MPD2    C211515   0.545   1.873   0.852 -0.1927  0.3100 -0.1003
  777MPD2    C311516   0.541   1.826   0.721  0.2230  0.8230 -0.6861
  777MPD2    C411517   0.643   1.851   0.636 -0.1212  0.0792 -0.3058
  777MPD2    C511518   0.752   1.918   0.689  0.1398  0.2171 -0.0065
  777MPD2     H11519   0.458   1.856   0.914 -1.6478  2.2445 -1.6346
  777MPD2    H111520   0.663   1.809   0.538 -1.1291 -0.4874 -0.2657
  777MPD2    H211521   0.851   2.019   0.852  1.1131 -1.1695 -1.9929
  777MPD2    H311522   0.842   1.922   0.628 -0.6211 -0.8995 -1.2120
  777MPD2     N11523   0.418   1.768   0.679  0.3670  1.1229  0.2778
  777MPD2    H511524   0.350   1.747   0.751 -1.3132  1.3366 -1.2621
  777MPD2    N111525   0.653   2.000   1.034 -0.0404  0.4432  0.0694
  777MPD2    H711526   0.742   2.023   1.077  0.0495 -0.0985  0.1829
  778MPD2     C11527   1.636   2.386  15.206 -0.4899 -0.2738 -0.0800
  778MPD2    C111528   1.654   2.283  15.115  0.3105  0.7137 -0.1492
  778MPD2    C211529   1.710   2.314  14.987  0.7289 -0.4362 -0.0376
  778MPD2    C311530   1.755   2.444  14.956  0.1660 -0.9049  0.0485
  778MPD2    C411531   1.724   2.542  15.044  0.2588  0.9162  0.3155
  778MPD2    C511532   1.674   2.508  15.165 -0.5502 -0.1921  0.0486
  778MPD2     H11533   1.729   2.242  14.908 -0.1119  1.2918 -1.8297
  778MPD2    H111534   1.745   2.648  15.034 -0.5346  0.8445 -2.1839
  778MPD2    H211535   1.592   2.379  15.305  1.4740  0.8059  0.8678
  778MPD2    H311536   1.649   2.584  15.238 -1.1594 -2.2980  2.0443
  778MPD2     N11537   1.824   2.471  14.828 -0.0066  0.4989  0.4478
  778MPD2    H511538   1.844   2.391  14.769 -1.7658  1.3029 -1.2178
  778MPD2    N111539   1.614   2.148  15.134 -0.2235  0.2204  0.1523
  778MPD2    H711540   1.616   2.087  15.054 -2.1913  0.7203 -0.2798
  779MPD2     C11541   1.380   0.946  14.481  0.0691 -0.1064 -0.4162
  779MPD2    C111542   1.463   0.967  14.375 -0.7331 -0.3719 -0.3946
  779MPD2    C211543   1.494   1.095  14.343  0.2609  0.2398 -0.3968
  779MPD2    C311544   1.454   1.202  14.420  0.6746 -0.1091  0.3622
  779MPD2    C411545   1.364   1.179  14.527  0.5381  0.3032 -0.1727
  779MPD2    C511546   1.332   1.049  14.552 -0.2310  0.5650 -0.2406
  779MPD2     H11547   1.563   1.109  14.260  1.0939  1.6709  0.5404
  779MPD2    H111548   1.339   1.252  14.603 -0.5119 -0.1106 -0.1155
  779MPD2    H211549   1.352   0.851  14.525 -1.1986 -0.1914 -1.3936
  779MPD2    H311550   1.271   1.028  14.639  1.0707 -1.4847  0.1826
  779MPD2     N11551   1.506   1.329  14.395  0.1102  0.0415  0.0643
  779MPD2    H511552   1.575   1.334  14.321 -0.5242 -0.6030 -0.5653
  779MPD2    N111553   1.512   0.863  14.303 -0.1829 -0.4192 -0.1332
  779MPD2    H711554   1.579   0.892  14.233 -0.2227 -0.4904 -0.2014
  780MPD2     C11555   0.128   0.870   0.659 -0.2416  0.3094 -0.1599
  780MPD2    C111556   0.169   0.829   0.538 -0.0592 -0.1503  0.1011
  780MPD2    C211557   0.275   0.887   0.480  0.1871 -0.3656  0.2424
  780MPD2    C311558   0.357   0.972   0.550 -0.1332 -0.7307 -0.2276
  780MPD2    C411559   0.319   1.011   0.678 -0.2111 -0.1142  0.6906
  780MPD2    C511560   0.202   0.963   0.729 -0.1475 -1.3295 -0.3324
  780MPD2     H11561   0.310   0.855   0.383 -0.5799 -1.3107  0.2738
  780MPD2    H111562   0.382   1.075   0.739 -0.3650 -0.3727  1.1179
  780MPD2    H211563   0.038   0.832   0.705 -0.4102 -0.2456 -0.9667
  780MPD2    H311564   0.166   0.988   0.829  2.0111  1.0415 -0.1408
  780MPD2     N11565   0.487   1.005   0.500 -0.2439 -0.3213 -0.2492
  780MPD2    H511566   0.508   0.978   0.404 -1.5480 -1.4149 -0.2201
  780MPD2    N111567   0.107   0.721   0.478  0.4666  0.2367  0.3251
  780MPD2    H711568   0.044   0.673   0.542  0.0487 -0.7084 -0.7867
  781MPD2     C11569   2.679   2.734  12.214 -0.1644  0.3978  0.5682
  781MPD2    C111570   2.784   2.694  12.295 -0.0113 -0.1831 -0.4580
  781MPD2    C211571   2.883   2.617  12.242 -0.0361 -0.1465 -0.6300
  781MPD2    C311572   2.896   2.594  12.102  0.5995 -0.4120  0.6290
  781MPD2    C411573   2.804   2.646  12.018  0.2184 -0.2873  0.5974
  781MPD2    C511574   2.693   2.722  12.076  0.6450 -0.4165  0.7277
  781MPD2     H11575   2.968   2.595  12.307  0.4795  0.9770 -0.9192
  781MPD2    H111576   2.803   2.607  11.917 -1.3821 -1.1564  0.9535
  781MPD2    H211577   2.586   2.775  12.252  0.3682  1.8886  0.2635
  781MPD2    H311578   2.607   2.739  12.012  2.2363 -0.5510 -1.4413
  781MPD2     N11579   2.995   2.512  12.044 -0.4201 -0.2853 -0.2671
  781MPD2    H511580   2.990   2.495  11.944  0.9680 -1.2534 -0.1769
  781MPD2    N111581   2.771   2.697  12.435 -0.4771 -0.0002  0.3357
  781MPD2    H711582   2.831   2.631  12.483  0.6483  0.4979 -0.3825
  782MPD2     C11583   0.926   3.713  10.260 -0.6926  0.1017  0.2673
  782MPD2    C111584   0.903   3.648  10.378  0.2329  0.7161 -0.2156
  782MPD2    C211585   0.881   3.722  10.495 -0.4142  0.6408  0.2372
  782MPD2    C311586   0.895   3.866  10.484  1.0155  0.6243  1.1638
  782MPD2    C411587   0.917   3.930  10.361 -0.0198 -0.3531  0.3532
  782MPD2    C511588   0.926   3.849  10.252 -0.3734  0.1642 -1.0034
  782MPD2     H11589   0.860   3.670  10.588  0.0198 -1.4854 -0.8817
  782MPD2    H111590   0.913   4.038  10.351  1.3512 -0.6629 -3.4110
  782MPD2    H211591   0.940   3.650  10.172 -0.4493  1.1225 -0.4290
  782MPD2    H311592   0.943   3.891  10.154  2.6568  1.9175  0.2660
  782MPD2     N11593   0.889   3.943  10.601  0.3633  0.2253 -0.9613
  782MPD2    H511594   0.908   4.042  10.600  1.8961 -0.0593  0.0906
  782MPD2    N111595   0.881   3.507  10.398 -0.6510  0.4443  0.0891
  782MPD2    H711596   0.866   3.476  10.493  0.1687  0.9405  0.3800
  783MPD2     C11597   0.151   3.048  10.712 -0.5367 -0.1357 -0.0776
  783MPD2    C111598   0.192   3.173  10.757 -0.5229 -0.3158  0.6101
  783MPD2    C211599   0.315   3.220  10.726  0.3806 -0.5505 -0.2404
  783MPD2    C311600   0.399   3.142  10.646  0.1690 -0.8373 -0.3460
  783MPD2    C411601   0.353   3.020  10.593 -0.2097  0.1444  0.1305
  783MPD2    C511602   0.225   2.972  10.624 -0.0620 -0.8906  0.4521
  783MPD2     H11603   0.347   3.317  10.763 -1.6565 -0.3783  1.0459
  783MPD2    H111604   0.411   2.960  10.525 -1.4655 -0.9859  0.0666
  783MPD2    H211605   0.063   2.998  10.752 -0.2442 -1.8869 -1.6355
  783MPD2    H311606   0.193   2.872  10.598  1.5272 -1.0894 -0.7722
  783MPD2     N11607   0.536   3.184  10.626  0.0693  0.0364 -0.3905
  783MPD2    H511608   0.567   3.259  10.687  0.5331  0.6280 -1.3585
  783MPD2    N111609   0.104   3.233  10.849 -0.2608 -0.3068  0.6893
  783MPD2    H711610   0.026   3.176  10.879 -0.7361 -0.7665 -1.4810
  784MPD2     C11611   2.809   4.312   1.207 -0.0924 -0.2278 -0.0472
  784MPD2    C111612   2.878   4.394   1.129  0.3954 -0.1804  0.2203
  784MPD2    C211613   2.808   4.470   1.035  0.0678 -0.0716  0.1772
  784MPD2    C311614   2.680   4.435   0.993  0.2819 -0.7318  1.2346
  784MPD2    C411615   2.620   4.334   1.055  0.6053  0.2357  0.2104
  784MPD2    C511616   2.683   4.272   1.162  0.4482  0.0839 -0.8073
  784MPD2     H11617   2.858   4.551   0.984  0.4174  0.4122  1.2816
  784MPD2    H111618   2.521   4.297   1.032  0.6411 -0.3477  1.0038
  784MPD2    H211619   2.849   4.260   1.293 -0.3272  0.6204  0.5812
  784MPD2    H311620   2.626   4.202   1.223  0.0168  0.2937 -0.9699
  784MPD2     N11621   2.613   4.506   0.888  0.0232  0.6434  0.4079
  784MPD2    H511622   2.654   4.592   0.854  1.9400 -1.2734 -2.2127
  784MPD2    N111623   3.009   4.428   1.153  0.1963 -0.2462 -0.5365
  784MPD2    H711624   3.057   4.483   1.083  1.4957 -0.2863  0.3125
  785MPD2     C11625   2.626   2.136  10.619  0.4263  0.4848 -0.3208
  785MPD2    C111626   2.551   2.205  10.710  0.3996  0.0295  0.8012
  785MPD2    C211627   2.453   2.282  10.661  0.3777 -0.0050 -0.0688
  785MPD2    C311628   2.415   2.272  10.530  0.2877 -0.0455  0.4267
  785MPD2    C411629   2.490   2.201  10.437  0.2585 -0.3409  0.3646
  785MPD2    C511630   2.599   2.128  10.485  0.4852 -0.0470  0.8651
  785MPD2     H11631   2.396   2.345  10.727 -0.4433  0.0078 -0.7923
  785MPD2    H111632   2.478   2.215  10.331  1.3131  2.2619  0.5905
  785MPD2    H211633   2.718   2.084  10.646 -0.3457 -0.1392  1.0912
  785MPD2    H311634   2.672   2.091  10.415  0.1211  0.1809  0.3676
  785MPD2     N11635   2.312   2.360  10.489 -0.7623 -0.3628 -0.3936
  785MPD2    H511636   2.259   2.401  10.565  1.6352 -0.8388  1.5541
  785MPD2    N111637   2.564   2.205  10.849 -0.3491 -0.6352  0.5025
  785MPD2    H711638   2.493   2.258  10.899 -0.4828 -0.6736  0.3555
  786MPD2     C11639   1.919   0.256  15.048 -0.6496  0.9353  0.9161
  786MPD2    C111640   2.030   0.176  15.043  0.0570  1.4305 -0.6340
  786MPD2    C211641   2.100   0.163  15.155  0.1732  0.1331 -0.0875
  786MPD2    C311642   2.072   0.240  15.269  0.4335 -0.0764 -0.0024
  786MPD2    C411643   1.980   0.337  15.265  0.1514  0.3350 -0.1618
  786MPD2    C511644   1.899   0.342  15.150 -0.0493 -0.0528 -0.2627
  786MPD2     H11645   2.175   0.085  15.152 -1.1905 -1.0762 -1.9541
  786MPD2    H111646   1.973   0.405  15.349  2.8592 -0.3948  0.6497
  786MPD2    H211647   1.848   0.255  14.966 -0.6433  0.3912  0.9176
  786MPD2    H311648   1.822   0.419  15.152 -1.9887 -1.9806  0.7346
  786MPD2     N11649   2.140   0.233  15.392  0.2767 -0.2423  0.2712
  786MPD2    H511650   2.096   0.287  15.465 -0.6825 -1.2950  0.4701
  786MPD2    N111651   2.055   0.084  14.935  0.6776  1.0409 -0.0914
  786MPD2    H711652   2.119   0.009  14.959  0.6268  0.9880 -0.1207
  787MPD2     C11653   2.367   4.274  15.023 -0.4136  0.2611  0.1899
  787MPD2    C111654   2.348   4.287  14.884 -0.4892 -0.1969 -0.0291
  787MPD2    C211655   2.402   4.194  14.796  0.5310 -0.8884 -0.5898
  787MPD2    C311656   2.468   4.079  14.847  0.7012  0.2693  0.1958
  787MPD2    C411657   2.479   4.057  14.984  0.3825 -0.1240 -0.1817
  787MPD2    C511658   2.439   4.162  15.066 -0.5280 -0.4133 -0.2687
  787MPD2     H11659   2.411   4.212  14.690  0.0226  0.4319 -0.3956
  787MPD2    H111660   2.535   3.973  15.024  0.2255  0.6110  1.5770
  787MPD2    H211661   2.329   4.346  15.094 -0.1946 -0.9757  1.5586
  787MPD2    H311662   2.470   4.156  15.170 -3.1223  0.4889  0.5409
  787MPD2     N11663   2.534   3.996  14.742  0.5956  0.1469 -0.4775
  787MPD2    H511664   2.529   4.033  14.647 -0.9548  0.5257 -0.2420
  787MPD2    N111665   2.269   4.392  14.835 -0.3850  0.2126  0.2532
  787MPD2    H711666   2.209   4.433  14.906  0.4295  1.9858 -0.0743
  788MPD2     C11667   3.548   3.544   1.474  0.2244  0.4592 -0.8255
  788MPD2    C111668   3.563   3.517   1.340 -0.8050 -0.5618  0.0513
  788MPD2    C211669   3.458   3.573   1.261 -0.9870 -0.3527 -0.3570
  788MPD2    C311670   3.358   3.645   1.320 -0.1999  0.0577 -0.0152
  788MPD2    C411671   3.359   3.676   1.454  0.2652  0.0804 -0.4157
  788MPD2    C511672   3.452   3.619   1.531 -0.2992  0.5613 -0.3101
  788MPD2     H11673   3.462   3.566   1.153  2.0744 -0.2809 -0.2541
  788MPD2    H111674   3.271   3.726   1.494  0.2941 -0.6121  0.5080
  788MPD2    H211675   3.618   3.494   1.539 -1.1498 -0.7489 -0.2674
  788MPD2    H311676   3.459   3.642   1.637  0.3774  2.6955 -0.8326
  788MPD2     N11677   3.255   3.706   1.240 -0.3402 -0.1745  0.5974
  788MPD2    H511678   3.186   3.764   1.286  0.1507 -0.4818  1.7239
  788MPD2    N111679   3.672   3.448   1.279  0.1308 -0.8562 -0.2659
  788MPD2    H711680   3.664   3.437   1.179 -0.1155  2.1499 -0.5894
  789MPD2     C11681   4.389   2.843  17.080  0.1631 -0.0691  0.1102
  789MPD2    C111682   4.276   2.832  17.002 -0.3108  0.1032 -0.1143
  789MPD2    C211683   4.196   2.945  16.994 -0.1011  0.7440 -0.0317
  789MPD2    C311684   4.220   3.062  17.064 -0.4935  0.4844 -0.1072
  789MPD2    C411685   4.331   3.066  17.147 -0.4573 -0.0140 -0.3124
  789MPD2    C511686   4.412   2.961  17.148  0.2096 -0.2636  0.1413
  789MPD2     H11687   4.119   2.944  16.917 -0.7355 -3.8736  0.6168
  789MPD2    H111688   4.362   3.152  17.204 -0.8714 -0.6105  0.8296
  789MPD2    H211689   4.474   2.776  17.082 -0.1420 -0.5841 -3.2788
  789MPD2    H311690   4.512   2.980  17.185  0.5930 -1.6078 -0.1802
  789MPD2     N11691   4.140   3.178  17.069 -1.3329  0.3359 -0.0133
  789MPD2    H511692   4.166   3.247  17.138  2.3669  0.1516 -1.2755
  789MPD2    N111693   4.243   2.717  16.927  0.4081  0.0009 -0.2041
  789MPD2    H711694   4.157   2.727  16.875  0.5314  1.4195 -0.1360
  790MPD2     C11695   0.225   0.624  13.724 -0.0847  0.2109  0.6020
  790MPD2    C111696   0.287   0.503  13.740  0.0416  0.2207  0.4732
  790MPD2    C211697   0.266   0.415  13.635  0.1117 -0.2253 -1.0031
  790MPD2    C311698   0.203   0.453  13.519  0.2279  0.4947  0.4038
  790MPD2    C411699   0.160   0.584  13.498  0.3810  0.4390 -0.2794
  790MPD2    C511700   0.166   0.667  13.605 -0.4041 -0.3822  0.0990
  790MPD2     H11701   0.305   0.314  13.647  2.2342  0.9614  2.1218
  790MPD2    H111702   0.118   0.619  13.405  0.2825  1.5899  0.1955
  790MPD2    H211703   0.226   0.689  13.810 -0.1805 -2.0271  2.2856
  790MPD2    H311704   0.127   0.766  13.589 -1.4232 -0.6658  0.8750
  790MPD2     N11705   0.183   0.347  13.431  0.0507  0.3738  0.0639
  790MPD2    H511706   0.189   0.254  13.473 -0.3901  0.7467  0.9531
  790MPD2    N111707   0.349   0.471  13.861  0.0491  0.0139  0.0036
  790MPD2    H711708   0.370   0.547  13.925 -0.8324  1.1616 -1.0563
  791MPD2     C11709   4.345   0.213  12.938  0.0953 -0.4339 -0.3548
  791MPD2    C111710   4.355   0.103  13.020  0.1476  0.2192 -0.4768
  791MPD2    C211711   4.254   0.013  13.037 -0.6964 -0.5266  0.5598
  791MPD2    C311712   4.132   0.025  12.967  0.2386 -0.4826 -0.0681
  791MPD2    C411713   4.124   0.137  12.877  0.5350  0.1316  0.6682
  791MPD2    C511714   4.228   0.223  12.870  0.2613  0.7939 -0.6608
  791MPD2     H11715   4.267   4.666  13.103  2.0955 -0.7726 -0.2733
  791MPD2    H111716   4.034   0.153  12.819  1.2771 -1.2413 -0.8775
  791MPD2    H211717   4.419   0.288  12.913 -0.8000  0.6061  0.1284
  791MPD2    H311718   4.223   0.298  12.793 -1.7528  0.3500 -0.9523
  791MPD2     N11719   4.024   4.678  12.984  0.2965 -0.8088  0.2520
  791MPD2    H511720   4.038   4.602  13.050  2.3390 -1.9852 -1.5552
  791MPD2    N111721   4.473   0.104  13.101 -0.4112 -0.2449  0.0649
  791MPD2    H711722   4.550   0.161  13.068 -0.9590 -0.2529 -1.2424
  792MPD2     C11723   0.426   0.158  11.406 -0.3590 -0.0943 -0.2244
  792MPD2    C111724   0.356   0.247  11.335  0.3850 -0.6394  0.2384
  792MPD2    C211725   0.215   0.245  11.345  0.1253  0.1476  0.2667
  792MPD2    C311726   0.159   0.143  11.414 -0.2383 -0.4952  0.4712
  792MPD2    C411727   0.233   0.042  11.475 -0.1710 -0.0456  0.9167
  792MPD2    C511728   0.372   0.058  11.477  0.4276  0.1177 -0.1112
  792MPD2     H11729   0.153   0.319  11.295  1.2309  2.4105  2.2487
  792MPD2    H111730   0.206   4.689  11.527 -1.7747 -0.9961 -1.5795
  792MPD2    H211731   0.535   0.158  11.407 -0.3343  0.8885 -1.7558
  792MPD2    H311732   0.436   4.724  11.527  0.6095 -0.3902 -1.0652
  792MPD2     N11733   0.018   0.131  11.420  0.3651  0.7544  0.1894
  792MPD2    H511734   4.724   0.059  11.484 -0.7601  0.0949 -1.0987
  792MPD2    N111735   0.422   0.349  11.261 -0.3149 -0.3354  0.2873
  792MPD2    H711736   0.522   0.342  11.245 -0.2317  0.9369  0.2073
  793MPD2     C11737   4.084   4.412  10.986 -0.0281  0.5573 -0.8131
  793MPD2    C111738   4.212   4.447  10.960 -0.4140  0.5634  0.0213
  793MPD2    C211739   4.260   4.561  11.022 -0.4858 -0.4660 -0.2418
  793MPD2    C311740   4.180   4.632  11.117 -0.1499  0.1757  0.0756
  793MPD2    C411741   4.053   4.592  11.149  0.9892  0.3302 -0.5036
  793MPD2    C511742   4.011   4.476  11.084 -0.5657  0.7002  0.0866
  793MPD2     H11743   4.359   4.592  10.991 -0.6986 -1.0982 -1.5453
  793MPD2    H111744   3.985   4.641  11.219  1.7871  1.8511 -0.8067
  793MPD2    H211745   4.042   4.321  10.945 -1.2303  0.7873 -0.0889
  793MPD2    H311746   3.915   4.434  11.115  0.4061 -2.5626 -1.3023
  793MPD2     N11747   4.251   4.735  11.190 -0.2536  0.1608  0.4128
  793MPD2    H511748   4.351   0.001  11.178  0.0216 -3.4381  1.6256
  793MPD2    N111749   4.303   4.374  10.882  0.0744 -0.6505  0.6588
  793MPD2    H711750   4.394   4.418  10.882 -1.2257  2.0583 -0.9405
  794MPD2     C11751   4.382   3.889   0.149 -0.1900 -0.7330 -0.4140
  794MPD2    C111752   4.404   3.853   0.015 -0.2566  0.8851  0.1313
  794MPD2    C211753   4.333   3.918  17.668  0.3944 -0.3511 -0.0680
  794MPD2    C311754   4.246   4.017  17.699 -0.0296  1.3047 -0.2504
  794MPD2    C411755   4.224   4.059   0.077  0.2718  0.3769  0.6025
  794MPD2    C511756   4.289   3.988   0.179  0.1482 -0.3382  0.6887
  794MPD2     H11757   4.344   3.880  17.567  1.2644  1.1544 -0.5396
  794MPD2    H111758   4.158   4.141   0.102 -1.3300 -1.1333  1.3214
  794MPD2    H211759   4.430   3.831   0.226  0.1478  0.1413  0.0350
  794MPD2    H311760   4.267   3.995   0.285  0.4309  2.6112  0.5646
  794MPD2     N11761   4.181   4.101  17.598 -0.6083  0.1440 -0.0614
  794MPD2    H511762   4.118   4.176  17.625 -0.7226  0.3678 -0.9786
  794MPD2    N111763   4.512   3.761  17.747 -0.2044  0.5669  0.1661
  794MPD2    H711764   4.556   3.732   0.084 -1.2026 -0.4024  0.3504
  795MPD2     C11765   2.744   1.485  13.305  0.6823  0.2032 -0.2641
  795MPD2    C111766   2.754   1.349  13.277  0.0897 -0.1324 -0.2355
  795MPD2    C211767   2.839   1.270  13.353 -0.3535 -0.2836  0.5324
  795MPD2    C311768   2.906   1.321  13.462 -0.5273 -0.0125 -0.3061
  795MPD2    C411769   2.890   1.452  13.488 -0.2620  0.4927  0.2375
  795MPD2    C511770   2.816   1.533  13.408  0.3558 -0.3902  0.5369
  795MPD2     H11771   2.846   1.166  13.323 -1.3900 -0.0860 -0.3765
  795MPD2    H111772   2.930   1.500  13.577  0.8278  0.0966 -0.0362
  795MPD2    H211773   2.680   1.555  13.251  0.6540  1.1119  0.9566
  795MPD2    H311774   2.807   1.639  13.426  2.1673 -0.2087  0.4206
  795MPD2     N11775   2.983   1.231  13.536 -0.5170 -0.0847 -0.8622
  795MPD2    H511776   2.984   1.132  13.517 -2.7860 -0.7904  2.7268
  795MPD2    N111777   2.704   1.296  13.163  0.2084 -0.5903  0.2346
  795MPD2    H711778   2.689   1.196  13.158 -3.0612 -0.0853  0.1304
  796MPD2     C11779   2.139   2.653  15.900  1.0331  0.7989  0.4579
  796MPD2    C111780   2.185   2.735  15.993 -0.5117 -0.0812  0.1391
  796MPD2    C211781   2.156   2.871  15.987  0.1172 -0.1056  0.4905
  796MPD2    C311782   2.060   2.919  15.897  0.2773 -0.9726 -0.5722
  796MPD2    C411783   2.013   2.830  15.800 -0.2127 -0.0301 -0.0250
  796MPD2    C511784   2.065   2.704  15.800 -0.1103 -0.6931 -0.3322
  796MPD2     H11785   2.184   2.937  16.068  1.6718 -1.4559  1.0699
  796MPD2    H111786   1.951   2.854  15.714  0.2537 -2.4291 -1.0204
  796MPD2    H211787   2.157   2.546  15.893  2.3058  1.0086  0.5573
  796MPD2    H311788   2.016   2.644  15.724  2.1562 -1.7854 -0.9115
  796MPD2     N11789   2.034   3.059  15.901  0.0400 -0.0771  0.1367
  796MPD2    H511790   2.106   3.113  15.948  0.5657 -0.0320 -0.7086
  796MPD2    N111791   2.276   2.680  16.087  0.8221  0.2712  0.3038
  796MPD2    H711792   2.281   2.578  16.088 -0.8291  0.1878 -0.3642
  797MPD2     C11793   3.266   2.356  17.393 -0.0130  0.0672 -0.3481
  797MPD2    C111794   3.355   2.452  17.358  0.1114 -0.4170 -0.9146
  797MPD2    C211795   3.307   2.560  17.284  0.3091  0.0447  0.2712
  797MPD2    C311796   3.170   2.575  17.260 -0.0342  0.7235 -0.6733
  797MPD2    C411797   3.083   2.479  17.290  0.8667  0.4104  0.1510
  797MPD2    C511798   3.134   2.370  17.361 -0.3693  0.3073 -0.2180
  797MPD2     H11799   3.374   2.645  17.271  1.1960 -0.7854 -0.5791
  797MPD2    H111800   2.977   2.492  17.271  0.9881  1.2813  0.0639
  797MPD2    H211801   3.308   2.271  17.446 -0.6641 -0.2670 -0.3716
  797MPD2    H311802   3.058   2.296  17.386 -1.8302  2.3082  1.2529
  797MPD2     N11803   3.115   2.702  17.235 -0.3574 -0.0124 -0.1118
  797MPD2    H511804   3.013   2.707  17.232 -0.6595 -4.0340  3.9322
  797MPD2    N111805   3.490   2.452  17.392 -0.0127 -0.4291 -0.5771
  797MPD2    H711806   3.551   2.524  17.354  0.2971  0.3462  1.4113
  798MPD2     C11807   3.547   3.137  17.420  0.3054 -0.7350  0.0535
  798MPD2    C111808   3.492   3.038  17.341  0.2361 -0.5054  0.6542
  798MPD2    C211809   3.561   2.915  17.342  0.3147 -0.0375 -0.3337
  798MPD2    C311810   3.682   2.903  17.411 -0.4287 -0.1446  0.4045
  798MPD2    C411811   3.725   3.007  17.489  0.2255 -0.2747  0.0931
  798MPD2    C511812   3.659   3.126  17.495  1.2066 -0.1756  0.5047
  798MPD2     H11813   3.516   2.832  17.289 -1.2665  0.7084 -0.1668
  798MPD2    H111814   3.811   2.995  17.555 -0.3771 -0.6437  0.8245
  798MPD2    H211815   3.501   3.234  17.431  2.0597 -0.1453  2.3324
  798MPD2    H311816   3.693   3.204  17.563  1.0173 -0.4748  0.9421
  798MPD2     N11817   3.739   2.772  17.418  0.1313 -0.0308  0.3392
  798MPD2    H511818   3.706   2.697  17.359 -3.1707  0.4678  1.5635
  798MPD2    N111819   3.374   3.053  17.262  0.3323 -0.2144 -0.7758
  798MPD2    H711820   3.349   2.971  17.208  0.4639 -1.3677  0.9208
  799MPD2     C11821   2.107   4.082  14.585 -0.4577 -0.6586 -0.3523
  799MPD2    C111822   1.998   4.003  14.580  0.1058  0.1346  0.7088
  799MPD2    C211823   1.938   3.977  14.457 -0.3927  0.9192 -0.1405
  799MPD2    C311824   1.978   4.048  14.346  0.3351 -0.6002  0.4036
  799MPD2    C411825   2.076   4.147  14.356 -0.5222  0.5080  0.8007
  799MPD2    C511826   2.141   4.156  14.475 -0.0323  0.1384  0.3292
  799MPD2     H11827   1.859   3.903  14.454 -0.8221  1.1666  4.4610
  799MPD2    H111828   2.117   4.211  14.279 -1.3406 -0.9450 -0.8163
  799MPD2    H211829   2.171   4.092  14.671  0.9586  1.2272 -1.6287
  799MPD2    H311830   2.228   4.220  14.465 -0.8020  0.9961 -0.9455
  799MPD2     N11831   1.920   4.037  14.219  0.0447 -0.7536  0.0341
  799MPD2    H511832   1.953   4.100  14.146  0.9696  0.1462  1.2358
  799MPD2    N111833   1.948   3.919  14.688  0.4734 -0.4228 -0.3886
  799MPD2    H711834   1.865   3.863  14.669 -0.6433  1.1382 -0.1625
  800MPD2     C11835   2.300   0.738  13.956  0.4286  0.5792  0.0734
  800MPD2    C111836   2.425   0.687  13.979  0.2846 -0.1163 -0.1324
  800MPD2    C211837   2.451   0.557  13.943  0.4139 -0.5610 -0.1356
  800MPD2    C311838   2.359   0.482  13.869  1.1943 -0.5470  0.1557
  800MPD2    C411839   2.236   0.537  13.849 -0.2893  0.3095 -0.3112
  800MPD2    C511840   2.206   0.659  13.897  0.1845  0.8489 -0.1988
  800MPD2     H11841   2.545   0.506  13.963  1.0334 -0.5059 -2.9269
  800MPD2    H111842   2.159   0.478  13.800 -1.1787  2.7825 -1.9087
  800MPD2    H211843   2.274   0.839  13.985 -2.4645 -1.3033  3.9833
  800MPD2    H311844   2.104   0.696  13.895 -0.1968 -0.1412  0.5985
  800MPD2     N11845   2.402   0.354  13.829 -0.6504  0.3630 -0.5175
  800MPD2    H511846   2.492   0.326  13.866 -0.7615  0.1549 -0.4078
  800MPD2    N111847   2.518   0.778  14.040 -0.2508 -0.3115 -0.1417
  800MPD2    H711848   2.494   0.877  14.041 -0.3679 -0.3241 -3.0018
  801MPD2     C11849   2.826   1.448  13.832  0.7618 -0.7580  0.3973
  801MPD2    C111850   2.872   1.402  13.958  0.5530  0.5050  0.0022
  801MPD2    C211851   2.914   1.491  14.054 -0.3454  0.7399 -0.8288
  801MPD2    C311852   2.920   1.625  14.025  0.3496 -1.2134 -0.1617
  801MPD2    C411853   2.876   1.672  13.904  0.2987  0.4212  0.5401
  801MPD2    C511854   2.835   1.584  13.809 -0.2287 -0.4922 -0.9014
  801MPD2     H11855   2.955   1.440  14.140  0.3659 -0.3874 -1.8500
  801MPD2    H111856   2.894   1.775  13.876 -1.6715 -0.4678 -3.9895
  801MPD2    H211857   2.780   1.386  13.756  0.6848 -0.0491 -0.1360
  801MPD2    H311858   2.803   1.617  13.710 -3.0794 -0.8903 -0.1028
  801MPD2     N11859   2.964   1.704  14.137 -0.2490 -0.5959  0.8024
  801MPD2    H511860   3.005   1.658  14.218  2.7418  0.8276  0.0859
  801MPD2    N111861   2.875   1.265  14.001 -0.1870  0.5697  0.5883
  801MPD2    H711862   2.919   1.239  14.089 -2.6335 -0.0654  1.6356
  802MPD2     C11863   2.197   1.666   0.508 -0.7290 -0.4367  0.3741
  802MPD2    C111864   2.086   1.623   0.439  0.0840 -0.4317 -0.3097
  802MPD2    C211865   2.114   1.561   0.324  0.1871  0.3546  0.1497
  802MPD2    C311866   2.243   1.546   0.265 -0.3960  0.6484 -0.3857
  802MPD2    C411867   2.352   1.580   0.344 -0.1678  0.2359  0.5420
  802MPD2    C511868   2.323   1.628   0.469  0.2336 -0.2431 -0.9492
  802MPD2     H11869   2.033   1.516   0.267  1.1207 -2.0783  0.7140
  802MPD2    H111870   2.455   1.560   0.320 -1.4377 -1.7354 -3.2444
  802MPD2    H211871   2.178   1.695   0.611 -0.5269 -2.6783  1.0389
  802MPD2    H311872   2.405   1.624   0.540  0.0287 -2.1990 -0.8194
  802MPD2     N11873   2.252   1.489   0.138  0.3497 -0.3928  0.4767
  802MPD2    H511874   2.169   1.487   0.080  0.2186  1.4892  0.5752
  802MPD2    N111875   1.949   1.648   0.466  0.5042 -0.3240 -0.1519
  802MPD2    H711876   1.881   1.626   0.394 -0.0879  0.8841  0.0402
  803MPD2     C11877   3.000   4.434  12.087  0.2922 -0.3292 -0.1863
  803MPD2    C111878   3.031   4.560  12.135  0.2096 -0.3736 -0.6233
  803MPD2    C211879   2.969   4.606  12.248 -0.1769  0.0470 -0.5760
  803MPD2    C311880   2.887   4.522  12.325  0.4296 -0.1613  0.9647
  803MPD2    C411881   2.866   4.394  12.284 -0.0014  0.4690 -0.2225
  803MPD2    C511882   2.923   4.352  12.168  0.6127 -0.1091 -0.2459
  803MPD2     H11883   3.003   4.703  12.282 -1.9348 -0.3456  2.2737
  803MPD2    H111884   2.801   4.327  12.340 -0.3234  0.4060 -0.6735
  803MPD2    H211885   3.055   4.393  12.004 -0.4282  0.7643 -1.2074
  803MPD2    H311886   2.911   4.254  12.122 -0.0150 -0.3629  0.4597
  803MPD2     N11887   2.817   4.563  12.445 -0.7172 -0.1196 -0.1165
  803MPD2    H511888   2.776   4.486  12.497  0.2561 -0.6848 -0.1816
  803MPD2    N111889   3.124   4.633  12.063  0.3930 -0.1033 -0.4690
  803MPD2    H711890   3.150   4.720  12.108  0.7274 -0.9689  1.0072
  804MPD2     C11891   2.206   1.198  16.913  0.1627 -0.3302  0.2224
  804MPD2    C111892   2.262   1.094  16.984  0.1130  0.2234 -0.2103
  804MPD2    C211893   2.377   1.125  17.057  0.2246 -0.7140  0.3854
  804MPD2    C311894   2.441   1.247  17.047  0.4097  0.1819  0.6890
  804MPD2    C411895   2.393   1.342  16.965 -0.0714  0.0019  0.5910
  804MPD2    C511896   2.272   1.316  16.907 -0.4882 -0.9752  0.4740
  804MPD2     H11897   2.427   1.055  17.124  1.5487  0.0946  0.2367
  804MPD2    H111898   2.444   1.437  16.953  0.1307 -0.1316  0.3958
  804MPD2    H211899   2.127   1.178  16.840  0.0686 -0.3041  0.3174
  804MPD2    H311900   2.245   1.401  16.845  1.0925 -0.4186  0.5340
  804MPD2     N11901   2.558   1.262  17.123  0.1920 -0.1900 -0.0746
  804MPD2    H511902   2.572   1.198  17.200  0.3952  0.3782  0.3617
  804MPD2    N111903   2.207   0.960  16.991 -0.1009  0.5999 -0.6137
  804MPD2    H711904   2.257   0.892  17.048 -1.5365  0.4122  0.4205
  805MPD2     C11905   1.642   4.503  15.732 -0.4157 -0.5933  0.3025
  805MPD2    C111906   1.745   4.438  15.671 -0.5837  0.1833  0.4541
  805MPD2    C211907   1.863   4.424  15.738  0.1118  0.2477  0.3607
  805MPD2    C311908   1.892   4.481  15.862  0.2325  0.1470  0.8134
  805MPD2    C411909   1.790   4.543  15.928 -0.0816 -0.1863 -0.4202
  805MPD2    C511910   1.674   4.565  15.854 -0.4405 -0.2326 -0.8218
  805MPD2     H11911   1.936   4.360  15.690 -1.8255 -0.8059 -1.1785
  805MPD2    H111912   1.792   4.579  16.030  0.9789 -1.7001  0.0899
  805MPD2    H211913   1.542   4.521  15.695  0.3956  0.7853 -1.2177
  805MPD2    H311914   1.588   4.607  15.905 -0.3049 -0.1765 -0.6421
  805MPD2     N11915   2.019   4.458  15.919 -0.6411 -0.0945 -0.3361
  805MPD2    H511916   2.085   4.388  15.886 -0.2218  0.4991 -0.7515
  805MPD2    N111917   1.731   4.362  15.554  0.0635  0.5791 -0.1042
  805MPD2    H711918   1.811   4.310  15.521 -2.2846 -2.8390 -0.4240
  806MPD2     C11919   1.689   3.325   0.486  0.0862 -0.2098 -0.1817
  806MPD2    C111920   1.820   3.313   0.515  0.5843  0.2980  0.0445
  806MPD2    C211921   1.910   3.354   0.424 -0.9796 -0.0437 -0.6455
  806MPD2    C311922   1.875   3.401   0.301 -0.0366  0.3950 -0.2029
  806MPD2    C411923   1.746   3.419   0.274  0.5207  0.3824 -0.6196
  806MPD2    C511924   1.652   3.391   0.369  0.4558  0.5016 -0.4670
  806MPD2     H11925   2.018   3.348   0.437 -1.0657  0.1196  0.1510
  806MPD2    H111926   1.714   3.464   0.180 -0.4139 -0.3094 -0.6366
  806MPD2    H211927   1.621   3.289   0.563  0.6570  1.4862  1.0897
  806MPD2    H311928   1.549   3.414   0.346 -0.8215 -0.9021  3.8334
  806MPD2     N11929   1.978   3.418   0.201 -0.0910  0.3356  0.0693
  806MPD2    H511930   2.074   3.432   0.231 -0.5152  1.6924  0.8274
  806MPD2    N111931   1.871   3.239   0.630  0.4092  0.4203 -0.2633
  806MPD2    H711932   1.812   3.186   0.692  0.7961  0.8202  0.4382
  807MPD2     C11933   1.746   3.295   1.378  0.0732 -0.2318 -0.0107
  807MPD2    C111934   1.848   3.214   1.364 -0.0804 -0.8537 -0.4571
  807MPD2    C211935   1.913   3.178   1.480  0.1510  0.0985 -0.3394
  807MPD2    C311936   1.894   3.242   1.603  0.5345  0.4744 -0.3218
  807MPD2    C411937   1.795   3.338   1.612 -0.4243 -0.3710  0.4503
  807MPD2    C511938   1.708   3.355   1.505 -0.3637 -0.6586 -0.8194
  807MPD2     H11939   1.990   3.103   1.468 -0.6056 -0.5773 -0.9948
  807MPD2    H111940   1.764   3.379   1.707 -0.4625 -1.8154  1.0470
  807MPD2    H211941   1.675   3.314   1.298 -2.7284  0.2891  2.5623
  807MPD2    H311942   1.627   3.424   1.522 -0.8563 -1.4092 -0.1058
  807MPD2     N11943   1.972   3.193   1.706 -0.6555 -0.2549  0.0900
  807MPD2    H511944   2.027   3.112   1.678 -1.0101 -0.6039  0.4151
  807MPD2    N111945   1.889   3.159   1.245  0.2373 -0.4670 -0.7151
  807MPD2    H711946   1.970   3.099   1.258  0.3765  0.2607  1.8032
  808MPD2     C11947   3.011   0.270   9.700 -0.4405  0.9134 -0.0433
  808MPD2    C111948   3.056   0.321   9.818 -0.0247  0.7600  0.0384
  808MPD2    C211949   3.154   0.414   9.816 -0.4664  0.1459 -0.0951
  808MPD2    C311950   3.215   0.462   9.692 -0.1302  0.7455  0.0052
  808MPD2    C411951   3.171   0.393   9.580 -0.6174 -0.3526 -0.3664
  808MPD2    C511952   3.075   0.299   9.581 -0.0473  0.9448  0.5831
  808MPD2     H11953   3.182   0.459   9.911 -1.7759  0.9981 -0.1137
  808MPD2    H111954   3.210   0.421   9.483  0.5731 -0.2477  0.1448
  808MPD2    H211955   2.934   0.195   9.687 -0.4131  0.6682  1.1526
  808MPD2    H311956   3.046   0.251   9.488  0.2168  1.1772  0.3810
  808MPD2     N11957   3.299   0.573   9.683  0.2852 -0.1174 -0.8263
  808MPD2    H511958   3.349   0.583   9.596  1.4093 -1.1595 -0.2955
  808MPD2    N111959   2.985   0.299   9.935 -0.5446  0.3811 -0.4227
  808MPD2    H711960   3.007   0.357  10.016 -0.1750 -0.7761  0.3133
  809MPD2     C11961   3.926   0.487   9.182  0.0192 -0.7912  0.0288
  809MPD2    C111962   3.983   0.587   9.254 -0.0713  0.0957 -0.1561
  809MPD2    C211963   3.910   0.658   9.350 -0.5233  0.7086  0.6160
  809MPD2    C311964   3.779   0.634   9.373 -0.7241  0.1185 -0.1228
  809MPD2    C411965   3.723   0.532   9.297 -0.2049 -0.0263  0.1238
  809MPD2    C511966   3.796   0.456   9.204  0.4664 -0.5492  0.4104
  809MPD2     H11967   3.960   0.738   9.403  0.6293  0.0391  0.5162
  809MPD2    H111968   3.618   0.508   9.308  0.2588 -2.6730 -1.1774
  809MPD2    H211969   3.990   0.439   9.108  1.6268 -0.2444  1.0606
  809MPD2    H311970   3.750   0.378   9.143  0.4092 -1.3918  1.5413
  809MPD2     N11971   3.700   0.691   9.478  0.0012  0.7272  0.6102
  809MPD2    H511972   3.605   0.656   9.488  0.8368 -2.4054 -2.0358
  809MPD2    N111973   4.116   0.632   9.241  0.0302  0.2194 -0.2427
  809MPD2    H711974   4.149   0.710   9.297  1.1113 -1.9127  2.0489
  810MPD2     C11975   2.725   0.097  10.617  0.0722 -0.9034 -0.0584
  810MPD2    C111976   2.623   0.084  10.708 -1.0414 -0.1498 -0.0637
  810MPD2    C211977   2.579   0.194  10.783 -0.2026 -0.7412  0.0743
  810MPD2    C311978   2.635   0.315  10.765 -1.1562 -0.2660  0.4136
  810MPD2    C411979   2.734   0.324  10.676 -0.0315  0.3828  0.1278
  810MPD2    C511980   2.778   0.222  10.604  0.1808  0.0855 -0.2557
  810MPD2     H11981   2.499   0.186  10.857  0.2325  1.7549  0.8249
  810MPD2    H111982   2.760   0.426  10.650 -1.8456  0.9837  0.6802
  810MPD2    H211983   2.765   0.013  10.560 -1.2610 -2.0348  0.6798
  810MPD2    H311984   2.846   0.230  10.519  0.3076  0.7414 -0.0949
  810MPD2     N11985   2.582   0.428  10.834 -0.1006 -0.0085 -0.5939
  810MPD2    H511986   2.493   0.411  10.880  0.1012  0.0660 -0.1775
  810MPD2    N111987   2.564   4.695  10.714 -0.6248 -0.0039  0.1599
  810MPD2    H711988   2.589   4.625  10.646  0.2093  0.0192  0.4431
  811MPD2     C11989   1.817   4.678  10.410 -0.6290  0.6697 -0.0884
  811MPD2    C111990   1.934   4.731  10.458  0.0474  0.1661 -0.0723
  811MPD2    C211991   1.953   0.129  10.479  0.4900  0.1263 -0.4485
  811MPD2    C311992   1.845   0.209  10.447 -0.4721  0.6931 -0.2783
  811MPD2    C411993   1.725   0.152  10.395  0.0479 -0.6850 -0.5586
  811MPD2    C511994   1.719   0.023  10.379 -0.2224  0.7055 -0.1966
  811MPD2     H11995   2.038   0.171  10.532  0.3312  1.5228 -1.2977
  811MPD2    H111996   1.643   0.215  10.363 -0.4182 -1.9347 -1.8252
  811MPD2    H211997   1.795   4.572  10.402  0.2693  0.4709  0.1197
  811MPD2    H311998   1.624   4.723  10.344 -0.3813 -1.2688  2.4047
  811MPD2     N11999   1.857   0.348  10.454 -0.3133  0.1062  0.5611
  811MPD2    H512000   1.953   0.382  10.465  0.2996 -2.1706  2.2373
  811MPD2    N112001   2.021   4.633  10.504  0.4139  0.9668 -0.2409
  811MPD2    H712002   1.993   4.536  10.490 -0.9900  1.4855 -1.1222
  812MPD2     C12003   0.617   4.681  12.819 -0.1514  0.6365 -0.1353
  812MPD2    C112004   0.753   4.673  12.792 -0.1901  0.5059  0.6121
  812MPD2    C212005   0.825   4.568  12.852  0.1323 -0.5919 -0.3152
  812MPD2    C312006   0.758   4.481  12.937 -0.3713 -0.0650  0.3112
  812MPD2    C412007   0.624   4.500  12.979 -0.5651  0.9302  0.0862
  812MPD2    C512008   0.553   4.596  12.910  0.5459  0.5984 -0.4002
  812MPD2     H12009   0.930   4.550  12.836 -0.0274 -2.0920  0.2798
  812MPD2    H112010   0.566   4.430  13.039 -0.2246 -1.3403 -2.2186
  812MPD2    H212011   0.566   0.023  12.767  1.6892  1.8002 -0.1994
  812MPD2    H312012   0.445   4.595  12.925  0.6802 -0.6711  0.4667
  812MPD2     N12013   0.835   4.367  12.976 -0.5622 -0.0604  0.4923
  812MPD2    H512014   0.934   4.368  12.953 -0.1026  1.7532  2.5311
  812MPD2    N112015   0.798   0.043  12.715  0.7427  0.1992 -0.2723
  812MPD2    H712016   0.733   0.117  12.689  0.3251 -0.2097 -0.3755
  813MPD2     C12017   0.606   1.361  13.032 -0.3426 -0.5279  0.4395
  813MPD2    C112018   0.559   1.486  13.020  0.0609 -0.3458  0.2573
  813MPD2    C212019   0.482   1.543  13.116 -0.2497 -0.0047  0.6124
  813MPD2    C312020   0.436   1.482  13.228  0.0324  0.1853 -0.0244
  813MPD2    C412021   0.485   1.348  13.238 -0.8350 -0.3334 -0.4145
  813MPD2    C512022   0.569   1.293  13.140 -0.8210  0.1517 -0.3402
  813MPD2     H12023   0.458   1.648  13.098 -0.0096  0.1502  1.1853
  813MPD2    H112024   0.458   1.278  13.316  0.8585  1.0770  1.4324
  813MPD2    H212025   0.671   1.326  12.953  0.6955 -0.4759  1.2794
  813MPD2    H312026   0.605   1.191  13.143  1.5031  0.9449 -1.1711
  813MPD2     N12027   0.358   1.545  13.326 -0.0177 -0.6258 -0.4098
  813MPD2    H512028   0.326   1.637  13.298  0.6854  0.2315  1.6099
  813MPD2    N112029   0.615   1.550  12.907 -0.0891  0.3500 -0.1988
  813MPD2    H712030   0.685   1.499  12.853 -0.1366 -0.8730  0.8931
  814MPD2     C12031   0.297   2.869  12.393 -0.0962  0.3215  0.2149
  814MPD2    C112032   0.396   2.902  12.305 -0.0117 -0.1995  0.1320
  814MPD2    C212033   0.476   3.012  12.319  0.4883 -0.9148 -0.1373
  814MPD2    C312034   0.469   3.081  12.441  0.0987 -0.0674  0.8155
  814MPD2    C412035   0.372   3.046  12.532  0.2437 -0.3141 -0.4521
  814MPD2    C512036   0.279   2.952  12.500  0.2253 -0.5588 -0.3351
  814MPD2     H12037   0.555   3.036  12.249  0.9967  0.2824  0.8485
  814MPD2    H112038   0.372   3.100  12.626  0.3271  2.3118 -1.9359
  814MPD2    H212039   0.227   2.787  12.396  2.0998 -1.5429  0.4163
  814MPD2    H312040   0.195   2.940  12.568  0.5123 -1.1272 -0.0899
  814MPD2     N12041   0.547   3.198  12.464  0.4064 -0.0176 -0.8228
  814MPD2    H512042   0.512   3.248  12.546  0.4994 -1.6625  0.2231
  814MPD2    N112043   0.429   2.816  12.192  0.3334  0.1907  0.6219
  814MPD2    H712044   0.511   2.838  12.136 -0.7255  1.9214 -0.2569
  815MPD2     C12045   1.522   1.201  12.000  0.0316  0.5177  0.0789
  815MPD2    C112046   1.473   1.278  11.899 -0.1514 -0.3131  0.2315
  815MPD2    C212047   1.330   1.284  11.885 -0.6888 -0.2700  0.0183
  815MPD2    C312048   1.248   1.209  11.969 -0.9667  0.3895  0.5274
  815MPD2    C412049   1.302   1.135  12.074  0.0794 -0.6432 -0.0221
  815MPD2    C512050   1.435   1.131  12.081  0.6200  0.2428  0.0758
  815MPD2     H12051   1.284   1.346  11.809 -1.0388 -0.1729  0.3029
  815MPD2    H112052   1.253   1.054  12.127 -0.2206 -0.3157  0.1978
  815MPD2    H212053   1.627   1.187  12.024 -0.1812 -0.6068  0.3896
  815MPD2    H312054   1.487   1.064  12.148  0.5544  0.2705  0.1539
  815MPD2     N12055   1.112   1.212  11.943 -0.0853  0.4786  0.0610
  815MPD2    H512056   1.075   1.267  11.866 -0.2722 -0.5401 -0.5800
  815MPD2    N112057   1.572   1.347  11.829  1.1238  0.2073  0.2192
  815MPD2    H712058   1.669   1.324  11.848  0.8109 -0.9959  0.3777
  816MPD2     C12059   1.260   0.562  17.395  0.0467 -0.1503 -0.0447
  816MPD2    C112060   1.203   0.656  17.314  0.4424 -0.1802 -0.4215
  816MPD2    C212061   1.241   0.654  17.180 -0.3586  0.1192  0.5073
  816MPD2    C312062   1.339   0.578  17.130  0.3186  0.7865  0.2268
  816MPD2    C412063   1.408   0.499  17.216 -0.3806  0.1921  0.4334
  816MPD2    C512064   1.361   0.481  17.345 -0.0937 -0.0277 -0.1913
  816MPD2     H12065   1.204   0.723  17.104  1.0415  0.2562 -0.0497
  816MPD2    H112066   1.500   0.445  17.197 -1.7176 -2.3325  1.0901
  816MPD2    H212067   1.245   0.555  17.502 -0.3845 -1.1141 -0.1639
  816MPD2    H312068   1.419   0.420  17.415 -2.0503 -2.1068 -0.3877
  816MPD2     N12069   1.368   0.589  16.991  0.0228 -0.6900 -0.4697
  816MPD2    H512070   1.312   0.652  16.934  0.4135  0.8090  0.8034
  816MPD2    N112071   1.116   0.751  17.371 -0.1082 -0.2913 -0.8241
  816MPD2    H712072   1.096   0.745  17.470 -0.4791 -1.7623 -0.9915
  817MPD2     C12073   0.505   2.602  10.256 -0.1313 -0.0129 -0.1350
  817MPD2    C112074   0.525   2.543  10.134 -0.0072 -0.4082 -0.0080
  817MPD2    C212075   0.466   2.608  10.031  0.3707 -0.0864  0.1473
  817MPD2    C312076   0.393   2.726  10.041  0.1425 -0.3810  0.1812
  817MPD2    C412077   0.380   2.781  10.167 -0.5914  0.0783 -0.0033
  817MPD2    C512078   0.438   2.718  10.272  0.8317 -0.2942  0.0416
  817MPD2     H12079   0.483   2.572   9.930  3.4851  1.7931  0.0076
  817MPD2    H112080   0.333   2.875  10.195 -1.5547  0.2462 -2.1663
  817MPD2    H212081   0.544   2.568  10.351 -1.0753  0.0463  0.2775
  817MPD2    H312082   0.412   2.761  10.369  1.4882 -0.0437  0.1034
  817MPD2     N12083   0.335   2.777   9.926  0.3389 -0.0133  0.4180
  817MPD2    H512084   0.355   2.720   9.844 -0.1041  2.1734 -1.2198
  817MPD2    N112085   0.584   2.412  10.119  0.3301 -0.5098 -0.3843
  817MPD2    H712086   0.591   2.371  10.026 -0.0381  1.4913 -1.2928
  818MPD2     C12087   4.142   2.729  10.505  0.1715 -0.3457  0.0341
  818MPD2    C112088   4.041   2.672  10.440  0.4840 -0.4960  0.3845
  818MPD2    C212089   4.060   2.626  10.310  0.3195 -0.5186 -0.0280
  818MPD2    C312090   4.185   2.643  10.253 -0.0333  0.2738  0.0362
  818MPD2    C412091   4.285   2.701  10.330  0.9579 -0.3881 -0.4796
  818MPD2    C512092   4.265   2.740  10.455 -0.6944 -0.3445  0.3325
  818MPD2     H12093   3.980   2.572  10.260  0.8145 -1.1822 -0.1086
  818MPD2    H112094   4.390   2.710  10.304  1.1692  1.0875  0.8830
  818MPD2    H212095   4.139   2.757  10.610  2.8005 -0.5667  0.1604
  818MPD2    H312096   4.342   2.789  10.513 -1.7066  0.3981  1.0495
  818MPD2     N12097   4.225   2.604  10.121  0.4479  0.1380  0.5177
  818MPD2    H512098   4.321   2.608  10.088  0.0716  0.3970 -0.5136
  818MPD2    N112099   3.915   2.654  10.498  0.1876  0.4309 -0.5339
  818MPD2    H712100   3.852   2.592  10.448 -1.4330  1.4091  0.2914
  819MPD2     C12101   2.528   3.835  15.972  0.1054 -0.0704 -0.3071
  819MPD2    C112102   2.583   3.717  15.925  0.1634  0.6978 -0.2990
  819MPD2    C212103   2.709   3.669  15.961  0.6892 -0.7123 -0.0988
  819MPD2    C312104   2.772   3.739  16.061  0.4558 -0.3643 -0.0764
  819MPD2    C412105   2.709   3.840  16.122  0.0356 -0.6956 -0.2067
  819MPD2    C512106   2.593   3.891  16.081  0.3308 -0.8633 -0.4193
  819MPD2     H12107   2.754   3.581  15.917 -0.3546 -1.6659  0.7582
  819MPD2    H112108   2.758   3.897  16.200  1.8103 -1.7274 -0.5789
  819MPD2    H212109   2.429   3.870  15.945  0.2225  0.5563  0.0798
  819MPD2    H312110   2.548   3.974  16.134 -0.3777 -1.5540  0.0628
  819MPD2     N12111   2.909   3.708  16.091 -0.0716 -0.5068  0.4794
  819MPD2    H512112   2.944   3.629  16.039  1.9969  0.1075  0.9346
  819MPD2    N112113   2.510   3.644  15.829  0.2378 -0.4898  0.8992
  819MPD2    H712114   2.439   3.698  15.781 -0.0782  0.5467  2.5622
  820MPD2     C12115   1.647   3.573  15.346  0.4181 -0.1666  0.1446
  820MPD2    C112116   1.747   3.671  15.359 -0.4176  0.1173  0.0721
  820MPD2    C212117   1.870   3.651  15.412 -0.3732 -0.7392  0.6460
  820MPD2    C312118   1.905   3.518  15.444  0.6011 -0.0704  0.3254
  820MPD2    C412119   1.816   3.416  15.413 -0.1120 -0.4274  0.5138
  820MPD2    C512120   1.687   3.444  15.366  0.1145 -0.2748  0.1474
  820MPD2     H12121   1.936   3.733  15.438 -1.0180 -0.4332  1.3347
  820MPD2    H112122   1.819   3.310  15.437  0.1123  0.4660  4.4834
  820MPD2    H212123   1.553   3.601  15.300 -0.5323 -4.6534 -0.6547
  820MPD2    H312124   1.603   3.376  15.366 -0.0855 -0.0369  1.7874
  820MPD2     N12125   2.032   3.479  15.480  0.2990 -0.0298 -0.1827
  820MPD2    H512126   2.038   3.378  15.484  1.2784  0.0692  0.6088
  820MPD2    N112127   1.697   3.800  15.328 -0.1561 -0.4465  0.6344
  820MPD2    H712128   1.603   3.811  15.290  1.3432  1.2358 -2.5881
  821MPD2     C12129   2.754   0.251  13.115  0.4672  0.3343 -0.9534
  821MPD2    C112130   2.827   0.220  13.234 -0.1172 -0.6337  0.0842
  821MPD2    C212131   2.964   0.198  13.223 -0.2896 -0.1571  0.3686
  821MPD2    C312132   3.026   0.203  13.099  0.1301 -0.6449 -0.0405
  821MPD2    C412133   2.954   0.245  12.990  0.3742  0.2762 -0.0928
  821MPD2    C512134   2.820   0.267  12.999  0.1158  0.4111  0.7493
  821MPD2     H12135   3.022   0.165  13.308 -2.3034 -0.5899  1.5762
  821MPD2    H112136   2.999   0.266  12.894  0.5939 -0.8682 -0.2320
  821MPD2    H212137   2.650   0.278  13.112  0.6819  1.5954  2.1359
  821MPD2    H312138   2.770   0.298  12.907  0.0042  0.6693  0.8967
  821MPD2     N12139   3.165   0.180  13.082 -0.6422  0.1485 -0.0789
  821MPD2    H512140   3.201   0.191  12.987 -0.1272  0.8520  0.1938
  821MPD2    N112141   2.766   0.203  13.360 -0.5127  0.3025  0.1124
  821MPD2    H712142   2.828   0.178  13.437  0.9967 -1.4306 -1.6396
  822MPD2     C12143   3.366   0.424  15.769 -0.1167  0.3419  0.3199
  822MPD2    C112144   3.369   0.419  15.910  0.0669  0.5031 -0.5781
  822MPD2    C212145   3.310   0.531  15.970 -0.2450  0.1011  0.1493
  822MPD2    C312146   3.246   0.627  15.901  0.5722 -0.4261 -0.1367
  822MPD2    C412147   3.229   0.620  15.767  0.2386  0.3487  0.5172
  822MPD2    C512148   3.297   0.520  15.702 -0.0528 -0.4143 -0.0778
  822MPD2     H12149   3.312   0.531  16.079 -1.1802  0.4854  0.1684
  822MPD2    H112150   3.173   0.690  15.706 -2.3850 -0.0387  2.4892
  822MPD2    H212151   3.408   0.346  15.707 -1.5277  0.3310 -0.6158
  822MPD2    H312152   3.289   0.513  15.594  1.7728 -0.5160 -0.2120
  822MPD2     N12153   3.178   0.731  15.978  0.3046 -0.5132  0.6736
  822MPD2    H512154   3.185   0.732  16.079  0.4439  0.4602  0.6541
  822MPD2    N112155   3.438   0.318  15.977  0.8467  0.0361  0.5326
  822MPD2    H712156   3.428   0.330  16.077 -0.3616 -1.9204  0.6389
  823MPD2     C12157   2.549   0.838  16.502  0.5370  0.0088  0.4608
  823MPD2    C112158   2.675   0.803  16.459  0.1339 -0.0972 -0.4335
  823MPD2    C212159   2.752   0.727  16.540 -0.4464  0.2920  0.1810
  823MPD2    C312160   2.707   0.693  16.668  0.4785 -0.0635 -0.5504
  823MPD2    C412161   2.573   0.705  16.704  0.1715  0.0897  0.3171
  823MPD2    C512162   2.498   0.785  16.621 -0.3012  0.0156  0.4221
  823MPD2     H12163   2.853   0.706  16.508 -1.0328 -0.1272 -1.3898
  823MPD2    H112164   2.533   0.665  16.796  0.6969  1.7680  1.2694
  823MPD2    H212165   2.484   0.907  16.449  0.0839  0.7947  2.0338
  823MPD2    H312166   2.393   0.799  16.645 -0.7661 -0.9635 -1.0170
  823MPD2     N12167   2.790   0.640  16.769 -0.6326  0.1526  0.3279
  823MPD2    H512168   2.749   0.625  16.861 -1.1594  3.7121  0.6722
  823MPD2    N112169   2.731   0.857  16.337 -0.1171  0.6766  0.1936
  823MPD2    H712170   2.679   0.938  16.306 -0.5332 -0.5875 -2.4411
  824MPD2     C12171   3.701   4.210  15.932 -0.0850 -0.4208  0.2305
  824MPD2    C112172   3.796   4.305  15.960  0.1683 -0.5916  0.2575
  824MPD2    C212173   3.928   4.262  15.957 -0.1603  0.5732 -0.1222
  824MPD2    C312174   3.969   4.136  15.919  0.0696 -0.2918  0.0946
  824MPD2    C412175   3.865   4.049  15.885 -0.1919  0.0373 -0.4329
  824MPD2    C512176   3.736   4.087  15.889 -0.5347  0.4745 -0.2134
  824MPD2     H12177   3.998   4.340  15.981 -0.8486  1.1924 -0.1289
  824MPD2    H112178   3.894   3.952  15.845 -0.2857  0.4816 -1.5814
  824MPD2    H212179   3.594   4.231  15.926 -0.2312 -1.0493  0.5781
  824MPD2    H312180   3.662   4.021  15.845  0.3013 -1.3400  1.0923
  824MPD2     N12181   4.104   4.102  15.895 -0.2501 -0.4207  0.0956
  824MPD2    H512182   4.169   4.175  15.920 -0.2192 -0.3830 -0.0919
  824MPD2    N112183   3.764   4.436  15.997 -0.0257  0.1401  1.0892
  824MPD2    H712184   3.844   4.492  16.025  0.5723 -0.3589  0.3748
  825MPD2     C12185   0.022   4.331  15.447 -0.6604 -0.4874 -0.3015
  825MPD2    C112186   4.641   4.336  15.506 -0.3931  0.1719  0.0874
  825MPD2    C212187   4.554   4.426  15.469 -0.2652  0.7299  0.1136
  825MPD2    C312188   4.589   4.528  15.385 -0.3835  0.0141  0.6793
  825MPD2    C412189   4.704   4.515  15.313  0.5488 -1.2083 -0.6073
  825MPD2    C512190   0.054   4.415  15.341  1.1614  0.3421  0.1877
  825MPD2     H12191   4.461   4.427  15.525  0.0651 -1.7186  0.6801
  825MPD2    H112192   4.723   4.580  15.229 -0.0092 -0.8879 -0.4814
  825MPD2    H212193   0.095   4.255  15.472  0.8760  1.1937  0.4276
  825MPD2    H312194   0.147   4.403  15.286  0.7758  1.5389 -0.7147
  825MPD2     N12195   4.510   4.642  15.364  0.2998  0.4252 -1.2255
  825MPD2    H512196   4.540   4.715  15.300  1.0695  1.5122  0.3748
  825MPD2    N112197   4.606   4.242  15.607  0.0501  0.6224 -0.0796
  825MPD2    H712198   4.683   4.185  15.640  0.8523  1.4422 -0.5545
  826MPD2     C12199   3.696   4.290  13.621  0.9689 -0.3618  0.5248
  826MPD2    C112200   3.787   4.387  13.661  0.5913  0.5166  0.1030
  826MPD2    C212201   3.732   4.513  13.691  0.8381 -0.9877  0.2065
  826MPD2    C312202   3.602   4.538  13.678 -0.3872 -0.0106 -0.2190
  826MPD2    C412203   3.522   4.440  13.631 -0.4019  0.0105  0.2621
  826MPD2    C512204   3.567   4.316  13.615 -0.0736 -0.1786 -0.6818
  826MPD2     H12205   3.791   4.590  13.740 -2.1859  0.2484  1.9610
  826MPD2    H112206   3.415   4.454  13.622 -0.1214  2.5033  0.5864
  826MPD2    H212207   3.716   4.189  13.589 -2.4326 -1.2330  1.0987
  826MPD2    H312208   3.494   4.239  13.590 -0.3810 -0.7275  1.9184
  826MPD2     N12209   3.525   4.654  13.696  0.4214  0.3861 -0.3357
  826MPD2    H512210   3.431   4.655  13.659 -0.0732  0.6900  0.9318
  826MPD2    N112211   3.926   4.356  13.664  1.6610 -0.2063 -0.1213
  826MPD2    H712212   3.947   4.264  13.629 -0.2402 -1.1480  1.1931
  827MPD2     C12213   0.380   1.242  10.036  0.4018 -0.2459  0.9486
  827MPD2    C112214   0.284   1.212  10.129  0.1301  0.0437  0.1596
  827MPD2    C212215   0.166   1.148  10.093 -0.1276  0.3469 -0.7245
  827MPD2    C312216   0.147   1.115   9.962  0.4056  0.0201  0.2704
  827MPD2    C412217   0.235   1.152   9.869 -0.6603  0.5096  0.3589
  827MPD2    C512218   0.351   1.213   9.904 -0.2584  0.2821  0.3135
  827MPD2     H12219   0.099   1.115  10.172  0.5156 -0.0339 -0.3467
  827MPD2    H112220   0.223   1.126   9.765 -1.8744 -1.3505  0.9621
  827MPD2    H212221   0.470   1.296  10.064  0.7365 -0.7707  0.8755
  827MPD2    H312222   0.408   1.260   9.825 -2.0324  0.6006 -0.7850
  827MPD2     N12223   0.034   1.051   9.904 -0.9273 -0.3651 -0.0070
  827MPD2    H512224   0.031   1.026   9.805  0.2935 -0.0853 -0.1175
  827MPD2    N112225   0.312   1.244  10.264 -0.0077  0.9720 -0.0491
  827MPD2    H712226   0.412   1.250  10.279  0.2475 -1.2778 -0.9082
  828MPD2     C12227   3.563   0.432  12.337  0.1831  0.1742 -0.6188
  828MPD2    C112228   3.492   0.521  12.256  0.4140 -1.2151 -0.2628
  828MPD2    C212229   3.523   0.516  12.121 -0.0648  0.6381  0.6034
  828MPD2    C312230   3.609   0.424  12.066 -0.6173  0.4616 -0.0708
  828MPD2    C412231   3.672   0.333  12.142 -0.2432 -0.2790 -1.0990
  828MPD2    C512232   3.653   0.342  12.277 -0.7346  0.8773  0.0543
  828MPD2     H12233   3.466   0.576  12.050  0.4032 -1.1295 -1.2656
  828MPD2    H112234   3.736   0.257  12.099  0.5518 -0.0984 -0.2372
  828MPD2    H212235   3.562   0.424  12.445 -2.7912 -0.6382 -0.7185
  828MPD2    H312236   3.706   0.275  12.343  0.8431  0.7620 -1.3298
  828MPD2     N12237   3.636   0.418  11.930  0.1864  0.2625 -0.3626
  828MPD2    H512238   3.709   0.354  11.900  0.7643  0.7175  0.0765
  828MPD2    N112239   3.386   0.617  12.293  0.1645  0.2953  0.7042
  828MPD2    H712240   3.347   0.661  12.210  3.1209  0.1920 -0.7551
  829MPD2     C12241   2.865   1.227  12.008 -0.6152  0.4726 -0.2878
  829MPD2    C112242   2.822   1.215  12.140 -0.8200  0.1478  0.2369
  829MPD2    C212243   2.909   1.159  12.230 -0.2651 -0.3314 -0.4605
  829MPD2    C312244   3.037   1.118  12.193 -0.6113 -0.1054  0.6464
  829MPD2    C412245   3.079   1.131  12.064  0.5190 -0.1787  0.4408
  829MPD2    C512246   2.994   1.189  11.967 -0.9179 -0.4586 -0.0285
  829MPD2     H12247   2.864   1.123  12.322  1.5253  1.2044  1.0157
  829MPD2    H112248   3.179   1.100  12.033 -0.7957 -3.1247 -0.8475
  829MPD2    H212249   2.797   1.257  11.929 -1.4458  4.0982  1.8119
  829MPD2    H312250   3.022   1.199  11.863  0.3095  0.1659  0.3662
  829MPD2     N12251   3.134   1.069  12.281 -0.4843  0.1970 -0.4330
  829MPD2    H512252   3.229   1.048  12.254  1.2203  5.0560  1.7930
  829MPD2    N112253   2.684   1.239  12.163  0.7540  0.1278  0.1340
  829MPD2    H712254   2.623   1.255  12.083  1.0558  0.8882  0.0598
  830MPD2     C12255   3.705   3.364  15.928 -0.3764 -0.7451  0.0776
  830MPD2    C112256   3.591   3.429  15.884  0.3245  0.3005 -0.2132
  830MPD2    C212257   3.571   3.461  15.747  1.0623 -0.6482  0.2619
  830MPD2    C312258   3.672   3.429  15.652  0.1628  0.2612  0.3607
  830MPD2    C412259   3.783   3.362  15.697  0.0824  0.1177 -0.0217
  830MPD2    C512260   3.795   3.329  15.826  0.0322  0.2077  0.2756
  830MPD2     H12261   3.477   3.502  15.714  0.4478 -1.9133  0.4332
  830MPD2    H112262   3.860   3.322  15.632 -0.3768  3.0850 -2.4079
  830MPD2    H212263   3.723   3.338  16.031 -2.7086 -1.4775  0.3156
  830MPD2    H312264   3.887   3.274  15.846  0.0699  0.7061  1.5127
  830MPD2     N12265   3.667   3.462  15.515 -0.0391 -0.3850  0.3422
  830MPD2    H512266   3.734   3.415  15.455 -1.7880 -0.3700 -1.5832
  830MPD2    N112267   3.498   3.478  15.980  0.9430  0.1403  0.0061
  830MPD2    H712268   3.527   3.457  16.075 -0.0569  1.1266  0.5143
  831MPD2     C12269   3.448   0.854  16.217  0.0423  1.2426 -0.1117
  831MPD2    C112270   3.478   0.724  16.212 -0.2682 -0.3070  0.2638
  831MPD2    C212271   3.393   0.638  16.285 -0.0012  0.1119  0.3610
  831MPD2    C312272   3.267   0.679  16.324 -0.4302 -0.3172  0.1645
  831MPD2    C412273   3.231   0.807  16.329 -0.6498  0.2835  0.7700
  831MPD2    C512274   3.325   0.893  16.276 -0.4904  0.0216 -0.2493
  831MPD2     H12275   3.411   0.531  16.279  0.2752  0.1974 -0.4034
  831MPD2    H112276   3.130   0.834  16.354 -0.8695  1.7620 -1.6751
  831MPD2    H212277   3.512   0.929  16.171 -0.5782  1.8369 -0.0149
  831MPD2    H312278   3.312   1.001  16.282 -1.2378 -0.0996  0.3500
  831MPD2     N12279   3.164   0.591  16.366 -0.0774 -0.0839  0.0630
  831MPD2    H512280   3.070   0.624  16.347  0.0907  0.2854 -0.1126
  831MPD2    N112281   3.577   0.684  16.121  0.4221 -0.2143  0.0596
  831MPD2    H712282   3.604   0.757  16.056 -1.8934 -2.2961 -3.2371
  832MPD2     C12283   1.878   1.666  17.426  0.6993 -0.3675  0.3834
  832MPD2    C112284   1.873   1.758  17.319  0.0523 -0.6579  0.3151
  832MPD2    C212285   1.758   1.778  17.249 -0.7156 -0.8311  0.3758
  832MPD2    C312286   1.644   1.721  17.311 -0.6599  0.0443 -0.8073
  832MPD2    C412287   1.639   1.646  17.429  0.0725 -0.5642  0.8469
  832MPD2    C512288   1.763   1.606  17.470  0.0749 -0.0403 -0.5072
  832MPD2     H12289   1.744   1.828  17.154  1.0669  0.7983  0.9787
  832MPD2    H112290   1.550   1.605  17.475  1.2129 -0.4153  3.1671
  832MPD2    H212291   1.975   1.635  17.462  1.3071  1.5168  0.3751
  832MPD2    H312292   1.782   1.528  17.543 -0.8403 -0.0183 -0.2531
  832MPD2     N12293   1.514   1.745  17.260 -0.1011  0.1376  1.4110
  832MPD2    H512294   1.439   1.689  17.299 -2.1212  1.3999 -0.7037
  832MPD2    N112295   2.001   1.822  17.282  0.1114  0.1434  0.0680
  832MPD2    H712296   2.079   1.781  17.333 -1.5496 -4.1607 -0.8270
  833MPD2     C12297   3.627   3.996  12.998  0.1796 -0.5436  0.3574
  833MPD2    C112298   3.574   3.988  12.872 -0.0472  0.0239  0.3505
  833MPD2    C212299   3.659   3.942  12.768 -0.3632 -0.1860 -0.2979
  833MPD2    C312300   3.792   3.900  12.784  0.4437  0.1001  0.6311
  833MPD2    C412301   3.841   3.908  12.917  0.2153 -0.6720  0.7428
  833MPD2    C512302   3.757   3.952  13.018  0.3181 -0.4357 -0.0398
  833MPD2     H12303   3.619   3.925  12.668 -0.4079 -0.5332 -0.2215
  833MPD2    H112304   3.947   3.905  12.942 -0.0427 -0.5121  1.8593
  833MPD2    H212305   3.566   4.015  13.085 -2.0699  0.6648 -1.5182
  833MPD2    H312306   3.793   3.961  13.120 -0.2429  1.0261  0.0242
  833MPD2     N12307   3.863   3.872  12.660 -0.7267 -1.0898 -0.5170
  833MPD2    H512308   3.807   3.873  12.575 -1.7537  0.1241  0.1764
  833MPD2    N112309   3.442   4.027  12.836 -0.2564 -1.0047 -0.4401
  833MPD2    H712310   3.423   4.023  12.737 -2.0763 -0.6296 -0.0977
  834MPD2     C12311   3.979   2.943  12.226  0.2009 -0.2763 -0.7355
  834MPD2    C112312   3.926   3.031  12.128 -0.1681 -0.2919  0.4482
  834MPD2    C212313   3.898   3.164  12.158  0.1665 -0.7212 -0.2188
  834MPD2    C312314   3.948   3.212  12.277 -0.0881 -0.2544  0.5819
  834MPD2    C412315   3.988   3.128  12.376  0.0016  0.5005 -0.3547
  834MPD2    C512316   4.000   2.993  12.348  0.3229  0.2572  0.1015
  834MPD2     H12317   3.843   3.226  12.088  2.7737  2.2331  0.3337
  834MPD2    H112318   4.007   3.168  12.475 -0.4895  1.1334 -0.5186
  834MPD2    H212319   4.015   2.845  12.200  0.5672 -0.7767  1.6903
  834MPD2    H312320   4.037   2.925  12.425  0.2372 -0.3656 -0.4088
  834MPD2     N12321   3.929   3.347  12.298 -0.2237  0.1563  0.2289
  834MPD2    H512322   3.856   3.394  12.246  1.7201  0.9395 -1.8257
  834MPD2    N112323   3.895   2.967  12.000  0.0186  0.2152  0.3818
  834MPD2    H712324   3.933   2.873  11.999  4.1462  1.9121  0.4141
  835MPD2     C12325   4.351   0.961  10.911 -0.0003  0.1599 -0.4723
  835MPD2    C112326   4.321   1.043  11.022 -0.6688 -0.5904  0.0454
  835MPD2    C212327   4.360   1.005  11.148 -0.6635 -0.4336 -0.6544
  835MPD2    C312328   4.438   0.896  11.168 -0.3017  0.7162  0.4987
  835MPD2    C412329   4.470   0.814  11.061 -0.3032  0.0873 -0.6877
  835MPD2    C512330   4.430   0.850  10.934  0.2090 -0.4322  0.6940
  835MPD2     H12331   4.336   1.077  11.226  1.0411  0.3057 -0.7930
  835MPD2    H112332   4.526   0.723  11.076  0.8042  1.2097  1.8923
  835MPD2    H212333   4.317   0.975  10.809 -0.3581  0.4691 -0.3136
  835MPD2    H312334   4.457   0.773  10.861  0.8969  0.3507  0.1231
  835MPD2     N12335   4.481   0.855  11.296 -0.3656  0.3050 -0.3901
  835MPD2    H512336   4.532   0.770  11.314  2.1676  1.8397 -0.3375
  835MPD2    N112337   4.214   1.136  11.016 -0.2842 -0.2745  0.5427
  835MPD2    H712338   4.196   1.202  11.091 -0.8376  0.4880 -0.2745
  836MPD2     C12339   3.902   0.966  11.594 -0.6982 -0.2810  0.4987
  836MPD2    C112340   3.967   0.882  11.681  0.1305 -0.7119  0.1208
  836MPD2    C212341   3.908   0.827  11.792  0.0902  0.3678 -0.1218
  836MPD2    C312342   3.774   0.853  11.818  0.3650  0.0956  0.2237
  836MPD2    C412343   3.711   0.941  11.734 -0.1704 -0.0240  0.4639
  836MPD2    C512344   3.773   0.997  11.625 -0.1542  0.0442  0.0122
  836MPD2     H12345   3.967   0.762  11.855 -1.8483 -1.2136  0.0444
  836MPD2    H112346   3.606   0.964  11.747 -0.4686 -0.4139 -1.2249
  836MPD2    H212347   3.953   1.026  11.520 -1.9793  0.5471  0.3026
  836MPD2    H312348   3.731   1.075  11.563  1.2037 -0.3494 -1.4233
  836MPD2     N12349   3.717   0.828  11.942  0.0045  0.5833  0.2934
  836MPD2    H512350   3.622   0.862  11.950 -0.2461  0.1006 -0.5004
  836MPD2    N112351   4.103   0.857  11.655 -0.7081 -0.1525  0.1817
  836MPD2    H712352   4.134   0.882  11.561  2.6210  0.4922  1.4442
  837MPD2     C12353   2.193   1.074  10.591  0.5616 -0.2469 -0.0309
  837MPD2    C112354   2.057   1.074  10.561 -0.0709 -0.6510 -0.7369
  837MPD2    C212355   1.992   1.198  10.552 -0.6339 -0.6198  0.9626
  837MPD2    C312356   2.055   1.319  10.588 -0.0603  0.3104 -0.3763
  837MPD2    C412357   2.193   1.323  10.596  0.0917 -0.0452  0.0724
  837MPD2    C512358   2.252   1.196  10.606 -0.2561  0.0341  0.3820
  837MPD2     H12359   1.885   1.205  10.538 -0.7190 -0.3271  1.7754
  837MPD2    H112360   2.250   1.413  10.615  1.3823 -1.4431  2.8930
  837MPD2    H212361   2.258   0.988  10.595  1.1320  0.1890  0.1321
  837MPD2    H312362   2.360   1.197  10.615 -0.2660 -0.1743  0.5300
  837MPD2     N12363   1.978   1.437  10.591 -0.3149 -0.1379  0.2657
  837MPD2    H512364   1.878   1.433  10.575 -0.2246 -0.5215 -0.2064
  837MPD2    N112365   1.975   0.965  10.531 -0.8836 -1.0924  0.0115
  837MPD2    H712366   1.880   0.984  10.501 -0.4831  1.0034  0.1183
  838MPD2     C12367   4.645   3.296  11.406 -0.3055 -0.0642 -0.8450
  838MPD2    C112368   4.636   3.380  11.516 -0.5955 -0.0576 -0.4909
  838MPD2    C212369   4.529   3.364  11.610 -0.3816  0.1924  0.4446
  838MPD2    C312370   4.456   3.244  11.605 -0.1383  0.5301 -0.5155
  838MPD2    C412371   4.480   3.154  11.503 -0.1899 -0.4286  0.2415
  838MPD2    C512372   4.571   3.179  11.404  0.2459 -0.9407 -0.4671
  838MPD2     H12373   4.519   3.437  11.689 -1.2929 -1.0686  1.4861
  838MPD2    H112374   4.427   3.061  11.485  0.1716 -1.0745  2.5358
  838MPD2    H212375   4.711   3.311  11.321 -0.8395 -0.3189 -1.3109
  838MPD2    H312376   4.585   3.107  11.324 -0.3916 -1.1049 -0.4284
  838MPD2     N12377   4.371   3.228  11.714 -0.0239 -0.6420  1.0891
  838MPD2    H512378   4.358   3.305  11.778  0.1003 -0.9093  1.4394
  838MPD2    N112379   4.712   3.501  11.539 -0.1598  0.0215 -0.0119
  838MPD2    H712380   4.680   3.564  11.612 -1.3802  1.0777 -1.4815
  839MPD2     C12381   4.645   3.286  12.157 -0.6828 -0.2149 -0.8321
  839MPD2    C112382   4.696   3.254  12.037 -0.2942  0.0838  0.3141
  839MPD2    C212383   0.018   3.351  11.954 -0.6232 -0.7709 -0.3035
  839MPD2    C312384   0.015   3.480  12.001 -0.5033 -0.2677  0.0492
  839MPD2    C412385   4.690   3.515  12.118 -0.5306 -0.3114 -0.0552
  839MPD2    C512386   4.638   3.416  12.198 -0.1127  0.7582 -0.4125
  839MPD2     H12387   0.060   3.333  11.856 -0.5906  0.3509 -0.5012
  839MPD2    H112388   4.690   3.617  12.155 -1.0825 -0.4734  0.3978
  839MPD2    H212389   4.617   3.207  12.226 -2.3426  2.6210  1.7135
  839MPD2    H312390   4.590   3.433  12.294  3.6653 -0.5844  1.7309
  839MPD2     N12391   0.091   3.575  11.934 -0.1581  0.3731  0.7700
  839MPD2    H512392   0.051   3.668  11.939 -1.1350 -0.0469  0.6432
  839MPD2    N112393   4.684   3.126  11.990 -0.5564 -0.4216 -0.4767
  839MPD2    H712394   4.713   3.113  11.894  1.3890 -1.0779  0.1943
  840MPD2     C12395   0.613   1.734  10.613  0.0590  0.7471 -0.1035
  840MPD2    C112396   0.638   1.604  10.659 -0.2513 -0.2538 -0.4807
  840MPD2    C212397   0.756   1.596  10.731 -0.2515  0.5199  0.4634
  840MPD2    C312398   0.843   1.703  10.755  0.5838 -0.3561  0.1513
  840MPD2    C412399   0.814   1.828  10.704 -0.2691 -0.2720  0.8017
  840MPD2    C512400   0.694   1.841  10.642 -0.7938  0.1981  0.0484
  840MPD2     H12401   0.784   1.499  10.771  2.3040  1.2475  0.3775
  840MPD2    H112402   0.871   1.918  10.723  1.3612 -1.3934  1.1692
  840MPD2    H212403   0.525   1.750  10.552  1.0321  0.9838 -1.4410
  840MPD2    H312404   0.656   1.938  10.612 -0.9535  0.2742  0.4975
  840MPD2     N12405   0.961   1.701  10.839 -0.2557 -0.1095 -0.4588
  840MPD2    H512406   1.009   1.788  10.862 -0.9601 -0.2208  1.4637
  840MPD2    N112407   0.543   1.507  10.635 -0.6497 -0.3074 -0.2722
  840MPD2    H712408   0.469   1.530  10.569 -1.3244  2.0102  1.3137
  841MPD2     C12409   0.579   0.323  15.071  0.5148 -0.9967 -0.3325
  841MPD2    C112410   0.537   0.384  14.957  0.4692 -0.0694 -0.4490
  841MPD2    C212411   0.573   0.515  14.941 -0.4357  0.4335  0.5955
  841MPD2    C312412   0.647   0.582  15.036 -0.6311 -0.3496 -0.2576
  841MPD2    C412413   0.679   0.520  15.153 -0.3194  0.4729 -0.0012
  841MPD2    C512414   0.649   0.390  15.171  0.2085  0.1863  0.4094
  841MPD2     H12415   0.542   0.566  14.850 -0.9791  2.1136  1.7220
  841MPD2    H112416   0.743   0.559  15.232  0.2847  0.4688 -0.4913
  841MPD2    H212417   0.556   0.218  15.089 -0.7927 -0.7436 -0.5586
  841MPD2    H312418   0.674   0.338  15.263  2.2592  1.1740  0.4118
  841MPD2     N12419   0.682   0.715  15.009  0.0288  0.1578 -0.1113
  841MPD2    H512420   0.640   0.758  14.927 -0.7206  3.4215  1.9499
  841MPD2    N112421   0.452   0.322  14.864  0.3242  0.4340  0.4542
  841MPD2    H712422   0.416   0.382  14.791  0.7292 -0.0350 -0.1302
  842MPD2     C12423   1.109   2.272  17.004  0.1893 -0.1476 -0.0900
  842MPD2    C112424   0.977   2.234  17.002  1.2426 -0.3626 -1.2750
  842MPD2    C212425   0.939   2.110  17.061  0.2375 -0.5765  0.4877
  842MPD2    C312426   1.032   2.033  17.118  0.3724 -0.2165 -0.3894
  842MPD2    C412427   1.164   2.080  17.121  0.3581 -0.5499 -0.1497
  842MPD2    C512428   1.200   2.202  17.074 -0.4157 -0.1878 -0.7120
  842MPD2     H12429   0.836   2.090  17.090 -0.1041  0.1124 -0.2255
  842MPD2    H112430   1.237   2.018  17.171  2.1078  0.9463 -0.8615
  842MPD2    H212431   1.136   2.370  16.968  0.5563 -0.5659 -0.9555
  842MPD2    H312432   1.302   2.229  17.094 -0.4690 -1.8424  1.7990
  842MPD2     N12433   0.995   1.919  17.201 -0.6022 -0.4429 -0.4133
  842MPD2    H512434   1.058   1.873  17.265 -1.2423  0.2333  0.7043
  842MPD2    N112435   0.889   2.323  16.943 -0.5159 -0.1297  0.2534
  842MPD2    H712436   0.923   2.397  16.883 -2.8663  0.3808 -0.4557
  843MPD2     C12437   3.312   2.704  17.630  0.3540  0.7064 -0.6235
  843MPD2    C112438   3.381   2.695   0.002 -0.2769  0.3550 -0.3434
  843MPD2    C212439   3.442   2.812   0.050  0.3052 -0.0176 -0.4854
  843MPD2    C312440   3.421   2.935  17.744  0.4683 -0.2866 -0.0688
  843MPD2    C412441   3.351   2.946  17.628  0.1013 -0.5334 -0.2205
  843MPD2    C512442   3.293   2.828  17.575 -0.2904  0.0900 -0.6091
  843MPD2     H12443   3.505   2.813   0.139 -0.3188 -2.1379 -0.0137
  843MPD2    H112444   3.334   3.038  17.573  0.3598  0.7514  1.8429
  843MPD2    H212445   3.265   2.628  17.569 -0.9046  1.4863 -0.6206
  843MPD2    H312446   3.239   2.825  17.481 -3.3541 -1.6304  1.1661
  843MPD2     N12447   3.458   3.056   0.058 -0.3319  0.5851  0.2386
  843MPD2    H512448   3.404   3.134   0.022  0.0230  0.6354 -0.1862
  843MPD2    N112449   3.392   2.562   0.058 -0.2297 -0.2111  0.3645
  843MPD2    H712450   3.328   2.491   0.022 -0.2867 -0.7732  1.5666
  844MPD2     C12451   1.119   1.300  16.784 -0.5198  0.2604 -0.0824
  844MPD2    C112452   1.136   1.402  16.696  0.4120  0.5554  0.0696
  844MPD2    C212453   1.256   1.464  16.699 -0.4916 -0.6039  0.1087
  844MPD2    C312454   1.355   1.434  16.799 -0.1004 -0.8866 -0.5944
  844MPD2    C412455   1.324   1.349  16.902  0.8091  0.6763  0.0728
  844MPD2    C512456   1.207   1.284  16.890 -0.4182 -0.1015  0.2868
  844MPD2     H12457   1.281   1.535  16.620 -0.6625 -0.1410  0.4710
  844MPD2    H112458   1.391   1.310  16.977  0.8942 -1.1764 -0.9740
  844MPD2    H212459   1.024   1.248  16.782 -1.4786  1.9020  2.5645
  844MPD2    H312460   1.191   1.206  16.964  0.3801  0.3944  0.9777
  844MPD2     N12461   1.473   1.513  16.802 -0.3031 -0.3211  0.1407
  844MPD2    H512462   1.490   1.575  16.723 -0.6097  0.7698  0.9341
  844MPD2    N112463   1.032   1.412  16.597 -0.2317 -0.1311 -0.0119
  844MPD2    H712464   0.954   1.347  16.606  1.1904 -2.0900 -1.8932
  845MPD2     C12465   1.829   2.464  16.840  0.1490  0.6456  0.1116
  845MPD2    C112466   1.895   2.398  16.941  0.0020  0.5088  0.7033
  845MPD2    C212467   1.887   2.256  16.952 -0.5230  0.2233 -0.5520
  845MPD2    C312468   1.809   2.185  16.866  0.2146  0.2840  0.8105
  845MPD2    C412469   1.746   2.250  16.760 -0.1962 -0.1442  0.0638
  845MPD2    C512470   1.756   2.391  16.748 -0.1958  0.3270  1.0255
  845MPD2     H12471   1.912   2.206  17.045  1.0334  1.1562 -0.4669
  845MPD2    H112472   1.687   2.198  16.686  0.8563  1.0869 -1.6342
  845MPD2    H212473   1.844   2.570  16.825 -1.9292  0.4780 -3.0373
  845MPD2    H312474   1.710   2.438  16.662 -1.2136 -0.2369  1.2599
  845MPD2     N12475   1.813   2.043  16.868 -0.4083 -0.1412 -0.4419
  845MPD2    H512476   1.874   2.004  16.939 -0.4551 -0.6941 -0.7086
  845MPD2    N112477   1.961   2.475  17.041 -0.5349 -0.1999 -0.0012
  845MPD2    H712478   1.951   2.576  17.029  5.4706  0.3283 -0.9859
  846MPD2     C12479   3.494   2.897  13.968  0.1983  0.3830  0.0453
  846MPD2    C112480   3.362   2.940  13.985 -0.5503 -0.2665  0.5789
  846MPD2    C212481   3.307   2.931  14.111 -0.0235  0.6188  0.1079
  846MPD2    C312482   3.384   2.891  14.222  0.3311  0.0453 -0.1188
  846MPD2    C412483   3.509   2.835  14.197  0.1068  0.3449  0.2006
  846MPD2    C512484   3.557   2.838  14.071 -0.9662 -0.3040  0.0351
  846MPD2     H12485   3.206   2.968  14.124  0.6630  2.1833  1.1135
  846MPD2    H112486   3.571   2.787  14.271  4.4701  1.2844 -2.8519
  846MPD2    H212487   3.544   2.882  13.872  1.1009 -1.2379  0.7668
  846MPD2    H312488   3.652   2.796  14.040 -0.1852  1.6499 -0.2070
  846MPD2     N12489   3.323   2.888  14.354 -0.0436  0.0738  0.2551
  846MPD2    H512490   3.228   2.921  14.367 -0.7823 -1.5494 -0.9670
  846MPD2    N112491   3.286   3.003  13.892  0.6351 -0.7014 -0.0637
  846MPD2    H712492   3.195   3.034  13.924  0.1591 -0.6290 -1.4888
  847MPD2     C12493   3.588   3.762  14.196 -0.1636  0.0108  0.5760
  847MPD2    C112494   3.674   3.826  14.286  0.2570  0.6199 -0.5860
  847MPD2    C212495   3.749   3.750  14.372  0.1234  0.1325 -0.5380
  847MPD2    C312496   3.750   3.617  14.377 -0.3858 -0.2850 -1.1806
  847MPD2    C412497   3.659   3.552  14.290  0.4143 -0.3503  0.5965
  847MPD2    C512498   3.582   3.625  14.205 -0.6373  0.6300 -0.0561
  847MPD2     H12499   3.817   3.799  14.440  1.1152  1.4297 -2.4913
  847MPD2    H112500   3.650   3.444  14.284  1.6276 -0.4506  0.5666
  847MPD2    H212501   3.527   3.811  14.121  0.9821 -0.7638 -0.8623
  847MPD2    H312502   3.528   3.572  14.126 -0.0987 -2.3296  1.5810
  847MPD2     N12503   3.839   3.551  14.461  0.1512  0.3673  0.1485
  847MPD2    H512504   3.910   3.612  14.501 -0.3100 -0.0985  1.7135
  847MPD2    N112505   3.671   3.965  14.306  0.3569 -0.9310 -1.0847
  847MPD2    H712506   3.748   3.998  14.362 -0.7474 -2.5141  1.3976
  848MPD2     C12507   1.158   2.040  16.519 -0.0703  0.6043  0.3352
  848MPD2    C112508   1.242   2.079  16.618 -0.3138  1.0418  0.0460
  848MPD2    C212509   1.312   2.199  16.594  0.3279  1.1994 -0.5408
  848MPD2    C312510   1.274   2.278  16.486 -0.4671 -0.1055  0.0127
  848MPD2    C412511   1.180   2.230  16.398  0.2503  0.0418 -0.1699
  848MPD2    C512512   1.124   2.108  16.412  0.4278  0.2830  0.0982
  848MPD2     H12513   1.387   2.236  16.663  0.3882  1.6243 -0.8320
  848MPD2    H112514   1.145   2.292  16.316  2.4279  1.6088  0.0942
  848MPD2    H212515   1.116   1.940  16.516  3.0022 -0.6153 -1.7094
  848MPD2    H312516   1.060   2.059  16.339  0.3032  1.6367 -0.7041
  848MPD2     N12517   1.337   2.403  16.444  1.3270 -0.2516 -0.6566
  848MPD2    H512518   1.322   2.431  16.347 -0.2898 -0.0308 -0.3343
  848MPD2    N112519   1.278   1.995  16.730  0.2848 -0.0106 -0.1366
  848MPD2    H712520   1.359   2.021  16.787 -0.2920  1.3212  0.0719
  849MPD2     C12521   0.469   1.702  14.140 -0.7717  0.3493 -0.3213
  849MPD2    C112522   0.595   1.641  14.131 -0.5226  0.5137  0.1817
  849MPD2    C212523   0.670   1.620  14.238 -0.8679  0.1487 -0.1320
  849MPD2    C312524   0.621   1.634  14.360  0.0029  0.6451  0.0680
  849MPD2    C412525   0.494   1.683  14.378 -0.4846  0.4421 -0.4812
  849MPD2    C512526   0.412   1.717  14.267 -0.0820 -0.0027  0.9895
  849MPD2     H12527   0.771   1.584  14.225 -0.9588 -0.9263  2.2390
  849MPD2    H112528   0.448   1.694  14.476  2.2081 -1.2117  0.9616
  849MPD2    H212529   0.412   1.728  14.052  1.0765 -0.9396 -1.9043
  849MPD2    H312530   0.309   1.748  14.278  0.4066  2.3542 -1.0653
  849MPD2     N12531   0.697   1.578  14.470 -0.6551  0.2180  0.1778
  849MPD2    H512532   0.785   1.536  14.442 -1.2566  0.4495 -2.1168
  849MPD2    N112533   0.657   1.612  14.008  0.0704 -0.3343  0.4449
  849MPD2    H712534   0.746   1.565  14.018  0.1227 -0.0501  1.3047
  850MPD2     C12535   3.061   4.644  15.045 -0.4232 -0.3040 -0.1040
  850MPD2    C112536   3.129   4.677  15.158  0.4209 -0.5315  0.3195
  850MPD2    C212537   3.265   4.694  15.151 -0.0162  0.2129 -0.0907
  850MPD2    C312538   3.323   4.671  15.021  0.1395  0.2459  0.7943
  850MPD2    C412539   3.249   4.641  14.908  0.5438  0.0776 -0.2520
  850MPD2    C512540   3.114   4.628  14.922 -0.4421 -0.6912  0.0685
  850MPD2     H12541   3.327   4.733  15.232 -1.6995  0.3131  1.1454
  850MPD2    H112542   3.304   4.628  14.816 -1.1963  0.5550 -1.3554
  850MPD2    H212543   2.953   4.638  15.045 -0.5349  1.5917 -1.4115
  850MPD2    H312544   3.061   4.592  14.836  0.7245 -2.1428 -0.0427
  850MPD2     N12545   3.467   4.670  15.010  0.3199 -0.1606 -0.2578
  850MPD2    H512546   3.496   4.650  14.915  0.5895 -0.9000 -0.0212
  850MPD2    N112547   3.047   4.698  15.268  0.3634  0.0270  0.5558
  850MPD2    H712548   2.949   4.682  15.246  0.8627 -0.2670 -1.5301
  851MPD2     C12549   3.754   4.296  15.578  0.1186  0.6750  0.5158
  851MPD2    C112550   3.641   4.290  15.511 -0.2045 -0.9646  0.0247
  851MPD2    C212551   3.628   4.190  15.417 -0.3008 -0.3041  0.8977
  851MPD2    C312552   3.721   4.086  15.402 -0.8132 -0.6367 -0.0970
  851MPD2    C412553   3.837   4.098  15.475  0.3637  0.2774  0.3572
  851MPD2    C512554   3.861   4.206  15.557 -0.4394 -0.8064 -0.2662
  851MPD2     H12555   3.537   4.178  15.359  0.7806  3.2897 -1.5391
  851MPD2    H112556   3.915   4.024  15.465  1.2485  1.0433  1.5090
  851MPD2    H212557   3.782   4.375  15.647 -1.1021  0.7639  0.9133
  851MPD2    H312558   3.956   4.222  15.606 -1.1249  2.9117 -0.1704
  851MPD2     N12559   3.700   3.976  15.314 -0.3880  0.1408 -0.0963
  851MPD2    H512560   3.611   3.968  15.266 -0.2972 -1.6729  0.0326
  851MPD2    N112561   3.543   4.386  15.538  0.7009 -0.0207 -0.1218
  851MPD2    H712562   3.586   4.466  15.585  0.2341 -0.2254  0.6666
  852MPD2     C12563   2.251   3.033  10.280  0.3858 -0.0247  0.5797
  852MPD2    C112564   2.292   2.908  10.319  0.1480  0.4394  1.4194
  852MPD2    C212565   2.426   2.907  10.357 -0.0836  0.3217 -0.4216
  852MPD2    C312566   2.509   3.014  10.353 -0.1826  0.3246  0.0728
  852MPD2    C412567   2.463   3.140  10.319  0.0011 -0.0089 -0.7578
  852MPD2    C512568   2.330   3.144  10.281  0.2919  0.0431 -0.3349
  852MPD2     H12569   2.467   2.810  10.381 -0.4631 -0.0041 -1.0710
  852MPD2    H112570   2.518   3.233  10.324 -1.8835  1.0569  0.0733
  852MPD2    H212571   2.153   3.044  10.233  0.6138  1.0448  0.3589
  852MPD2    H312572   2.298   3.240  10.243  0.8155  0.1346 -0.5474
  852MPD2     N12573   2.651   2.998  10.388 -0.3466  0.0284 -0.9337
  852MPD2    H512574   2.687   2.912  10.428 -0.9760  0.7141  1.1316
  852MPD2    N112575   2.215   2.785  10.328 -0.0295 -0.2300 -0.7827
  852MPD2    H712576   2.264   2.703  10.361 -2.8587 -1.5657  0.1130
  853MPD2     C12577   0.262   1.794  12.551  0.0326 -0.0043 -0.3648
  853MPD2    C112578   0.143   1.857  12.517 -0.3525  0.3516 -1.1371
  853MPD2    C212579   0.095   1.844  12.385 -0.2050 -0.2977 -0.0394
  853MPD2    C312580   0.160   1.768  12.292  0.0071  0.0433 -0.4994
  853MPD2    C412581   0.279   1.709  12.329 -0.3310  0.3849  0.6779
  853MPD2    C512582   0.329   1.726  12.454 -0.4358  0.3220 -0.5326
  853MPD2     H12583   0.010   1.903  12.352  1.2689  1.7773 -0.1331
  853MPD2    H112584   0.343   1.665  12.253  0.1921  0.1289  1.2721
  853MPD2    H212585   0.307   1.791  12.650  0.6854  0.7072 -0.6386
  853MPD2    H312586   0.424   1.678  12.472 -1.6207 -1.4574  1.0284
  853MPD2     N12587   0.123   1.756  12.159  0.3878  0.3810  0.4267
  853MPD2    H512588   0.183   1.708  12.093 -1.2825  2.3185 -2.4779
  853MPD2    N112589   0.088   1.943  12.614  0.5144  0.3260  0.5271
  853MPD2    H712590   0.136   1.944  12.704  0.3408 -0.8620  0.6264
  854MPD2     C12591   2.281   2.953  12.834 -0.0737  0.4326 -0.4076
  854MPD2    C112592   2.189   2.858  12.866  0.7405  0.0392  0.2973
  854MPD2    C212593   2.237   2.757  12.950 -0.1446  0.3631 -0.1391
  854MPD2    C312594   2.360   2.753  13.006  0.1377 -0.5582  0.4021
  854MPD2    C412595   2.443   2.852  12.978 -0.2672  0.7491 -1.1340
  854MPD2    C512596   2.407   2.955  12.881  0.9354 -1.3206  0.1840
  854MPD2     H12597   2.169   2.675  12.972  2.3904 -1.8145 -0.4383
  854MPD2    H112598   2.543   2.847  13.017 -1.0932  0.0428  0.8878
  854MPD2    H212599   2.242   3.030  12.768 -0.6719 -0.0545 -0.6271
  854MPD2    H312600   2.478   3.031  12.849 -0.5856  0.2017  0.4411
  854MPD2     N12601   2.410   2.653  13.096  0.4916  0.5314 -0.5768
  854MPD2    H512602   2.488   2.679  13.155  0.6856  0.3336 -0.7485
  854MPD2    N112603   2.052   2.860  12.818 -0.2834  0.0487  0.4784
  854MPD2    H712604   2.026   2.938  12.758  1.8817  0.4286  0.0118
  855MPD2     C12605   2.607   2.728  13.925  0.0102  0.2712  0.2381
  855MPD2    C112606   2.677   2.613  13.902  0.6319 -0.7564  0.4732
  855MPD2    C212607   2.688   2.570  13.770  0.3583  0.0870 -0.7036
  855MPD2    C312608   2.631   2.643  13.662  0.5912  0.3904  0.3365
  855MPD2    C412609   2.563   2.762  13.695 -0.1979 -0.2568 -0.2868
  855MPD2    C512610   2.564   2.810  13.821 -0.4151  0.0764 -0.5914
  855MPD2     H12611   2.747   2.481  13.750  3.1346  1.6396  0.4594
  855MPD2    H112612   2.509   2.823  13.623 -0.0697 -0.2382 -0.3671
  855MPD2    H212613   2.597   2.763  14.027 -0.0930  1.3126 -0.1337
  855MPD2    H312614   2.515   2.903  13.850  3.2782  1.7204  0.4254
  855MPD2     N12615   2.609   2.594  13.540 -0.1600  0.4307  0.5551
  855MPD2    H512616   2.535   2.644  13.491  0.1228 -0.2576 -0.5881
  855MPD2    N112617   2.731   2.531  14.006  0.5880  0.1930  0.4700
  855MPD2    H712618   2.693   2.549  14.099  0.1013  0.2739  0.2561
  856MPD2     C12619   3.910   3.341  13.700  0.4274 -0.2610  0.1167
  856MPD2    C112620   3.947   3.428  13.805 -0.1190  1.0203  0.5218
  856MPD2    C212621   3.869   3.540  13.818 -0.4372 -0.3040  0.6587
  856MPD2    C312622   3.766   3.562  13.734  0.5546  0.6792 -0.0207
  856MPD2    C412623   3.729   3.468  13.631  0.5971  0.9152  0.5687
  856MPD2    C512624   3.813   3.366  13.614  0.2082  0.4992 -0.7172
  856MPD2     H12625   3.888   3.607  13.901  1.6490 -1.5064  1.1575
  856MPD2    H112626   3.644   3.478  13.565  0.6245 -0.0929  0.3716
  856MPD2    H212627   3.973   3.255  13.679 -0.0226 -0.1968 -1.5087
  856MPD2    H312628   3.789   3.292  13.538 -0.9804 -1.8751  1.9926
  856MPD2     N12629   3.683   3.671  13.744 -0.3352  0.0016  0.4334
  856MPD2    H512630   3.591   3.674  13.700 -0.3789 -0.9271  0.4428
  856MPD2    N112631   4.054   3.422  13.894 -0.1810  0.1860  0.3421
  856MPD2    H712632   4.065   3.507  13.950  2.6153  0.2692 -0.3136
  857MPD2     C12633   0.899   0.463  12.885 -0.3308 -0.2299  0.5239
  857MPD2    C112634   1.022   0.417  12.878 -0.0975  1.2142 -0.2022
  857MPD2    C212635   1.121   0.491  12.816 -0.4411  0.2340  0.0115
  857MPD2    C312636   1.085   0.606  12.752 -0.6533 -0.2616 -0.0109
  857MPD2    C412637   0.958   0.669  12.777 -0.4397 -0.1557 -0.8073
  857MPD2    C512638   0.862   0.585  12.828 -0.0314 -0.2513  0.2055
  857MPD2     H12639   1.226   0.464  12.824 -0.2438  0.7456 -0.8606
  857MPD2    H112640   0.919   0.765  12.746 -0.3531  0.1898  0.1746
  857MPD2    H212641   0.821   0.404  12.932 -1.9285 -0.6718 -2.6760
  857MPD2    H312642   0.759   0.616  12.824 -0.3933 -1.4183  0.6415
  857MPD2     N12643   1.195   0.676  12.694 -0.3439 -0.2054  0.2226
  857MPD2    H512644   1.287   0.633  12.694  0.6241  1.8517  2.3382
  857MPD2    N112645   1.060   0.285  12.925  0.3406 -0.1222  0.1348
  857MPD2    H712646   1.153   0.247  12.911 -0.7260 -2.8695  0.4494
  858MPD2     C12647   1.251   4.254  15.932 -0.3286 -0.2735  0.0381
  858MPD2    C112648   1.386   4.252  15.944  0.0133 -0.1029 -0.1027
  858MPD2    C212649   1.443   4.315  16.057 -0.2715 -0.2426 -0.4507
  858MPD2    C312650   1.354   4.359  16.158  0.5031  0.1833  0.8617
  858MPD2    C412651   1.219   4.344  16.147  0.1629 -0.5079 -0.0329
  858MPD2    C512652   1.168   4.293  16.029 -0.0123 -0.1280  0.5852
  858MPD2     H12653   1.551   4.318  16.065 -0.3804 -0.9189  1.2595
  858MPD2    H112654   1.148   4.387  16.217  1.2273 -0.2699  0.8969
  858MPD2    H212655   1.213   4.220  15.836 -0.1203 -1.9960  0.5683
  858MPD2    H312656   1.061   4.303  16.016 -0.0968 -0.4720  1.0020
  858MPD2     N12657   1.397   4.423  16.278 -0.1402  0.0282  0.7257
  858MPD2    H512658   1.328   4.445  16.349  0.1905  0.3948  0.9366
  858MPD2    N112659   1.457   4.188  15.835 -0.3665 -0.0293  1.0084
  858MPD2    H712660   1.404   4.170  15.750 -1.1776 -2.4263  2.0392
  859MPD2     C12661   0.411   1.944  15.891 -0.2983 -0.1397  0.3540
  859MPD2    C112662   0.402   1.925  15.757  0.1128 -0.5123 -0.3087
  859MPD2    C212663   0.313   1.830  15.711 -0.3258  1.0437  0.2034
  859MPD2    C312664   0.231   1.763  15.804  0.4382 -0.1320  0.0511
  859MPD2    C412665   0.243   1.785  15.939 -0.0698  0.1122 -0.4583
  859MPD2    C512666   0.330   1.881  15.982 -0.0968 -0.0139 -0.3030
  859MPD2     H12667   0.295   1.811  15.606  3.4155 -1.4066 -0.0090
  859MPD2    H112668   0.177   1.743  16.014 -0.5781  3.2312  0.8757
  859MPD2    H212669   0.477   2.019  15.933  0.9936 -0.8401 -0.4139
  859MPD2    H312670   0.345   1.902  16.087 -0.4722  2.8619 -0.8205
  859MPD2     N12671   0.131   1.671  15.765 -0.5758  0.3535  0.0601
  859MPD2    H512672   0.082   1.632  15.845  0.3092  0.4217  0.6340
  859MPD2    N112673   0.488   2.002  15.677  0.9285 -0.5195 -0.7521
  859MPD2    H712674   0.545   2.076  15.718 -1.1621  1.3659 -1.2618
  860MPD2     C12675   2.345   1.725  11.923  0.5264 -0.8431  0.5337
  860MPD2    C112676   2.400   1.835  11.996  0.0221 -0.1184  0.3064
  860MPD2    C212677   2.331   1.881  12.106 -0.5258  0.0279 -1.2366
  860MPD2    C312678   2.227   1.807  12.161  0.3009  0.8152  0.6501
  860MPD2    C412679   2.194   1.694  12.102 -0.0550 -0.0088  0.5034
  860MPD2    C512680   2.239   1.659  11.978 -0.2036  0.3957  0.2697
  860MPD2     H12681   2.375   1.958  12.169 -1.1649 -1.3520  0.8791
  860MPD2    H112682   2.116   1.627  12.138 -0.6259  0.4294  0.0973
  860MPD2    H212683   2.397   1.674  11.843  0.0943 -0.1028 -0.2198
  860MPD2    H312684   2.186   1.575  11.933 -0.3151  1.8323 -2.2924
  860MPD2     N12685   2.178   1.855  12.293 -0.3550  0.5145 -0.2874
  860MPD2    H512686   2.217   1.937  12.338 -1.5867  0.2134  1.3245
  860MPD2    N112687   2.527   1.892  11.970  0.1122  0.0199 -0.1999
  860MPD2    H712688   2.551   1.974  12.024 -1.9656  0.3635  0.2035
  861MPD2     C12689   1.477   4.649  11.150 -0.2093 -0.1515 -0.7434
  861MPD2    C112690   1.527   0.036  11.152  0.4265 -0.5350  0.6503
  861MPD2    C212691   1.495   0.129  11.056 -0.0536  0.3351 -0.1973
  861MPD2    C312692   1.391   0.112  10.969 -0.1295  0.1942  0.1243
  861MPD2    C412693   1.324   4.734  10.974 -0.2111  0.1650  0.3586
  861MPD2    C512694   1.371   4.633  11.057  0.1383  0.2761  0.0451
  861MPD2     H12695   1.538   0.228  11.063  1.7083 -0.5554  1.6623
  861MPD2    H112696   1.234   4.712  10.918 -2.4735  2.6001  3.0027
  861MPD2    H212697   1.500   4.569  11.219 -0.7978 -0.9106 -1.4212
  861MPD2    H312698   1.330   4.532  11.052 -0.6708  0.5708  0.8141
  861MPD2     N12699   1.332   0.220  10.895  0.6901 -0.1387 -1.0310
  861MPD2    H512700   1.248   0.191  10.846  0.5065 -2.6525  0.7733
  861MPD2    N112701   1.606   0.088  11.254 -0.2778 -1.0944 -0.1846
  861MPD2    H712702   1.632   0.186  11.244 -0.5445 -1.2071 -1.9593
  862MPD2     C12703   0.654   0.409  10.818  0.2295  0.0295 -0.1360
  862MPD2    C112704   0.760   0.358  10.881  0.4156  0.7484 -0.1288
  862MPD2    C212705   0.741   0.257  10.972  0.7020  0.5322  0.2715
  862MPD2    C312706   0.623   0.202  11.010 -0.2128  0.1874 -0.1046
  862MPD2    C412707   0.521   0.258  10.948 -0.1462 -0.0374  0.1932
  862MPD2    C512708   0.531   0.367  10.863 -0.4123 -0.4773  0.7436
  862MPD2     H12709   0.826   0.219  11.028 -0.7186  1.8870  3.3581
  862MPD2    H112710   0.422   0.220  10.967 -0.6867  2.2878  1.9496
  862MPD2    H212711   0.656   0.487  10.742  1.7342 -0.8174 -0.9524
  862MPD2    H312712   0.443   0.412  10.818 -0.0641  0.2658  0.8089
  862MPD2     N12713   0.623   0.088  11.093  0.0043  0.1097 -0.6105
  862MPD2    H512714   0.710   0.048  11.128 -0.0544  1.9453  1.6677
  862MPD2    N112715   0.896   0.406  10.867 -0.1992  0.0212 -0.6732
  862MPD2    H712716   0.978   0.357  10.902  0.2912  1.6687  0.5450
  863MPD2     C12717   4.524   2.945  16.729 -0.0484  0.2429 -0.1956
  863MPD2    C112718   4.508   3.058  16.805 -0.2191  0.9482 -0.0801
  863MPD2    C212719   4.588   3.072  16.918 -0.3502 -0.1050  0.1414
  863MPD2    C312720   4.680   2.979  16.960 -0.0209  0.3369 -0.4758
  863MPD2    C412721   4.693   2.866  16.887 -0.2638 -0.4599 -0.3913
  863MPD2    C512722   4.620   2.851  16.773 -0.2863  0.2250 -1.1156
  863MPD2     H12723   4.581   3.168  16.968 -1.3967 -0.0493 -0.1180
  863MPD2    H112724   0.018   2.785  16.921 -0.8672 -0.2231  1.2824
  863MPD2    H212725   4.463   2.931  16.640  1.6009  2.6075 -1.6764
  863MPD2    H312726   4.622   2.754  16.724  1.7932 -0.1501 -0.2867
  863MPD2     N12727   0.015   2.988  17.082  0.4632 -0.2719  0.8056
  863MPD2    H512728   0.083   2.915  17.097  0.4250 -1.2867 -3.7325
  863MPD2    N112729   4.403   3.151  16.781 -0.4885 -0.1149  0.1654
  863MPD2    H712730   4.352   3.135  16.695  0.6149 -0.8070 -0.3511
  864MPD2     C12731   0.497   3.960  16.825 -0.1008 -0.9539 -0.2066
  864MPD2    C112732   0.489   4.087  16.874 -0.2801  0.5615  0.2906
  864MPD2    C212733   0.605   4.150  16.932  0.3609  0.2729 -1.0842
  864MPD2    C312734   0.729   4.085  16.935  0.1379 -0.4665  0.1277
  864MPD2    C412735   0.734   3.958  16.883  0.2793  0.4300  1.4093
  864MPD2    C512736   0.619   3.895  16.843  0.1851  0.5523  0.2326
  864MPD2     H12737   0.602   4.254  16.964  0.0644 -0.3230  0.7599
  864MPD2    H112738   0.818   3.890  16.894 -0.4747 -0.6927  0.1630
  864MPD2    H212739   0.412   3.907  16.783  0.4205 -0.8413 -1.4087
  864MPD2    H312740   0.631   3.791  16.816  2.1528  0.4925  1.3352
  864MPD2     N12741   0.850   4.154  16.982 -0.3727 -0.2485  0.5687
  864MPD2    H512742   0.940   4.119  16.952  0.7148  2.3902  0.7509
  864MPD2    N112743   0.359   4.139  16.871 -0.4702 -0.1838 -0.6020
  864MPD2    H712744   0.293   4.072  16.833 -2.3997  1.1844  0.3791
  865MPD2     C12745   0.658   0.116  16.734  0.4538 -0.6853 -0.4749
  865MPD2    C112746   0.776   0.058  16.684 -0.5228 -0.1737  0.6531
  865MPD2    C212747   0.872   0.017  16.772  0.3425  0.6280  0.4453
  865MPD2    C312748   0.850   0.008  16.907 -0.3927 -0.1038 -0.3434
  865MPD2    C412749   0.735   0.074  16.956 -0.3354  0.7025 -0.1799
  865MPD2    C512750   0.649   0.128  16.867  0.1429  0.1095 -0.1737
  865MPD2     H12751   0.969   4.729  16.731 -0.9777 -0.8898 -1.7286
  865MPD2    H112752   0.717   0.086  17.062  1.2198  1.4926 -0.0013
  865MPD2    H212753   0.585   0.163  16.669 -0.0118  0.2912  0.7713
  865MPD2    H312754   0.563   0.186  16.899  0.7048  0.6390  0.3662
  865MPD2     N12755   0.938   4.684  16.993  0.3062 -0.1655 -0.0299
  865MPD2    H512756   0.918   4.686  17.092 -1.2059  1.3419 -0.3563
  865MPD2    N112757   0.796   0.072  16.542  0.6669 -0.0712  0.1284
  865MPD2    H712758   0.724   0.128  16.497 -0.6260 -0.0921  2.1640
  866MPD2     C12759   2.535   0.584  11.425  0.7844 -0.3230  0.4854
  866MPD2    C112760   2.473   0.481  11.364  0.5881 -0.2323 -0.1969
  866MPD2    C212761   2.341   0.496  11.316 -0.3729 -0.3957  0.9402
  866MPD2    C312762   2.268   0.614  11.335  1.5194  1.3336  0.0938
  866MPD2    C412763   2.332   0.722  11.400 -0.0647 -0.2489  0.4310
  866MPD2    C512764   2.461   0.705  11.453  0.4464 -0.3575 -0.7581
  866MPD2     H12765   2.292   0.413  11.266  0.0781  1.0625 -1.9505
  866MPD2    H112766   2.282   0.816  11.421 -1.9258 -1.3750  1.0172
  866MPD2    H212767   2.638   0.574  11.456  1.3860  2.2745 -0.6947
  866MPD2    H312768   2.508   0.785  11.508 -0.7250 -0.2614  0.0933
  866MPD2     N12769   2.126   0.626  11.318 -0.8345 -0.2434  0.5372
  866MPD2    H512770   2.084   0.715  11.344  0.1479  0.1844  0.6436
  866MPD2    N112771   2.534   0.354  11.379  0.2443  0.1233  0.7918
  866MPD2    H712772   2.620   0.345  11.433 -0.1475  1.4030  1.6316
  867MPD2     C12773   3.481   4.489  17.289 -0.3138 -0.0659 -0.1892
  867MPD2    C112774   3.548   4.412  17.384 -0.2321  0.0484  0.0288
  867MPD2    C212775   3.465   4.373  17.497  0.2996  0.2988 -0.7399
  867MPD2    C312776   3.337   4.406  17.509  0.0886 -0.7834 -0.4944
  867MPD2    C412777   3.274   4.488  17.413  0.2122 -0.3270 -0.1693
  867MPD2    C512778   3.350   4.526  17.306  0.5028 -0.9467 -0.4443
  867MPD2     H12779   3.513   4.319  17.577  1.0728 -2.6457 -3.1801
  867MPD2    H112780   3.172   4.523  17.424  0.6826  1.5605 -1.7438
  867MPD2    H212781   3.527   4.524  17.197 -2.1101  1.0211 -0.6731
  867MPD2    H312782   3.303   4.593  17.235 -0.7014 -1.6054 -0.2794
  867MPD2     N12783   3.255   4.384  17.627 -1.4755 -0.2309 -0.2030
  867MPD2    H512784   3.164   4.430  17.633 -1.6997 -0.7429  0.3140
  867MPD2    N112785   3.678   4.367  17.351 -0.1056 -0.0387 -0.4951
  867MPD2    H712786   3.718   4.393  17.262  0.0488 -0.1456 -0.4559
  868MPD2     C12787   1.106   3.058  13.687 -0.1731 -0.0806 -0.5818
  868MPD2    C112788   1.132   3.195  13.668  0.1562  0.1428  0.2098
  868MPD2    C212789   1.031   3.282  13.714 -0.1611  0.0538  0.0281
  868MPD2    C312790   0.908   3.236  13.763  0.2171 -0.2660  0.1109
  868MPD2    C412791   0.891   3.099  13.778  0.4616 -0.3398  0.0195
  868MPD2    C512792   0.995   3.015  13.753 -0.1894 -0.2633 -0.0367
  868MPD2     H12793   1.039   3.390  13.704  0.5492  0.1311  1.4640
  868MPD2    H112794   0.809   3.060  13.837  0.1670  0.7527  0.3227
  868MPD2    H212795   1.187   2.991  13.662  0.9279  1.0141  0.0738
  868MPD2    H312796   0.984   2.909  13.773  0.5481 -0.1908  0.7474
  868MPD2     N12797   0.821   3.332  13.808  0.5480  0.0495  0.2207
  868MPD2    H512798   0.854   3.427  13.819 -0.7881  0.6586 -1.0707
  868MPD2    N112799   1.257   3.237  13.621  0.0402  0.1913  0.3771
  868MPD2    H712800   1.333   3.169  13.617 -0.0935  0.0963 -0.5693
  869MPD2     C12801   2.639   1.868   0.533  0.8789  1.0304  0.6352
  869MPD2    C112802   2.570   1.860   0.656  0.4071 -0.3878 -0.1602
  869MPD2    C212803   2.646   1.830   0.769 -0.5550  0.4695  0.2680
  869MPD2    C312804   2.783   1.815   0.763 -0.2645 -0.8418  0.1965
  869MPD2    C412805   2.841   1.814   0.640 -0.2170 -0.5713  0.7507
  869MPD2    C512806   2.770   1.827   0.522  0.0867  0.1580  0.7225
  869MPD2     H12807   2.606   1.863   0.864  0.3590  2.0110  0.1102
  869MPD2    H112808   2.948   1.797   0.634 -0.2098 -0.6255  1.0026
  869MPD2    H212809   2.591   1.892   0.440 -0.9954 -0.8227  1.1252
  869MPD2    H312810   2.820   1.812   0.427 -1.4368  1.0503 -0.2131
  869MPD2     N12811   2.863   1.805   0.876 -0.6852  0.2105 -0.0600
  869MPD2    H512812   2.964   1.808   0.865 -0.6358 -1.1336 -0.0604
  869MPD2    N112813   2.433   1.889   0.648 -0.3692  0.1904 -0.8176
  869MPD2    H712814   2.383   1.927   0.569  0.0209  3.1625  0.3657
  870MPD2     C12815   1.737   1.027   1.179 -0.3141  0.2459 -0.2222
  870MPD2    C112816   1.732   0.892   1.132  0.5896 -0.3395 -0.1394
  870MPD2    C212817   1.615   0.836   1.095  0.0860  0.2882 -0.1568
  870MPD2    C312818   1.490   0.898   1.116 -0.4069 -1.0489 -0.3551
  870MPD2    C412819   1.498   1.030   1.156  0.1027  0.8847  0.2899
  870MPD2    C512820   1.616   1.093   1.190 -0.3282 -0.2402 -0.0755
  870MPD2     H12821   1.625   0.735   1.055 -0.0224  0.2399 -0.0622
  870MPD2    H112822   1.417   1.101   1.167  0.9321  1.2847  4.0111
  870MPD2    H212823   1.826   1.085   1.198 -0.2950  0.4726 -0.9874
  870MPD2    H312824   1.620   1.197   1.220 -0.6918 -0.0908 -0.5300
  870MPD2     N12825   1.369   0.827   1.082  0.2324  0.1516 -0.1103
  870MPD2    H512826   1.380   0.729   1.058  0.8086  0.2554 -0.2708
  870MPD2    N112827   1.861   0.832   1.108 -0.4508  0.8053 -0.3932
  870MPD2    H712828   1.941   0.888   1.134 -1.9805  2.4796  0.7186
  871MPD2     C12829   3.379   0.121  16.714  0.5060 -0.3058 -0.5096
  871MPD2    C112830   3.317   0.121  16.835  0.1588 -0.1798 -0.0812
  871MPD2    C212831   3.309   0.006  16.911 -0.0752 -0.6877 -0.4204
  871MPD2    C312832   3.364   4.624  16.863  1.0268  0.2758  0.0033
  871MPD2    C412833   3.432   4.622  16.744 -0.2147 -0.3212  0.2416
  871MPD2    C512834   3.428   0.002  16.664  0.4041 -0.6226  0.5810
  871MPD2     H12835   3.243   0.004  16.997 -1.3051  3.1491 -1.2624
  871MPD2    H112836   3.470   4.532  16.697 -0.3898  0.4078 -1.2897
  871MPD2    H212837   3.388   0.209  16.652 -1.9600  0.6279  0.4528
  871MPD2    H312838   3.458   4.735  16.560 -1.6274 -0.3502 -0.0053
  871MPD2     N12839   3.345   4.511  16.942  0.0022  0.1460 -0.4682
  871MPD2    H512840   3.282   4.530  17.018  0.3921 -0.0556 -0.0955
  871MPD2    N112841   3.265   0.249  16.876  0.3215  0.3295 -0.7052
  871MPD2    H712842   3.291   0.325  16.814 -2.7680  2.0315  0.0757
  872MPD2     C12843   4.541   2.127  14.279  0.1322  0.9853  0.3014
  872MPD2    C112844   4.488   2.220  14.192 -0.2263  0.3365 -0.2053
  872MPD2    C212845   4.375   2.289  14.225 -0.0460  0.1004 -0.2260
  872MPD2    C312846   4.324   2.262  14.348  0.1194  0.2767 -0.1796
  872MPD2    C412847   4.380   2.171  14.428 -0.2701  0.1924  0.8224
  872MPD2    C512848   4.487   2.104  14.399  0.1043 -0.2473 -0.4176
  872MPD2     H12849   4.337   2.369  14.162  1.9771 -0.2113 -1.8551
  872MPD2    H112850   4.333   2.140  14.520 -2.6371  0.5107 -0.2869
  872MPD2    H212851   4.629   2.072  14.249 -1.9950 -1.9271 -0.5549
  872MPD2    H312852   4.519   2.022  14.463  0.4741 -0.1956 -0.5380
  872MPD2     N12853   4.211   2.319  14.399  0.2379  0.2862 -0.1449
  872MPD2    H512854   4.192   2.291  14.495  1.2392 -0.6926 -0.2274
  872MPD2    N112855   4.557   2.265  14.074 -0.3154 -0.2972  1.0879
  872MPD2    H712856   4.512   2.346  14.032 -2.4734 -2.5071 -0.8231
  873MPD2     C12857   1.256   1.935   0.933 -0.2078  0.5418 -0.2614
  873MPD2    C112858   1.139   1.957   0.995  1.2620  0.1824  0.5647
  873MPD2    C212859   1.037   1.862   0.984 -0.1386 -0.2926  0.9001
  873MPD2    C312860   1.062   1.742   0.913  0.5796 -0.4625 -0.3821
  873MPD2    C412861   1.181   1.720   0.846  0.5497 -0.4128  0.4659
  873MPD2    C512862   1.278   1.816   0.865 -0.4286  0.2897 -0.0494
  873MPD2     H12863   0.942   1.886   1.032 -2.8849 -4.2919 -2.4953
  873MPD2    H112864   1.211   1.631   0.792 -1.2360 -1.4763  1.2486
  873MPD2    H212865   1.340   2.004   0.940 -0.0380  0.4855 -1.6473
  873MPD2    H312866   1.377   1.795   0.826 -0.8398 -2.0115  0.1294
  873MPD2     N12867   0.954   1.649   0.890  0.2263  0.0607  0.0770
  873MPD2    H512868   0.978   1.562   0.844 -1.7268  0.2118 -1.1990
  873MPD2    N112869   1.135   2.076   1.075 -0.1293  0.3595 -0.4270
  873MPD2    H712870   1.224   2.124   1.082  0.2551 -0.5003  0.6308
  874MPD2     C12871   0.795   2.656  16.230 -0.3762  0.3495 -0.7947
  874MPD2    C112872   0.851   2.656  16.356 -0.3350  1.1645 -0.0354
  874MPD2    C212873   0.986   2.680  16.378 -0.3267 -0.0315  0.1590
  874MPD2    C312874   1.067   2.712  16.268 -1.0009 -0.4601  0.3217
  874MPD2    C412875   1.016   2.714  16.134  0.2849  0.8328 -0.4323
  874MPD2    C512876   0.878   2.686  16.123  0.0370  0.1177 -0.1887
  874MPD2     H12877   1.024   2.691  16.479  2.7994  0.7663 -1.1091
  874MPD2    H112878   1.082   2.739  16.052  2.2891  0.3353  1.0324
  874MPD2    H212879   0.690   2.632  16.215  0.0444 -1.7066 -0.3900
  874MPD2    H312880   0.835   2.675  16.024 -0.8563  2.1174 -0.0224
  874MPD2     N12881   1.205   2.726  16.296 -0.5151 -0.1277  0.5163
  874MPD2    H512882   1.228   2.719  16.395  2.2980  2.1026 -0.0002
  874MPD2    N112883   0.762   2.631  16.467  0.5459 -0.3097  0.2225
  874MPD2    H712884   0.668   2.598  16.448  1.2657 -2.9500  1.2704
  875MPD2     C12885   2.164   0.669  14.286  0.1988 -0.1200  0.1089
  875MPD2    C112886   2.044   0.678  14.352  0.4269  0.1590  0.3741
  875MPD2    C212887   2.041   0.740  14.480 -0.7250 -0.1961  0.5751
  875MPD2    C312888   2.156   0.796  14.538 -0.5842  0.3353  0.2187
  875MPD2    C412889   2.265   0.803  14.457 -0.6136  0.2114 -0.1347
  875MPD2    C512890   2.273   0.737  14.337 -0.0942  0.6370  0.3223
  875MPD2     H12891   1.944   0.740  14.528 -1.7319 -2.5937 -1.4463
  875MPD2    H112892   2.359   0.850  14.483  0.8450 -2.2670 -0.9012
  875MPD2    H212893   2.186   0.613  14.196  0.8658  0.5928 -0.1768
  875MPD2    H312894   2.370   0.727  14.289  0.8353  1.1074  2.1204
  875MPD2     N12895   2.150   0.864  14.663  0.1086 -0.2367  0.0487
  875MPD2    H512896   2.231   0.921  14.686  1.1026 -0.9669 -1.6395
  875MPD2    N112897   1.922   0.631  14.305 -0.5405  0.3145  0.0983
  875MPD2    H712898   1.842   0.630  14.367  0.9806 -0.1769  2.0609
  876MPD2     C12899   0.743   1.944  16.268 -0.3918  0.9684  0.0367
  876MPD2    C112900   0.751   1.977  16.135  0.4475 -0.3861 -0.7116
  876MPD2    C212901   0.710   1.891  16.036  0.2873  0.2955 -0.2356
  876MPD2    C312902   0.672   1.765  16.071 -0.1796 -0.3222 -0.1473
  876MPD2    C412903   0.662   1.735  16.200 -0.8502  0.1492 -0.3751
  876MPD2    C512904   0.693   1.821  16.298  0.5311  0.9707 -0.8113
  876MPD2     H12905   0.719   1.925  15.934 -0.7918  1.3803  0.0433
  876MPD2    H112906   0.640   1.633  16.228 -1.2295  0.0928 -0.8798
  876MPD2    H212907   0.777   2.007  16.348  0.1866  1.6072 -0.7104
  876MPD2    H312908   0.672   1.784  16.398  0.0407  0.9129 -0.9351
  876MPD2     N12909   0.653   1.667  15.974  0.0173 -0.4110 -0.8311
  876MPD2    H512910   0.703   1.679  15.887 -0.1403 -0.5158 -0.9354
  876MPD2    N112911   0.800   2.110  16.106 -0.3766 -0.3225  0.1714
  876MPD2    H712912   0.825   2.163  16.189  0.6238 -0.0123 -0.3268
  877MPD2     C12913   0.863   2.719  15.471  0.5324  0.1262  0.7115
  877MPD2    C112914   0.938   2.605  15.499  0.1747  0.1256 -0.1916
  877MPD2    C212915   1.021   2.561  15.397 -0.3094 -0.1195 -0.5690
  877MPD2    C312916   1.007   2.605  15.259 -0.1261  0.1977  0.6356
  877MPD2    C412917   0.941   2.726  15.241 -0.2092  0.9715 -0.3624
  877MPD2    C512918   0.872   2.778  15.350 -0.1647  0.3808  0.5259
  877MPD2     H12919   1.092   2.484  15.425  0.4214  1.6499  2.4810
  877MPD2    H112920   0.933   2.767  15.141 -0.2955  2.1695  0.1249
  877MPD2    H212921   0.814   2.770  15.553 -0.2170  0.7151 -0.0942
  877MPD2    H312922   0.811   2.867  15.334 -0.6583 -0.0800 -0.2215
  877MPD2     N12923   1.057   2.534  15.146 -0.0974  0.1244 -0.5285
  877MPD2    H512924   1.047   2.581  15.057  0.6135  0.1537 -0.5943
  877MPD2    N112925   0.941   2.544  15.625 -0.0227 -0.5782  0.5496
  877MPD2    H712926   1.010   2.471  15.638  0.4217 -0.6085 -1.9709
  878MPD2     C12927   1.182   1.569  13.163  0.7833 -0.3033  0.3238
  878MPD2    C112928   1.068   1.642  13.176  0.0556 -0.1529  0.8465
  878MPD2    C212929   1.001   1.639  13.300 -0.2013  0.1589  0.6319
  878MPD2    C312930   1.046   1.561  13.407 -0.2822 -1.2582  0.8730
  878MPD2    C412931   1.176   1.516  13.394  1.1271 -0.4913 -0.0614
  878MPD2    C512932   1.236   1.504  13.273  0.4892  0.1572  0.5934
  878MPD2     H12933   0.903   1.685  13.302 -0.0175  0.6137 -0.9830
  878MPD2    H112934   1.225   1.467  13.478  0.9246 -1.0144 -0.2470
  878MPD2    H212935   1.223   1.562  13.063 -0.6601 -0.7972 -0.2264
  878MPD2    H312936   1.337   1.466  13.270 -0.4332 -2.1987 -0.2634
  878MPD2     N12937   0.964   1.540  13.525  0.0009  0.0643 -0.0003
  878MPD2    H512938   0.866   1.564  13.516 -0.6356 -1.5972  2.6335
  878MPD2    N112939   1.021   1.712  13.061  0.2306 -0.2609 -0.2975
  878MPD2    H712940   1.075   1.705  12.975 -0.0457  0.5319 -0.5372
  879MPD2     C12941   0.889   3.405  17.484  0.1001  0.0309  0.5300
  879MPD2    C112942   0.825   3.302  17.554 -0.5246 -0.4811 -0.4610
  879MPD2    C212943   0.743   3.208  17.488  0.5979  0.0923  0.3204
  879MPD2    C312944   0.726   3.225  17.354 -0.6554  0.5469 -0.1487
  879MPD2    C412945   0.772   3.335  17.285 -0.4157  0.6380  0.9263
  879MPD2    C512946   0.858   3.413  17.346  0.2268  0.1721 -0.9004
  879MPD2     H12947   0.687   3.133  17.544  0.6221  1.2283  1.8705
  879MPD2    H112948   0.749   3.367  17.184 -0.5623 -1.7459  0.1846
  879MPD2    H212949   0.936   3.485  17.540 -4.0111  1.9195  1.2356
  879MPD2    H312950   0.880   3.510  17.303  0.1051 -0.0084 -1.3692
  879MPD2     N12951   0.661   3.136  17.267  0.0010 -0.3965 -1.0469
  879MPD2    H512952   0.683   3.149  17.169 -2.7190 -2.4273 -1.9253
  879MPD2    N112953   0.841   3.306  17.695  0.4343  0.1331 -0.1952
  879MPD2    H712954   0.891   3.385  17.735  1.0389  1.1059 -2.8765
  880MPD2     C12955   2.006   4.661   0.010 -0.4557 -0.3078  0.0286
  880MPD2    C112956   1.968   4.730   0.122  0.1834  0.2873 -0.2341
  880MPD2    C212957   2.040   4.721   0.243  0.5744 -0.3424  0.5889
  880MPD2    C312958   2.162   4.649   0.242  0.3687  0.4694  0.1864
  880MPD2    C412959   2.203   4.585   0.122  0.5279  0.3186 -0.6109
  880MPD2    C512960   2.123   4.589   0.010 -0.2382  0.4346 -0.6089
  880MPD2     H12961   1.997   0.018   0.336 -0.7221 -0.3823  0.0021
  880MPD2    H112962   2.300   4.537   0.114 -0.8971 -2.5970 -0.7306
  880MPD2    H212963   1.946   4.662  17.670  0.5566  0.9565 -0.6319
  880MPD2    H312964   2.160   4.538  17.671  1.4150 -1.8265  1.3970
  880MPD2     N12965   2.240   4.643   0.356  0.0362 -0.2422  0.7366
  880MPD2    H512966   2.215   4.696   0.438 -0.7626  0.2078  0.2037
  880MPD2    N112967   1.847   0.059   0.106 -0.0370  0.1682  0.1267
  880MPD2    H712968   1.817   0.066   0.009 -0.0845 -2.9329 -0.0939
  881MPD2     C12969   1.569   0.839  17.334  0.2264 -0.7085  0.6762
  881MPD2    C112970   1.671   0.737  17.343  0.6316  0.2916  0.1962
  881MPD2    C212971   1.640   0.634  17.438  0.0502  0.5809 -0.2824
  881MPD2    C312972   1.552   0.658  17.542  0.1917  0.6235 -0.1734
  881MPD2    C412973   1.485   0.777  17.550  0.1955 -0.0034  0.2233
  881MPD2    C512974   1.492   0.863  17.441 -0.6813 -0.9439 -0.1127
  881MPD2     H12975   1.702   0.545  17.440 -3.3652 -1.8018 -0.3398
  881MPD2    H112976   1.413   0.807  17.625 -1.1823 -0.9865 -0.7052
  881MPD2    H212977   1.594   0.922  17.268 -2.8332 -1.3639 -1.3229
  881MPD2    H312978   1.435   0.955  17.439  2.7154  1.1884  1.9727
  881MPD2     N12979   1.531   0.564  17.644  0.0529 -0.1172  0.1434
  881MPD2    H512980   1.470   0.594  17.719 -0.6407 -0.5208 -0.2605
  881MPD2    N112981   1.740   0.717  17.223  0.6586  0.0890  0.6884
  881MPD2    H712982   1.722   0.779  17.145 -1.1085 -0.8630  0.3335
  882MPD2     C12983   1.079   1.957  14.576 -0.0068 -0.4681 -0.2404
  882MPD2    C112984   1.042   2.090  14.584 -1.0314 -1.6823  0.1127
  882MPD2    C212985   0.921   2.127  14.520  0.4968  0.4894 -0.3900
  882MPD2    C312986   0.847   2.035  14.449  0.4859  0.2331 -0.2788
  882MPD2    C412987   0.903   1.912  14.427 -0.1674 -0.4875  0.3110
  882MPD2    C512988   1.005   1.870  14.501 -0.1140  0.0875  0.2440
  882MPD2     H12989   0.878   2.225  14.536 -1.2056 -0.0876 -1.4520
  882MPD2    H112990   0.861   1.842  14.357 -0.0743 -0.5946  0.3627
  882MPD2    H212991   1.166   1.920  14.629  0.2760 -0.2387 -0.5456
  882MPD2    H312992   1.035   1.766  14.501  0.0795  0.1388 -0.6875
  882MPD2     N12993   0.723   2.059  14.385 -0.1871  0.4469 -0.1263
  882MPD2    H512994   0.681   1.972  14.356 -0.0971  1.2931 -2.7599
  882MPD2    N112995   1.115   2.167  14.680  0.1118  0.5680  0.1076
  882MPD2    H712996   1.199   2.119  14.711 -0.1691 -0.7817 -1.1954
  883MPD2     C12997   2.666   2.298  16.076 -0.1395  0.0146  0.1970
  883MPD2    C112998   2.723   2.413  16.031  0.8889 -0.2144 -0.0410
  883MPD2    C212999   2.834   2.461  16.102  0.2086  0.2376  0.8044
  883MPD2    C313000   2.872   2.417  16.228  0.1951  0.4651  0.3059
  883MPD2    C413001   2.800   2.307  16.278  0.4726 -0.2237 -0.2391
  883MPD2    C513002   2.698   2.248  16.204 -0.5127 -0.0502 -0.1287
  883MPD2     H13003   2.884   2.549  16.063  1.0274  0.5706  2.5950
  883MPD2    H113004   2.830   2.261  16.372  3.2839  0.0690 -0.9661
  883MPD2    H213005   2.582   2.255  16.022  0.5405 -1.3114  0.2036
  883MPD2    H313006   2.640   2.166  16.245 -1.0246  0.4204  0.1003
  883MPD2     N13007   2.979   2.484  16.288  0.2398 -0.3390 -0.0678
  883MPD2    H513008   3.032   2.542  16.223  1.2715 -1.9392 -0.6399
  883MPD2    N113009   2.680   2.465  15.902 -0.0468  0.1550 -0.0664
  883MPD2    H713010   2.748   2.517  15.848 -1.1238 -0.2116 -1.7818
  884MPD2     C13011   0.251   3.123  15.301  0.3899  0.3583 -0.0970
  884MPD2    C113012   0.217   3.248  15.245  0.3727  0.5678  0.2814
  884MPD2    C213013   0.081   3.275  15.217 -0.0650 -0.1327  0.2578
  884MPD2    C313014   4.719   3.181  15.229 -0.7300  0.9891 -0.1416
  884MPD2    C413015   0.015   3.061  15.275  0.7435  0.5289 -0.5086
  884MPD2    C513016   0.145   3.032  15.315  0.8815  0.8996 -0.3379
  884MPD2     H13017   0.045   3.372  15.183  1.8409  0.6690  0.5144
  884MPD2    H113018   4.686   2.975  15.268 -0.3869  1.2714  1.2393
  884MPD2    H213019   0.352   3.096  15.330  0.2811  0.4044  0.3346
  884MPD2    H313020   0.170   2.936  15.359  0.8387 -0.1560 -2.5713
  884MPD2     N13021   4.595   3.222  15.169 -0.1914 -0.0066  0.0257
  884MPD2    H513022   4.588   3.316  15.132 -0.0806  0.5274  1.3430
  884MPD2    N113023   0.320   3.344  15.221  0.0478 -0.1148 -0.0602
  884MPD2    H713024   0.414   3.312  15.241  0.8829  0.9815 -2.2513
  885MPD2     C13025   2.638   3.306   0.159  0.2904  0.8782 -0.6768
  885MPD2    C113026   2.778   3.318   0.160  0.0316  0.2932 -0.2825
  885MPD2    C213027   2.838   3.408   0.067  1.0133  0.5895 -0.1480
  885MPD2    C313028   2.753   3.461  17.717 -0.4016 -0.1286 -0.1184
  885MPD2    C413029   2.619   3.433  17.709  0.4236 -0.7539 -1.7290
  885MPD2    C513030   2.561   3.363   0.061  0.9066 -0.0464 -0.0247
  885MPD2     H13031   2.945   3.418   0.053  0.9356 -0.1460 -1.3062
  885MPD2    H113032   2.546   3.476  17.641 -1.3868  1.7963  1.8451
  885MPD2    H213033   2.583   3.253   0.236 -1.3371  0.7419 -1.9366
  885MPD2    H313034   2.452   3.364   0.063  0.9122  0.7974 -0.3348
  885MPD2     N13035   2.822   3.545  17.625 -0.2794  0.2396  0.2487
  885MPD2    H513036   2.923   3.549  17.631 -0.1500  0.2959 -1.8386
  885MPD2    N113037   2.847   3.268   0.272  0.9478 -0.1193 -0.3054
  885MPD2    H713038   2.792   3.244   0.353 -2.2372 -0.8317 -2.6659
  886MPD2     C13039   4.350   2.365  15.331 -0.7565 -0.1243 -0.7191
  886MPD2    C113040   4.416   2.244  15.304 -0.0247 -0.2979 -0.3868
  886MPD2    C213041   4.464   2.218  15.173 -0.3471 -0.4181  0.1478
  886MPD2    C313042   4.444   2.304  15.072  0.1948 -0.0564 -0.0241
  886MPD2    C413043   4.383   2.421  15.105  0.3163 -0.6207  0.1465
  886MPD2    C513044   4.346   2.458  15.231 -0.0485 -0.1138 -0.2623
  886MPD2     H13045   4.504   2.119  15.151  1.2512 -0.1039  1.6632
  886MPD2    H113046   4.364   2.501  15.035 -1.1289 -0.3980  0.7979
  886MPD2    H213047   4.337   2.404  15.432 -0.2508 -1.0128 -0.3070
  886MPD2    H313048   4.313   2.560  15.250 -0.4066 -0.1637 -0.6422
  886MPD2     N13049   4.486   2.285  14.941 -0.3039 -1.1011 -0.7025
  886MPD2    H513050   4.476   2.357  14.870  0.7222  0.6612  0.9419
  886MPD2    N113051   4.436   2.145  15.400 -0.2137  0.1188  0.1300
  886MPD2    H713052   4.491   2.064  15.375 -2.7568 -0.7549 -2.7588
  887MPD2     C13053   4.718   1.963  16.144 -0.3038 -0.0089  0.0842
  887MPD2    C113054   4.706   2.015  16.016 -0.2363  0.3540  0.6416
  887MPD2    C213055   0.070   2.102  15.978 -0.0847 -0.8435  0.0985
  887MPD2    C313056   0.174   2.137  16.064  0.0654  0.2556 -0.4143
  887MPD2    C413057   0.176   2.090  16.197  0.2338  0.1101 -0.5223
  887MPD2    C513058   0.080   1.998  16.228 -0.5290 -0.4882  0.0350
  887MPD2     H13059   0.061   2.142  15.878 -0.8541  2.9683  1.6888
  887MPD2    H113060   0.247   2.134  16.266  0.4641 -1.6015  0.3573
  887MPD2    H213061   4.655   1.882  16.179  0.8612 -1.1410 -0.4475
  887MPD2    H313062   0.080   1.961  16.330  2.0503  0.7150  0.4768
  887MPD2     N13063   0.273   2.235  16.024 -0.1623 -0.1019  0.1042
  887MPD2    H513064   0.276   2.259  15.925  2.5932 -0.8495  0.0074
  887MPD2    N113065   4.599   1.998  15.932 -0.0134 -0.2142 -0.7331
  887MPD2    H713066   4.588   2.070  15.861 -0.6931 -0.6637 -1.0806
  888MPD2     C13067   1.901   1.939  14.750 -0.4058  0.1589  0.9443
  888MPD2    C113068   1.905   1.924  14.889  0.2748  0.4148 -0.2786
  888MPD2    C213069   1.948   2.030  14.961 -0.5576  0.0122  0.3523
  888MPD2    C313070   1.999   2.140  14.903 -0.4387  0.4369  0.1339
  888MPD2    C413071   1.993   2.152  14.768 -0.1284  0.3837 -0.2820
  888MPD2    C513072   1.953   2.049  14.697 -0.9407 -0.6318  0.6238
  888MPD2     H13073   1.952   2.012  15.067  0.2139  0.2309  0.3588
  888MPD2    H113074   2.031   2.242  14.721  1.1870  0.9865  1.9278
  888MPD2    H213075   1.868   1.858  14.686 -1.3838  1.5776 -0.3356
  888MPD2    H313076   1.953   2.055  14.589  0.7099 -2.0949  0.5385
  888MPD2     N13077   2.050   2.244  14.987  0.4525 -0.1867 -0.0910
  888MPD2    H513078   2.031   2.241  15.087  0.8806  0.1285  0.0003
  888MPD2    N113079   1.875   1.804  14.951 -0.1055  0.2092 -0.1738
  888MPD2    H713080   1.878   1.796  15.052 -0.4394 -1.6436 -0.3127
  889MPD2     C13081   1.432   1.501  12.609  0.4546  0.0423 -0.0524
  889MPD2    C113082   1.458   1.397  12.695  0.7302 -0.7298 -0.3929
  889MPD2    C213083   1.496   1.437  12.825 -0.1914  0.1324 -0.2641
  889MPD2    C313084   1.497   1.570  12.871 -0.4195 -0.6188  0.6765
  889MPD2    C413085   1.468   1.665  12.779 -0.1825  0.2055 -1.0023
  889MPD2    C513086   1.429   1.633  12.651 -0.0262 -0.3677 -0.5175
  889MPD2     H13087   1.497   1.356  12.897 -1.2397  1.1311  0.8693
  889MPD2    H113088   1.464   1.768  12.812  2.3762  0.6427 -2.1300
  889MPD2    H213089   1.393   1.479  12.510 -0.4750  0.9038  0.1188
  889MPD2    H313090   1.400   1.714  12.584  1.2012 -1.9237 -2.9330
  889MPD2     N13091   1.523   1.596  13.009  0.1034 -0.2438  0.1721
  889MPD2    H513092   1.561   1.520  13.065  0.4466  0.0177  0.2895
  889MPD2    N113093   1.466   1.258  12.662  0.8535  0.0536  0.0890
  889MPD2    H713094   1.506   1.199  12.734 -1.4358 -1.3452  0.2038
  890MPD2     C13095   0.483   3.432  14.768 -0.4906  0.2808  0.0141
  890MPD2    C113096   0.604   3.497  14.799 -0.6319  1.1235  0.6396
  890MPD2    C213097   0.693   3.447  14.896  0.0715  0.1447 -0.8254
  890MPD2    C313098   0.645   3.360  14.991  0.1065 -0.1735 -0.0807
  890MPD2    C413099   0.523   3.294  14.961 -0.2658  0.4108  0.2969
  890MPD2    C513100   0.450   3.328  14.851  0.3785 -0.5275 -0.1371
  890MPD2     H13101   0.795   3.485  14.903 -0.3025  0.7667  1.3002
  890MPD2    H113102   0.501   3.200  15.010  0.4043  0.0994  0.0020
  890MPD2    H213103   0.421   3.473  14.689  1.0635 -1.9005 -2.3615
  890MPD2    H313104   0.368   3.262  14.824  0.6171  0.3431 -2.9176
  890MPD2     N13105   0.733   3.308  15.090 -0.2994 -0.3508  0.6511
  890MPD2    H513106   0.831   3.334  15.098 -0.6603  2.2625 -3.2907
  890MPD2    N113107   0.631   3.606  14.710  0.3656  0.4745 -0.0494
  890MPD2    H713108   0.556   3.637  14.649  1.0706 -0.8379 -1.5611
  891MPD2     C13109   3.718   1.792  16.415 -0.1008 -0.7412  0.5600
  891MPD2    C113110   3.653   1.808  16.529 -0.0802 -0.6643  0.5637
  891MPD2    C213111   3.681   1.723  16.635  0.3120  0.6622 -0.5329
  891MPD2    C313112   3.792   1.635  16.622 -0.0853  0.2873 -0.5020
  891MPD2    C413113   3.866   1.641  16.504 -0.2429 -0.6181 -0.2473
  891MPD2    C513114   3.831   1.720  16.404  0.8109  0.5674 -0.1034
  891MPD2     H13115   3.622   1.730  16.726  0.0062 -0.6608 -0.6204
  891MPD2    H113116   3.948   1.574  16.481  0.6117  0.2535  0.2399
  891MPD2    H213117   3.687   1.843  16.324  0.3051 -1.2890  0.1093
  891MPD2    H313118   3.883   1.707  16.309  1.8968 -0.8578  0.6819
  891MPD2     N13119   3.811   1.528  16.716 -0.1887 -0.1119  0.0122
  891MPD2    H513120   3.738   1.515  16.786  0.9935 -0.1150  1.2323
  891MPD2    N113121   3.565   1.914  16.532 -0.8847  0.5263 -0.3673
  891MPD2    H713122   3.549   1.954  16.441 -2.3994  0.1807 -0.2558
  892MPD2     C13123   0.187   2.925  14.310 -0.4210  0.1409  0.7102
  892MPD2    C113124   0.110   2.826  14.363 -0.0546  0.1623  0.4245
  892MPD2    C213125   0.158   2.698  14.360 -0.1245 -1.2556 -0.1047
  892MPD2    C313126   0.279   2.669  14.298  0.1832  0.1810 -0.4058
  892MPD2    C413127   0.354   2.770  14.234  0.4700  0.4565 -0.1369
  892MPD2    C513128   0.304   2.899  14.241  0.2433 -0.1407 -0.0524
  892MPD2     H13129   0.101   2.620  14.411 -1.8068 -1.2682 -2.0250
  892MPD2    H113130   0.446   2.747  14.181  1.3858 -1.4431  2.2321
  892MPD2    H213131   0.156   3.029  14.317  0.5638  0.5432 -0.9920
  892MPD2    H313132   0.365   2.975  14.195  0.4024 -0.1523  0.1402
  892MPD2     N13133   0.323   2.535  14.276 -0.6889 -0.3091 -0.1306
  892MPD2    H513134   0.413   2.522  14.231 -0.1638  0.5714  0.6785
  892MPD2    N113135   4.718   2.845  14.416 -0.1412  1.3252  0.0044
  892MPD2    H713136   4.683   2.752  14.435  2.6227  0.4127  0.5909
  893MPD2     C13137   1.169   0.905   0.596  0.6439  0.1919  0.3967
  893MPD2    C113138   1.185   1.006   0.693  0.2887 -0.0076  0.7065
  893MPD2    C213139   1.081   1.044   0.779  0.1905 -0.7610  0.5516
  893MPD2    C313140   0.955   0.984   0.749 -0.5908 -0.4348 -0.2066
  893MPD2    C413141   0.946   0.887   0.654 -1.0679  0.3307 -0.0933
  893MPD2    C513142   1.048   0.849   0.578 -0.1243 -0.8312  0.2830
  893MPD2     H13143   1.088   1.120   0.856  1.3942 -0.0042 -0.2754
  893MPD2    H113144   0.845   0.854   0.633 -0.3688 -0.9994 -1.3974
  893MPD2    H213145   1.255   0.875   0.536  0.0834 -2.7623  1.0732
  893MPD2    H313146   1.041   0.778   0.496  3.5052 -0.1409 -0.6188
  893MPD2     N13147   0.838   1.013   0.820  0.1578 -0.2437  0.7780
  893MPD2    H513148   0.757   0.955   0.800  0.3133  0.2531 -1.2717
  893MPD2    N113149   1.315   1.061   0.704 -0.3643  0.1126 -0.2269
  893MPD2    H713150   1.378   1.026   0.633 -1.9368  1.1951 -2.1549
  894MPD2     C13151   4.410   3.441   1.359 -0.2602  0.5607 -0.7786
  894MPD2    C113152   4.415   3.574   1.383  0.1648  0.5302 -0.2818
  894MPD2    C213153   4.521   3.655   1.334 -1.4325 -0.1763 -0.4125
  894MPD2    C313154   4.614   3.603   1.246 -0.1068  0.4060  0.0548
  894MPD2    C413155   4.598   3.469   1.215  0.0141  0.0035  0.4307
  894MPD2    C513156   4.502   3.392   1.277  0.2423 -0.0172 -0.0896
  894MPD2     H13157   4.525   3.761   1.357  0.0211 -0.4242  0.5314
  894MPD2    H113158   4.660   3.420   1.141  1.1928  0.0435  1.3943
  894MPD2    H213159   4.327   3.385   1.399  1.7978 -1.4032  0.7993
  894MPD2    H313160   4.499   3.289   1.245 -1.2946 -0.3736  1.2494
  894MPD2     N13161   4.716   3.687   1.191 -1.1532  0.0917  0.0669
  894MPD2    H513162   4.719   3.781   1.230  0.4295 -0.0304  0.2376
  894MPD2    N113163   4.321   3.637   1.466  0.2626  0.4493  0.2902
  894MPD2    H713164   4.336   3.737   1.474 -0.2173  0.4722  0.9597
  895MPD2     C13165   4.116   2.099  14.090  0.1865  0.4842  0.6437
  895MPD2    C113166   4.055   2.055  13.975 -0.2973  0.8028  0.2666
  895MPD2    C213167   4.068   1.925  13.939 -0.5996  0.8822  0.3069
  895MPD2    C313168   4.141   1.832  14.013  0.2981 -0.2927  0.6850
  895MPD2    C413169   4.182   1.873  14.135 -0.5433 -0.1652  0.0189
  895MPD2    C513170   4.174   2.004  14.175  0.5469 -0.6977  0.3355
  895MPD2     H13171   4.037   1.909  13.836 -0.8009 -0.2224  0.5380
  895MPD2    H113172   4.238   1.807  14.201 -1.3811  0.6966  1.6065
  895MPD2    H213173   4.115   2.205  14.114  2.3500  0.5092  0.6899
  895MPD2    H313174   4.212   2.042  14.270  0.8772  1.0451 -0.4807
  895MPD2     N13175   4.162   1.701  13.972 -0.6627  0.1347  0.0794
  895MPD2    H513176   4.217   1.643  14.034  1.0199  1.1321 -0.5014
  895MPD2    N113177   3.970   2.133  13.887  0.5893  0.3179  0.3366
  895MPD2    H713178   3.944   2.076  13.807  2.2787  0.4954 -0.3508
  896MPD2     C13179   1.024   0.182   0.815  0.0982 -0.4006 -0.8637
  896MPD2    C113180   1.044   0.062   0.755 -0.6041 -0.4124 -0.0385
  896MPD2    C213181   0.935   4.709   0.741 -0.2391  0.1388  0.2764
  896MPD2    C313182   0.812   4.737   0.796 -0.3950 -0.4904  0.2694
  896MPD2    C413183   0.801   0.111   0.871 -0.0177 -0.5471  0.6612
  896MPD2    C513184   0.903   0.212   0.877  0.0712 -0.5840  0.1215
  896MPD2     H13185   0.938   4.629   0.669 -1.7500  0.2108  0.1350
  896MPD2    H113186   0.715   0.133   0.934 -2.0812 -0.7992 -2.1049
  896MPD2    H213187   1.096   0.263   0.813  2.2856 -2.3071  2.1139
  896MPD2    H313188   0.896   0.305   0.932  0.0548  0.7375 -2.1215
  896MPD2     N13189   0.706   4.638   0.782  0.4949  1.0407 -0.4175
  896MPD2    H513190   0.720   4.557   0.722  1.2801  0.7155  0.1872
  896MPD2    N113191   1.169   0.051   0.696 -0.5575 -0.3403  0.1140
  896MPD2    H713192   1.232   0.124   0.729 -0.0716  0.1543 -1.9276
  897MPD2     C13193   2.642   1.312  10.662 -1.0830 -0.3902 -0.1161
  897MPD2    C113194   2.558   1.413  10.691 -0.4341  0.2294  0.1307
  897MPD2    C213195   2.496   1.420  10.812  0.7024 -0.0808 -0.3025
  897MPD2    C313196   2.500   1.313  10.901  0.1027  0.3298 -0.8757
  897MPD2    C413197   2.582   1.209  10.871  0.6773 -0.5530  0.5799
  897MPD2    C513198   2.665   1.218  10.758  0.0353  0.0018  0.3180
  897MPD2     H13199   2.425   1.499  10.832  0.0773 -0.3489 -1.5354
  897MPD2    H113200   2.581   1.117  10.929  1.4005 -1.3341 -0.6569
  897MPD2    H213201   2.691   1.303  10.566  1.7265 -1.6068  1.4526
  897MPD2    H313202   2.732   1.137  10.732 -1.1854 -1.1716  0.8420
  897MPD2     N13203   2.413   1.324  11.010  0.0486  0.0916 -0.1048
  897MPD2    H513204   2.364   1.413  11.013  1.5016  0.9507 -1.6520
  897MPD2    N113205   2.549   1.514  10.592 -0.0577  0.3633  0.4585
  897MPD2    H713206   2.575   1.490  10.497 -0.1978 -0.4332  0.6191
  898MPD2     C13207   4.180   2.101  17.556 -0.3816 -0.5401 -0.2295
  898MPD2    C113208   4.277   2.195  17.588 -0.0099 -0.8281 -0.5550
  898MPD2    C213209   4.270   2.328  17.539  0.6375  0.3299 -0.3159
  898MPD2    C313210   4.161   2.356  17.451  0.3965  0.1532  0.1676
  898MPD2    C413211   4.067   2.260  17.425 -0.4960  0.0491 -1.0303
  898MPD2    C513212   4.075   2.130  17.468 -0.3609 -0.3660 -0.0086
  898MPD2     H13213   4.354   2.395  17.550  1.4119 -0.9541  1.7127
  898MPD2    H113214   3.982   2.286  17.363  1.6062 -0.5661 -4.1881
  898MPD2    H213215   4.179   1.996  17.586 -1.1453 -0.4546  0.0575
  898MPD2    H313216   3.990   2.063  17.455 -1.4248  0.9855  0.0077
  898MPD2     N13217   4.158   2.485  17.392 -0.0146 -0.0252 -0.1988
  898MPD2    H513218   4.224   2.553  17.429 -0.4659  0.0236  0.5053
  898MPD2    N113219   4.397   2.163  17.660 -0.4397  0.3983 -0.1978
  898MPD2    H713220   4.464   2.238  17.670 -0.1188  0.0858  0.0046
  899MPD2     C13221   0.376   2.581  17.206 -0.1790 -0.2648  0.0904
  899MPD2    C113222   0.370   2.635  17.328 -0.1652 -0.8794  0.1935
  899MPD2    C213223   0.403   2.553  17.440  0.7887 -0.0564 -0.3745
  899MPD2    C313224   0.454   2.423  17.416  0.3058 -0.0469  1.0277
  899MPD2    C413225   0.478   2.382  17.284  0.4165  0.4726  0.5812
  899MPD2    C513226   0.438   2.462  17.185 -0.5579 -0.2165 -0.0285
  899MPD2     H13227   0.395   2.596  17.539 -0.9254 -0.6283 -0.2618
  899MPD2    H113228   0.535   2.291  17.269 -0.5769  0.1548 -1.2728
  899MPD2    H213229   0.334   2.630  17.120  0.9300 -0.9632 -0.8503
  899MPD2    H313230   0.455   2.428  17.084 -0.5102 -1.0713  0.2686
  899MPD2     N13231   0.507   2.349  17.525  0.0084  0.1481 -0.2622
  899MPD2    H513232   0.566   2.272  17.495 -2.4196 -0.3011 -3.8114
  899MPD2    N113233   0.319   2.764  17.340 -0.0949 -0.0889  0.0321
  899MPD2    H713234   0.298   2.814  17.255  1.1150  2.1129  1.0450
  900MPD2     C13235   0.105   4.447  13.019  1.1992 -0.4994 -0.4462
  900MPD2    C113236   0.006   4.361  12.982 -0.2591 -0.3231 -0.7661
  900MPD2    C213237   4.642   4.411  12.901  0.5155  0.0081 -0.2751
  900MPD2    C313238   4.643   4.544  12.856 -0.3232  0.3833 -0.0071
  900MPD2    C413239   0.001   4.628  12.908  0.8391 -0.2153  0.5533
  900MPD2    C513240   0.104   4.577  12.985 -0.5367  0.5868 -0.2220
  900MPD2     H13241   4.563   4.355  12.852 -1.5626  0.8739  2.0575
  900MPD2    H113242   0.006   4.731  12.875  0.1168 -0.2793  0.2461
  900MPD2    H213243   0.184   4.419  13.087  0.8229  0.0917  0.2408
  900MPD2    H313244   0.179   4.648  13.020 -0.0360  0.6733 -1.4947
  900MPD2     N13245   4.534   4.591  12.780 -0.3001 -0.0761 -0.5333
  900MPD2    H513246   4.458   4.528  12.758 -1.4884  1.5026 -1.0193
  900MPD2    N113247   0.018   4.222  13.026  0.3590 -0.4065  0.1684
  900MPD2    H713248   0.088   4.211  13.098  3.1841  1.9223 -2.1945
  901MPD2     C13249   4.549   3.239  12.633 -0.5785 -0.0343  0.2353
  901MPD2    C113250   4.639   3.221  12.728  0.0486  0.6395 -0.4658
  901MPD2    C213251   4.678   3.321  12.822  0.3936 -0.1884 -0.6105
  901MPD2    C313252   4.616   3.447  12.811 -1.1232 -0.0702  0.0623
  901MPD2    C413253   4.520   3.464  12.715 -0.6569  0.3030 -0.3733
  901MPD2    C513254   4.493   3.361  12.626 -0.6708 -1.1699  0.4926
  901MPD2     H13255   0.011   3.316  12.903 -1.1875 -1.4010  0.6895
  901MPD2    H113256   4.466   3.557  12.696 -0.7318  0.3092 -0.1308
  901MPD2    H213257   4.519   3.160  12.565 -0.7611  1.2950 -1.2296
  901MPD2    H313258   4.415   3.372  12.551  1.0781  1.2637 -0.9649
  901MPD2     N13259   4.660   3.550  12.896  0.0218  0.3438  0.2789
  901MPD2    H513260   0.004   3.538  12.954  1.2955 -1.1284 -1.8250
  901MPD2    N113261   4.689   3.090  12.732 -0.1274  0.5122 -0.4340
  901MPD2    H713262   4.663   3.035  12.651  1.1484  2.7309 -2.3700
  902MPD2     C13263   4.001   2.143  12.847 -0.4914 -0.1898  0.3444
  902MPD2    C113264   3.933   2.179  12.734 -0.4052 -0.4276  0.1539
  902MPD2    C213265   3.915   2.086  12.628  0.1956 -0.0511  0.3495
  902MPD2    C313266   3.965   1.952  12.640  0.0217 -0.7586 -0.8318
  902MPD2    C413267   4.031   1.920  12.756 -0.1914 -0.1097 -0.0183
  902MPD2    C513268   4.044   2.015  12.857  0.7870 -0.1169 -0.0720
  902MPD2     H13269   3.876   2.124  12.534 -1.1779  1.5348  1.5388
  902MPD2    H113270   4.062   1.819  12.779 -1.2393 -0.0643  1.6200
  902MPD2    H213271   4.017   2.214  12.927 -2.3670 -0.9048  1.3414
  902MPD2    H313272   4.083   1.981  12.953 -2.9258  0.1948  1.5609
  902MPD2     N13273   3.959   1.852  12.544 -0.4072 -0.0731  0.3993
  902MPD2    H513274   3.990   1.762  12.580  1.9651  0.5558 -0.0911
  902MPD2    N113275   3.895   2.315  12.727 -0.3813 -0.2436 -1.1535
  902MPD2    H713276   3.947   2.375  12.791 -1.2442 -2.3900  1.5250
  903MPD2     C13277   3.567   1.615  11.803  0.1257  0.6596  0.5535
  903MPD2    C113278   3.542   1.667  11.927 -0.3008 -0.6248  0.4305
  903MPD2    C213279   3.412   1.722  11.943  0.7398  0.6717  0.1942
  903MPD2    C313280   3.315   1.726  11.848 -0.0499  0.5261  0.7560
  903MPD2    C413281   3.355   1.682  11.723 -0.0105 -0.2247  0.3459
  903MPD2    C513282   3.472   1.616  11.707 -0.4493  0.5288 -0.3949
  903MPD2     H13283   3.387   1.765  12.039 -0.1953 -1.0434  0.7322
  903MPD2    H113284   3.293   1.684  11.634  2.1528  0.5126 -1.1589
  903MPD2    H213285   3.659   1.567  11.773  0.5845  0.4377  2.2934
  903MPD2    H313286   3.492   1.578  11.607  1.3351 -2.2900  1.0530
  903MPD2     N13287   3.191   1.779  11.885 -0.5501 -0.1718 -0.2116
  903MPD2    H513288   3.183   1.809  11.982  1.0694 -0.7012  0.0822
  903MPD2    N113289   3.626   1.656  12.037 -0.2356 -0.4412  0.4135
  903MPD2    H713290   3.584   1.681  12.126  1.6205  1.1577  0.8467
  904MPD2     C13291   3.736   1.462  14.109 -0.2722 -0.5566  0.3680
  904MPD2    C113292   3.728   1.391  14.229 -0.7897 -0.6662  0.1528
  904MPD2    C213293   3.837   1.381  14.318  0.0777  0.5038  0.2756
  904MPD2    C313294   3.950   1.450  14.290 -0.2197 -1.0228 -0.0297
  904MPD2    C413295   3.952   1.527  14.177  0.6069  0.2284  0.6355
  904MPD2    C513296   3.852   1.533  14.090  0.0427  0.2729  0.2328
  904MPD2     H13297   3.816   1.337  14.415  1.1539 -0.2698  0.1559
  904MPD2    H113298   4.037   1.591  14.157 -0.9627  1.6550 -1.3980
  904MPD2    H213299   3.656   1.473  14.035  0.6111  0.6725 -0.4016
  904MPD2    H313300   3.858   1.610  14.014  1.0827 -0.3062 -0.2625
  904MPD2     N13301   4.059   1.423  14.386  0.1798 -0.0278 -0.1377
  904MPD2    H513302   4.032   1.383  14.475  1.3740 -1.5365 -0.4540
  904MPD2    N113303   3.609   1.322  14.263  0.0704  0.2066 -0.0803
  904MPD2    H713304   3.617   1.250  14.333 -0.6493 -1.5823 -1.8450
  905MPD2     C13305   3.518   1.664  13.600  0.5280 -0.5127  0.2212
  905MPD2    C113306   3.555   1.567  13.692  0.3509 -0.1058  0.4024
  905MPD2    C213307   3.673   1.500  13.686  0.1097 -0.1133 -0.2788
  905MPD2    C313308   3.755   1.521  13.580 -0.5699  0.6394  0.6190
  905MPD2    C413309   3.718   1.613  13.488  0.4343  0.7303  0.0773
  905MPD2    C513310   3.597   1.686  13.493 -0.0010 -0.4979  0.4283
  905MPD2     H13311   3.699   1.438  13.771  0.8707  0.7842  0.1491
  905MPD2    H113312   3.788   1.626  13.406 -3.8911  1.4254 -3.5061
  905MPD2    H213313   3.428   1.722  13.618 -0.7035 -3.1667  2.7072
  905MPD2    H313314   3.571   1.754  13.413  1.1077 -0.2726  0.2575
  905MPD2     N13315   3.885   1.464  13.572  0.3014 -0.7807 -0.0005
  905MPD2    H513316   3.953   1.508  13.512 -0.7973  0.0986 -0.5904
  905MPD2    N113317   3.474   1.548  13.810 -0.1829  0.1532 -0.2403
  905MPD2    H713318   3.509   1.480  13.877 -1.1614 -1.1284 -1.0405
  906MPD2     C13319   1.257   1.263  11.522  0.0456  0.4626  0.2070
  906MPD2    C113320   1.150   1.276  11.443 -0.3307  0.1301  0.4345
  906MPD2    C213321   1.059   1.175  11.441 -0.0995 -0.4280 -0.2788
  906MPD2    C313322   1.070   1.059  11.515  1.0434 -0.2956  0.6289
  906MPD2    C413323   1.197   1.042  11.587  0.0555  0.6167 -0.1712
  906MPD2    C513324   1.277   1.150  11.595  0.1184  0.5043 -1.1333
  906MPD2     H13325   0.970   1.189  11.380 -1.3222 -1.1664  1.3215
  906MPD2    H113326   1.224   0.959  11.651 -2.0203  1.1438  1.3901
  906MPD2    H213327   1.326   1.345  11.539  1.0603 -0.5567  1.0154
  906MPD2    H313328   1.356   1.155  11.669 -1.4404 -3.0551  0.7725
  906MPD2     N13329   0.973   0.968  11.511  0.1366 -0.0208 -0.0888
  906MPD2    H513330   0.885   0.993  11.468  0.2173  0.6631  0.1372
  906MPD2    N113331   1.136   1.379  11.347  0.0198 -0.7075 -0.6616
  906MPD2    H713332   1.076   1.364  11.266 -3.3174  1.6595  1.3737
  907MPD2     C13333   4.192   0.506  15.860 -0.5182 -0.5740 -0.0251
  907MPD2    C113334   4.278   0.399  15.840 -0.4415 -0.4040  0.2934
  907MPD2    C213335   4.380   0.375  15.934 -0.6235  0.0056  0.0628
  907MPD2    C313336   4.387   0.460  16.045 -0.1487  0.4053 -0.3647
  907MPD2    C413337   4.301   0.569  16.063 -0.7369 -0.1413 -0.7115
  907MPD2    C513338   4.199   0.592  15.971 -0.2825  0.1577 -1.2760
  907MPD2     H13339   4.449   0.292  15.923  1.9322  2.1309  0.0311
  907MPD2    H113340   4.320   0.633  16.149 -3.2484 -0.1529 -0.1684
  907MPD2    H213341   4.106   0.522  15.795  0.7963 -0.4484 -1.7461
  907MPD2    H313342   4.133   0.677  15.982 -1.8805 -1.2910  0.4018
  907MPD2     N13343   4.498   0.441  16.134 -0.0868 -0.6494  0.1628
  907MPD2    H513344   4.557   0.362  16.112  0.1474 -0.0001 -1.5752
  907MPD2    N113345   4.279   0.313  15.726  0.2305 -0.3389 -0.1859
  907MPD2    H713346   4.354   0.245  15.727  0.2419 -0.3051  0.7599
  908MPD2     C13347   1.963   1.150  10.125 -0.4367  0.5805  0.3920
  908MPD2    C113348   2.091   1.115  10.183 -0.3876  0.5959 -0.2979
  908MPD2    C213349   2.162   1.225  10.233 -0.0255  0.1461  0.0240
  908MPD2    C313350   2.122   1.356  10.224 -0.3257 -0.3096 -0.0719
  908MPD2    C413351   1.998   1.382  10.168  0.6895 -0.0578  0.2858
  908MPD2    C513352   1.921   1.284  10.118 -0.2897  0.8724  0.7523
  908MPD2     H13353   2.248   1.210  10.297 -1.2807 -2.6356  1.0942
  908MPD2    H113354   1.945   1.476  10.174 -0.7239 -0.8388  0.0755
  908MPD2    H213355   1.896   1.077  10.082  1.6891 -0.8450 -0.5151
  908MPD2    H313356   1.818   1.305  10.092  0.2816 -0.4153 -2.5242
  908MPD2     N13357   2.200   1.462  10.285 -0.1280  0.5210 -0.0615
  908MPD2    H513358   2.286   1.439  10.333 -0.6299 -1.1235  0.0460
  908MPD2    N113359   2.139   0.984  10.175 -0.5188 -0.1643  0.4769
  908MPD2    H713360   2.082   0.908  10.140 -1.4052  1.1589 -0.9310
  909MPD2     C13361   2.945   4.099  11.813  0.3245  0.1361 -0.2057
  909MPD2    C113362   2.958   4.231  11.781  0.2147 -0.4983 -1.1121
  909MPD2    C213363   2.851   4.313  11.811 -0.2832  0.0009  0.4392
  909MPD2    C313364   2.748   4.273  11.892  0.1866 -0.2855 -0.6249
  909MPD2    C413365   2.735   4.148  11.927 -0.5054 -0.2755 -0.7423
  909MPD2    C513366   2.835   4.060  11.889  0.6079 -0.2342 -0.3521
  909MPD2     H13367   2.864   4.421  11.803 -1.4923  0.1742  0.7416
  909MPD2    H113368   2.657   4.101  11.985 -0.4166  1.3206  0.6850
  909MPD2    H213369   3.021   4.023  11.795  0.8489  0.6027  0.0360
  909MPD2    H313370   2.829   3.956  11.919 -0.9049 -0.0723 -0.0914
  909MPD2     N13371   2.662   4.375  11.934 -0.7206  0.8069 -0.1342
  909MPD2    H513372   2.687   4.471  11.911 -1.3378  0.6802 -1.3356
  909MPD2    N113373   3.070   4.290  11.705 -0.0271 -0.2791  0.3720
  909MPD2    H713374   3.072   4.391  11.710  0.2917 -0.3397  1.4789
  910MPD2     C13375   3.768   1.039  15.972  0.0425 -0.4701 -0.2976
  910MPD2    C113376   3.863   0.946  15.983  0.3536 -0.3174  0.4103
  910MPD2    C213377   3.926   0.894  15.877 -0.2767  0.4178 -0.8080
  910MPD2    C313378   3.909   0.951  15.751  0.5677  0.4125 -0.3084
  910MPD2    C413379   3.806   1.041  15.737  0.1472  0.0885 -0.1684
  910MPD2    C513380   3.738   1.081  15.847  0.2003 -0.5325  0.4513
  910MPD2     H13381   3.993   0.810  15.889  0.0523  0.7732 -0.1738
  910MPD2    H113382   3.785   1.078  15.637 -2.6871  0.6009  0.5946
  910MPD2    H213383   3.707   1.078  16.051  1.2401 -0.4769  0.6348
  910MPD2    H313384   3.652   1.145  15.830  0.2464 -0.9710 -1.4258
  910MPD2     N13385   3.976   0.917  15.629  0.2139 -0.4176  0.4915
  910MPD2    H513386   3.932   0.960  15.548 -3.1448 -0.5021  2.2610
  910MPD2    N113387   3.881   0.875  16.106 -0.1017  0.3178 -0.3512
  910MPD2    H713388   3.921   0.782  16.111  0.2892  0.4215 -1.5734
  911MPD2     C13389   1.945   1.408  16.533 -0.2175  0.1694  0.7294
  911MPD2    C113390   2.032   1.513  16.547  0.2916 -0.3694 -0.0705
  911MPD2    C213391   1.986   1.643  16.540  0.2425 -0.0723 -0.0008
  911MPD2    C313392   1.851   1.667  16.525  0.0195 -0.4934 -0.4839
  911MPD2    C413393   1.772   1.557  16.504 -0.4426 -0.4674  0.3594
  911MPD2    C513394   1.822   1.435  16.500  0.0228  0.7449 -0.1881
  911MPD2     H13395   2.054   1.726  16.522 -0.6398  0.5225 -0.6138
  911MPD2    H113396   1.665   1.571  16.491 -0.2882 -0.2755 -0.7189
  911MPD2    H213397   1.981   1.306  16.525  0.0017  0.2885  0.2024
  911MPD2    H313398   1.749   1.357  16.480  0.4123  0.3423 -0.0383
  911MPD2     N13399   1.787   1.795  16.517 -0.1622  0.2144 -0.8289
  911MPD2    H513400   1.688   1.783  16.497 -0.2424  0.1443 -0.4044
  911MPD2    N113401   2.169   1.483  16.559 -0.4094  0.3853  0.0477
  911MPD2    H713402   2.197   1.387  16.542  1.1507  1.0412 -1.2265
  912MPD2     C13403   1.287   2.031  15.999  0.1845  0.0118  0.4029
  912MPD2    C113404   1.308   1.980  16.129 -0.6078 -0.4201 -0.0710
  912MPD2    C213405   1.222   1.874  16.175  0.7691  0.0860  0.2226
  912MPD2    C313406   1.127   1.824  16.083  0.4817 -0.7461  0.2079
  912MPD2    C413407   1.116   1.878  15.959 -0.0956  0.8184  0.3567
  912MPD2    C513408   1.193   1.974  15.915 -0.4156  0.3045 -0.1698
  912MPD2     H13409   1.222   1.837  16.276 -1.6984 -2.4264 -0.6906
  912MPD2    H113410   1.041   1.841  15.890  1.3052 -0.6693 -0.3711
  912MPD2    H213411   1.341   2.115  15.959 -1.0551  0.8480  0.5041
  912MPD2    H313412   1.180   2.010  15.814 -0.8351  2.8150  0.7922
  912MPD2     N13413   1.053   1.715  16.139  0.0163  0.7429 -0.1216
  912MPD2    H513414   1.073   1.688  16.235 -0.2643 -0.2493 -0.3471
  912MPD2    N113415   1.396   2.038  16.209 -0.0737  0.2242 -0.3314
  912MPD2    H713416   1.444   2.118  16.170  0.9811  0.7482  2.0460
  913MPD2     C13417   2.339   2.908  10.895  0.0441  0.1116 -0.2910
  913MPD2    C113418   2.215   2.964  10.895 -0.0432 -0.4904 -0.4418
  913MPD2    C213419   2.193   3.064  10.800  0.3977  0.1160 -0.5607
  913MPD2    C313420   2.288   3.094  10.702  0.2710 -0.0203  0.2834
  913MPD2    C413421   2.414   3.047  10.724 -0.2754 -0.0103 -0.1937
  913MPD2    C513422   2.435   2.946  10.812 -0.6069 -0.2609 -0.8391
  913MPD2     H13423   2.090   3.096  10.787  0.2831 -0.2174 -0.4809
  913MPD2    H113424   2.497   3.094  10.673  0.3730 -0.1421  0.7365
  913MPD2    H213425   2.372   2.846  10.978  0.9722 -0.6100 -1.2000
  913MPD2    H313426   2.532   2.899  10.828 -0.4630  0.6537  0.9875
  913MPD2     N13427   2.267   3.198  10.603  0.1479  0.4952  0.3478
  913MPD2    H513428   2.350   3.233  10.555  0.8393  0.5621  1.6059
  913MPD2    N113429   2.120   2.925  10.995 -0.1551  0.0454 -0.3515
  913MPD2    H713430   2.154   2.854  11.060  2.7969  0.7710 -1.1226
  914MPD2     C13431   4.373   2.605  12.216 -0.5480 -0.1252  0.0337
  914MPD2    C113432   4.390   2.740  12.248 -0.9139  0.9786  0.6807
  914MPD2    C213433   4.481   2.767  12.349  0.3237 -0.5265 -0.3487
  914MPD2    C313434   4.558   2.664  12.401  0.9197 -0.2488  0.1861
  914MPD2    C413435   4.550   2.536  12.361 -0.3441 -0.3290  0.4322
  914MPD2    C513436   4.453   2.507  12.268 -0.6185  0.3523  0.6515
  914MPD2     H13437   4.506   2.871  12.366 -2.3014 -0.3503  2.4389
  914MPD2    H113438   4.603   2.451  12.402  2.0536  0.3563 -1.2699
  914MPD2    H213439   4.292   2.567  12.154 -0.3888  0.2994 -0.4350
  914MPD2    H313440   4.439   2.403  12.240  3.0900 -0.3129  1.3260
  914MPD2     N13441   4.650   2.711  12.491  0.5114  0.4876  0.4023
  914MPD2    H513442   4.639   2.808  12.516 -1.6998  0.0429  1.1292
  914MPD2    N113443   4.329   2.845  12.170  0.3504  0.5820  0.3709
  914MPD2    H713444   4.282   2.818  12.084 -1.3411  1.3895  1.0285
  915MPD2     C13445   3.111   3.282  15.808  0.1223 -0.1414  0.4268
  915MPD2    C113446   2.979   3.300  15.769  0.1031 -0.6139 -0.4614
  915MPD2    C213447   2.882   3.324  15.860  0.7628  0.0253  0.2769
  915MPD2    C313448   2.915   3.331  15.990  0.1609 -0.3292  0.2181
  915MPD2    C413449   3.048   3.304  16.040  0.3729 -0.1939 -0.4428
  915MPD2    C513450   3.149   3.282  15.946 -0.1253  0.1318 -0.0101
  915MPD2     H13451   2.782   3.343  15.824  1.1050  1.6238  0.1764
  915MPD2    H113452   3.074   3.293  16.145  0.2037 -2.2695 -0.6124
  915MPD2    H213453   3.186   3.268  15.732  0.8249 -0.5791  1.2042
  915MPD2    H313454   3.245   3.244  15.977 -1.1835 -1.9782  0.7418
  915MPD2     N13455   2.811   3.351  16.082 -0.1121 -0.2286 -1.0056
  915MPD2    H513456   2.719   3.349  16.040 -0.6019 -0.3106  0.0671
  915MPD2    N113457   2.961   3.300  15.630 -0.2743 -0.4258  0.2616
  915MPD2    H713458   3.049   3.305  15.581 -0.6110  0.7822 -0.2315
  916MPD2     C13459   1.160   1.571  15.723 -0.2647  0.5532  0.3986
  916MPD2    C113460   1.105   1.451  15.707  0.4793  0.4360  0.2445
  916MPD2    C213461   1.187   1.348  15.656  0.3615 -0.3402 -0.4403
  916MPD2    C313462   1.317   1.371  15.621 -0.0369 -0.3904  0.1237
  916MPD2    C413463   1.373   1.497  15.642  0.0685 -0.0923 -0.0455
  916MPD2    C513464   1.293   1.594  15.689  0.4145  0.3618 -0.0005
  916MPD2     H13465   1.151   1.246  15.644 -1.6568  0.2725  0.5352
  916MPD2    H113466   1.475   1.531  15.628  0.1262 -0.5397 -0.7012
  916MPD2    H213467   1.105   1.657  15.761 -0.8386  0.5132 -0.3565
  916MPD2    H313468   1.332   1.695  15.695  0.7637  0.1694  0.8466
  916MPD2     N13469   1.382   1.258  15.567 -0.0733  0.3272 -0.7635
  916MPD2    H513470   1.330   1.171  15.565  1.5538 -0.6683 -0.3106
  916MPD2    N113471   0.969   1.433  15.742 -0.8069  0.1559 -0.3274
  916MPD2    H713472   0.927   1.506  15.798  1.3132  1.0346  0.1117
  917MPD2     C13473   1.047   3.706  11.273 -0.0417 -0.5115  0.3177
  917MPD2    C113474   1.085   3.737  11.403  0.1675 -0.0476 -0.1534
  917MPD2    C213475   1.204   3.806  11.409 -0.0154 -0.1368  0.1749
  917MPD2    C313476   1.282   3.844  11.297  0.1514 -0.2223 -0.3843
  917MPD2    C413477   1.243   3.809  11.168 -0.3219  1.0385 -0.5139
  917MPD2    C513478   1.122   3.741  11.160  0.3092 -0.2876  0.0950
  917MPD2     H13479   1.238   3.827  11.509  0.2725  0.9004 -0.1462
  917MPD2    H113480   1.292   3.844  11.078  1.5376 -1.1482 -0.3574
  917MPD2    H213481   0.945   3.670  11.267 -0.2909 -0.0830  2.0334
  917MPD2    H313482   1.077   3.716  11.065 -1.0384  1.4383  0.2641
  917MPD2     N13483   1.394   3.925  11.300 -0.0060 -0.5835 -0.2342
  917MPD2    H513484   1.433   3.963  11.214 -2.1569  0.4875 -0.7274
  917MPD2    N113485   1.003   3.697  11.513  0.3758 -0.3401 -0.8879
  917MPD2    H713486   0.917   3.648  11.493 -0.7931  0.6581  1.6621
  918MPD2     C13487   0.898   4.014  12.520 -1.2277  0.2888  0.4865
  918MPD2    C113488   1.017   3.994  12.449 -0.4141 -0.0010  0.4550
  918MPD2    C213489   1.015   3.942  12.321  0.3207  0.8622  0.2292
  918MPD2    C313490   0.896   3.888  12.265 -0.1695  0.0729  0.3868
  918MPD2    C413491   0.781   3.907  12.328 -0.0502 -0.7214  0.0555
  918MPD2    C513492   0.781   3.975  12.450  0.5522 -0.7516  0.4141
  918MPD2     H13493   1.103   3.948  12.258  1.1113 -1.2086  1.1511
  918MPD2    H113494   0.682   3.873  12.301 -0.9597 -0.5135  3.0390
  918MPD2    H213495   0.902   4.048  12.622  1.7883  1.2031  0.0632
  918MPD2    H313496   0.686   3.984  12.501  0.4958 -1.7975  0.5065
  918MPD2     N13497   0.906   3.826  12.135  0.1953 -0.3115  0.0281
  918MPD2    H513498   0.989   3.843  12.079 -0.0097  0.1412 -0.1392
  918MPD2    N113499   1.141   4.046  12.495 -0.3188 -0.4909 -0.3223
  918MPD2    H713500   1.216   4.041  12.427 -0.1676 -1.0103 -0.1117
  919MPD2     C13501   2.071   2.838  12.395  0.2096  0.9212 -0.2584
  919MPD2    C113502   1.982   2.748  12.358  0.3269 -0.6265 -0.3393
  919MPD2    C213503   1.895   2.775  12.251 -0.1163  0.1225 -0.5663
  919MPD2    C313504   1.906   2.890  12.178 -0.4613 -0.3710 -0.5894
  919MPD2    C413505   2.009   2.969  12.213  0.6171 -0.4570 -0.5831
  919MPD2    C513506   2.086   2.952  12.328 -0.7207  0.0625  0.8182
  919MPD2     H13507   1.834   2.694  12.213 -0.8790 -0.4248  1.7925
  919MPD2    H113508   2.038   3.053  12.150  0.6201  0.3791  0.5390
  919MPD2    H213509   2.141   2.823  12.477 -0.8645 -1.2661  0.2303
  919MPD2    H313510   2.167   3.020  12.352  0.2649 -0.3822 -1.1698
  919MPD2     N13511   1.822   2.926  12.068 -0.3096 -0.0464 -0.0236
  919MPD2    H513512   1.847   3.008  12.013 -0.0790 -1.0265 -1.3668
  919MPD2    N113513   1.960   2.623  12.425  0.0628  0.0186  0.7041
  919MPD2    H713514   1.886   2.561  12.394  0.3838 -1.0137  2.0068
  920MPD2     C13515   1.696   3.219  11.113  0.8415  0.3816  0.3464
  920MPD2    C113516   1.570   3.165  11.129 -0.3511  0.1819  0.0291
  920MPD2    C213517   1.543   3.119  11.255  0.4018  0.5977 -0.1467
  920MPD2    C313518   1.633   3.135  11.361  0.1550 -0.4189 -0.1897
  920MPD2    C413519   1.761   3.191  11.339  0.3531  0.1973  0.1691
  920MPD2    C513520   1.786   3.230  11.215 -0.4365  0.1954 -0.6563
  920MPD2     H13521   1.459   3.052  11.270  0.3957  1.0196  1.7224
  920MPD2    H113522   1.832   3.196  11.420 -2.2963 -1.1472  2.5762
  920MPD2    H213523   1.734   3.235  11.013  0.8329  0.6142  0.3792
  920MPD2    H313524   1.888   3.266  11.200  1.1145 -4.1898 -0.7629
  920MPD2     N13525   1.597   3.071  11.481 -1.0166 -0.7030 -0.4942
  920MPD2    H513526   1.504   3.029  11.482 -0.7518 -1.2380  1.3053
  920MPD2    N113527   1.471   3.149  11.030  0.0035  0.2972 -0.0535
  920MPD2    H713528   1.388   3.103  11.067  0.5263  0.7232  1.6820
  921MPD2     C13529   2.977   1.894  17.047  0.0674 -0.9108 -0.0516
  921MPD2    C113530   2.963   1.912  16.908  0.2036 -0.1819 -0.6152
  921MPD2    C213531   2.881   1.826  16.841 -0.0950  0.1694 -0.5883
  921MPD2    C313532   2.811   1.728  16.908 -0.0328 -0.0089 -0.3646
  921MPD2    C413533   2.821   1.714  17.043 -1.0959 -0.6783  0.6737
  921MPD2    C513534   2.905   1.797  17.114  0.3586 -0.1974  0.2797
  921MPD2     H13535   2.868   1.833  16.734 -1.7037  1.5432 -0.3171
  921MPD2    H113536   2.765   1.648  17.108 -1.0302 -0.9881  0.4146
  921MPD2    H213537   3.044   1.952  17.109 -0.5950 -0.1211 -0.0687
  921MPD2    H313538   2.905   1.791  17.222  1.6647  1.8008  0.4069
  921MPD2     N13539   2.716   1.641  16.849  0.0757  0.2185  0.5258
  921MPD2    H513540   2.666   1.573  16.904 -1.0152  0.8050  0.2703
  921MPD2    N113541   3.058   1.992  16.842 -0.1711  0.1014 -0.4121
  921MPD2    H713542   3.126   2.042  16.898 -1.5509  0.1875  1.1774
  922MPD2     C13543   2.936   4.476   0.702 -0.4225 -1.1012 -0.3331
  922MPD2    C113544   2.965   4.600   0.647 -0.3936 -0.4014 -0.8173
  922MPD2    C213545   2.911   4.642   0.524 -0.1065 -0.3578 -0.3778
  922MPD2    C313546   2.832   4.557   0.453 -0.1299 -0.8916 -0.7624
  922MPD2    C413547   2.787   4.440   0.517  0.1474 -1.7229  0.1377
  922MPD2    C513548   2.844   4.398   0.635  0.2965  0.3661  0.7019
  922MPD2     H13549   2.936   4.736   0.477  1.6989 -1.9260 -2.5564
  922MPD2    H113550   2.735   4.363   0.462 -0.4757 -1.8286  0.8833
  922MPD2    H213551   2.970   4.448   0.801  1.6820  1.0471 -0.4409
  922MPD2    H313552   2.810   4.301   0.670 -2.5708  1.4855  1.0054
  922MPD2     N13553   2.789   4.600   0.325 -0.5646 -0.1542 -0.3647
  922MPD2    H513554   2.794   4.697   0.294  0.3566  0.0924  0.5663
  922MPD2    N113555   3.048   4.690   0.711 -0.2584 -0.9154 -1.0565
  922MPD2    H713556   3.071   0.035   0.658  1.1336  1.9341  3.9190
  923MPD2     C13557   0.342   1.130   9.310  1.1676 -0.2727 -0.0918
  923MPD2    C113558   0.293   1.257   9.327 -0.3382 -0.0689 -0.4115
  923MPD2    C213559   0.360   1.348   9.403 -0.0763 -0.3594  0.0088
  923MPD2    C313560   0.486   1.312   9.452 -0.4046  0.1697  0.3500
  923MPD2    C413561   0.537   1.185   9.428 -0.5113 -0.2602  0.1185
  923MPD2    C513562   0.463   1.094   9.357 -0.3051 -0.4099 -0.8919
  923MPD2     H13563   0.320   1.443   9.435 -1.4952 -0.9256 -0.0594
  923MPD2    H113564   0.632   1.168   9.478 -0.1593  0.6358 -0.2561
  923MPD2    H213565   0.275   1.053   9.274 -0.5161  0.7817  0.7356
  923MPD2    H313566   0.493   0.989   9.358  0.9509 -0.0182  2.1082
  923MPD2     N13567   0.563   1.397   9.540  0.1659  0.1185 -0.3052
  923MPD2    H513568   0.650   1.361   9.580  0.2172  0.5797  0.0036
  923MPD2    N113569   0.167   1.298   9.272  0.3718 -0.0806  0.1769
  923MPD2    H713570   0.135   1.393   9.284  0.2680 -0.1400  0.3622
  924MPD2     C13571   0.291   4.680  16.812  0.6821 -0.8502  0.3804
  924MPD2    C113572   0.161   4.730  16.792 -0.5836 -0.3808 -0.1445
  924MPD2    C213573   0.129   0.055  16.671 -0.3231  0.0540  0.0132
  924MPD2    C313574   0.222   0.065  16.571 -0.5892  0.5314  0.0057
  924MPD2    C413575   0.343   0.009  16.594  0.3764 -0.8727  0.2525
  924MPD2    C513576   0.373   4.688  16.713 -0.4065  0.1642  0.1005
  924MPD2     H13577   0.038   0.114  16.664 -0.1738  0.6066  2.9817
  924MPD2    H113578   0.415   4.738  16.514 -0.9689 -1.9770 -0.8416
  924MPD2    H213579   0.318   4.633  16.905  0.2667 -2.5146 -0.3417
  924MPD2    H313580   0.472   4.646  16.722 -0.5134  0.2520  1.6510
  924MPD2     N13581   0.198   0.135  16.455  0.0851 -0.1058  0.5767
  924MPD2    H513582   0.277   0.166  16.401 -0.6784 -0.0026 -0.4750
  924MPD2    N113583   0.074   4.718  16.899 -0.4751  0.3777  0.1940
  924MPD2    H713584   0.123   4.704  16.986 -1.8925 -0.7427  0.7978
  925MPD2     C13585   4.106   2.215  15.072 -0.1473 -0.5140  1.1504
  925MPD2    C113586   4.008   2.313  15.036  0.0184  0.4340 -0.5408
  925MPD2    C213587   3.915   2.347  15.135  0.9409  0.0518  0.0230
  925MPD2    C313588   3.921   2.298  15.266  0.2882  0.1390  0.0482
  925MPD2    C413589   4.016   2.203  15.304  0.7522 -0.3065 -0.1046
  925MPD2    C513590   4.106   2.174  15.204  0.0139 -0.0473  0.1395
  925MPD2     H13591   3.838   2.420  15.114  1.8141  0.6936 -0.9755
  925MPD2    H113592   4.022   2.155  15.401 -0.9660  0.9019  0.6102
  925MPD2    H213593   4.181   2.169  15.010  0.5098  0.8541  0.9429
  925MPD2    H313594   4.173   2.096  15.240 -1.5572 -1.6585 -0.4236
  925MPD2     N13595   3.821   2.333  15.359 -0.1117 -0.5610  0.4299
  925MPD2    H513596   3.827   2.292  15.451 -1.3067  2.0590  1.6744
  925MPD2    N113597   3.982   2.365  14.906 -0.3971 -0.1094 -0.4916
  925MPD2    H713598   3.907   2.432  14.895  1.0981  1.4789 -1.0203
  926MPD2     C13599   2.390   0.754  13.542  0.7577 -0.2387  0.2822
  926MPD2    C113600   2.432   0.881  13.511  0.9541 -0.4867  0.5713
  926MPD2    C213601   2.528   0.891  13.411  0.5211  0.9678  0.5798
  926MPD2    C313602   2.584   0.779  13.351  0.5972  0.1355  0.3083
  926MPD2    C413603   2.551   0.652  13.393  0.0223 -0.1845  0.6961
  926MPD2    C513604   2.459   0.642  13.489  0.4978  0.6766  0.4386
  926MPD2     H13605   2.552   0.995  13.392  0.4691  0.8578 -0.1068
  926MPD2    H113606   2.603   0.565  13.355  1.7701  0.4388  1.6375
  926MPD2    H213607   2.322   0.744  13.627 -0.4036 -1.6103 -0.8012
  926MPD2    H313608   2.435   0.542  13.521 -0.5532  0.3929 -1.2610
  926MPD2     N13609   2.682   0.800  13.253  0.2425 -0.2625 -0.5882
  926MPD2    H513610   2.738   0.719  13.227 -1.5655 -1.3394 -1.1138
  926MPD2    N113611   2.376   1.002  13.562  0.2760  0.3701 -0.1280
  926MPD2    H713612   2.421   1.087  13.529 -0.8002  0.5212 -1.2390
  927MPD2     C13613   2.287   2.874  17.633 -0.5415 -0.6057 -0.0066
  927MPD2    C113614   2.170   2.934  17.603  0.0080 -0.5258  0.8438
  927MPD2    C213615   2.148   2.966  17.475 -0.2595  1.0329  0.2364
  927MPD2    C313616   2.249   2.943  17.376 -0.4105  0.4245 -0.1425
  927MPD2    C413617   2.369   2.880  17.410 -0.8506 -0.5927  0.3843
  927MPD2    C513618   2.373   2.834  17.539  0.0930  0.2675 -0.0769
  927MPD2     H13619   2.059   3.021  17.448 -0.4091  1.4940  1.6964
  927MPD2    H113620   2.448   2.849  17.342 -2.6301 -0.7975 -1.5692
  927MPD2    H213621   2.296   2.842  17.736 -0.1638 -1.0964 -0.1932
  927MPD2    H313622   2.460   2.773  17.560 -0.5620 -0.4069  0.6453
  927MPD2     N13623   2.224   2.973  17.244  0.4370  0.4184  0.1011
  927MPD2    H513624   2.143   3.030  17.219  0.7062  0.6012 -0.3494
  927MPD2    N113625   2.082   2.941  17.710 -0.0217  0.0150  0.4563
  927MPD2    H713626   2.126   2.897   0.040  2.4304 -1.0424 -1.4569
  928MPD2     C13627   4.224   1.820   0.943 -0.6373 -0.1277  0.9536
  928MPD2    C113628   4.347   1.810   1.006  0.2696  0.1150  0.2182
  928MPD2    C213629   4.452   1.790   0.913  0.0202 -0.3815 -0.3568
  928MPD2    C313630   4.432   1.769   0.773  0.0021  0.0606 -0.2720
  928MPD2    C413631   4.301   1.779   0.722 -0.3260 -0.4547  0.4326
  928MPD2    C513632   4.204   1.809   0.811 -0.3640  0.6716 -0.3427
  928MPD2     H13633   4.551   1.792   0.958  0.2456 -0.0151 -0.8562
  928MPD2    H113634   4.292   1.794   0.615  1.1692 -1.5937  0.1544
  928MPD2    H213635   4.138   1.849   1.003 -2.2945  0.8506 -1.9008
  928MPD2    H313636   4.104   1.823   0.770 -1.3681 -2.7920  0.9459
  928MPD2     N13637   4.534   1.744   0.683 -0.1450  0.1538 -0.1779
  928MPD2    H513638   4.514   1.744   0.584 -0.9659  0.5216 -0.0115
  928MPD2    N113639   4.357   1.810   1.148  0.7500  0.6594 -0.2575
  928MPD2    H713640   4.271   1.804   1.201  1.9609  0.9919  1.7381
  929MPD2     C13641   0.107   1.943   9.824 -0.3687 -0.3702 -0.1730
  929MPD2    C113642   0.033   1.969   9.935  0.3862  0.5004 -0.1159
  929MPD2    C213643   4.692   2.081   9.930 -0.6491 -0.2800  0.1945
  929MPD2    C313644   4.664   2.141   9.804  0.6998 -0.2079 -0.2335
  929MPD2    C413645   0.004   2.108   9.696  1.0048 -0.1205  0.1537
  929MPD2    C513646   0.097   2.010   9.705  0.0466 -0.0521  0.3397
  929MPD2     H13647   4.643   2.116  10.020 -0.4765  0.8010 -0.1317
  929MPD2    H113648   4.721   2.169   9.609  0.2277 -1.2372 -0.4515
  929MPD2    H213649   0.178   1.861   9.828  0.7470  0.4514 -3.4685
  929MPD2    H313650   0.165   1.999   9.621  0.1025 -0.8119  0.4841
  929MPD2     N13651   4.564   2.238   9.779  0.7510  0.3947 -0.0387
  929MPD2    H513652   4.536   2.256   9.683 -3.0740  0.6778  1.1265
  929MPD2    N113653   0.046   1.886  10.045 -0.4725  0.2617 -1.4607
  929MPD2    H713654   0.126   1.824  10.053  0.3254  1.3161 -1.1814
  930MPD2     C13655   1.883   3.202  14.717  0.0616 -0.1839  0.0890
  930MPD2    C113656   1.893   3.284  14.605  0.2493  1.3252 -0.2045
  930MPD2    C213657   1.861   3.240  14.477 -0.1407 -0.3440 -0.5079
  930MPD2    C313658   1.843   3.106  14.455 -0.0581 -0.4274 -0.0302
  930MPD2    C413659   1.838   3.025  14.570 -0.0103  0.4104  0.2796
  930MPD2    C513660   1.832   3.075  14.696  0.7819 -0.0900 -0.2477
  930MPD2     H13661   1.876   3.314  14.400  0.3408 -0.2279 -0.3035
  930MPD2    H113662   1.830   2.919  14.551  1.9882  0.6022 -1.6366
  930MPD2    H213663   1.890   3.240  14.818 -0.1259  2.4504 -0.8919
  930MPD2    H313664   1.811   3.017  14.785  2.4453  1.5841  1.2573
  930MPD2     N13665   1.827   3.060  14.327  0.4821 -0.1756 -0.2471
  930MPD2    H513666   1.828   3.132  14.255  0.1502  0.0482 -0.0271
  930MPD2    N113667   1.950   3.411  14.633 -0.4177  0.1723  0.0403
  930MPD2    H713668   1.992   3.423  14.725 -0.1645  1.9641 -0.2955
  931MPD2     C13669   2.337   2.980   0.543  0.3050  0.1999  0.3953
  931MPD2    C113670   2.203   2.939   0.556  0.1610 -0.7404  0.1261
  931MPD2    C213671   2.161   2.886   0.673  0.1367  0.5391 -0.6184
  931MPD2    C313672   2.250   2.856   0.773 -0.3893  0.0944  0.0172
  931MPD2    C413673   2.382   2.895   0.759 -0.8168 -0.2709 -0.2374
  931MPD2    C513674   2.424   2.955   0.641 -0.0215 -0.1050 -0.1606
  931MPD2     H13675   2.060   2.848   0.676  0.2680  0.3705  1.9810
  931MPD2    H113676   2.462   2.871   0.828 -1.5340 -1.4960  0.1699
  931MPD2    H213677   2.375   3.031   0.455  3.5666 -2.7496  0.0600
  931MPD2    H313678   2.526   2.992   0.633 -0.1154 -0.0280 -0.9795
  931MPD2     N13679   2.223   2.766   0.885 -0.2096 -0.1029  0.2520
  931MPD2    H513680   2.285   2.761   0.965  0.2709  2.4842  0.0432
  931MPD2    N113681   2.121   2.967   0.440  0.2237  0.1703 -0.4107
  931MPD2    H713682   2.161   3.025   0.367 -0.2987 -0.6621 -1.3573
  932MPD2     C13683   3.950   2.282  11.860  0.1564  0.7906  0.2630
  932MPD2    C113684   3.973   2.346  11.738  0.2619  0.4492  0.1339
  932MPD2    C213685   4.034   2.276  11.640 -0.6985 -0.2675  0.1622
  932MPD2    C313686   4.087   2.153  11.665 -0.0080  0.0512 -0.2756
  932MPD2    C413687   4.057   2.088  11.781 -0.8762  0.0956  0.5303
  932MPD2    C513688   3.987   2.149  11.876  0.2815 -0.0685  0.1962
  932MPD2     H13689   4.028   2.315  11.539  0.2110  1.2373  0.7064
  932MPD2    H113690   4.091   1.986  11.793  0.1460  0.1651 -1.6521
  932MPD2    H213691   3.892   2.327  11.940 -1.7405 -1.5869  0.2097
  932MPD2    H313692   3.959   2.093  11.965  1.1055 -0.8942 -0.0605
  932MPD2     N13693   4.163   2.072  11.572  0.0364  0.1939 -0.1834
  932MPD2    H513694   4.204   1.987  11.610 -1.9851 -0.8504 -0.4039
  932MPD2    N113695   3.926   2.481  11.717 -0.0309  0.2716 -0.3502
  932MPD2    H713696   3.956   2.531  11.633  0.6145 -0.4015 -0.5239
  933MPD2     C13697   4.017   2.065   1.855  0.9346 -0.1653  0.9759
  933MPD2    C113698   4.067   2.076   1.726 -0.1414  0.4828  0.4188
  933MPD2    C213699   4.030   2.188   1.657  0.3419 -0.1954 -0.8965
  933MPD2    C313700   3.925   2.268   1.698  0.3515 -0.0546  1.2706
  933MPD2    C413701   3.855   2.242   1.816 -0.0719  0.2438 -1.1670
  933MPD2    C513702   3.913   2.146   1.900  0.9874 -0.0131  0.0354
  933MPD2     H13703   4.070   2.219   1.561  1.9412  0.7712  0.0873
  933MPD2    H113704   3.767   2.296   1.849  1.3528  0.7992  1.7137
  933MPD2    H213705   4.052   1.993   1.929 -1.3819 -0.8633  1.3746
  933MPD2    H313706   3.861   2.123   1.992  1.4115  1.5953  0.6856
  933MPD2     N13707   3.902   2.381   1.618 -0.6777  0.0950  0.1137
  933MPD2    H513708   3.967   2.404   1.543 -0.1760 -0.1099  0.4857
  933MPD2    N113709   4.183   2.002   1.688  0.4981  0.4074 -0.3321
  933MPD2    H713710   4.226   1.942   1.758 -2.3781 -0.9964  0.2143
  934MPD2     C13711   1.075   3.214   2.202  0.4856  0.4001  0.0514
  934MPD2    C113712   1.159   3.180   2.097 -0.1464 -0.2787 -0.3945
  934MPD2    C213713   1.108   3.163   1.973 -0.1451  0.3496 -0.2211
  934MPD2    C313714   0.967   3.157   1.953 -0.2016  0.6620  0.3058
  934MPD2    C413715   0.884   3.199   2.050  0.1186 -0.0182 -0.3312
  934MPD2    C513716   0.940   3.231   2.176 -0.7139 -0.1332 -0.6247
  934MPD2     H13717   1.173   3.138   1.890  0.4750  0.2644  0.2899
  934MPD2    H113718   0.777   3.209   2.037 -0.5519 -4.4201  2.0037
  934MPD2    H213719   1.110   3.230   2.304 -0.9580 -1.1795  0.8027
  934MPD2    H313720   0.863   3.260   2.247  1.8544  1.0585  1.6504
  934MPD2     N13721   0.912   3.107   1.830  0.1741  0.6789  0.4066
  934MPD2    H513722   0.813   3.118   1.813  0.0098 -1.0637  0.2888
  934MPD2    N113723   1.302   3.176   2.108 -0.0308  0.1697  0.2554
  934MPD2    H713724   1.351   3.150   2.023  1.4017 -2.8626  1.9903
  935MPD2     C13725   1.306   2.562   1.103  0.3531  0.5185 -0.6907
  935MPD2    C113726   1.173   2.569   1.062  0.2992  0.3202  0.3130
  935MPD2    C213727   1.084   2.646   1.143 -0.6747 -0.3044  0.3193
  935MPD2    C313728   1.126   2.708   1.260  0.3482  0.1450 -0.0213
  935MPD2    C413729   1.258   2.692   1.298 -0.2185  0.4467  0.9547
  935MPD2    C513730   1.348   2.623   1.220  0.6548  0.6549  0.4686
  935MPD2     H13731   0.981   2.666   1.115  0.0681  0.1796 -2.0748
  935MPD2    H113732   1.288   2.729   1.395 -1.0122  2.0015  0.6020
  935MPD2    H213733   1.383   2.514   1.043  0.3678  0.0575 -0.2941
  935MPD2    H313734   1.450   2.623   1.255  0.5752  4.3777  0.7807
  935MPD2     N13735   1.041   2.773   1.349  0.3116 -0.2450  0.3732
  935MPD2    H513736   1.089   2.793   1.437  1.5281 -1.1837 -0.0813
  935MPD2    N113737   1.117   2.486   0.955  0.1076  0.4667 -0.5728
  935MPD2    H713738   1.020   2.502   0.933  0.0592 -0.0469 -0.7205
  936MPD2     C13739   4.552   0.504  13.032 -0.6182 -0.0315 -0.2320
  936MPD2    C113740   4.462   0.592  12.968 -0.3087  0.2142  0.5895
  936MPD2    C213741   4.452   0.585  12.836 -0.8326 -0.9285  0.2504
  936MPD2    C313742   4.517   0.494  12.749  0.6314  0.3524  0.1424
  936MPD2    C413743   4.610   0.417  12.811 -0.7535  0.2994 -0.1680
  936MPD2    C513744   4.635   0.430  12.949  0.3145 -0.1421  0.5135
  936MPD2     H13745   4.385   0.653  12.785  0.3330  0.3477  0.4194
  936MPD2    H113746   4.664   0.338  12.759 -2.6517 -1.4463  0.5007
  936MPD2    H213747   4.571   0.496  13.138  1.1835 -1.1033 -0.6316
  936MPD2    H313748   4.711   0.363  12.989  1.0846 -1.3747 -3.0723
  936MPD2     N13749   4.508   0.496  12.610 -0.2697  0.1864  0.1404
  936MPD2    H513750   4.445   0.564  12.569 -0.3041 -1.5021 -2.6185
  936MPD2    N113751   4.379   0.675  13.042  0.6460  0.2649  0.5915
  936MPD2    H713752   4.322   0.741  12.990  0.4731  0.5896  1.1893
  937MPD2     C13753   1.841   1.953  12.204  0.0126  0.5471  0.3851
  937MPD2    C113754   1.902   2.080  12.195 -0.4657  0.3812  0.5091
  937MPD2    C213755   1.979   2.113  12.088  0.5419  0.4559  0.7861
  937MPD2    C313756   1.984   2.034  11.972  0.6231  0.7960  0.0941
  937MPD2    C413757   1.906   1.918  11.978 -0.3342 -0.2276 -0.3896
  937MPD2    C513758   1.848   1.873  12.092 -0.7655  0.2383  0.0024
  937MPD2     H13759   2.045   2.199  12.097  0.1635  0.7605  0.6410
  937MPD2    H113760   1.902   1.856  11.889 -0.7160 -0.9129  0.1012
  937MPD2    H213761   1.787   1.907  12.286  2.0593  0.7367  1.8450
  937MPD2    H313762   1.796   1.778  12.089 -0.4636 -0.0210  3.2060
  937MPD2     N13763   2.069   2.073  11.864 -0.2422  0.3549 -0.9951
  937MPD2    H513764   2.124   2.158  11.875 -0.4106  0.7807 -3.5960
  937MPD2    N113765   1.920   2.163  12.307 -1.0471  0.4666  0.3085
  937MPD2    H713766   1.968   2.250  12.288 -1.5129  0.8079  0.7168
  938MPD2     C13767   0.124   2.940   0.674  0.3073 -0.1694 -0.1185
  938MPD2    C113768   0.074   3.050   0.746  0.1274  0.3107 -0.1749
  938MPD2    C213769   0.067   3.048   0.880  0.3523  0.2876 -0.3130
  938MPD2    C313770   0.083   2.923   0.942 -0.4064 -0.3043 -0.9817
  938MPD2    C413771   0.155   2.826   0.878  0.0764 -0.0668 -0.1609
  938MPD2    C513772   0.169   2.833   0.739  0.2667 -0.1251 -0.2825
  938MPD2     H13773   0.037   3.135   0.936 -2.5967 -1.3662  0.6318
  938MPD2    H113774   0.193   2.736   0.926 -0.6572 -0.6729 -0.7144
  938MPD2    H213775   0.129   2.937   0.565 -1.8623  1.4203 -0.2607
  938MPD2    H313776   0.213   2.750   0.683  1.8250 -0.4392  1.4125
  938MPD2     N13777   0.031   2.898   1.075 -0.0069  0.0579  0.6171
  938MPD2    H513778   0.046   2.811   1.124  0.0898  0.4088  1.2154
  938MPD2    N113779   0.035   3.163   0.677 -0.1434 -0.2913  0.1384
  938MPD2    H713780   0.016   3.249   0.727 -0.2267 -0.6535  0.7315
  939MPD2     C13781   1.275   4.324   0.418 -0.0102 -0.5442  1.3060
  939MPD2    C113782   1.198   4.346   0.304  0.0622  0.4384 -0.0989
  939MPD2    C213783   1.244   4.289   0.190 -0.6740 -0.3452  0.6026
  939MPD2    C313784   1.360   4.220   0.188 -0.6536 -0.5394 -0.1790
  939MPD2    C413785   1.436   4.200   0.302  0.5223 -0.4067  0.9539
  939MPD2    C513786   1.390   4.249   0.417 -0.1727  0.7499  0.0464
  939MPD2     H13787   1.198   4.303   0.092 -0.1318 -0.9329  0.2623
  939MPD2    H113788   1.532   4.149   0.312  0.2141 -0.9124  1.3547
  939MPD2    H213789   1.247   4.365   0.514 -1.9931  1.1888 -0.0070
  939MPD2    H313790   1.458   4.235   0.501 -2.1422 -0.4921  1.4446
  939MPD2     N13791   1.397   4.168   0.058  0.0391  0.1614 -0.3949
  939MPD2    H513792   1.337   4.190  17.729  1.1414  0.9463 -1.0142
  939MPD2    N113793   1.092   4.440   0.310  0.0936  0.3358  0.4878
  939MPD2    H713794   1.071   4.493   0.393 -1.8659  1.3873 -0.6686
  940MPD2     C13795   4.402   1.134  13.571  0.4774 -0.3449 -0.4394
  940MPD2    C113796   4.508   1.057  13.598  0.1096 -0.5311  0.1931
  940MPD2    C213797   4.583   0.998  13.492  0.4935  0.1276  0.1696
  940MPD2    C313798   4.545   1.029  13.364  0.2205 -0.2547 -0.4056
  940MPD2    C413799   4.447   1.125  13.344  0.1951  0.6688 -0.1662
  940MPD2    C513800   4.375   1.172  13.445 -0.0293  0.8324 -0.2622
  940MPD2     H13801   4.659   0.924  13.511  0.9740  0.7777  0.7903
  940MPD2    H113802   4.409   1.149  13.245 -1.2784 -0.4854  0.1206
  940MPD2    H213803   4.339   1.162  13.655  1.6046  0.3396  0.1819
  940MPD2    H313804   4.296   1.239  13.414 -0.3882  0.1558 -0.8113
  940MPD2     N13805   4.601   0.967  13.245  1.0877 -0.2018 -0.1994
  940MPD2    H513806   4.579   1.004  13.153  1.6165  0.4625 -0.0634
  940MPD2    N113807   4.534   1.025  13.735  0.0204  0.4791  0.2754
  940MPD2    H713808   4.607   0.956  13.744 -1.3570 -1.2070 -1.3103
  941MPD2     C13809   3.877   4.719   9.927 -0.5138 -0.2753 -0.1894
  941MPD2    C113810   3.931   4.640  10.033  0.9002 -0.7168  0.1535
  941MPD2    C213811   3.841   4.552  10.100 -0.2170  0.0493  0.1506
  941MPD2    C313812   3.701   4.555  10.067  0.4268 -0.4476  0.0693
  941MPD2    C413813   3.654   4.635   9.969 -1.1796  0.2565 -0.1102
  941MPD2    C513814   3.740   4.713   9.903  0.1205 -0.1681  0.0819
  941MPD2     H13815   3.884   4.495  10.182 -0.3226 -0.2629 -0.0162
  941MPD2    H113816   3.555   4.630   9.924 -0.5994 -0.7303 -1.3016
  941MPD2    H213817   3.928   0.058   9.872 -0.6707 -1.4053 -1.9144
  941MPD2    H313818   3.705   0.031   9.818  1.5882 -2.3751 -1.9771
  941MPD2     N13819   3.602   4.475  10.141  0.0138  0.5083  0.2288
  941MPD2    H513820   3.509   4.477  10.101 -0.3415  0.8335  1.0628
  941MPD2    N113821   4.066   4.647  10.059 -0.2215 -0.2698  0.4735
  941MPD2    H713822   4.099   4.601  10.143  0.7858 -1.4670 -0.5857
  942MPD2     C13823   3.791   0.419   9.736 -0.2370 -0.2979  0.8725
  942MPD2    C113824   3.888   0.509   9.753  0.0947 -0.7422 -0.9311
  942MPD2    C213825   4.003   0.492   9.674 -0.3591  0.1756 -0.1055
  942MPD2    C313826   4.009   0.395   9.572 -0.1698  0.9219 -0.3136
  942MPD2    C413827   3.892   0.325   9.546 -0.7007 -0.0447 -0.5434
  942MPD2    C513828   3.788   0.330   9.634  0.1141  0.5055  0.0684
  942MPD2     H13829   4.091   0.554   9.681  0.1756 -0.6875  0.9857
  942MPD2    H113830   3.893   0.255   9.463 -1.2756  0.6627 -1.1440
  942MPD2    H213831   3.698   0.422   9.791 -0.4221 -0.8215  0.5929
  942MPD2    H313832   3.705   0.260   9.631  0.4277  0.0904  1.1094
  942MPD2     N13833   4.128   0.379   9.488 -0.4069  0.4809  0.1887
  942MPD2    H513834   4.134   0.300   9.424  0.5759  0.9106 -0.2519
  942MPD2    N113835   3.878   0.631   9.830  0.0772  0.8169 -0.9918
  942MPD2    H713836   3.966   0.681   9.842 -0.1065  1.1079 -0.8429
  943MPD2     C13837   3.060   0.026  10.252  0.4162 -0.0208  0.2250
  943MPD2    C113838   3.002   4.669  10.333  0.2581  0.0531  0.4053
  943MPD2    C213839   2.998   4.694  10.471 -0.1677 -0.2472  0.0433
  943MPD2    C313840   3.073   0.055  10.536  0.2190  0.2945 -0.8080
  943MPD2    C413841   3.135   0.147  10.449  0.2057 -0.3552 -0.2370
  943MPD2    C513842   3.132   0.130  10.312  0.4020  0.0518 -0.5492
  943MPD2     H13843   2.939   4.634  10.538  0.2330 -0.5211  0.1502
  943MPD2    H113844   3.192   0.227  10.494  0.0606  0.0480 -0.7665
  943MPD2    H213845   3.057   0.021  10.144  1.1946  0.4016  0.1868
  943MPD2    H313846   3.173   0.207  10.248  0.2116  2.8564  2.6950
  943MPD2     N13847   3.066   0.079  10.677 -0.7028  0.5351 -0.7300
  943MPD2    H513848   3.104   0.164  10.719 -0.5405 -0.3178  0.8436
  943MPD2    N113849   2.943   4.559  10.278  0.7929 -0.4781 -0.0091
  943MPD2    H713850   2.943   4.554  10.177 -0.6431  1.8703 -0.1262
  944MPD2     C13851   2.205   3.945  11.126  0.5557 -0.5141 -0.4387
  944MPD2    C113852   2.188   3.816  11.181  0.1755 -0.5863 -0.8286
  944MPD2    C213853   2.163   3.803  11.318  1.0412  0.1523  0.0723
  944MPD2    C313854   2.155   3.915  11.393  0.5231 -0.1756 -0.0868
  944MPD2    C413855   2.172   4.037  11.336 -0.1438  0.6653 -0.1117
  944MPD2    C513856   2.195   4.051  11.204  0.2890  0.3594  0.3443
  944MPD2     H13857   2.161   3.702  11.355  1.7486 -0.1710 -0.7728
  944MPD2    H113858   2.168   4.128  11.395 -1.9778  0.5585 -0.0738
  944MPD2    H213859   2.225   3.957  11.020  0.0497  0.2006 -0.4496
  944MPD2    H313860   2.219   4.147  11.159 -0.2930 -0.0137 -0.7540
  944MPD2     N13861   2.123   3.903  11.528  0.5801 -0.4067 -0.1886
  944MPD2    H513862   2.105   3.809  11.562  0.7964 -0.2277  0.4271
  944MPD2    N113863   2.200   3.699  11.092 -0.5211 -0.3079 -0.4486
  944MPD2    H713864   2.227   3.714  10.995  0.4095  1.5954  0.0900
    1TMC1    C113865   1.298   4.296  14.685 -0.6841  0.7539  0.4405
    1TMC1    C213866   1.235   4.298  14.559  0.0476 -0.2972  0.3218
    1TMC1    C313867   1.197   4.178  14.498 -0.0967 -0.3402 -0.2958
    1TMC1    C413868   1.321   4.177  14.748 -0.1063 -0.7106 -0.2818
    1TMC1    C513869   1.269   4.062  14.693  1.0576  0.7673  0.0136
    1TMC1    C613870   1.204   4.060  14.570 -0.0857 -0.3556  0.5079
    1TMC1     C13871   1.342   4.416  14.757 -0.6672 -0.0443 -0.9379
    1TMC1     O13872   1.434   4.403  14.839  0.3212  0.2472 -0.0832
    1TMC1     H13873   1.219   4.389  14.501 -0.9571  0.5787  1.9632
    1TMC1    H113874   1.390   4.170  14.831 -2.2195  0.6742  1.5940
    1TMC1    H213875   1.148   3.975  14.534 -0.0293  0.0547 -0.5502
    1TMC1    C713876   1.278   3.935  14.768  0.1069  0.5130 -0.0273
    1TMC1    C813877   1.101   4.183  14.388  0.6196  0.1765 -0.2349
    1TMC1    O113878   1.175   3.884  14.813  0.1457  0.2846  0.0718
    1TMC1    O213879   1.019   4.096  14.363  0.0860 -0.0884 -0.4329
    1TMC1    O313880   1.403   3.922  14.818 -0.1648  0.0932 -0.4571
    1TMC1    H313881   1.458   3.982  14.763  0.4311  0.7072  0.8158
    1TMC1    O513882   1.151   4.256  14.286  0.1649 -0.0511 -0.4189
    1TMC1    H513883   1.220   4.322  14.308 -0.9322  0.5426  1.2358
    2MPD2     C13884   1.284   0.174  14.848 -0.8416 -0.4237 -0.6674
    2MPD2    C113885   1.214   0.145  14.738 -0.2894 -0.5727 -1.1071
    2MPD2    C213886   1.207   0.011  14.703 -0.3826 -0.1186  0.4279
    2MPD2    C313887   1.283   4.655  14.769 -0.2768 -0.0912 -0.2609
    2MPD2    C413888   1.346   4.687  14.887 -0.9669  0.4979 -0.6138
    2MPD2    C513889   1.341   0.078  14.932  0.0269  0.5322  0.7591
    2MPD2     H13890   1.155   4.715  14.614 -0.0509  1.4874 -0.3844
    2MPD2    H113891   1.406   4.613  14.939 -0.6420  0.2917 -1.2888
    2MPD2    H213892   1.302   0.276  14.880 -1.4670 -0.6951  0.5535
    2MPD2    H313893   1.386   0.107  15.026 -1.8865  1.9314  1.2352
    2MPD2     N13894   1.276   4.529  14.711  0.1780  0.2853  0.3207
    2MPD2    H513895   1.219   4.520  14.628 -0.4854 -4.8688  1.3693
    2MPD2    N113896   1.168   0.260  14.657 -0.1848  0.3877 -0.9133
    2MPD2    H713897   1.175   0.351  14.702  1.9163 -1.6302  2.7815
    3TMC2    C113898   1.035   0.373  14.494 -0.7095  0.0744  0.3497
    3TMC2    C213899   1.060   0.489  14.559  0.0633  0.2776  0.3021
    3TMC2    C313900   0.995   0.600  14.509 -0.2702  0.0651 -0.4148
    3TMC2    C413901   0.969   0.370  14.375  0.7261  0.0822 -0.0602
    3TMC2    C513902   0.919   0.487  14.324 -1.0077 -0.0090  0.0769
    3TMC2    C613903   0.915   0.601  14.391 -0.0925 -0.3053  0.0094
    3TMC2     C13904   1.096   0.248  14.538  0.0299 -0.1680 -0.6360
    3TMC2     O13905   1.089   0.150  14.469 -0.5844  0.2579 -0.5560
    3TMC2     H13906   1.111   0.509  14.652 -1.2822  2.7172  0.5303
    3TMC2    H113907   0.966   0.275  14.323  1.7960  0.5137 -0.9282
    3TMC2    H213908   0.864   0.690  14.356 -1.5766 -0.5332  1.5772
    3TMC2    C713909   0.867   0.481  14.190  0.1845 -0.6946  0.2892
    3TMC2    C813910   0.995   0.724  14.585 -0.5570  1.1170  0.5620
    3TMC2    O113911   0.765   0.550  14.171  0.2068 -0.6417  0.2056
    3TMC2    O213912   0.912   0.809  14.585 -0.1145 -0.3708 -0.4833
    3TMC2    O513913   1.119   0.746  14.629  0.3190 -0.0725 -0.0256
    3TMC2    H513914   1.178   0.668  14.622  0.9401  0.4009 -0.1353
    4TMC2    C113915   0.432   0.835  13.529  0.7778  0.0515  0.7488
    4TMC2    C213916   0.425   0.786  13.401 -0.2379 -0.6090 -0.8906
    4TMC2    C313917   0.493   0.669  13.380 -0.9987 -0.1756 -0.4238
    4TMC2    C413918   0.497   0.775  13.634  0.2655 -0.4279 -0.1513
    4TMC2    C513919   0.571   0.661  13.606  0.5595 -0.3609 -0.4601
    4TMC2    C613920   0.573   0.608  13.482  0.4348 -0.0337  0.6797
    4TMC2     C13921   0.361   0.959  13.545  0.3902 -0.4248 -0.9464
    4TMC2     O13922   0.318   1.003  13.440  0.6636  0.1767  0.4000
    4TMC2     H13923   0.378   0.831  13.315 -1.3191  0.9285  0.5053
    4TMC2    H113924   0.498   0.819  13.733  3.6383  1.1049 -0.8612
    4TMC2    H213925   0.630   0.518  13.461  1.8379  1.0674 -0.2650
    4TMC2    C713926   0.647   0.611  13.716  0.8621 -0.1218  0.1633
    4TMC2    C813927   0.456   0.591  13.258 -0.2381 -0.1106  0.1016
    4TMC2    O113928   0.628   0.652  13.830 -0.2963 -0.5250  0.7112
    4TMC2    O213929   0.358   0.609  13.189 -0.0403  0.2018  0.3863
    4TMC2    O513930   0.562   0.511  13.239  0.4084  0.1775 -0.2142
    4TMC2    H513931   0.644   0.550  13.277  0.3444 -0.5274  0.6372
    5MPD2     C13932   0.061   1.258  13.817 -0.0048  0.1896  0.2708
    5MPD2    C113933   0.088   1.253  13.677 -0.8733  0.1002 -0.4944
    5MPD2    C213934   0.186   1.174  13.626 -0.2655 -0.4851  0.2156
    5MPD2    C313935   0.251   1.093  13.713 -0.3422 -0.1426  0.2958
    5MPD2    C413936   0.232   1.103  13.849  0.3688  0.8112  0.0547
    5MPD2    C513937   0.138   1.192  13.901  0.8932 -0.4946  0.4394
    5MPD2     H13938   0.194   1.170  13.518 -1.5300 -0.0310  0.1002
    5MPD2    H113939   0.285   1.037  13.918 -1.9697  0.1386  1.1919
    5MPD2    H213940   4.724   1.329  13.851  1.7824  1.7676  0.9179
    5MPD2    H313941   0.130   1.192  14.009 -3.7098 -1.3178  0.0989
    5MPD2     N13942   0.350   1.005  13.674 -0.3245 -0.6910 -0.4556
    5MPD2    H513943   0.400   0.951  13.744 -3.6489 -0.7436  1.8917
    5MPD2    N113944   4.727   1.323  13.605 -0.3606 -0.1122 -0.4409
    5MPD2    H713945   4.653   1.363  13.662  0.3774  1.8156 -0.8378
    6MPD1     C13946   4.424   3.193  13.350  0.0875  0.4470  0.2024
    6MPD1    C113947   4.507   3.119  13.260  0.1369 -0.0529  0.0109
    6MPD1    C213948   4.507   2.979  13.272 -0.1737 -0.1340 -0.2011
    6MPD1    C313949   4.434   2.915  13.370 -0.3035  0.0552 -0.0526
    6MPD1    C413950   4.366   2.991  13.456 -0.1931 -0.8376  0.2226
    6MPD1    C513951   4.366   3.125  13.448  0.4666  0.2466 -0.1157
    6MPD1     H13952   4.562   2.924  13.196 -0.6981 -0.8784 -0.0496
    6MPD1    H113953   4.311   2.954  13.542 -1.0348  0.3414  0.1959
    6MPD1    H213954   4.404   3.299  13.337  0.0588  0.6058  1.5674
    6MPD1    H313955   4.289   3.176  13.505  0.2149 -1.2750  0.9095
    6MPD1     N13956   4.424   2.778  13.387  0.1946 -0.1853  0.4717
    6MPD1    H513957   4.374   2.740  13.467 -0.7463  1.6376  0.7306
    6MPD1    N113958   4.561   3.182  13.150 -0.9120 -0.1606  0.1446
    6MPD1    H613959   4.647   3.135  13.123  0.8692  2.5928  1.0690
    6MPD1    H713960   4.577   3.281  13.164  3.2588 -0.7170 -0.6946
    7MPD2     C13961   4.389   2.107  13.798  0.8852  0.1201  0.0837
    7MPD2    C113962   4.361   2.083  13.661 -0.0945  0.1242  0.1069
    7MPD2    C213963   4.375   1.952  13.612 -0.1413  0.0954  0.0283
    7MPD2    C313964   4.395   1.849  13.696  0.0354  0.1261  0.0579
    7MPD2    C413965   4.426   1.881  13.827 -0.6002 -0.3289  0.3294
    7MPD2    C513966   4.422   2.004  13.879 -0.0905 -0.1535 -0.1916
    7MPD2     H13967   4.381   1.949  13.504 -0.3828 -0.5291  0.0305
    7MPD2    H113968   4.470   1.806  13.891  0.2804 -1.3635 -1.4906
    7MPD2    H213969   4.391   2.202  13.850 -0.7222  0.4048 -0.3709
    7MPD2    H313970   4.449   2.030  13.980 -0.3135 -1.2610  0.1569
    7MPD2     N13971   4.417   1.717  13.648  0.1883  0.7599 -0.1481
    7MPD2    H513972   4.452   1.642  13.707  0.5239  0.5398 -0.6310
    7MPD2    N113973   4.341   2.185  13.562  0.3174  0.1070 -0.2884
    7MPD2    H713974   4.340   2.148  13.468 -1.9443  0.9311 -0.5901
    8TMC3    C113975   4.415   1.553  13.473 -0.1519 -0.0906 -0.3186
    8TMC3    C213976   4.533   1.500  13.528 -0.0311  0.4267  0.7019
    8TMC3    C313977   4.609   1.430  13.431  0.7832  0.4485  0.7734
    8TMC3    C413978   4.377   1.537  13.337 -0.2332 -0.4594 -0.2557
    8TMC3    C513979   4.466   1.481  13.250  0.4718 -0.0293  0.0530
    8TMC3    C613980   4.575   1.416  13.297  0.0656 -0.2000  0.5926
    8TMC3     C13981   4.373   1.677  13.521 -0.6113 -0.7633  0.4804
    8TMC3     O13982   4.325   1.746  13.431  0.1809 -0.1369 -0.0856
    8TMC3     H13983   4.557   1.509  13.633  0.4246 -1.4878  0.7727
    8TMC3    H113984   4.285   1.576  13.295 -1.0524 -2.0556  0.0608
    8TMC3    H213985   4.647   1.379  13.225  2.6518  2.2534  1.9357
    8TMC3    C713986   4.502   1.572  13.151  0.4169  0.3539 -0.0706
    8TMC3    C813987   4.723   1.348  13.475 -0.2233 -0.2170 -0.0843
    8TMC3    O113988   4.575   1.540  13.057 -0.2453  0.1729  0.5433
    8TMC3    O213989   0.044   1.299  13.379 -0.1643  0.3474  0.2893
    9TMC3    C113990   4.398   2.553  13.312  0.2925  0.3702  0.0398
    9TMC3    C213991   4.350   2.492  13.199 -0.3073 -0.2328  0.2769
    9TMC3    C313992   4.293   2.364  13.216  0.0974  0.4467 -0.2854
    9TMC3    C413993   4.375   2.503  13.434 -0.4054 -0.4026  0.1875
    9TMC3    C513994   4.311   2.383  13.452 -0.3797  0.5155 -0.5128
    9TMC3    C613995   4.270   2.317  13.346 -0.0352  0.2212  0.6976
    9TMC3     C13996   4.456   2.686  13.292  0.3168 -0.2713  0.2976
    9TMC3     O13997   4.522   2.695  13.191  0.1635 -0.4282 -0.7018
    9TMC3     H13998   4.371   2.536  13.102 -2.0942  1.1089  0.5059
    9TMC3    H113999   4.418   2.550  13.521  0.3313 -0.4614 -0.1448
    9TMC3    H214000   4.207   2.230  13.365  0.0209 -0.5677 -2.7452
    9TMC3    C714001   4.320   2.318  13.582  0.0720  0.6819  0.9695
    9TMC3    C814002   4.308   2.266  13.104  0.5030  0.0655 -0.0350
    9TMC3    O114003   4.321   2.378  13.685 -0.2034  0.3622 -0.4493
    9TMC3    O214004   4.331   2.319  12.996 -0.1701 -0.0007  0.6744
   10MPD2     C14005   4.454   1.796  12.965  0.3305  0.3046  0.2625
   10MPD2    C114006   4.437   1.802  13.100 -0.5016 -0.2291 -0.4708
   10MPD2    C214007   4.400   1.923  13.155  0.1036 -0.0944 -0.4306
   10MPD2    C314008   4.368   2.030  13.074 -0.4835 -0.1018 -0.3253
   10MPD2    C414009   4.391   2.023  12.937  0.2003  1.6846  0.8765
   10MPD2    C514010   4.430   1.904  12.883  0.5210 -0.0599 -0.4099
   10MPD2     H14011   4.397   1.923  13.264 -0.9747  0.1187 -0.4600
   10MPD2    H114012   4.365   2.098  12.864 -1.4042 -1.6249 -1.9559
   10MPD2    H214013   4.473   1.702  12.914  0.1238  0.6615 -0.4753
   10MPD2    H314014   4.453   1.894  12.778 -1.6770  1.2547 -1.0287
   10MPD2     N14015   4.316   2.139  13.142 -0.1104 -0.1981 -0.2552
   10MPD2    H514016   4.300   2.116  13.240 -1.7022  0.6130 -0.3288
   10MPD2    N114017   4.457   1.701  13.186  0.2009  0.3922 -0.1780
   10MPD2    H714018   4.430   1.718  13.282 -0.8250 -1.1313 -0.1853
   11MPD2     C14019   1.059   0.348  13.896  0.0809 -0.2647  0.4788
   11MPD2    C114020   0.949   0.410  13.962 -0.0404  0.0947  0.0610
   11MPD2    C214021   0.852   0.473  13.887  0.7902  0.7597 -0.1017
   11MPD2    C314022   0.861   0.473  13.748  0.6695 -0.0248  0.4319
   11MPD2    C414023   0.963   0.409  13.685  0.4276  0.3172  0.1118
   11MPD2    C514024   1.069   0.357  13.755 -0.5290 -0.0262  0.0388
   11MPD2     H14025   0.767   0.516  13.939  0.6749  0.3774  0.0239
   11MPD2    H114026   0.991   0.419  13.581  2.4443  3.5665  0.9802
   11MPD2    H214027   1.132   0.295  13.955  0.3933  0.2070  0.5158
   11MPD2    H314028   1.155   0.319  13.702 -0.6216 -0.9271  0.5321
   11MPD2     N14029   0.757   0.544  13.672  0.3734  0.0532  0.0914
   11MPD2    H514030   0.755   0.532  13.571  2.0783 -1.2207  0.1964
   11MPD2    N114031   0.945   0.402  14.104 -0.8817  0.3241 -0.6464
   11MPD2    H714032   1.026   0.350  14.137 -1.3372  0.1822  0.2356
    1MPD1     C14033   4.218   1.341  17.113 -0.2293  0.4719 -0.4515
    1MPD1    C114034   4.250   1.420  17.005 -0.2321 -1.1497 -0.1305
    1MPD1    C214035   4.173   1.526  16.973 -0.4263 -0.1406 -0.0983
    1MPD1    C314036   4.063   1.565  17.055  0.7007 -1.0124  0.2464
    1MPD1    C414037   4.047   1.485  17.169 -0.5479  0.7352  0.1153
    1MPD1    C514038   4.125   1.378  17.204  0.2644 -0.1778  0.0237
    1MPD1     H14039   4.211   1.593  16.896  0.9428  0.0526  0.7546
    1MPD1    H114040   3.974   1.527  17.238 -3.5556 -0.7493 -2.1815
    1MPD1    H214041   4.271   1.247  17.127 -0.9522 -0.0104 -0.9266
    1MPD1    H314042   4.106   1.319  17.293 -1.2264 -1.1462 -0.9249
    1MPD1     N14043   3.985   1.680  17.038  0.5512  0.2919  0.4721
    1MPD1    H514044   3.905   1.699  17.098  0.3772 -0.1373  0.3761
    1MPD1    N114045   4.367   1.392  16.930 -0.0555  0.0689  0.0499
    1MPD1    H614046   4.400   1.296  16.930  1.5639  0.6351  1.0976
    1MPD1    H714047   4.358   1.426  16.835  1.1205  0.7365  0.1758
    2MPD1     C14048   3.792   2.189  16.211 -0.3444 -0.2104 -0.6362
    2MPD1    C114049   3.892   2.101  16.249  0.6594  0.6173 -0.2883
    2MPD1    C214050   3.908   2.073  16.391  0.2763  0.2896  0.7035
    2MPD1    C314051   3.819   2.128  16.484  0.7685 -0.0294 -0.1877
    2MPD1    C414052   3.723   2.215  16.441 -0.2808 -0.5585  0.0045
    2MPD1    C514053   3.708   2.247  16.308  0.3738 -1.0010 -0.4937
    2MPD1     H14054   3.989   2.011  16.427 -0.1494 -0.8184 -0.2047
    2MPD1    H114055   3.647   2.256  16.507 -1.4017  0.1898 -1.7246
    2MPD1    H214056   3.783   2.230  16.111  1.1446  0.2838 -0.5550
    2MPD1    H314057   3.627   2.309  16.270 -0.5261 -1.4978  0.6093
    2MPD1     N14058   3.837   2.085  16.619  0.2799  0.0507 -0.2447
    2MPD1    H514059   3.921   2.032  16.637 -0.1991 -0.6247  0.0181
    2MPD1    N114060   3.977   2.058  16.148  0.1935  0.3213  0.7230
    2MPD1    H614061   4.022   1.971  16.179  0.3532 -0.1932 -0.9640
    2MPD1    H714062   3.931   2.053  16.058 -0.3439  2.6508  0.8843
    3TMC3    C114063   3.804   2.052  16.845 -0.2764  0.5864 -0.3038
    3TMC3    C214064   3.766   2.106  16.968 -0.0368  0.0522  1.1105
    3TMC3    C314065   3.812   2.053  17.080  0.0640 -0.5382  0.5074
    3TMC3    C414066   3.873   1.935  16.836 -0.3177  0.3388  0.0075
    3TMC3    C514067   3.915   1.883  16.949  0.4021  0.1676 -0.2117
    3TMC3    C614068   3.892   1.943  17.068  0.4875  0.1604  0.3885
    3TMC3     C14069   3.763   2.130  16.728  0.4500  0.0195  0.0440
    3TMC3     O14070   3.690   2.226  16.746  0.1237 -0.0384 -0.5465
    3TMC3     H14071   3.707   2.196  16.979  1.2542  1.2462 -1.6857
    3TMC3    H114072   3.885   1.887  16.739 -0.4293  2.3086 -0.9807
    3TMC3    H214073   3.929   1.896  17.159  2.2022 -0.9693 -0.9021
    3TMC3    C714074   4.000   1.768  16.936 -0.1227  0.9015 -0.0450
    3TMC3    C814075   3.728   2.062  17.198  0.3904 -0.5112 -0.8169
    3TMC3    O114076   4.066   1.760  16.833 -0.2241  0.2127 -0.6028
    3TMC3    O214077   3.621   2.116  17.179 -0.5637  0.2637 -0.4289
    4MPD1     C14078   3.603   1.919  17.675  0.1195  0.9337  0.5329
    4MPD1    C114079   3.731   1.883  17.658 -0.2456 -0.3896 -0.2580
    4MPD1    C214080   3.790   1.907  17.533  0.3917  0.1283 -0.7501
    4MPD1    C314081   3.724   1.972  17.432 -0.7688  0.6392 -0.0420
    4MPD1    C414082   3.598   2.018  17.460  0.4613 -0.3047  0.1973
    4MPD1    C514083   3.537   1.991  17.576  0.3663  0.2384 -0.0128
    4MPD1     H14084   3.895   1.882  17.528  0.8187  2.2133 -2.0176
    4MPD1    H114085   3.542   2.079  17.390  1.2940  0.4349  0.1800
    4MPD1    H214086   3.552   1.895   0.018  0.6335 -1.4530  0.1903
    4MPD1    H314087   3.435   2.025  17.591  0.5278  0.8624 -0.3602
    4MPD1     N14088   3.787   2.006  17.309 -0.6817 -0.1904  0.0345
    4MPD1    H514089   3.884   1.975  17.304  0.2912  2.3729  3.1460
    4MPD1    N114090   3.795   1.820   0.013  0.7346 -0.3001 -0.0926
    4MPD1    H614091   3.761   1.838   0.107 -2.7101 -2.0002 -0.9841
    4MPD1    H714092   3.895   1.837   0.019  0.6775 -0.1041  0.2988
    1TCq1    O114093   3.757   1.812  11.497 -0.3974  0.7806 -0.0145
    1TCq1    C114094   3.851   1.904  11.461 -0.0968 -0.0675 -0.3143
    1TCq1    O214095   3.957   1.883  11.404 -0.0312  0.9319  0.7843
    1TCq1    C214096   3.771   2.026  11.471 -0.3954  0.2057  0.3672
    1TCq1    C314097   3.705   2.049  11.590  0.3245  0.2674  0.7506
    1TCq1    C414098   3.651   2.176  11.604 -0.2196  0.2675 -0.8646
    1TCq1    C514099   3.679   2.282  11.525  0.9108  0.2496  0.3275
    1TCq1    C614100   3.767   2.257  11.424  0.6000  0.0498  0.1344
    1TCq1    C714101   3.822   2.129  11.402 -0.1733 -0.1333 -0.2398
    1TCq1    C814102   3.806   2.365  11.336 -0.5053 -0.6378 -0.8763
    1TCq1    O414103   3.721   2.452  11.318  0.0302  0.2606 -0.9958
    1TCq1    C914104   3.585   2.198  11.728  0.8634 -0.0092 -0.8171
    1TCq1    O514105   3.591   2.116  11.826  0.4017  0.6018  0.1878
    1TCq1    O614106   3.551   2.313  11.753  0.6878 -0.3379 -0.2380
    1TCq1    H114107   3.664   1.841  11.500 -1.1838 -1.9525  2.9299
    1TCq1    H214108   3.649   1.975  11.645  0.0652 -0.1353 -0.0603
    1TCq1    H314109   3.643   2.381  11.553 -0.8338 -0.6047  1.0734
    1TCq1    H414110   3.887   2.112  11.317  1.8681  0.7222  1.1374
    2MPD1     C14111   4.040   2.540  10.919 -0.7600 -0.9103 -0.5667
    2MPD1    C114112   4.076   2.409  10.936  0.1664  0.4633  0.3991
    2MPD1    C214113   4.034   2.351  11.051 -0.2895 -0.5789 -0.2635
    2MPD1    C314114   3.944   2.404  11.137  0.1516  0.6177  0.3113
    2MPD1    C414115   3.893   2.532  11.108  0.4655 -0.4555 -0.3662
    2MPD1    C514116   3.941   2.587  10.995  0.4256  0.3152 -0.3612
    2MPD1     H14117   4.082   2.256  11.074  0.4617 -0.8667 -3.0223
    2MPD1    H114118   3.823   2.587  11.170  2.5377  0.3573  1.2533
    2MPD1    H214119   4.076   2.600  10.836 -0.5252 -1.5753 -0.9461
    2MPD1    H314120   3.908   2.688  10.973  1.0788  0.9650  1.6152
    2MPD1     N14121   3.914   2.336  11.256 -0.2393  0.1605  1.1073
    2MPD1    H514122   3.974   2.260  11.288 -0.4540  0.5826  2.4947
    2MPD1    N114123   4.187   2.348  10.867  0.0514 -0.0101 -0.2489
    2MPD1    H614124   4.191   2.389  10.774 -0.6884 -2.1402 -1.2048
    2MPD1    H714125   4.187   2.247  10.856 -1.1706 -0.1916  1.4314
    1TMC1    C114126   2.006   0.954   1.580 -0.0954  0.4965  0.1984
    1TMC1    C214127   1.957   1.059   1.501 -0.1118  0.1565 -0.7000
    1TMC1    C314128   2.015   1.184   1.511  0.1074  0.1033 -0.0307
    1TMC1    C414129   2.112   0.972   1.669  0.2928 -0.1626 -0.7589
    1TMC1    C514130   2.164   1.096   1.674  0.5427 -0.2613 -0.3922
    1TMC1    C614131   2.114   1.207   1.600  0.1380  0.2368 -0.2052
    1TMC1     C14132   1.964   0.819   1.548  0.3136 -0.2351  0.3972
    1TMC1     O14133   1.883   0.807   1.456  0.1307  0.5539  0.5341
    1TMC1     H14134   1.884   1.052   1.421  1.8931 -0.5032 -2.4633
    1TMC1    H114135   2.133   0.906   1.753 -2.3636 -0.5320 -0.3842
    1TMC1    H214136   2.171   1.299   1.605  1.3840 -0.3855 -2.8651
    1TMC1    C714137   2.274   1.110   1.773 -0.0591 -0.4997 -0.2170
    1TMC1    C814138   1.999   1.271   1.400  0.7478 -0.5049  0.6516
    1TMC1    O114139   2.356   1.025   1.804 -0.0345  0.1014  0.4848
    1TMC1    O214140   2.090   1.338   1.353 -0.3124  0.3969  0.0606
    1TMC1    O314141   2.272   1.241   1.820  0.3351 -0.9853  0.0025
    1TMC1    H314142   2.192   1.291   1.794 -1.3865 -3.9924 -0.4937
    1TMC1    O514143   1.878   1.293   1.367 -0.3923  0.5409 -0.3280
    1TMC1    H514144   1.815   1.254   1.431 -2.4929  3.3255 -0.6876
    2MPD1     C14145   2.069   0.333   1.464  0.3195 -0.5806  0.2218
    2MPD1    C114146   2.185   0.391   1.507  1.0825  0.3223 -0.1972
    2MPD1    C214147   2.174   0.519   1.558  0.2681  0.2297  0.1509
    2MPD1    C314148   2.055   0.589   1.549 -0.3925  0.8882 -0.6020
    2MPD1    C414149   1.938   0.523   1.498 -0.2384  0.3472 -0.1157
    2MPD1    C514150   1.947   0.395   1.461 -0.3733 -0.3703 -0.1343
    2MPD1     H14151   2.256   0.572   1.604 -2.1354  1.5298  2.9877
    2MPD1    H114152   1.846   0.577   1.478 -1.1723 -1.4946 -0.7198
    2MPD1    H214153   2.056   0.230   1.431 -0.8609 -0.2803 -0.2689
    2MPD1    H314154   1.871   0.328   1.422 -1.9234 -0.5685  3.2345
    2MPD1     N14155   2.057   0.728   1.589  0.5831  0.1371 -0.0505
    2MPD1    H514156   2.140   0.762   1.636  1.1987  0.4349 -1.3441
    2MPD1    N114157   2.304   0.320   1.508  0.5656 -0.4537  0.7935
    2MPD1    H614158   2.312   0.254   1.432  1.5198  0.1498  0.3705
    2MPD1    H714159   2.385   0.382   1.510 -0.0860  0.3991  0.5491
    1MPD1     C14160   0.401   1.477  11.733 -0.0409  0.6021  0.0014
    1MPD1    C114161   0.335   1.471  11.852 -0.3453  0.0480  1.2012
    1MPD1    C214162   0.406   1.470  11.970  0.0530 -0.3807 -0.6088
    1MPD1    C314163   0.544   1.486  11.972  0.3500 -0.0171 -0.2160
    1MPD1    C414164   0.617   1.495  11.849  0.0525 -0.1706  0.0364
    1MPD1    C514165   0.541   1.489  11.737 -0.5226 -0.0683  0.6424
    1MPD1     H14166   0.362   1.470  12.069 -0.5487 -2.4898 -0.8728
    1MPD1    H114167   0.724   1.492  11.831  0.0811  2.3290 -0.2720
    1MPD1    H214168   0.354   1.471  11.635 -2.2323  1.9507  0.9980
    1MPD1    H314169   0.594   1.487  11.643 -0.3655 -1.5805  0.7544
    1MPD1     N14170   0.604   1.498  12.094  0.6111 -0.6380 -0.1820
    1MPD1    H514171   0.538   1.481  12.170  0.3235  1.3643  0.0134
    1MPD1    N114172   0.194   1.480  11.847 -0.8275  0.8926  0.4898
    1MPD1    H614173   0.153   1.449  11.759 -1.4988  1.5775  0.5742
    1MPD1    H714174   0.155   1.429  11.926 -1.1669 -0.6220 -0.6411
    2MPD1     C14175   0.378   2.255  11.525  0.1364  0.0013 -0.2731
    2MPD1    C114176   0.416   2.362  11.444  0.2159  0.2983  1.0551
    2MPD1    C214177   0.546   2.358  11.391 -0.3523  0.4727  0.2858
    2MPD1    C314178   0.637   2.257  11.428 -0.3348 -0.0455  0.0900
    2MPD1    C414179   0.598   2.157  11.517 -0.6842  0.1239  0.2550
    2MPD1    C514180   0.462   2.154  11.558 -0.0087  0.2607 -0.0092
    2MPD1     H14181   0.575   2.433  11.319 -0.5529 -0.2209 -0.5272
    2MPD1    H114182   0.659   2.076  11.556  2.2187  1.2693 -1.8983
    2MPD1    H214183   0.275   2.233  11.553  0.6468 -1.0873  0.7659
    2MPD1    H314184   0.435   2.073  11.624  3.2045  0.8357  2.0196
    2MPD1     N14185   0.768   2.250  11.386  0.0528  0.2575  0.2872
    2MPD1    H514186   0.830   2.189  11.438  0.2818 -0.9760 -1.4354
    2MPD1    N114187   0.326   2.456  11.384 -0.7390  0.0929  0.4082
    2MPD1    H614188   0.371   2.547  11.383 -0.4010 -0.0868 -0.7728
    2MPD1    H714189   0.239   2.465  11.436 -0.4179 -0.4979  1.0412
    3MPD1     C14190   1.252   2.548  10.546 -0.1766 -0.1434  0.2445
    3MPD1    C114191   1.120   2.564  10.581  0.5355 -0.3100 -0.6079
    3MPD1    C214192   1.081   2.521  10.710 -0.4927 -0.7505 -0.2098
    3MPD1    C314193   1.174   2.474  10.799 -0.0404  0.1055 -1.0396
    3MPD1    C414194   1.309   2.476  10.766 -0.0586 -0.3431 -0.8735
    3MPD1    C514195   1.335   2.512  10.637 -0.2818 -0.0237 -0.2576
    3MPD1     H14196   0.976   2.525  10.739 -0.3834  1.4981 -0.1681
    3MPD1    H114197   1.392   2.440  10.827 -1.3150  0.5187  1.3186
    3MPD1    H214198   1.295   2.538  10.447  1.3296 -2.6761  1.1325
    3MPD1    H314199   1.430   2.481  10.596 -1.3927  1.6385 -4.0915
    3MPD1     N14200   1.142   2.423  10.934 -1.2649  0.3303 -0.5597
    3MPD1    H514201   1.048   2.443  10.967 -0.9306 -1.1332  1.2370
    3MPD1    N114202   1.033   2.592  10.478  0.2588  0.0393  0.0623
    3MPD1    H614203   0.942   2.623  10.511 -0.4242 -0.1270 -1.6974
    3MPD1    H714204   1.069   2.656  10.408 -1.5430  2.7086  1.5726
    4MPD2     C14205   0.773   2.099  12.470 -0.3819 -0.0632 -0.6644
    4MPD2    C114206   0.876   2.004  12.456 -0.2470 -0.4095  1.1245
    4MPD2    C214207   1.008   2.049  12.439  0.4087  0.0306 -0.2839
    4MPD2    C314208   1.034   2.180  12.429 -0.2909  0.3323 -0.6066
    4MPD2    C414209   0.934   2.277  12.440  0.2967 -0.2413  0.5187
    4MPD2    C514210   0.806   2.232  12.457 -0.4477 -0.7008 -0.2142
    4MPD2     H14211   1.092   1.980  12.436  0.2488 -0.1389 -0.8640
    4MPD2    H114212   0.945   2.384  12.428  2.4398 -0.4355  0.7869
    4MPD2    H214213   0.671   2.075  12.497  0.3502 -1.2381  1.0495
    4MPD2    H314214   0.725   2.304  12.462 -0.7755 -1.0587 -0.3544
    4MPD2     N14215   1.169   2.209  12.410  0.4027 -0.3327 -0.9420
    4MPD2    H514216   1.237   2.135  12.397  1.9614  0.8527  0.4735
    4MPD2    N114217   0.855   1.868  12.470 -0.1923 -0.2638 -0.4147
    4MPD2    H714218   0.939   1.812  12.478 -1.0633 -1.5152  0.0743
    5TMC3    C114219   0.754   1.662  12.432  0.0139  0.3583  0.4753
    5TMC3    C214220   0.698   1.611  12.316  0.7904 -0.1853 -0.1571
    5TMC3    C314221   0.766   1.503  12.257  0.2236 -0.3144  0.1260
    5TMC3    C414222   0.870   1.614  12.479  0.4299 -0.4599  0.1190
    5TMC3    C514223   0.941   1.531  12.407 -0.6636 -0.0551  0.3214
    5TMC3    C614224   0.892   1.472  12.295 -0.0262  0.5186 -0.6444
    5TMC3     C14225   0.733   1.804  12.448 -0.0301 -0.2077 -0.2677
    5TMC3     O14226   0.620   1.853  12.443 -0.4679  0.5015  0.1856
    5TMC3     H14227   0.606   1.658  12.283  0.1138 -2.2650 -1.2026
    5TMC3    H114228   0.902   1.641  12.579 -0.4977  0.2370  0.2302
    5TMC3    H214229   0.953   1.409  12.231 -0.9063 -1.8943  0.8792
    5TMC3    C714230   1.079   1.584  12.414  0.0150  0.2513 -0.2075
    5TMC3    C814231   0.740   1.511  12.122 -0.1461 -0.2574 -0.9189
    5TMC3    O114232   1.100   1.690  12.475  0.0138 -0.1089  0.1936
    5TMC3    O214233   0.836   1.536  12.055 -0.0351 -0.5947 -0.0432
    6TMC3    C114234   0.966   2.319  11.278  0.4889  0.2803  0.0970
    6TMC3    C214235   1.023   2.322  11.150  0.1672  0.1640  0.0090
    6TMC3    C314236   1.160   2.332  11.149 -0.0716 -0.5350  0.1211
    6TMC3    C414237   1.036   2.331  11.390 -0.1927 -0.3310 -0.3347
    6TMC3    C514238   1.175   2.321  11.388 -0.2034  0.7742  0.2561
    6TMC3    C614239   1.237   2.316  11.264  0.1235 -0.1748 -0.1568
    6TMC3     C14240   0.821   2.312  11.276 -0.0357 -0.5651 -0.5837
    6TMC3     O14241   0.750   2.378  11.196 -0.2975 -0.4918 -0.2107
    6TMC3     H14242   0.968   2.317  11.057 -0.9617 -0.5446  0.7036
    6TMC3    H114243   0.997   2.326  11.491  2.0607  1.3858  0.6186
    6TMC3    H214244   1.344   2.334  11.257 -0.2646  1.6600 -1.5165
    6TMC3    C714245   1.249   2.299  11.513  0.3212 -0.3388  0.4250
    6TMC3    C814246   1.229   2.393  11.033 -0.0294 -0.1101  0.5621
    6TMC3    O114247   1.199   2.332  11.619  0.6828 -0.6853 -0.2207
    6TMC3    O214248   1.353   2.398  11.041 -0.2933  0.3863 -0.2780
    7MPD2     C14249   1.509   1.672  12.160  0.1726  0.4004 -0.0383
    7MPD2    C114250   1.441   1.753  12.247  0.2415  0.7074  0.1051
    7MPD2    C214251   1.332   1.707  12.311  0.0494 -1.0648 -0.5168
    7MPD2    C314252   1.293   1.576  12.283 -0.8595 -0.2392  0.3144
    7MPD2    C414253   1.358   1.494  12.193  0.1743  0.1431  0.1716
    7MPD2    C514254   1.467   1.542  12.142  0.2640 -0.4873  0.5873
    7MPD2     H14255   1.265   1.776  12.361  3.7058  2.3418 -0.3877
    7MPD2    H114256   1.321   1.397  12.161  0.1497  0.0449  0.5029
    7MPD2    H214257   1.602   1.697  12.110  1.3362 -0.3377  1.7407
    7MPD2    H314258   1.529   1.476  12.083  1.0867  3.1973 -2.6318
    7MPD2     N14259   1.171   1.520  12.331  0.4599  0.0406 -0.8521
    7MPD2    H514260   1.157   1.423  12.302 -2.8764  0.3806 -0.4254
    7MPD2    N114261   1.484   1.887  12.260  0.4506 -0.0131  0.3333
    7MPD2    H714262   1.551   1.923  12.192 -1.3210  1.8429 -0.4384
    8TMC3    C114263   1.478   2.113  12.327  0.6229  0.2532 -0.1606
    8TMC3    C214264   1.517   2.143  12.199  0.4592  0.9189  0.4685
    8TMC3    C314265   1.481   2.268  12.149  0.5655  0.5468  0.3995
    8TMC3    C414266   1.425   2.211  12.413  0.4347 -0.0973 -0.3020
    8TMC3    C514267   1.366   2.323  12.353  0.1770 -0.4254 -0.2247
    8TMC3    C614268   1.391   2.346  12.222  0.9141  0.2194  0.3526
    8TMC3     C14269   1.435   1.972  12.353 -0.0732  0.3820 -0.3789
    8TMC3     O14270   1.359   1.949  12.450 -0.0427  0.7357 -0.1846
    8TMC3     H14271   1.576   2.074  12.141 -1.1045 -0.9196  1.0700
    8TMC3    H114272   1.392   2.173  12.509 -0.0707 -2.0603 -1.2369
    8TMC3    H214273   1.339   2.427  12.171 -2.8509 -1.2652  1.8188
    8TMC3    C714274   1.223   2.330  12.380  0.7543  0.1265 -0.3387
    8TMC3    C814275   1.476   2.286  12.003 -0.1860  0.1138  0.2261
    8TMC3    O114276   1.167   2.431  12.344  0.1351  0.1746 -0.0455
    8TMC3    O214277   1.390   2.365  11.974 -0.2066  0.1663  0.1245
    9MPD2     C14278   1.694   2.156  11.732 -0.2495 -0.8673  0.2455
    9MPD2    C114279   1.580   2.204  11.790 -0.2780  0.3266 -0.3242
    9MPD2    C214280   1.467   2.236  11.715  0.5446  0.2016  0.1875
    9MPD2    C314281   1.476   2.216  11.574  0.4282  0.2371  0.0316
    9MPD2    C414282   1.591   2.165  11.516 -0.0444  0.0595  0.1236
    9MPD2    C514283   1.696   2.140  11.594 -0.4619  0.8565 -0.4131
    9MPD2     H14284   1.372   2.259  11.762 -0.1716  0.0881 -1.1893
    9MPD2    H114285   1.596   2.116  11.419  0.0363  2.1469 -0.9114
    9MPD2    H214286   1.779   2.127  11.792 -2.3643 -2.0228  2.6910
    9MPD2    H314287   1.774   2.080  11.548 -1.3584  1.4024 -2.6334
    9MPD2     N14288   1.368   2.238  11.482  0.0507  0.0240  0.0796
    9MPD2    H514289   1.385   2.206  11.387 -0.9977  0.6206 -0.3098
    9MPD2    N114290   1.576   2.225  11.931  0.8593 -0.5774 -0.3676
    9MPD2    H714291   1.658   2.205  11.988  1.3346  0.1939 -0.7736
    1MPD1     C14292   0.900   3.948   0.230  0.3157  0.0817 -0.4863
    1MPD1    C114293   0.917   4.079   0.272 -0.5177 -0.3810 -0.6987
    1MPD1    C214294   0.834   4.183   0.234  0.2461  0.1612 -0.0462
    1MPD1    C314295   0.728   4.158   0.145 -0.0756  0.3838  0.5464
    1MPD1    C414296   0.710   4.031   0.097 -0.0369  0.2333  1.0788
    1MPD1    C514297   0.797   3.933   0.137 -0.3898  0.9012  0.5540
    1MPD1     H14298   0.853   4.283   0.271  0.2485  0.0927  0.1333
    1MPD1    H114299   0.633   4.010   0.024  0.1878  3.1260 -0.0177
    1MPD1    H214300   0.949   3.856   0.260  3.5784  1.8098 -0.5293
    1MPD1    H314301   0.772   3.841   0.085 -1.3486  1.4182  0.0933
    1MPD1     N14302   0.633   4.258   0.101  0.2984  0.1297 -0.4525
    1MPD1    H514303   0.573   4.236   0.022 -0.7623  1.4992 -0.0344
    1MPD1    N114304   1.018   4.094   0.372 -0.3988 -0.0730  0.3586
    1MPD1    H614305   1.073   4.180   0.374 -0.8252  0.1380  3.3111
    1MPD1    H714306   1.083   4.015   0.371 -1.5186 -0.9927 -0.1972
    2TMC2    C114307   0.421   4.663   0.091 -0.0052  0.0343 -0.4675
    2TMC2    C214308   0.296   4.612   0.073 -0.7558  0.0125 -0.4360
    2TMC2    C314309   0.287   4.476   0.095  0.7656  0.0036 -0.0260
    2TMC2    C414310   0.530   4.580   0.087 -0.2088  0.3921 -0.1468
    2TMC2    C514311   0.514   4.445   0.101  0.6021  0.0743 -0.5908
    2TMC2    C614312   0.391   4.388   0.117  0.1438 -0.0211 -0.8603
    2TMC2     C14313   0.454   0.069   0.095 -0.2646 -1.0798  0.4309
    2TMC2     O14314   0.559   0.105   0.147  0.2131 -0.2199 -0.0427
    2TMC2     H14315   0.210   4.672   0.045  0.6902  0.2448 -4.4863
    2TMC2    H114316   0.627   4.628   0.086  0.6458 -1.2880  1.6620
    2TMC2    H214317   0.380   4.282   0.139  2.6291 -0.0182  0.3899
    2TMC2    C714318   0.629   4.384   0.157  0.6908  0.0111  0.1171
    2TMC2    C814319   0.163   4.434   0.136 -0.0010  0.0074  0.3653
    2TMC2    O114320   0.687   4.444   0.246 -0.4396 -0.5636  0.2326
    2TMC2    O214321   0.080   4.494   0.197 -0.1029  0.0355 -0.3608
    2TMC2    O514322   0.147   4.320   0.064 -0.3626  0.1762  0.1495
    2TMC2    H514323   0.225   4.300   0.008  1.3318  4.6019  0.9563
    3MPD1     C14324   0.362   0.562   0.020  0.4498 -0.1130 -0.1285
    3MPD1    C114325   0.289   0.496  17.675 -0.5590  0.0521  0.2926
    3MPD1    C214326   0.297   0.360  17.676 -0.2822 -0.2907  0.0241
    3MPD1    C314327   0.356   0.290   0.030 -0.3686  0.0801  0.3985
    3MPD1    C414328   0.432   0.358   0.123  0.3308 -0.6784 -0.3751
    3MPD1    C514329   0.432   0.491   0.114 -0.2023 -0.1739  0.2218
    3MPD1     H14330   0.264   0.297  17.594  1.9253 -0.7429 -0.5113
    3MPD1    H114331   0.500   0.314   0.195 -1.4408 -2.3798  0.2603
    3MPD1    H214332   0.365   0.670   0.026  0.2476 -0.0199 -1.6390
    3MPD1    H314333   0.495   0.530   0.193 -0.2916  0.1083  0.1538
    3MPD1     N14334   0.356   0.144   0.037 -0.2916  0.8073 -0.3524
    3MPD1    H514335   0.284   0.110  17.724 -0.1022  0.6504 -0.4855
    3MPD1    N114336   0.246   0.565  17.558 -0.2849 -0.4206 -0.5623
    3MPD1    H614337   0.255   0.664  17.579 -0.8831 -0.6993  1.0515
    3MPD1    H714338   0.154   0.537  17.525 -0.9910  1.6249 -0.3045
    1TMC1    C114339   4.139   0.151  13.539 -0.6413 -0.3857 -0.1656
    1TMC1    C214340   4.154   0.244  13.434 -0.9135  0.0555  0.1517
    1TMC1    C314341   4.087   0.215  13.315  0.4735  0.1604 -0.3171
    1TMC1    C414342   4.061   0.036  13.522 -0.3457 -0.4202 -0.2158
    1TMC1    C514343   4.015   0.011  13.396  0.6357  0.5667 -0.2887
    1TMC1    C614344   4.025   0.095  13.283 -0.2441  0.2384 -0.1266
    1TMC1     C14345   4.224   0.170  13.652  0.0857  0.4471  0.2105
    1TMC1     O14346   4.309   0.251  13.630 -0.2170 -0.2331 -0.2300
    1TMC1     H14347   4.190   0.345  13.451  0.5587 -0.6537  1.2203
    1TMC1    H114348   4.058   4.695  13.597  2.7531 -0.5177 -0.1991
    1TMC1    H214349   3.991   0.070  13.183  1.8264 -1.4617 -0.4107
    1TMC1    C714350   3.986   4.607  13.371  0.2284  0.0452 -1.0426
    1TMC1    C814351   4.055   0.306  13.218  0.1346 -0.0812 -0.4406
    1TMC1    O114352   3.909   4.580  13.283 -0.1422  0.2168  0.0381
    1TMC1    O214353   3.948   0.296  13.164  0.3076 -0.3735  0.5674
    1TMC1    O314354   4.092   4.530  13.397 -0.2050 -0.1312  0.3104
    1TMC1    H314355   4.158   4.580  13.449  0.5099  2.1216 -2.7327
    1TMC1    O514356   4.140   0.416  13.224  0.3792 -0.3642  0.1185
    1TMC1    H514357   4.223   0.384  13.265  0.4276 -0.2879  0.0798
    2MPD2     C14358   4.389   0.169  13.897  0.0790 -0.6044  0.5645
    2MPD2    C114359   4.282   0.078  13.879  0.5504 -0.2392  0.2218
    2MPD2    C214360   4.265   4.714  13.973 -0.3082  0.8128  0.6961
    2MPD2    C314361   4.345   4.709  14.084  0.3327  0.3007 -0.0234
    2MPD2    C414362   4.445   0.056  14.097  0.3942  0.4661  0.0108
    2MPD2    C514363   4.466   0.153  14.011  0.5401  0.0405 -0.1525
    2MPD2     H14364   4.187   4.642  13.952  2.6227 -1.8197 -1.1709
    2MPD2    H114365   4.511   0.053  14.183 -1.0985  0.2804  1.1525
    2MPD2    H214366   4.414   0.249  13.828 -0.8269 -3.5377 -3.2002
    2MPD2    H314367   4.545   0.227  14.023  0.9322 -0.2169 -1.0645
    2MPD2     N14368   4.312   4.612  14.179  0.7856 -0.3126  0.3139
    2MPD2    H514369   4.249   4.538  14.153 -0.3008  0.2858  1.2309
    2MPD2    N114370   4.203   0.088  13.763 -0.0405 -0.1571 -0.4959
    2MPD2    H714371   4.123   0.027  13.750 -1.6221  1.7015  0.4386
    3TCq1    O114372   4.329   4.472  14.773  0.9758  0.3852 -0.5380
    3TCq1    C114373   4.340   4.350  14.717 -0.1981 -0.4595 -0.4217
    3TCq1    O214374   4.356   4.238  14.766  0.2378  0.3239 -0.3952
    3TCq1    C214375   4.301   4.374  14.579  0.1186 -0.2302 -0.3018
    3TCq1    C314376   4.219   4.279  14.523 -0.0278 -0.3604  0.1283
    3TCq1    C414377   4.188   4.289  14.389 -0.2600 -0.1861  0.2246
    3TCq1    C514378   4.252   4.377  14.306  0.0866 -0.3619  0.4967
    3TCq1    C614379   4.344   4.462  14.367  1.3348  0.7459  0.2045
    3TCq1    C714380   4.380   4.451  14.496  0.3716 -0.6551  0.5899
    3TCq1    C814381   4.368   4.598  14.304  0.1880  0.1905  0.3485
    3TCq1    O414382   4.431   4.686  14.364  0.0565  0.1735  0.5238
    3TCq1    C914383   4.071   4.219  14.333 -0.1345 -0.1672 -0.2401
    3TCq1    O514384   4.034   4.253  14.216  0.3258 -0.3339  0.4826
    3TCq1    O614385   4.042   4.117  14.399  0.8619 -0.4099 -0.0737
    3TCq1    H114386   4.304   4.547  14.715 -0.5103  0.1062 -0.2656
    3TCq1    H214387   4.161   4.207  14.580  2.0585 -0.7796  1.7390
    3TCq1    H314388   4.215   4.392  14.206  1.1560  1.9356  0.4411
    3TCq1    H414389   4.443   4.524  14.546  0.3141  1.9113 -3.1469
    1MPD2     C14390   3.468   0.987  14.828 -0.0909 -0.1927  0.5467
    1MPD2    C114391   3.372   0.892  14.842 -0.1958 -0.2349 -0.5670
    1MPD2    C214392   3.421   0.766  14.878  0.0174  0.6804  0.8226
    1MPD2    C314393   3.549   0.747  14.918  0.2165 -0.8983  0.3214
    1MPD2    C414394   3.642   0.849  14.911 -0.7197  0.0783  0.2755
    1MPD2    C514395   3.595   0.968  14.865  0.6821  0.4652 -0.1024
    1MPD2     H14396   3.356   0.682  14.898  3.0887 -2.5154 -2.8323
    1MPD2    H114397   3.749   0.837  14.922 -0.3260  1.1997 -2.2737
    1MPD2    H214398   3.437   1.089  14.804 -2.4632 -1.1965 -0.7196
    1MPD2    H314399   3.670   1.046  14.853  2.2269 -0.8077  1.1243
    1MPD2     N14400   3.606   0.622  14.954  0.2423  0.2089 -0.3075
    1MPD2    H514401   3.706   0.621  14.972  0.0369  1.3300  0.8817
    1MPD2    N114402   3.232   0.927  14.833 -0.2962  0.1853 -0.6008
    1MPD2    H714403   3.212   1.026  14.824 -0.2800  0.3733  1.4258
    2TMC3    C114404   3.006   0.895  14.883  0.7834 -0.1273  0.0637
    2TMC3    C214405   2.926   0.799  14.923  0.5906  0.3071 -0.0340
    2TMC3    C314406   2.825   0.825  15.014  0.1094  0.4365 -1.1647
    2TMC3    C414407   2.991   1.028  14.922  0.0878  0.6888 -0.0915
    2TMC3    C514408   2.893   1.047  15.016 -0.1436  0.0051  0.0646
    2TMC3    C614409   2.805   0.953  15.061  0.3048  0.0710  1.0037
    2TMC3     C14410   3.134   0.832  14.853 -0.6172 -0.1341  0.3584
    2TMC3     O14411   3.136   0.711  14.871  0.2087  0.0535 -0.6830
    2TMC3     H14412   2.923   0.704  14.871 -1.1924  1.3854 -1.8722
    2TMC3    H114413   3.039   1.112  14.872  0.9438  1.7484  2.5195
    2TMC3    H214414   2.729   0.978  15.133  0.7441 -0.2934  1.5897
    2TMC3    C714415   2.869   1.187  15.037  0.2075  1.7428  0.4203
    2TMC3    C814416   2.837   0.728  15.117 -0.7498  0.3694  0.0362
    2TMC3    O114417   2.756   1.224  15.057  0.2037  0.4886  0.2762
    2TMC3    O214418   2.762   0.747  15.207  0.0913 -0.0186  0.7163
    3TCq1    O114419   3.777   2.033  14.816 -0.2684 -0.7710  0.3022
    3TCq1    C114420   3.672   1.979  14.752 -1.1523  0.8426 -0.1898
    3TCq1    O214421   3.613   2.008  14.647 -0.4165 -0.0102  0.2530
    3TCq1    C214422   3.616   1.880  14.841 -0.3475 -0.3608  0.6980
    3TCq1    C314423   3.702   1.787  14.898 -0.5813 -0.0441  0.0919
    3TCq1    C414424   3.639   1.697  14.977 -0.2949  0.0624 -0.5834
    3TCq1    C514425   3.508   1.699  15.008 -0.2552  0.5408  0.3205
    3TCq1    C614426   3.431   1.796  14.949  0.1366 -0.1420 -0.3949
    3TCq1    C714427   3.488   1.888  14.868 -0.0985 -0.0434 -0.6875
    3TCq1    C814428   3.290   1.770  14.936 -0.3282  0.4145  0.2093
    3TCq1    O414429   3.216   1.867  14.918 -0.0664  0.3505  0.7857
    3TCq1    C914430   3.718   1.594  15.039 -0.3107  0.1290  0.0964
    3TCq1    O514431   3.841   1.583  15.012  0.0728 -0.4541 -0.1666
    3TCq1    O614432   3.659   1.497  15.085  0.3481 -0.2295  0.5721
    3TCq1    H114433   3.788   2.002  14.908 -1.4121  1.4762  1.2018
    3TCq1    H214434   3.809   1.782  14.881 -0.3470  4.1963  0.3177
    3TCq1    H314435   3.464   1.636  15.084 -3.2276  0.5885 -1.3410
    3TCq1    H414436   3.423   1.964  14.826  1.4621  1.1533 -0.9680
    4MPD2     C14437   3.025   1.639  14.879 -0.4943  0.3085  0.4754
    4MPD2    C114438   3.127   1.582  14.950  0.5558 -0.5426 -0.1647
    4MPD2    C214439   3.106   1.459  15.009 -0.0856  0.4663  0.7025
    4MPD2    C314440   2.982   1.404  15.003  0.2058 -0.4515 -0.2895
    4MPD2    C414441   2.876   1.462  14.939  0.0637 -0.6075 -0.3791
    4MPD2    C514442   2.899   1.577  14.870  0.3485  0.3565  0.6975
    4MPD2     H14443   3.181   1.406  15.068 -0.9919 -1.1715  0.4040
    4MPD2    H114444   2.779   1.417  14.925 -1.0419  2.2014 -1.6928
    4MPD2    H214445   3.044   1.732  14.826  1.0461 -0.9231 -1.1347
    4MPD2    H314446   2.817   1.630  14.822  2.3996  1.0081 -2.0349
    4MPD2     N14447   2.978   1.269  15.054 -0.7951  0.7352  0.6033
    4MPD2    H514448   3.068   1.239  15.090 -0.7078 -3.4267 -3.0864
    4MPD2    N114449   3.253   1.641  14.966  0.3885 -0.0864 -0.4018
    4MPD2    H714450   3.330   1.583  14.999  0.3836 -0.2347 -0.6537
    5TMC2    C114451   3.547   0.292  15.238  0.0311  0.5188 -0.1596
    5TMC2    C214452   3.669   0.320  15.304 -0.0249  0.3641  0.1087
    5TMC2    C314453   3.760   0.398  15.234 -0.5002  0.1161 -0.3055
    5TMC2    C414454   3.525   0.318  15.108 -0.5868  0.1951 -0.0812
    5TMC2    C514455   3.613   0.396  15.039 -0.3756  0.3439  0.6693
    5TMC2    C614456   3.731   0.432  15.105  0.1945 -0.4952  0.3615
    5TMC2     C14457   3.420   0.311  15.320  0.2495 -0.3889  0.6915
    5TMC2     O14458   3.418   0.273  15.433 -0.5324 -0.3761 -0.6295
    5TMC2     H14459   3.685   0.293  15.408  1.1772  2.6879  0.5132
    5TMC2    H114460   3.434   0.286  15.060 -0.4520 -0.8721  0.3741
    5TMC2    H214461   3.812   0.489  15.062  0.4209  1.1337  2.8957
    5TMC2    C714462   3.534   0.512  14.985  0.1669 -0.2344  0.4441
    5TMC2    C814463   3.893   0.408  15.276 -1.0025 -0.6101  0.3636
    5TMC2    O114464   3.411   0.499  14.994 -0.2545  0.0028 -0.5063
    5TMC2    O214465   3.992   0.411  15.202 -0.2432 -0.1129  0.1042
    5TMC2    O514466   3.890   0.401  15.412  0.0506 -0.4427 -0.4411
    5TMC2    H514467   3.831   0.462  15.461 -0.7959  0.2766 -2.3603
    6MPD2     C14468   2.955   0.547  15.335  0.3412  0.4880  0.0353
    6MPD2    C114469   3.026   0.584  15.217  0.7368  0.1524  0.4688
    6MPD2    C214470   3.146   0.523  15.198 -0.0206 -0.0188  0.0451
    6MPD2    C314471   3.202   0.433  15.285  0.5465  0.1760 -0.1734
    6MPD2    C414472   3.138   0.406  15.402 -0.0520 -0.2289  0.2394
    6MPD2    C514473   3.015   0.468  15.427 -0.2827  0.7844  0.0951
    6MPD2     H14474   3.190   0.548  15.102  0.2352 -0.2403  0.1042
    6MPD2    H114475   3.174   0.325  15.464 -1.8019 -0.6554  0.6953
    6MPD2    H214476   2.856   0.588  15.350 -1.1208 -2.5635 -1.3544
    6MPD2    H314477   2.962   0.445  15.519  0.0908  0.4756  0.2334
    6MPD2     N14478   3.328   0.382  15.245  0.3332  0.0071  0.3661
    6MPD2    H514479   3.373   0.417  15.161  1.8540 -1.3584  0.6031
    6MPD2    N114480   2.970   0.672  15.117 -0.2228 -0.4272 -0.6016
    6MPD2    H714481   3.037   0.688  15.042  0.5029  0.6959  0.2722
  945NH3     N114482   1.685   0.616  13.494 -0.5575 -0.4602 -0.0545
  945NH3     H214483   1.741   0.569  13.565  0.1379 -0.8569 -0.8689
  945NH3     H314484   1.744   0.697  13.480  0.1906 -0.6092  2.1499
  945NH3     H414485   1.598   0.643  13.539 -0.4745 -0.7035  0.2571
  946SOD     NA14486   4.588   3.403  17.070 -0.0595  0.2012 -0.3673
  947SOD     NA14487   0.007   3.226   2.795 -0.2891 -0.1248 -0.0193
  948SOD     NA14488   2.994   2.436  13.061  0.4013 -0.0061  0.2014
  949SOD     NA14489   4.440   2.584   9.329  0.0268  0.2394 -0.3796
  950SOD     NA14490   0.583   3.135  13.317 -0.1484 -0.3094  0.6390
  951SOD     NA14491   4.265   1.336  12.417 -0.1291 -0.0238 -0.7160
  952SOD     NA14492   1.998   2.770   8.778 -0.0588 -0.1623 -0.3864
  953SOD     NA14493   1.058   3.470  13.068 -0.0930  0.5530 -0.5400
  954SOL     OW14494   0.047   4.615   3.481  0.3429  0.1161 -0.1215
  954SOL    HW114495   4.737   4.543   3.439  3.2561 -1.0260 -1.4370
  954SOL    HW214496   0.128   4.621   3.430  0.9518 -0.1729  0.8254
  955SOL     OW14497   3.267   1.809   8.454  0.0910  0.3099  0.2399
  955SOL    HW114498   3.214   1.750   8.400 -0.9796  0.1458  1.4817
  955SOL    HW214499   3.350   1.823   8.407 -0.3048  0.9911 -0.2577
  956SOL     OW14500   2.029   4.035   1.143 -0.7786 -0.4252 -0.0220
  956SOL    HW114501   2.021   4.122   1.182  0.4832  0.4750 -1.7489
  956SOL    HW214502   2.000   4.045   1.052  0.4276 -2.0878 -0.5980
  957SOL     OW14503   4.254   1.084   0.462 -0.2614 -0.0105 -0.0202
  957SOL    HW114504   4.239   1.174   0.492 -0.9072  0.0160 -0.4194
  957SOL    HW214505   4.229   1.037   0.541 -1.7991  2.1701  0.7946
  958SOL     OW14506   2.027   0.094   2.459 -0.1236  0.4837  0.6967
  958SOL    HW114507   1.952   0.036   2.443  1.4540 -1.8717  1.8888
  958SOL    HW214508   2.085   0.039   2.512 -0.6814 -0.1432  0.6528
  959SOL     OW14509   1.013   1.284   6.756  0.2009 -0.0022 -0.5508
  959SOL    HW114510   0.927   1.315   6.729  0.6267  1.4420 -0.2389
  959SOL    HW214511   1.062   1.318   6.681 -1.5387  1.6227 -0.9393
  960SOL     OW14512   4.690   1.154  16.511 -0.8545  0.2727  0.0102
  960SOL    HW114513   0.003   1.171  16.590  2.1454  0.2278 -1.9226
  960SOL    HW214514   4.663   1.240  16.481 -4.8257 -0.8812  0.3171
  961SOL     OW14515   2.823   0.451  11.613  0.0167 -0.0000  0.1773
  961SOL    HW114516   2.860   0.494  11.536  2.9605 -1.6965  0.6713
  961SOL    HW214517   2.832   0.360  11.584 -0.2874  0.4200 -1.2833
  962SOL     OW14518   0.195   0.251  15.978  0.2196  0.2314 -0.3311
  962SOL    HW114519   0.257   0.310  16.020 -0.6037  0.5796  0.3997
  962SOL    HW214520   0.252   0.210  15.914 -0.1568 -0.7178 -0.0712
  963SOL     OW14521   4.010   3.616   7.696  0.1041 -0.8161 -0.1662
  963SOL    HW114522   3.949   3.574   7.757  1.8100 -0.4899  1.7717
  963SOL    HW214523   3.948   3.650   7.632  0.2413  0.4994  0.4131
  964SOL     OW14524   1.233   2.908  10.175  0.1461 -0.3401 -0.2950
  964SOL    HW114525   1.229   2.980  10.112 -1.5026 -1.0468 -0.9917
  964SOL    HW214526   1.222   2.969  10.248  1.3914 -1.2765  0.6736
  965SOL     OW14527   4.167   0.996   7.045 -0.3368  0.0836 -0.5353
  965SOL    HW114528   4.140   1.077   7.001  1.1906 -0.2860 -2.1596
  965SOL    HW214529   4.239   0.958   6.994 -1.8992  0.1883 -2.8468
  966SOL     OW14530   3.581   4.410  14.875 -0.4126 -0.4662  0.3549
  966SOL    HW114531   3.658   4.408  14.818  1.1610 -1.1922  2.4719
  966SOL    HW214532   3.539   4.337  14.829 -1.2377 -0.1892  0.6706
  967SOL     OW14533   4.737   0.005  14.771  0.3305 -0.2724  0.0202
  967SOL    HW114534   4.641   0.004  14.767  0.3011  1.3877  0.4109
  967SOL    HW214535   0.019   0.096  14.792 -1.3738 -0.4126  2.3301
  968SOL     OW14536   0.227   3.237   9.981 -0.3989  0.2105 -0.3020
  968SOL    HW114537   0.283   3.225   9.904 -1.6297  1.2984 -1.3508
  968SOL    HW214538   0.204   3.150  10.014  0.7505 -0.1192 -0.3748
  969SOL     OW14539   4.604   4.403   3.293  0.2066 -0.1740  0.4399
  969SOL    HW114540   4.539   4.358   3.239 -1.5746  0.5152  2.0022
  969SOL    HW214541   4.658   4.424   3.217 -0.2449 -1.9340 -0.3622
  970SOL     OW14542   4.678   4.021  12.698  0.1344 -0.2717 -0.5856
  970SOL    HW114543   4.664   4.098  12.754  0.4912  0.0806 -0.9744
  970SOL    HW214544   4.690   4.074  12.619  1.2606 -0.6183 -0.6473
  971SOL     OW14545   0.423   0.148   8.545  0.1092 -0.7148 -0.3748
  971SOL    HW114546   0.492   0.083   8.562  2.0460  1.0493 -1.4028
  971SOL    HW214547   0.383   0.147   8.632  0.2534  0.3904 -0.3027
  972SOL     OW14548   1.398   2.086   2.337  0.1452 -0.1555  0.1032
  972SOL    HW114549   1.315   2.123   2.368  1.3701  1.8812  0.9381
  972SOL    HW214550   1.379   2.058   2.248 -2.4203 -1.3625  1.0204
  973SOL     OW14551   4.372   2.349   4.840 -0.0161 -0.3500 -0.3139
  973SOL    HW114552   4.448   2.293   4.822  0.8298  0.3428  1.0903
  973SOL    HW214553   4.366   2.353   4.935  1.6895 -1.2621 -0.1576
  974SOL     OW14554   2.658   4.020  13.447 -0.2537  0.4476  0.6626
  974SOL    HW114555   2.726   4.050  13.385 -1.2291 -0.5080 -0.8582
  974SOL    HW214556   2.598   4.094  13.452 -1.4747 -0.4539 -0.7895
  975SOL     OW14557   0.019   3.923   1.340 -0.2816  0.2953  0.4327
  975SOL    HW114558   0.056   3.944   1.425  3.0675 -1.3647 -0.6304
  975SOL    HW214559   4.713   4.006   1.320 -0.5133 -0.4136 -2.0579
  976SOL     OW14560   3.610   3.406   5.030 -0.6369 -0.4680 -0.1677
  976SOL    HW114561   3.588   3.313   5.036 -2.0485 -0.1070  0.2188
  976SOL    HW214562   3.541   3.438   4.971 -1.7456 -2.7288 -0.1011
  977SOL     OW14563   3.978   2.623  12.131  0.0169  0.1567 -0.0211
  977SOL    HW114564   3.994   2.564  12.205 -0.3699  1.9866  1.5107
  977SOL    HW214565   3.906   2.575  12.091 -0.7670  1.4582 -0.1706
  978SOL     OW14566   1.869   0.810   7.715 -0.5436  0.1600 -0.0873
  978SOL    HW114567   1.875   0.867   7.791 -0.7606  0.9534 -0.6694
  978SOL    HW214568   1.816   0.874   7.667  0.8623  1.1718 -0.2659
  979SOL     OW14569   1.085   2.306   4.832 -0.1074  0.2939  0.3309
  979SOL    HW114570   1.132   2.368   4.777  1.1900  0.2932  1.4531
  979SOL    HW214571   1.138   2.228   4.814 -1.0350  0.0410 -1.2809
  980SOL     OW14572   4.526   4.109  15.204  0.8291  0.2672 -0.2749
  980SOL    HW114573   4.517   4.200  15.229  1.4382  0.4889 -0.8341
  980SOL    HW214574   4.455   4.061  15.245 -0.2164  1.5968 -0.5511
  981SOL     OW14575   3.779   0.903   3.962 -0.0905  0.3801 -0.5722
  981SOL    HW114576   3.768   0.825   4.017 -0.0337  0.4910 -0.4035
  981SOL    HW214577   3.867   0.889   3.929 -0.2339  0.8359 -1.1346
  982SOL     OW14578   3.500   0.602   8.050  0.4098 -0.0204  0.7110
  982SOL    HW114579   3.549   0.573   8.126  1.3035  0.7854  0.4499
  982SOL    HW214580   3.439   0.662   8.093  1.1970  1.9829 -0.9040
  983SOL     OW14581   0.609   2.614   2.362  0.5368  0.5313  0.2484
  983SOL    HW114582   0.702   2.635   2.376  0.2914  1.0698  1.0129
  983SOL    HW214583   0.573   2.688   2.410 -0.5396  1.0991 -1.4178
  984SOL     OW14584   3.086   3.861   9.219  0.2023  0.5719  0.0551
  984SOL    HW114585   3.008   3.864   9.163  0.1860  1.6383  0.1494
  984SOL    HW214586   3.067   3.778   9.263  1.6543  0.2799  0.1109
  985SOL     OW14587   2.704   0.004   7.000 -1.0148  0.8206 -0.0770
  985SOL    HW114588   2.708   0.002   7.096  0.2918 -0.5457 -0.1533
  985SOL    HW214589   2.798   4.735   6.982 -1.0066  1.7603 -0.4070
  986SOL     OW14590   3.643   3.973  16.307  0.6423 -0.0696 -0.2813
  986SOL    HW114591   3.644   3.879  16.289 -0.8752 -0.5119  1.9334
  986SOL    HW214592   3.581   4.015  16.247  0.0706 -0.6437 -0.0931
  987SOL     OW14593   3.205   2.672   3.394  0.0319  0.3717 -0.5285
  987SOL    HW114594   3.180   2.764   3.385  1.6883  0.9178  0.3340
  987SOL    HW214595   3.167   2.642   3.476  0.6528 -2.4765 -1.3060
  988SOL     OW14596   1.015   2.590  13.761  0.6579 -0.0957 -0.6108
  988SOL    HW114597   1.010   2.565  13.853  1.2175 -0.9595 -0.8170
  988SOL    HW214598   0.926   2.584  13.725  0.9487 -2.7446 -0.8991
  989SOL     OW14599   4.735   2.049   7.653 -0.3765 -0.0773  0.4482
  989SOL    HW114600   4.718   2.136   7.689  0.2903 -0.8926  2.7266
  989SOL    HW214601   0.089   2.032   7.676 -0.7186 -1.1640  0.9866
  990SOL     OW14602   4.007   2.388   7.987  0.1322  0.5355  0.5045
  990SOL    HW114603   4.090   2.435   7.983 -0.9949  2.3780 -0.9533
  990SOL    HW214604   4.027   2.307   7.939 -1.1018  0.6438 -0.1991
  991SOL     OW14605   3.463   4.252  13.279 -0.1116 -0.1042  0.4825
  991SOL    HW114606   3.453   4.315  13.350  0.6725  0.1931  0.3253
  991SOL    HW214607   3.460   4.165  13.319 -2.9237  0.3429  1.2937
  992SOL     OW14608   3.129   2.718   2.243  0.1238  0.2329  0.2205
  992SOL    HW114609   3.159   2.627   2.231 -0.8443 -0.5359  3.6930
  992SOL    HW214610   3.217   2.755   2.234  0.7347 -1.2339  0.0149
  993SOL     OW14611   4.456   0.092   8.022 -0.4624 -0.3179  0.3602
  993SOL    HW114612   4.484   0.154   8.090 -1.8296  0.4668  0.2301
  993SOL    HW214613   4.362   0.078   8.035 -0.0085 -4.0553 -0.4020
  994SOL     OW14614   4.209   0.659   4.681 -0.2665 -0.0532  0.1878
  994SOL    HW114615   4.184   0.609   4.604 -0.1540 -2.0990  1.4824
  994SOL    HW214616   4.297   0.623   4.696  1.1457  1.8340 -3.4478
  995SOL     OW14617   1.741   2.661   0.212 -0.6795 -0.3231  0.0561
  995SOL    HW114618   1.648   2.676   0.194 -0.4299  1.0823 -0.1077
  995SOL    HW214619   1.777   2.686   0.127 -0.4526  1.8667  0.7906
  996SOL     OW14620   1.685   0.969   5.985 -0.0651 -0.3228 -0.0809
  996SOL    HW114621   1.701   0.987   6.078 -1.8721 -0.3637  0.2361
  996SOL    HW214622   1.769   0.997   5.948  0.9445 -1.7875  1.0449
  997SOL     OW14623   1.208   2.554  14.072  0.4498  0.2919 -0.3343
  997SOL    HW114624   1.201   2.618  14.143  0.2769  0.1244 -0.1987
  997SOL    HW214625   1.113   2.542  14.061  0.7162 -2.6500  0.5862
  998SOL     OW14626   2.145   4.547  11.640  0.3182 -0.0949  0.2371
  998SOL    HW114627   2.226   4.517  11.600 -0.1598  1.0285 -1.5819
  998SOL    HW214628   2.121   4.628  11.595  0.8925  0.9394  1.7922
  999SOL     OW14629   0.885   1.376   3.781  0.1814 -0.4266 -0.1738
  999SOL    HW114630   0.962   1.399   3.730 -0.7073 -1.3870 -1.9399
  999SOL    HW214631   0.913   1.296   3.826  1.8988 -0.0534 -0.5878
 1000SOL     OW14632   3.675   3.258   4.471 -0.9689  0.3402 -0.4029
 1000SOL    HW114633   3.755   3.261   4.419 -0.4533 -0.4830  0.3455
 1000SOL    HW214634   3.660   3.165   4.491  1.3853  0.2545  0.9986
 1001SOL     OW14635   3.281   2.180   8.483  0.1241  0.0678  0.1390
 1001SOL    HW114636   3.373   2.203   8.466  0.1479  0.7342  1.2136
 1001SOL    HW214637   3.246   2.174   8.394  0.2451 -0.1655  0.1071
 1002SOL     OW14638   2.157   2.406   9.939  0.2884 -0.5682 -0.4717
 1002SOL    HW114639   2.065   2.383   9.947  0.3824  0.7084  4.6221
 1002SOL    HW214640   2.160   2.500   9.924 -0.2899 -0.9162 -2.7520
 1003SOL     OW14641   1.701   1.125   3.904  0.3255  0.3117  0.6838
 1003SOL    HW114642   1.661   1.212   3.915 -0.8244  0.0778 -1.5630
 1003SOL    HW214643   1.665   1.100   3.819 -1.0351 -1.9748  1.9385
 1004SOL     OW14644   0.875   2.548  10.969  0.1301  0.0705  0.0324
 1004SOL    HW114645   0.805   2.510  11.023  0.2698  0.3957  0.4391
 1004SOL    HW214646   0.839   2.632  10.941  0.2086 -0.4851 -1.7847
 1005SOL     OW14647   1.907   1.964   3.199 -0.0398  0.0643 -0.3793
 1005SOL    HW114648   1.941   2.035   3.145  0.1284  2.2012  2.5481
 1005SOL    HW214649   1.965   1.954   3.274  1.8858 -1.0478 -2.0190
 1006SOL     OW14650   3.406   2.432   6.529 -0.5258 -0.2608  0.1104
 1006SOL    HW114651   3.487   2.469   6.564  0.3466 -1.2339 -0.8709
 1006SOL    HW214652   3.416   2.342   6.560 -3.7202 -1.2771 -1.8083
 1007SOL     OW14653   1.590   2.930  15.374 -0.5513 -0.4550  0.5823
 1007SOL    HW114654   1.557   2.840  15.376  1.7081 -1.3021 -0.6171
 1007SOL    HW214655   1.534   2.982  15.432 -1.9790 -0.1988 -1.0070
 1008SOL     OW14656   1.468   4.688   7.946  0.5148  0.2349  0.1363
 1008SOL    HW114657   1.451   0.008   8.020 -0.7951  0.6807 -0.5048
 1008SOL    HW214658   1.428   4.733   7.871  0.4845  0.7353  0.4579
 1009SOL     OW14659   2.658   0.497   8.046 -0.0768  0.2323 -0.3929
 1009SOL    HW114660   2.615   0.415   8.019  1.5495 -0.2377 -1.5679
 1009SOL    HW214661   2.751   0.477   8.033 -0.0315 -0.0089  0.3199
 1010SOL     OW14662   2.081   4.427   3.203  1.0373  0.2395  0.4525
 1010SOL    HW114663   2.014   4.481   3.160  1.8232  2.1103  1.5582
 1010SOL    HW214664   2.158   4.443   3.148  0.4874 -2.7220 -1.1857
 1011SOL     OW14665   0.914   4.427   4.611  0.0908 -0.4338 -0.3277
 1011SOL    HW114666   0.848   4.423   4.680 -0.9226 -0.1878 -1.2853
 1011SOL    HW214667   0.911   4.335   4.585 -0.9296 -0.3511 -0.5097
 1012SOL     OW14668   0.893   4.582   2.914  0.1053 -0.1814  0.2161
 1012SOL    HW114669   0.908   4.493   2.947 -1.1508  0.3378  2.2378
 1012SOL    HW214670   0.879   4.634   2.993 -0.9453 -1.2925  0.7668
 1013SOL     OW14671   3.231   3.655   6.190  0.2808  0.3541  0.1342
 1013SOL    HW114672   3.235   3.663   6.285 -2.1539  1.1796  0.1671
 1013SOL    HW214673   3.180   3.735   6.177 -0.1145  0.0938  0.0576
 1014SOL     OW14674   3.198   2.498   6.353 -0.3498 -0.2517 -0.2062
 1014SOL    HW114675   3.274   2.490   6.412 -0.9492 -1.0469  0.4716
 1014SOL    HW214676   3.247   2.542   6.283 -0.2610 -3.1881 -1.9790
 1015SOL     OW14677   2.020   0.317   2.325 -0.4652  0.1339 -0.4384
 1015SOL    HW114678   1.956   0.370   2.371 -1.9348 -2.8129  0.9470
 1015SOL    HW214679   2.028   0.246   2.390  0.0229  1.5263  1.0046
 1016SOL     OW14680   4.050   2.228   6.069 -0.1768 -0.3438 -0.3529
 1016SOL    HW114681   4.123   2.290   6.071 -0.6706  0.2324  0.1953
 1016SOL    HW214682   4.095   2.153   6.030 -0.8805 -1.7593  1.5425
 1017SOL     OW14683   1.250   3.809   9.618  0.4539  0.2395 -0.4409
 1017SOL    HW114684   1.182   3.864   9.657  0.7462 -0.6845  1.3800
 1017SOL    HW214685   1.321   3.870   9.638 -0.6778  1.2674  0.4272
 1018SOL     OW14686   2.665   0.727   2.312 -0.0303 -0.1465 -0.0392
 1018SOL    HW114687   2.642   0.666   2.382  0.3146  1.3520  1.3843
 1018SOL    HW214688   2.615   0.805   2.337  0.4076  0.4584 -1.0565
 1019SOL     OW14689   2.302   0.602  15.076 -0.5319 -0.3329 -0.3328
 1019SOL    HW114690   2.343   0.545  15.142 -3.1027 -0.1976  1.3644
 1019SOL    HW214691   2.307   0.684  15.124 -0.3043 -0.0857 -0.7774
 1020SOL     OW14692   0.747   3.299   9.091  0.0881  0.0508  0.2055
 1020SOL    HW114693   0.762   3.215   9.134 -0.6414  0.2792  0.9110
 1020SOL    HW214694   0.682   3.285   9.022 -2.0719  0.3721  2.1674
 1021SOL     OW14695   3.851   1.529   3.989  0.8280 -0.7408 -0.5324
 1021SOL    HW114696   3.817   1.491   4.070  3.2329  1.0504  1.3086
 1021SOL    HW214697   3.930   1.475   3.977 -0.4080 -2.6602 -0.0092
 1022SOL     OW14698   0.812   2.542   8.986 -0.2930 -0.0118 -0.2114
 1022SOL    HW114699   0.862   2.599   8.928  0.4298  0.3830  0.7902
 1022SOL    HW214700   0.887   2.511   9.037 -0.0437  0.7028 -0.1416
 1023SOL     OW14701   0.257   3.043   8.126  0.1418  0.2112  0.3165
 1023SOL    HW114702   0.333   3.049   8.068 -0.3238  1.7177 -0.1294
 1023SOL    HW214703   0.208   3.114   8.086 -3.5563 -3.8586 -2.4494
 1024SOL     OW14704   3.475   3.848  15.640 -0.3245 -0.7483 -0.5576
 1024SOL    HW114705   3.563   3.880  15.660 -0.2754 -1.5388  0.4726
 1024SOL    HW214706   3.498   3.767  15.596  1.0658 -0.3992 -0.4675
 1025SOL     OW14707   0.720   4.334  16.185 -0.4292 -0.0155  0.0200
 1025SOL    HW114708   0.629   4.340  16.215  0.0849  0.8529  1.3873
 1025SOL    HW214709   0.766   4.372  16.259 -1.3163  2.1193 -0.5228
 1026SOL     OW14710   0.599   0.697  17.113  0.2761  0.1737  0.2974
 1026SOL    HW114711   0.651   0.655  17.182  2.2298  0.9119 -0.7443
 1026SOL    HW214712   0.574   0.623  17.058  0.0262  0.4445  0.0473
 1027SOL     OW14713   0.785   2.859   7.621 -0.1504  0.4056 -0.2754
 1027SOL    HW114714   0.833   2.786   7.661 -1.0553 -0.5350 -0.8895
 1027SOL    HW214715   0.733   2.887   7.695 -1.8331 -0.3697 -1.1579
 1028SOL     OW14716   4.282   1.145  12.529 -0.8362 -0.1219  0.2491
 1028SOL    HW114717   4.211   1.081  12.523 -1.6336  0.7986 -0.0712
 1028SOL    HW214718   4.347   1.116  12.464 -0.5887 -0.0186  0.4508
 1029SOL     OW14719   4.159   3.927   6.977 -0.0357  0.5280  0.3345
 1029SOL    HW114720   4.172   3.916   6.882 -0.6326 -0.8982  0.4108
 1029SOL    HW214721   4.088   3.991   6.979  0.2526  0.9001 -1.3883
 1030SOL     OW14722   0.275   1.952   3.784  0.1110 -0.9515  0.1113
 1030SOL    HW114723   0.268   2.034   3.735  0.7723 -0.7349  0.3740
 1030SOL    HW214724   0.298   1.884   3.722 -1.3188  0.4610 -1.9734
 1031SOL     OW14725   2.125   2.418   6.229 -0.2363  0.1954 -0.2895
 1031SOL    HW114726   2.129   2.488   6.293 -0.8415  0.0846 -0.1344
 1031SOL    HW214727   2.175   2.354   6.280 -0.4012 -0.4338 -0.9065
 1032SOL     OW14728   2.467   2.736   1.924  0.1384 -1.0317  0.1646
 1032SOL    HW114729   2.419   2.751   2.005  0.0934  0.3126 -0.1094
 1032SOL    HW214730   2.478   2.641   1.931  0.1415 -1.0084  0.4641
 1033SOL     OW14731   4.340   4.634  13.459  0.1583  0.9663  0.3194
 1033SOL    HW114732   4.398   4.597  13.393  0.5331 -0.0990  1.2595
 1033SOL    HW214733   4.394   4.685  13.520  0.0781  0.3623  0.8900
 1034SOL     OW14734   3.002   1.993   9.813  0.0488 -0.1849 -0.6571
 1034SOL    HW114735   2.982   2.049   9.888 -0.1488  0.1250 -0.9418
 1034SOL    HW214736   2.949   2.023   9.739  0.9955 -2.5077 -2.2842
 1035SOL     OW14737   2.007   4.402   4.884 -0.1259 -0.0109  0.1853
 1035SOL    HW114738   1.945   4.406   4.810  1.0031  1.5100 -0.6740
 1035SOL    HW214739   2.088   4.445   4.857  0.8357 -1.3687  0.9329
 1036SOL     OW14740   1.738   4.241  14.684 -0.0164 -0.1105  0.0735
 1036SOL    HW114741   1.717   4.334  14.674 -0.6851 -0.3010 -0.2977
 1036SOL    HW214742   1.810   4.238  14.748  2.3249  2.0898 -2.4490
 1037SOL     OW14743   2.215   2.354   5.505 -0.3403 -0.3579 -0.3597
 1037SOL    HW114744   2.217   2.394   5.418  0.7733  1.6161  0.5806
 1037SOL    HW214745   2.146   2.413   5.537 -1.3175 -1.8473  0.2909
 1038SOL     OW14746   1.093   3.464   0.646 -0.0803  0.2760 -0.4768
 1038SOL    HW114747   1.127   3.540   0.692 -2.4870  2.0436 -1.6054
 1038SOL    HW214748   1.021   3.508   0.602  0.3806  0.8713 -0.6266
 1039SOL     OW14749   0.426   4.250   4.686 -0.5549 -0.7299 -0.1853
 1039SOL    HW114750   0.353   4.224   4.742 -0.9451  1.1442  0.1739
 1039SOL    HW214751   0.382   4.276   4.604 -1.4633 -1.0222  0.2060
 1040SOL     OW14752   4.684   4.431   9.978  0.2159  0.5953  0.9560
 1040SOL    HW114753   4.727   4.507  10.016  0.6099  0.5761  0.5508
 1040SOL    HW214754   0.012   4.362   9.986 -0.1914 -0.3286 -3.7205
 1041SOL     OW14755   3.764   2.364   8.138 -0.2897 -0.2345 -0.1645
 1041SOL    HW114756   3.806   2.280   8.155 -0.2506  0.1560  1.6555
 1041SOL    HW214757   3.847   2.413   8.135 -0.8145  0.7038  0.6076
 1042SOL     OW14758   2.632   2.696   6.353  0.1964 -0.5304  0.3852
 1042SOL    HW114759   2.721   2.673   6.328  0.8963  0.3718  2.1177
 1042SOL    HW214760   2.629   2.666   6.443 -0.0769  0.1859  0.6122
 1043SOL     OW14761   1.628   1.097   6.758 -0.7629  0.1400  0.8559
 1043SOL    HW114762   1.550   1.150   6.742 -0.4256 -0.1039 -1.6034
 1043SOL    HW214763   1.595   1.035   6.822  0.7959 -1.0459  0.5127
 1044SOL     OW14764   1.646   2.401  11.289 -0.3010 -0.2989  0.0257
 1044SOL    HW114765   1.579   2.339  11.261 -1.8290  1.4593 -0.1915
 1044SOL    HW214766   1.681   2.430  11.204  3.4722  0.1112  1.6900
 1045SOL     OW14767   4.571   3.463   6.255 -0.0670  0.6760 -0.5124
 1045SOL    HW114768   4.604   3.489   6.169  2.5326  1.5021  0.7456
 1045SOL    HW214769   4.479   3.491   6.247 -0.3134  0.4107  1.3719
 1046SOL     OW14770   3.539   2.441  16.693 -0.2496 -0.1370 -0.2571
 1046SOL    HW114771   3.575   2.520  16.733 -1.2732 -0.2517  0.9007
 1046SOL    HW214772   3.606   2.375  16.714  0.4540 -0.1427 -2.5031
 1047SOL     OW14773   0.085   1.485   4.628  0.0502  0.2425 -0.8932
 1047SOL    HW114774   0.087   1.459   4.536 -2.1573 -2.8450 -0.0621
 1047SOL    HW214775   0.080   1.399   4.668 -0.8615  1.1102  0.8740
 1048SOL     OW14776   1.208   2.752   3.768 -0.1553 -0.4395 -0.1184
 1048SOL    HW114777   1.146   2.694   3.811  2.2646 -1.9469  1.3852
 1048SOL    HW214778   1.288   2.714   3.805  0.0623 -1.0511 -1.2147
 1049SOL     OW14779   3.344   1.651   8.097 -0.6702  0.1873  0.6501
 1049SOL    HW114780   3.430   1.671   8.062 -0.6121  0.8721  1.1818
 1049SOL    HW214781   3.351   1.558   8.118  1.8344  1.0630  3.6234
 1050SOL     OW14782   1.579   3.900   4.307 -0.2816 -0.2374  0.3410
 1050SOL    HW114783   1.554   3.896   4.215 -1.6790  0.5906  0.6821
 1050SOL    HW214784   1.672   3.877   4.306 -0.1499  0.3045  0.2576
 1051SOL     OW14785   0.252   0.401   8.841  0.4421  0.1663 -0.2656
 1051SOL    HW114786   0.263   0.460   8.766  2.3850 -1.0854 -0.9515
 1051SOL    HW214787   0.306   0.454   8.900  2.2726 -0.5161 -1.3479
 1052SOL     OW14788   0.440   0.991   8.581 -0.7463 -0.3298  0.5508
 1052SOL    HW114789   0.345   0.990   8.567 -0.8600 -4.5103  1.6265
 1052SOL    HW214790   0.452   1.075   8.536 -2.4296 -0.7835 -0.7458
 1053SOL     OW14791   0.701   0.523   1.392 -0.7366 -0.1677 -1.0116
 1053SOL    HW114792   0.762   0.578   1.343 -0.7851  1.8793  1.2418
 1053SOL    HW214793   0.647   0.579   1.447 -2.2974 -0.9852 -1.7020
 1054SOL     OW14794   2.211   4.528  16.595 -1.0124 -0.0464 -0.3278
 1054SOL    HW114795   2.256   4.487  16.668  1.4294  1.8073 -0.7833
 1054SOL    HW214796   2.191   4.457  16.534 -0.1027 -1.9989  1.6692
 1055SOL     OW14797   4.659   3.616   8.090  0.1012 -0.4710  0.0552
 1055SOL    HW114798   0.014   3.593   8.094  0.7992  2.0195 -1.7979
 1055SOL    HW214799   4.642   3.645   8.180 -0.3581 -0.6108  0.0131
 1056SOL     OW14800   0.805   0.768   6.137  0.2203  0.0810 -0.7360
 1056SOL    HW114801   0.893   0.788   6.169  0.1279 -0.9139  0.1610
 1056SOL    HW214802   0.796   0.832   6.067 -0.1750 -2.3567 -2.8887
 1057SOL     OW14803   2.724   2.695   2.032  0.2145  0.0316 -0.3227
 1057SOL    HW114804   2.701   2.615   1.984  0.0234 -0.8253  1.1810
 1057SOL    HW214805   2.810   2.665   2.064  1.0461  1.5396 -1.1858
 1058SOL     OW14806   4.216   0.616  10.681 -0.3565 -0.0307  0.3982
 1058SOL    HW114807   4.246   0.701  10.649  0.3379 -0.0922  0.8732
 1058SOL    HW214808   4.126   0.625  10.710  0.2780 -0.3296  2.4691
 1059SOL     OW14809   2.143   1.473  16.204 -0.3250 -0.3480 -0.1267
 1059SOL    HW114810   2.221   1.504  16.251 -0.2598 -0.2002 -0.3326
 1059SOL    HW214811   2.090   1.553  16.204  0.4638  0.1707  0.1532
 1060SOL     OW14812   3.847   2.810   3.076 -0.0423 -0.3958 -0.2647
 1060SOL    HW114813   3.887   2.771   2.999  0.9580 -0.3748  0.2429
 1060SOL    HW214814   3.767   2.756   3.074 -0.7198  0.6065  0.0124
 1061SOL     OW14815   1.187   0.643   2.069 -0.4682 -0.4023  0.3470
 1061SOL    HW114816   1.226   0.587   2.001 -1.1370 -1.0520  0.5036
 1061SOL    HW214817   1.121   0.582   2.103 -0.9828  0.0014  0.0728
 1062SOL     OW14818   1.148   4.112   7.242  0.3491 -0.3474 -0.3911
 1062SOL    HW114819   1.074   4.055   7.220 -0.6266  0.6439  0.4107
 1062SOL    HW214820   1.167   4.077   7.329  2.0342 -0.4425 -0.7882
 1063SOL     OW14821   2.396   4.103   7.966  0.3154  0.5500 -0.2857
 1063SOL    HW114822   2.304   4.080   7.967 -0.4437  3.5890  0.7883
 1063SOL    HW214823   2.432   4.034   8.022 -0.0816 -0.6490 -1.5340
 1064SOL     OW14824   4.541   3.043   5.019 -0.4694  0.8440 -0.1420
 1064SOL    HW114825   4.603   3.079   4.956  0.4966 -0.3936  0.1087
 1064SOL    HW214826   4.606   3.010   5.080  1.4169  2.1958 -1.4340
 1065SOL     OW14827   0.389   2.377   7.845 -0.1889 -0.1100  0.1878
 1065SOL    HW114828   0.399   2.374   7.750  2.1199 -2.2886  0.5174
 1065SOL    HW214829   0.465   2.331   7.879  1.8373  3.6130  0.7183
 1066SOL     OW14830   3.039   3.948  15.894 -0.7938 -0.3125  0.6500
 1066SOL    HW114831   3.113   3.891  15.874 -1.2204 -1.5364  2.6066
 1066SOL    HW214832   3.067   4.002  15.821 -2.7850  1.3013  1.0822
 1067SOL     OW14833   1.768   1.793   6.981 -0.1791 -0.1271 -0.1418
 1067SOL    HW114834   1.827   1.820   6.910 -1.1614 -1.1125 -1.3453
 1067SOL    HW214835   1.816   1.798   7.063 -1.7974 -0.4934  0.8260
 1068SOL     OW14836   0.884   3.259   5.369 -0.0036 -0.4036  0.2145
 1068SOL    HW114837   0.957   3.318   5.387  0.2286 -1.0222  1.3020
 1068SOL    HW214838   0.923   3.175   5.394 -1.7792 -1.6615 -1.1654
 1069SOL     OW14839   1.609   3.379   2.645 -0.0570 -0.5608  0.1517
 1069SOL    HW114840   1.637   3.454   2.593 -0.9052  0.4379  1.1460
 1069SOL    HW214841   1.691   3.329   2.640 -0.2068 -0.8191  0.2636
 1070SOL     OW14842   4.572   0.392   0.646  0.3447 -0.1742  0.1637
 1070SOL    HW114843   4.588   0.303   0.679 -0.1531 -0.4393 -0.3084
 1070SOL    HW214844   4.477   0.390   0.635  0.2552 -1.0284  1.0928
 1071SOL     OW14845   0.709   3.925   4.256  0.2317 -0.6494  0.8623
 1071SOL    HW114846   0.766   3.971   4.318 -3.8282  2.0175  2.6020
 1071SOL    HW214847   0.726   3.833   4.277 -0.1731 -0.7821  0.6162
 1072SOL     OW14848   3.636   1.179   6.189 -0.1653  0.3525 -0.4498
 1072SOL    HW114849   3.685   1.248   6.235 -2.5595  0.1290  2.4135
 1072SOL    HW214850   3.693   1.166   6.113  0.5023 -1.1532  0.3054
 1073SOL     OW14851   3.099   3.225   6.807 -0.2794  0.0328 -0.0963
 1073SOL    HW114852   3.117   3.319   6.815  2.2766 -0.4186 -0.4852
 1073SOL    HW214853   3.032   3.219   6.739 -1.1324  0.2120  0.7337
 1074SOL     OW14854   3.346   2.601   6.172  0.1546 -0.7249 -0.3546
 1074SOL    HW114855   3.415   2.553   6.126 -0.5597 -0.6395 -1.5265
 1074SOL    HW214856   3.273   2.589   6.111 -1.8179 -0.8632  2.0588
 1075SOL     OW14857   3.507   1.110   7.533  0.0054  0.1827 -0.2807
 1075SOL    HW114858   3.455   1.060   7.470  2.7458 -1.1863 -1.4497
 1075SOL    HW214859   3.473   1.197   7.514 -1.7662 -0.0615  1.7784
 1076SOL     OW14860   0.022   4.419   7.577  0.0547 -0.3344 -0.3892
 1076SOL    HW114861   4.726   4.430   7.488 -3.6246 -0.7668  0.9323
 1076SOL    HW214862   4.708   4.348   7.616  0.1056  0.6389  1.4684
 1077SOL     OW14863   3.020   2.523   7.320 -0.4643 -0.1457  0.1737
 1077SOL    HW114864   2.994   2.600   7.268 -0.8245 -0.1205  0.3910
 1077SOL    HW214865   3.089   2.482   7.268 -1.3942  0.6491 -1.7085
 1078SOL     OW14866   3.429   2.480  15.121  0.2820 -0.1246 -0.4597
 1078SOL    HW114867   3.445   2.506  15.030  3.8441 -1.6909 -0.3140
 1078SOL    HW214868   3.521   2.481  15.149  0.3888  0.6313 -0.8475
 1079SOL     OW14869   1.383   2.800   6.010 -0.2396 -0.0172  0.3079
 1079SOL    HW114870   1.327   2.868   6.047  0.3214  0.2212  0.7307
 1079SOL    HW214871   1.464   2.804   6.062  0.4776  2.1728 -0.9829
 1080SOL     OW14872   2.912   2.781   6.666  0.0270  0.5919  0.4622
 1080SOL    HW114873   2.993   2.797   6.617 -0.7310 -0.6039 -1.1862
 1080SOL    HW214874   2.918   2.849   6.733  0.1034  1.8789 -0.8506
 1081SOL     OW14875   1.433   2.835   8.517 -0.6222  0.4628  0.4659
 1081SOL    HW114876   1.352   2.871   8.482 -0.7891  0.6485  1.0460
 1081SOL    HW214877   1.497   2.906   8.509 -0.3544  0.3038  1.1815
 1082SOL     OW14878   3.561   2.564   9.640  0.3635  0.0906  0.5125
 1082SOL    HW114879   3.492   2.518   9.592  1.1664 -0.8845  0.2862
 1082SOL    HW214880   3.631   2.499   9.638 -2.1920 -2.6167 -2.5479
 1083SOL     OW14881   4.002   2.682   0.600  0.5832 -0.6007 -0.4605
 1083SOL    HW114882   4.087   2.641   0.619 -0.0775 -1.0864  1.3371
 1083SOL    HW214883   4.032   2.740   0.530  0.0189 -0.4654 -0.5897
 1084SOL     OW14884   1.529   0.184   9.407  0.3665  0.3160  0.1042
 1084SOL    HW114885   1.520   0.253   9.341 -0.2695  1.6040  1.5655
 1084SOL    HW214886   1.514   0.230   9.489 -1.3064 -0.1797  0.0754
 1085SOL     OW14887   2.802   0.573  13.147 -0.0240 -0.3161  0.0946
 1085SOL    HW114888   2.826   0.535  13.063  3.0269 -1.2637  1.4059
 1085SOL    HW214889   2.840   0.510  13.208 -0.2205  1.2053  1.8000
 1086SOL     OW14890   2.578   1.343   1.848  0.1388 -0.0134  0.2489
 1086SOL    HW114891   2.662   1.315   1.886 -0.2612 -2.8383 -0.9209
 1086SOL    HW214892   2.512   1.303   1.904 -1.3116 -0.3692 -1.7333
 1087SOL     OW14893   1.019   3.978   2.022  0.3643  0.6381 -0.3366
 1087SOL    HW114894   0.978   3.892   2.033  2.6503 -0.2089  1.5709
 1087SOL    HW214895   1.025   4.013   2.111  1.3193  1.7402 -0.8403
 1088SOL     OW14896   0.340   1.814   9.518 -0.0469  0.2389 -0.0004
 1088SOL    HW114897   0.262   1.768   9.486  1.9057 -0.3415 -3.9759
 1088SOL    HW214898   0.390   1.738   9.548  1.4083  0.7416 -1.1353
 1089SOL     OW14899   1.916   1.567   9.895  0.0758  0.1256  0.1680
 1089SOL    HW114900   1.893   1.639   9.837  2.6134  1.3001  0.6323
 1089SOL    HW214901   2.010   1.569   9.880 -0.1791 -0.9316 -1.6525
 1090SOL     OW14902   4.298   2.982   8.178 -0.5939  0.4276  0.1014
 1090SOL    HW114903   4.273   2.895   8.148  1.9242 -0.1671 -0.3342
 1090SOL    HW214904   4.213   3.023   8.190 -0.6490 -0.0321  1.3249
 1091SOL     OW14905   4.233   1.159   7.825 -0.7266 -0.5121 -0.2272
 1091SOL    HW114906   4.176   1.215   7.772 -1.0484 -1.9753 -1.4541
 1091SOL    HW214907   4.235   1.200   7.912  0.8255 -0.2175 -0.4018
 1092SOL     OW14908   0.050   0.191   2.514  1.1054  0.0563  0.4124
 1092SOL    HW114909   0.046   0.282   2.487 -0.5716 -0.1491 -0.0315
 1092SOL    HW214910   4.699   0.166   2.539  1.8422 -1.0215  1.9099
 1093SOL     OW14911   2.580   0.325   7.680  0.0977  0.7605 -0.2136
 1093SOL    HW114912   2.547   0.325   7.590 -1.0436 -0.2553  0.1956
 1093SOL    HW214913   2.570   0.417   7.704 -0.0955  1.0256 -1.3088
 1094SOL     OW14914   2.029   3.732   4.742  0.6915  0.0168 -0.2906
 1094SOL    HW114915   2.111   3.779   4.753  1.1962 -0.4795 -1.9259
 1094SOL    HW214916   2.059   3.643   4.758  0.7270 -0.0602 -0.7957
 1095SOL     OW14917   4.226   4.345  16.013 -0.2624  0.5066  0.5014
 1095SOL    HW114918   4.209   4.409  16.082 -0.3510  2.1679 -1.0879
 1095SOL    HW214919   4.242   4.404  15.940  1.7254 -0.9531 -0.2279
 1096SOL     OW14920   1.886   4.182   6.129  0.4827 -0.7380 -0.4448
 1096SOL    HW114921   1.850   4.268   6.150  0.2127 -0.2181 -3.0771
 1096SOL    HW214922   1.977   4.197   6.106  0.5665 -0.3087  0.1739
 1097SOL     OW14923   0.309   3.214   3.219  0.0426 -0.5185  0.0755
 1097SOL    HW114924   0.333   3.285   3.159  0.1266 -0.8312 -0.2637
 1097SOL    HW214925   0.260   3.255   3.290  0.6949  0.1197  0.1576
 1098SOL     OW14926   0.264   1.960   5.164 -0.0739  0.1148  0.6779
 1098SOL    HW114927   0.278   1.914   5.247  0.6488 -2.3454 -0.8257
 1098SOL    HW214928   0.357   1.972   5.143 -0.6251  2.1151 -0.6617
 1099SOL     OW14929   1.150   4.147   6.002  0.5169 -0.1525 -0.3255
 1099SOL    HW114930   1.169   4.076   6.063 -1.2111  0.4216  0.8727
 1099SOL    HW214931   1.190   4.116   5.921  0.1225  0.2085 -0.6536
 1100SOL     OW14932   1.960   2.047   9.876  0.3688 -0.0441 -0.4580
 1100SOL    HW114933   1.964   1.988   9.952 -1.1620 -0.2475 -0.5406
 1100SOL    HW214934   1.951   2.133   9.918 -0.9084 -0.2845 -0.2719
 1101SOL     OW14935   2.005   1.669  14.046  0.0244 -0.8145  0.0783
 1101SOL    HW114936   1.976   1.760  14.059  2.0801  0.0523 -1.3312
 1101SOL    HW214937   2.041   1.674  13.957  0.4342 -1.4398  0.2138
 1102SOL     OW14938   0.267   0.781   5.477  0.6179  0.0032 -0.3622
 1102SOL    HW114939   0.354   0.807   5.507  0.9114 -1.4961  0.1113
 1102SOL    HW214940   0.263   0.832   5.396 -3.4557  0.9996  0.4677
 1103SOL     OW14941   3.772   0.576   6.633 -0.4715  0.0641 -0.2680
 1103SOL    HW114942   3.759   0.482   6.619  1.3777 -0.3067  0.5444
 1103SOL    HW214943   3.710   0.614   6.571 -0.2358 -1.2016 -1.3031
 1104SOL     OW14944   2.985   0.170   4.370 -0.0787  0.3154 -0.0268
 1104SOL    HW114945   3.047   0.163   4.297 -1.3933 -0.0422 -1.1084
 1104SOL    HW214946   2.911   0.222   4.340  0.0545  1.4414  1.5674
 1105SOL     OW14947   3.880   2.813   9.716  0.3360  0.4185 -0.0204
 1105SOL    HW114948   3.926   2.753   9.656  1.1080 -1.1456  2.1350
 1105SOL    HW214949   3.906   2.899   9.684  1.0483 -0.2708 -1.3576
 1106SOL     OW14950   0.596   2.531  15.248 -0.7496 -0.4511  0.8607
 1106SOL    HW114951   0.529   2.469  15.218  1.2502 -1.9998 -0.3919
 1106SOL    HW214952   0.658   2.540  15.176 -2.6846 -0.5519 -0.8249
 1107SOL     OW14953   0.269   1.046  16.264  0.5731 -0.0600  0.1556
 1107SOL    HW114954   0.301   1.032  16.175 -0.3608  0.8559 -0.3284
 1107SOL    HW214955   0.323   0.984  16.313  1.4111  0.0051 -0.6870
 1108SOL     OW14956   2.509   1.365   2.286 -0.1085 -0.3302 -0.3481
 1108SOL    HW114957   2.595   1.405   2.292 -0.3644  0.0244  0.8691
 1108SOL    HW214958   2.479   1.402   2.369 -0.3475  0.7474 -0.9077
 1109SOL     OW14959   3.761   0.549   6.264  0.3115 -0.1342 -0.3645
 1109SOL    HW114960   3.791   0.584   6.180 -0.5752 -0.4192 -0.8085
 1109SOL    HW214961   3.842   0.512   6.299  1.1810  2.3135  0.2211
 1110SOL     OW14962   1.898   4.697   7.469  0.0405 -0.0600  0.0946
 1110SOL    HW114963   1.953   4.621   7.489  2.6537  1.9545  0.4861
 1110SOL    HW214964   1.965   0.024   7.449 -0.4279  0.3857 -0.0238
 1111SOL     OW14965   3.501   2.898   7.061 -0.5112  0.1257 -0.6273
 1111SOL    HW114966   3.593   2.874   7.052 -0.9642 -1.1928 -1.6931
 1111SOL    HW214967   3.485   2.887   7.155 -0.9228 -0.9376 -0.8297
 1112SOL     OW14968   2.362   0.023   7.461 -0.1319 -0.3957 -0.2400
 1112SOL    HW114969   2.453   0.042   7.485  0.5049 -1.1890 -2.0818
 1112SOL    HW214970   2.368   4.666   7.458  3.5059 -0.2449  2.4556
 1113SOL     OW14971   0.347   4.578   1.621 -0.4341  0.6681  0.2975
 1113SOL    HW114972   0.313   4.663   1.650  0.2511  2.2511 -3.6074
 1113SOL    HW214973   0.351   4.588   1.526 -0.2485 -0.4516  0.1856
 1114SOL     OW14974   2.448   1.240   8.706 -0.1075  0.2992 -0.4680
 1114SOL    HW114975   2.530   1.225   8.659  0.0218  2.1882 -0.8700
 1114SOL    HW214976   2.457   1.175   8.775 -1.1633 -1.0459 -1.5927
 1115SOL     OW14977   0.643   2.047   2.449  0.2840  0.1979 -0.3270
 1115SOL    HW114978   0.669   2.039   2.358  1.5064  2.7429 -0.2023
 1115SOL    HW214979   0.605   1.961   2.466 -1.0786  0.2861 -2.9323
 1116SOL     OW14980   4.078   0.294   2.947 -0.2039  0.1095  0.3634
 1116SOL    HW114981   4.122   0.274   3.030 -0.8974  1.2308  1.0054
 1116SOL    HW214982   4.053   0.209   2.911 -0.8785  0.0306  1.0217
 1117SOL     OW14983   4.675   3.742   7.085  0.2166 -0.2673  0.5607
 1117SOL    HW114984   4.653   3.835   7.081  1.6011  0.0831  1.2775
 1117SOL    HW214985   4.603   3.701   7.132  1.1810 -1.1670  1.2556
 1118SOL     OW14986   1.547   4.262  10.015 -0.0321 -0.0094  0.9453
 1118SOL    HW114987   1.478   4.273   9.949  1.1220  2.6506  0.2004
 1118SOL    HW214988   1.615   4.212   9.969 -1.3381 -2.1815  1.3374
 1119SOL     OW14989   1.923   0.665   5.970  0.1957 -0.4174  0.1575
 1119SOL    HW114990   1.932   0.758   5.990  0.2635 -0.2684 -0.5778
 1119SOL    HW214991   2.008   0.639   6.005  0.9075 -0.1579 -1.3913
 1120SOL     OW14992   0.410   1.144  17.560 -0.2466  0.1806  0.3663
 1120SOL    HW114993   0.476   1.128  17.493  0.1139  3.1033  0.0067
 1120SOL    HW214994   0.344   1.083  17.529  1.9722 -1.6364 -0.7570
 1121SOL     OW14995   2.274   2.479   9.603  0.4452 -0.3487 -0.1150
 1121SOL    HW114996   2.239   2.426   9.531 -0.4350 -1.0659  0.8580
 1121SOL    HW214997   2.339   2.425   9.648  0.9322  0.6693  0.4070
 1122SOL     OW14998   2.027   3.005   6.276 -0.1774  0.1993 -0.0872
 1122SOL    HW114999   2.103   2.950   6.262  0.2783  0.9147 -0.4601
 1122SOL    HW215000   2.058   3.081   6.225  1.3362 -0.8967 -0.7979
 1123SOL     OW15001   4.542   1.132   4.092 -0.1237 -0.0415  0.3445
 1123SOL    HW115002   4.612   1.173   4.042  1.5080 -1.9233  1.1043
 1123SOL    HW215003   4.499   1.078   4.026  0.5476 -0.3899  0.1921
 1124SOL     OW15004   2.823   3.847   4.654 -0.1417 -0.0795 -0.1364
 1124SOL    HW115005   2.843   3.863   4.562  1.8520  0.6525  0.4110
 1124SOL    HW215006   2.912   3.834   4.688 -0.1245  1.8093  0.5656
 1125SOL     OW15007   0.007   4.148   6.647  0.0015  0.4622  0.6573
 1125SOL    HW115008   0.030   4.065   6.689  0.5470  0.0470 -0.4709
 1125SOL    HW215009   4.683   4.120   6.579 -0.5478 -1.5580  1.9697
 1126SOL     OW15010   2.646   2.541   3.641 -0.5956  0.2404 -0.8505
 1126SOL    HW115011   2.646   2.597   3.564 -0.6594 -1.3914 -2.0361
 1126SOL    HW215012   2.645   2.452   3.606  1.4824  0.4076 -1.3353
 1127SOL     OW15013   1.080   0.429   5.401  0.1475  0.4512 -0.2641
 1127SOL    HW115014   1.153   0.445   5.341  1.0859 -0.9630  0.4930
 1127SOL    HW215015   1.121   0.352   5.440 -1.8115  0.3673  1.6287
 1128SOL     OW15016   0.837   2.167   1.887 -0.4245 -0.0632 -0.0883
 1128SOL    HW115017   0.822   2.151   1.794 -0.0256  0.0605 -0.1704
 1128SOL    HW215018   0.930   2.146   1.896  0.5419  2.9014 -3.3141
 1129SOL     OW15019   4.607   3.774   5.501  0.0230  0.1036  0.6740
 1129SOL    HW115020   4.577   3.856   5.462 -2.4502  0.0274  2.3639
 1129SOL    HW215021   4.629   3.809   5.588 -0.2797 -0.1926  0.8723
 1130SOL     OW15022   2.683   4.536   1.516 -0.1183  0.6094 -0.2897
 1130SOL    HW115023   2.732   4.605   1.470  2.7420  0.5921  2.7692
 1130SOL    HW215024   2.729   4.529   1.600  0.2522 -0.6361 -0.5927
 1131SOL     OW15025   0.622   1.980   1.930 -0.1348  0.5628 -0.0204
 1131SOL    HW115026   0.672   1.914   1.882  0.9243  0.8983  0.6372
 1131SOL    HW215027   0.685   2.052   1.919  1.3288 -0.7084  0.1080
 1132SOL     OW15028   1.637   2.029   1.384  0.1204  0.3286 -0.3777
 1132SOL    HW115029   1.613   2.116   1.352 -0.9921  0.7099  1.4962
 1132SOL    HW215030   1.727   2.037   1.352 -0.8114  0.3680 -2.9315
 1133SOL     OW15031   4.626   3.974   4.678  0.2227  0.2218 -0.4914
 1133SOL    HW115032   4.658   3.903   4.623  3.2690  1.0448  0.2419
 1133SOL    HW215033   4.532   3.955   4.684  0.5340 -2.1303 -3.1968
 1134SOL     OW15034   3.063   4.454   8.769  0.2828  0.0344  0.7956
 1134SOL    HW115035   3.066   4.544   8.735  1.3672 -0.4844 -0.4620
 1134SOL    HW215036   3.039   4.407   8.690  3.2963  2.0268 -1.2957
 1135SOL     OW15037   3.024   0.846   7.143  0.1297  0.3214  0.6233
 1135SOL    HW115038   2.962   0.895   7.089  0.1159 -0.2723  0.1010
 1135SOL    HW215039   3.068   0.918   7.188  1.6539 -0.7457  0.8251
 1136SOL     OW15040   3.523   2.041   4.698 -0.0381 -0.0038 -0.0701
 1136SOL    HW115041   3.589   2.088   4.646  0.6625  0.3357  1.1359
 1136SOL    HW215042   3.565   2.026   4.783 -0.2414  2.4933  0.4673
 1137SOL     OW15043   4.372   2.694  13.710 -0.3202  0.2663  0.3736
 1137SOL    HW115044   4.376   2.787  13.736 -0.4799  0.0461  1.1846
 1137SOL    HW215045   4.465   2.671  13.716 -0.3846 -0.1444 -0.1908
 1138SOL     OW15046   2.768   3.355   4.764 -0.4847 -0.0598  0.1317
 1138SOL    HW115047   2.729   3.411   4.831 -2.6392  1.0199 -1.9838
 1138SOL    HW215048   2.841   3.413   4.743 -1.9833  1.6442 -0.4413
 1139SOL     OW15049   0.509   4.427  12.043 -0.3195 -0.2426  0.3538
 1139SOL    HW115050   0.559   4.506  12.065 -2.3382  0.8407  1.0588
 1139SOL    HW215051   0.513   4.422  11.947 -0.4731 -1.5333  0.4131
 1140SOL     OW15052   1.276   1.777  11.994 -0.1752 -0.5389 -0.0258
 1140SOL    HW115053   1.285   1.711  12.062 -0.5605 -1.5863 -1.0054
 1140SOL    HW215054   1.246   1.731  11.915  1.5210 -2.1028  0.2554
 1141SOL     OW15055   0.020   4.329   6.862 -0.1434 -0.4633 -0.2974
 1141SOL    HW115056   0.021   4.261   6.930 -1.7185 -0.9748 -0.7776
 1141SOL    HW215057   0.004   4.278   6.782 -4.4433  1.2042 -0.4815
 1142SOL     OW15058   0.148   1.312   2.982 -0.0222  0.7006 -0.0652
 1142SOL    HW115059   0.230   1.314   3.032 -1.1022  2.7656  1.6364
 1142SOL    HW215060   0.173   1.362   2.904  1.8905  1.1820  0.8500
 1143SOL     OW15061   2.151   2.964   1.643 -0.1558 -0.5205  0.0792
 1143SOL    HW115062   2.243   2.988   1.648 -0.5662  0.6546  1.7695
 1143SOL    HW215063   2.154   2.882   1.593  1.6922 -1.8401  2.3780
 1144SOL     OW15064   1.480   1.800   2.896 -0.0787 -0.0955 -0.2174
 1144SOL    HW115065   1.567   1.817   2.933 -1.6276  0.7711  2.9682
 1144SOL    HW215066   1.487   1.706   2.882 -0.2975 -0.2108  0.4756
 1145SOL     OW15067   4.019   2.286  10.563 -0.4619 -0.1635  0.2661
 1145SOL    HW115068   4.074   2.209  10.551 -0.1306 -0.0325  0.9046
 1145SOL    HW215069   3.964   2.256  10.636 -0.4744 -0.6965  0.0363
 1146SOL     OW15070   3.269   4.290   8.759 -0.3563  0.2221 -0.7306
 1146SOL    HW115071   3.282   4.257   8.848  2.3639 -1.2769 -1.7162
 1146SOL    HW215072   3.213   4.366   8.774  0.3929  0.4843  0.7610
 1147SOL     OW15073   1.202   2.937   7.462 -0.4277  0.1062 -0.3750
 1147SOL    HW115074   1.128   2.994   7.442  0.7329  1.9051  0.4798
 1147SOL    HW215075   1.226   2.906   7.375  0.8516 -1.8453  0.6758
 1148SOL     OW15076   1.351   3.911   3.791  0.0671 -0.0141  0.4123
 1148SOL    HW115077   1.374   3.978   3.727 -0.0850  0.8339  1.2484
 1148SOL    HW215078   1.379   3.956   3.871 -1.4711 -0.5100  1.2337
 1149SOL     OW15079   0.595   4.256   8.815 -0.1971  0.3574  0.0472
 1149SOL    HW115080   0.549   4.214   8.743 -0.3447 -1.8813  1.4297
 1149SOL    HW215081   0.639   4.186   8.863  0.9886  0.6601 -0.5997
 1150SOL     OW15082   2.276   1.075   0.225  0.6724 -0.3662  0.3827
 1150SOL    HW115083   2.329   1.152   0.204 -1.2394  0.3255 -1.8905
 1150SOL    HW215084   2.337   1.013   0.263  0.0854 -1.0952  0.1369
 1151SOL     OW15085   0.825   4.503   8.728 -0.1117 -0.0621  0.0788
 1151SOL    HW115086   0.920   4.505   8.713 -0.1290  1.1871  0.1394
 1151SOL    HW215087   0.823   4.437   8.797  0.9935  0.2142  0.3745
 1152SOL     OW15088   1.942   3.888  15.780  0.2013 -1.0017  0.0749
 1152SOL    HW115089   1.900   3.969  15.749  0.0722 -0.6458  1.1808
 1152SOL    HW215090   2.030   3.923  15.793  0.1551 -0.0492 -2.0841
 1153SOL     OW15091   3.955   3.182   6.663  0.0005 -0.2403  0.0205
 1153SOL    HW115092   3.900   3.113   6.699  0.4644 -0.0172  1.1817
 1153SOL    HW215093   3.926   3.181   6.572 -0.4336 -1.7261  0.1788
 1154SOL     OW15094   3.000   0.716   8.468 -0.4111  0.1182  0.6211
 1154SOL    HW115095   2.964   0.730   8.380  1.8218  3.2754  0.1907
 1154SOL    HW215096   3.002   0.620   8.470 -1.5226  0.1381  3.1117
 1155SOL     OW15097   0.385   3.480   9.689 -0.5575 -1.1249 -0.6470
 1155SOL    HW115098   0.368   3.387   9.697 -0.2734 -0.8299  3.0923
 1155SOL    HW215099   0.315   3.499   9.626 -1.7605  0.2864  1.1315
 1156SOL     OW15100   3.838   0.201   5.025  0.2444 -0.1591  0.4211
 1156SOL    HW115101   3.932   0.181   5.025 -0.4634 -3.4303 -1.1422
 1156SOL    HW215102   3.800   0.140   4.961 -1.7516 -0.5600  1.9932
 1157SOL     OW15103   3.240   4.423   9.114  0.2229  0.0368  0.0223
 1157SOL    HW115104   3.160   4.410   9.063  0.1086 -1.1863  0.5259
 1157SOL    HW215105   3.262   4.334   9.141 -0.9894 -1.0935 -2.7318
 1158SOL     OW15106   4.569   2.806  16.234  0.1349  0.0571  0.5930
 1158SOL    HW115107   4.509   2.738  16.203 -0.7292  0.1455  2.0473
 1158SOL    HW215108   4.649   2.756  16.253  1.3161  1.1156 -1.6712
 1159SOL     OW15109   0.654   0.289   2.480 -0.3101 -0.1790  0.2951
 1159SOL    HW115110   0.575   0.297   2.425  0.4327 -0.5296 -0.8256
 1159SOL    HW215111   0.644   0.354   2.549  0.0070 -1.2108  1.3019
 1160SOL     OW15112   3.218   0.824   7.719  0.2665 -0.3510  0.3458
 1160SOL    HW115113   3.307   0.827   7.684  1.0095 -3.3634  1.9415
 1160SOL    HW215114   3.162   0.819   7.642  1.3191  0.9841 -0.5171
 1161SOL     OW15115   1.179   1.086   3.565  0.1123 -0.3630  0.1546
 1161SOL    HW115116   1.100   1.136   3.585  0.6593  1.1413 -1.4890
 1161SOL    HW215117   1.156   1.054   3.479  2.8081 -0.8745 -0.3923
 1162SOL     OW15118   4.167   3.752   7.195  0.3883 -0.1864  0.1437
 1162SOL    HW115119   4.159   3.816   7.124  1.1968 -1.7857 -1.3845
 1162SOL    HW215120   4.094   3.765   7.256 -0.2404  0.1722 -0.6714
 1163SOL     OW15121   0.604   4.001   4.890 -0.3957 -0.4424  0.0199
 1163SOL    HW115122   0.659   3.943   4.943  0.5790  1.5867  1.2563
 1163SOL    HW215123   0.590   4.072   4.953  0.1615  0.9425 -1.4111
 1164SOL     OW15124   3.010   2.654   4.945  0.1101 -0.1476  0.2226
 1164SOL    HW115125   3.002   2.562   4.971  3.3567 -0.8029 -1.0939
 1164SOL    HW215126   2.920   2.685   4.954  0.4978  1.2639 -0.8411
 1165SOL     OW15127   3.631   0.042   8.503 -0.1329  0.4356 -0.4514
 1165SOL    HW115128   3.622   0.098   8.580  1.2495  0.9873 -0.6942
 1165SOL    HW215129   3.542   0.016   8.480  0.7608 -2.2178 -0.9719
 1166SOL     OW15130   3.982   3.755   5.599 -0.3546 -0.0050 -0.3641
 1166SOL    HW115131   3.911   3.785   5.656  1.2168 -0.1136  1.6911
 1166SOL    HW215132   3.999   3.839   5.557  0.6920  0.4512  0.9566
 1167SOL     OW15133   2.403   0.005   7.012 -0.6013 -0.5667  0.3483
 1167SOL    HW115134   2.486   0.009   6.964 -0.2841  0.2158  0.9747
 1167SOL    HW215135   2.436   0.045   7.093 -1.7222  2.3759 -0.6499
 1168SOL     OW15136   4.512   0.001   3.444  0.1866 -0.3885 -0.1226
 1168SOL    HW115137   4.426   4.697   3.448 -1.1173  2.6245  3.2603
 1168SOL    HW215138   4.570   4.680   3.395 -0.3107 -1.1459  0.2051
 1169SOL     OW15139   0.495   3.667   9.473 -0.2096  0.4408  0.0884
 1169SOL    HW115140   0.527   3.617   9.548  0.0820  2.0940  1.0588
 1169SOL    HW215141   0.561   3.736   9.477 -0.1298  0.2848  1.4756
 1170SOL     OW15142   3.044   0.397   1.904 -0.1177  0.2580 -0.5438
 1170SOL    HW115143   2.981   0.357   1.965 -0.8501 -0.3792 -1.7315
 1170SOL    HW215144   3.131   0.394   1.943 -0.7401 -1.3198  0.7237
 1171SOL     OW15145   3.070   1.186   0.730  0.0265 -0.2850  0.0047
 1171SOL    HW115146   3.101   1.098   0.710 -0.5154 -0.8866  1.7617
 1171SOL    HW215147   3.111   1.193   0.816 -0.9746 -0.9613  0.5389
 1172SOL     OW15148   0.359   0.929   3.830  0.1823  0.2694  0.1068
 1172SOL    HW115149   0.304   0.933   3.909  0.4049  1.8354  0.1958
 1172SOL    HW215150   0.397   0.842   3.839  1.0206  0.6925  0.5837
 1173SOL     OW15151   2.354   3.683  11.532  0.4331 -0.2688  0.0194
 1173SOL    HW115152   2.347   3.594  11.497  0.0249  0.3011 -1.3861
 1173SOL    HW215153   2.444   3.709  11.510  0.1397  0.0439 -0.8046
 1174SOL     OW15154   2.325   2.786   9.967 -0.2952  0.0359  0.0384
 1174SOL    HW115155   2.275   2.761   9.890  1.7939  1.4814 -1.7792
 1174SOL    HW215156   2.285   2.866   9.999  0.6939  1.2205 -1.7181
 1175SOL     OW15157   3.021   1.648   2.704 -0.4292 -0.9003 -0.5522
 1175SOL    HW115158   3.025   1.613   2.793 -4.1909 -0.2890 -0.1441
 1175SOL    HW215159   3.094   1.709   2.709 -0.9534 -0.5612  3.3964
 1176SOL     OW15160   2.363   3.368   7.893  0.1384 -0.2399  0.0663
 1176SOL    HW115161   2.422   3.401   7.961 -0.7611 -4.2623  2.8299
 1176SOL    HW215162   2.378   3.431   7.822  1.0915 -2.0537 -1.3421
 1177SOL     OW15163   0.851   4.581   4.085 -0.1039 -0.2449  0.0383
 1177SOL    HW115164   0.771   4.617   4.047 -1.1808 -0.9608  1.5961
 1177SOL    HW215165   0.837   4.566   4.179 -2.4005 -0.0514 -0.2817
 1178SOL     OW15166   1.418   3.976   7.137 -0.2160 -0.4668 -0.6020
 1178SOL    HW115167   1.376   4.015   7.060 -1.3090  0.3257  0.4060
 1178SOL    HW215168   1.460   4.049   7.181 -0.8075  0.2275 -1.1911
 1179SOL     OW15169   4.682   3.408   2.908 -0.1792 -0.1074  0.2814
 1179SOL    HW115170   4.725   3.456   2.980  1.1518 -1.8061  0.6179
 1179SOL    HW215171   4.638   3.478   2.860  1.7217 -0.7036 -2.3325
 1180SOL     OW15172   3.631   4.130   5.867 -0.2470 -0.2215 -1.0459
 1180SOL    HW115173   3.565   4.072   5.904 -0.9401  2.2650  1.6290
 1180SOL    HW215174   3.583   4.213   5.872 -0.4885 -0.4163 -0.2110
 1181SOL     OW15175   4.414   0.790   0.163 -0.1105 -0.0293  0.0552
 1181SOL    HW115176   4.416   0.882   0.135 -0.8036 -0.6566 -2.0456
 1181SOL    HW215177   4.436   0.745   0.082  1.0150 -0.6033  0.6749
 1182SOL     OW15178   4.101   0.981   4.279 -0.8402  0.4141  0.2992
 1182SOL    HW115179   4.080   1.056   4.223 -1.5384 -0.8853 -1.1832
 1182SOL    HW215180   4.175   1.011   4.331  0.4526 -3.4952  0.7514
 1183SOL     OW15181   0.567   1.918  12.166  0.2348  0.1474  0.3613
 1183SOL    HW115182   0.635   1.977  12.136  0.0877  0.4593  0.6383
 1183SOL    HW215183   0.580   1.921  12.261  1.2858  1.1059  0.1843
 1184SOL     OW15184   1.669   4.053   2.808 -0.2754 -0.7137 -0.0069
 1184SOL    HW115185   1.648   4.127   2.751 -0.8902 -0.6320  0.3210
 1184SOL    HW215186   1.584   4.014   2.827  1.5298 -2.8457  3.7314
 1185SOL     OW15187   0.349   2.642   7.160 -0.4191 -0.4376  0.1660
 1185SOL    HW115188   0.285   2.639   7.089  0.9497  0.8501 -1.1135
 1185SOL    HW215189   0.355   2.546   7.163  0.3323 -0.3483  1.6483
 1186SOL     OW15190   3.010   1.622   5.404  0.7012  0.3052  0.1079
 1186SOL    HW115191   3.015   1.675   5.324  0.5852 -0.8284 -0.6589
 1186SOL    HW215192   2.965   1.544   5.371  1.1140  0.4582 -0.8208
 1187SOL     OW15193   3.240   1.347  10.541 -0.1657 -0.0303 -0.2929
 1187SOL    HW115194   3.158   1.314  10.577  1.3460 -2.2503  1.1234
 1187SOL    HW215195   3.203   1.370  10.456 -1.2441 -0.5520  0.0450
 1188SOL     OW15196   1.653   4.642   5.733  0.1293 -0.0447  0.4907
 1188SOL    HW115197   1.735   4.606   5.767 -0.1480  0.0186  1.2190
 1188SOL    HW215198   1.665   4.736   5.741  2.8103 -0.2322 -1.0585
 1189SOL     OW15199   1.265   1.625   9.990  0.2181  0.8613  0.0887
 1189SOL    HW115200   1.222   1.648  10.073 -1.1781  2.7583 -1.1577
 1189SOL    HW215201   1.197   1.573   9.947  0.5589 -0.2456  0.8839
 1190SOL     OW15202   1.320   3.389   3.406 -0.3676 -0.0021 -0.0237
 1190SOL    HW115203   1.288   3.446   3.476  2.0689  0.7487  0.4662
 1190SOL    HW215204   1.310   3.308   3.455 -0.0323  1.6261  2.7395
 1191SOL     OW15205   2.145   0.987  15.754 -0.5410 -0.2299 -0.3454
 1191SOL    HW115206   2.192   1.038  15.688  0.8011  1.5947  2.0555
 1191SOL    HW215207   2.078   1.049  15.782  0.7569  0.1183  2.0014
 1192SOL     OW15208   1.761   1.900  16.162 -0.1287 -0.2907 -0.5135
 1192SOL    HW115209   1.737   1.929  16.074 -1.6794 -1.5420 -0.4855
 1192SOL    HW215210   1.678   1.864  16.193  0.2471 -0.3759  0.4001
 1193SOL     OW15211   1.990   0.370  15.610  0.5357  0.1364 -0.2105
 1193SOL    HW115212   2.047   0.392  15.684  2.8716  1.0728 -2.2856
 1193SOL    HW215213   1.902   0.389  15.644 -0.9508 -1.1201 -3.2918
 1194SOL     OW15214   3.093   2.081  13.933 -0.2291  0.1219  0.2616
 1194SOL    HW115215   3.034   2.016  13.971  1.5223 -0.4813  1.9628
 1194SOL    HW215216   3.135   2.018  13.874  0.0947  2.7465 -2.2986
 1195SOL     OW15217   0.798   2.993   6.903  0.4631 -0.2662 -0.0738
 1195SOL    HW115218   0.707   2.982   6.877 -0.4003  0.5790  2.6701
 1195SOL    HW215219   0.806   2.939   6.981  0.4886 -0.9607 -0.5535
 1196SOL     OW15220   1.504   3.820   7.773 -0.1479 -0.4734  0.7448
 1196SOL    HW115221   1.464   3.859   7.695  2.5438  0.4701 -0.1684
 1196SOL    HW215222   1.554   3.745   7.740 -0.1132  0.3363 -1.0066
 1197SOL     OW15223   3.685   1.912   3.662 -0.2748 -0.6347  0.2369
 1197SOL    HW115224   3.711   1.824   3.636 -1.4946 -1.1336  0.6903
 1197SOL    HW215225   3.642   1.894   3.746  1.8339  0.5823  1.5668
 1198SOL     OW15226   0.423   3.095  11.015 -0.1246 -0.2833  0.2083
 1198SOL    HW115227   0.367   3.019  10.996 -0.7521 -0.3001  2.1535
 1198SOL    HW215228   0.397   3.152  10.942  0.4684  0.1367  0.3322
 1199SOL     OW15229   3.701   2.521  14.927 -0.2846  0.1892  0.0139
 1199SOL    HW115230   3.657   2.487  14.849  0.4509 -0.1842 -0.2343
 1199SOL    HW215231   3.652   2.602  14.943 -1.3764 -0.3375 -0.7006
 1200SOL     OW15232   1.970   3.517   1.434 -0.2917  0.2028 -0.0390
 1200SOL    HW115233   1.971   3.540   1.341  0.0570 -0.2106 -0.1402
 1200SOL    HW215234   1.921   3.435   1.444  0.1581  0.1314  1.5179
 1201SOL     OW15235   1.120   3.403   3.843 -0.2895 -0.1553  0.0256
 1201SOL    HW115236   1.090   3.316   3.816 -0.2245  0.2176 -1.2420
 1201SOL    HW215237   1.193   3.416   3.783 -0.0795  1.1156  0.5448
 1202SOL     OW15238   2.780   1.079   7.291  0.2923 -0.1196 -0.3689
 1202SOL    HW115239   2.733   1.158   7.263 -0.6436 -0.3705  0.5182
 1202SOL    HW215240   2.818   1.124   7.367 -0.6228  0.0517 -0.0107
 1203SOL     OW15241   0.605   1.417  17.435  0.0659 -0.0378 -0.4395
 1203SOL    HW115242   0.525   1.388  17.391  1.1845 -0.5154 -2.1641
 1203SOL    HW215243   0.662   1.424  17.358 -0.6692  0.8415 -0.8940
 1204SOL     OW15244   1.116   1.836   2.202 -0.1018  0.5340  0.5326
 1204SOL    HW115245   1.182   1.766   2.201 -0.5414  0.1217  0.5300
 1204SOL    HW215246   1.096   1.847   2.295 -0.2521  0.1951  0.5433
 1205SOL     OW15247   0.649   2.643   3.738  0.5713  0.3685 -0.3278
 1205SOL    HW115248   0.560   2.644   3.704  0.8099  1.2056 -0.9162
 1205SOL    HW215249   0.673   2.560   3.696 -0.5945  1.2926 -2.8251
 1206SOL     OW15250   2.698   2.131  16.669 -0.5964 -0.6319 -0.3998
 1206SOL    HW115251   2.784   2.090  16.663 -1.0183 -1.3138 -1.7990
 1206SOL    HW215252   2.668   2.136  16.578  1.1306  0.0771 -0.9218
 1207SOL     OW15253   1.745   1.096   1.783  0.4260  0.2509  0.2762
 1207SOL    HW115254   1.668   1.055   1.824  0.0250  1.0535  0.3217
 1207SOL    HW215255   1.810   1.104   1.852 -0.7174  0.5544  1.3178
 1208SOL     OW15256   1.037   0.029   1.901 -0.3381  0.7165 -0.4431
 1208SOL    HW115257   0.965   0.029   1.964  0.7509  1.4349  0.8141
 1208SOL    HW215258   0.994   0.079   1.832 -1.6306  0.1688 -0.0407
 1209SOL     OW15259   2.748   1.681   4.025 -0.2748 -0.2915  0.0398
 1209SOL    HW115260   2.779   1.606   3.975 -2.1742 -0.7556 -0.4394
 1209SOL    HW215261   2.657   1.689   3.998 -0.2951  0.4117  0.2981
 1210SOL     OW15262   4.390   2.079   3.353 -0.1741  0.2071  0.3379
 1210SOL    HW115263   4.383   2.038   3.439  0.9358  1.2359  0.9300
 1210SOL    HW215264   4.477   2.119   3.355 -0.0111 -0.2068  1.3938
 1211SOL     OW15265   1.735   2.115  13.942  0.2292 -0.2209  0.1853
 1211SOL    HW115266   1.641   2.127  13.926 -0.2084 -3.0203  0.7377
 1211SOL    HW215267   1.735   2.163  14.025  0.8463  2.6481 -1.4806
 1212SOL     OW15268   0.349   0.023   1.380 -0.3763  0.2746 -0.4484
 1212SOL    HW115269   0.403   0.064   1.313 -0.3506  1.9078  0.5799
 1212SOL    HW215270   0.377   0.077   1.454 -1.7238  1.5901 -0.8963
 1213SOL     OW15271   0.388   2.131   2.347  0.1096 -0.3032 -0.2940
 1213SOL    HW115272   0.425   2.213   2.314 -0.6129  0.2612  0.3192
 1213SOL    HW215273   0.467   2.086   2.379  0.0072 -0.8007 -0.7376
 1214SOL     OW15274   1.538   2.669   2.648  1.0750 -0.2002  0.4910
 1214SOL    HW115275   1.559   2.702   2.736  2.9690 -1.0391  0.3509
 1214SOL    HW215276   1.498   2.746   2.608  1.9794  0.1900  0.3335
 1215SOL     OW15277   4.298   0.244   1.369  0.2652 -0.0636  0.0724
 1215SOL    HW115278   4.249   0.162   1.368  1.5935 -0.8426 -1.1429
 1215SOL    HW215279   4.385   0.209   1.349  0.2523 -0.9656  1.6072
 1216SOL     OW15280   1.311   2.376   9.743  0.3548  1.0275  0.0508
 1216SOL    HW115281   1.228   2.419   9.723  0.3541 -0.3209 -2.8402
 1216SOL    HW215282   1.334   2.415   9.828 -1.7567 -1.1647  1.6314
 1217SOL     OW15283   2.197   2.757   3.847 -0.1047 -0.0171  0.6259
 1217SOL    HW115284   2.266   2.822   3.842  0.8755 -0.9120  2.3768
 1217SOL    HW215285   2.120   2.813   3.835  0.6506  1.1081  1.0011
 1218SOL     OW15286   3.539   2.975   1.583  0.9887 -0.2454  0.2867
 1218SOL    HW115287   3.522   3.005   1.672  2.2932  2.4905 -0.4096
 1218SOL    HW215288   3.476   3.031   1.537  1.2738 -2.2303 -2.5376
 1219SOL     OW15289   1.618   1.796   5.760  0.3064  0.4660  0.2387
 1219SOL    HW115290   1.588   1.860   5.696  3.0750  1.3465 -0.1457
 1219SOL    HW215291   1.710   1.819   5.768  1.0754 -1.1439 -3.9890
 1220SOL     OW15292   4.424   2.637   6.286 -0.3836  0.2205  0.4001
 1220SOL    HW115293   4.480   2.710   6.311 -1.4586  1.3081 -0.3726
 1220SOL    HW215294   4.466   2.610   6.205 -0.7462  2.7432 -0.6303
 1221SOL     OW15295   1.651   2.002   6.104 -0.1706  0.2965  0.0937
 1221SOL    HW115296   1.576   2.058   6.122 -0.5775 -0.2203  0.0291
 1221SOL    HW215297   1.646   1.939   6.176 -2.9215  1.3925  0.8472
 1222SOL     OW15298   3.617   4.217   9.029 -0.2751  0.4464  0.2680
 1222SOL    HW115299   3.535   4.194   8.985 -0.4449 -1.2550  1.5093
 1222SOL    HW215300   3.622   4.308   8.998 -0.8202  0.3149 -0.2211
 1223SOL     OW15301   1.901   3.224  12.021 -0.7140 -0.9956 -0.1916
 1223SOL    HW115302   1.985   3.226  12.068  0.0705  0.7172 -1.6961
 1223SOL    HW215303   1.899   3.317  11.997  0.9409 -0.4484  1.7536
 1224SOL     OW15304   0.520   3.246   4.831 -0.0511  0.2611  0.0332
 1224SOL    HW115305   0.532   3.341   4.839  0.2216  0.1411  1.0008
 1224SOL    HW215306   0.542   3.237   4.738 -0.0432 -0.4346  0.1032
 1225SOL     OW15307   2.192   2.622  12.151 -0.1801  0.0373 -0.0495
 1225SOL    HW115308   2.172   2.653  12.062 -1.4277  0.1524  0.2714
 1225SOL    HW215309   2.178   2.701  12.203 -0.6186 -2.1185  3.0970
 1226SOL     OW15310   3.075   0.658   4.423 -0.1413  0.2491  0.0699
 1226SOL    HW115311   3.137   0.599   4.380 -0.4401 -0.6646  0.8740
 1226SOL    HW215312   3.046   0.712   4.349 -2.0609 -0.6029  0.1810
 1227SOL     OW15313   1.967   1.100   1.991  0.2221  0.2485 -0.6173
 1227SOL    HW115314   2.033   1.032   2.006  1.2426  1.5126  0.5757
 1227SOL    HW215315   2.010   1.178   2.023  0.6004 -0.0630 -0.3687
 1228SOL     OW15316   0.953   2.860  17.351  0.3941  0.1626 -0.3021
 1228SOL    HW115317   0.943   2.772  17.389  0.6532  1.4370  2.6447
 1228SOL    HW215318   0.968   2.904  17.435 -2.1533  0.9218 -0.2389
 1229SOL     OW15319   4.181   2.711   2.137 -0.3012 -0.2191  0.0633
 1229SOL    HW115320   4.257   2.676   2.184  1.2988  1.8382 -0.9954
 1229SOL    HW215321   4.174   2.651   2.063  1.7201  1.2176 -1.2702
 1230SOL     OW15322   4.258   2.090   4.604  0.1825  0.0518 -0.4369
 1230SOL    HW115323   4.255   2.018   4.666 -1.3712 -1.5072 -2.3042
 1230SOL    HW215324   4.345   2.125   4.621 -0.8882  0.8630  3.3258
 1231SOL     OW15325   1.790   0.989  13.264  0.2679 -0.2169  0.0477
 1231SOL    HW115326   1.697   0.973  13.248  0.5452 -0.8275 -0.9028
 1231SOL    HW215327   1.812   1.061  13.205 -1.7929  0.1213 -0.3254
 1232SOL     OW15328   4.349   0.655  13.959 -0.3266  0.1491 -0.0905
 1232SOL    HW115329   4.378   0.619  13.875 -0.4689 -0.2100  0.0137
 1232SOL    HW215330   4.271   0.599  13.966  0.8073 -1.7231 -2.1728
 1233SOL     OW15331   3.763   0.626  11.077  0.0535 -0.0514 -0.1799
 1233SOL    HW115332   3.791   0.679  11.002 -0.5598 -0.5178 -0.7380
 1233SOL    HW215333   3.815   0.660  11.149 -1.4730  1.3470  0.2637
 1234SOL     OW15334   0.248   1.310   6.958 -0.0131 -0.3955 -0.0108
 1234SOL    HW115335   0.180   1.282   7.019 -0.1751  1.9796  0.8841
 1234SOL    HW215336   0.327   1.317   7.011  0.4459  0.0947 -0.7595
 1235SOL     OW15337   1.871   1.837   1.255  0.1114 -0.4824  0.1796
 1235SOL    HW115338   1.911   1.923   1.252 -1.6415  0.3921  1.5102
 1235SOL    HW215339   1.820   1.829   1.175  0.6114 -4.5769  0.2682
 1236SOL     OW15340   0.372   1.231   5.269 -0.4803  0.8060  0.3554
 1236SOL    HW115341   0.419   1.203   5.347  0.8150  2.8567  0.3226
 1236SOL    HW215342   0.330   1.151   5.239  1.5380 -0.2511  0.3329
 1237SOL     OW15343   3.384   0.447  10.075  0.1372  0.3605  0.0383
 1237SOL    HW115344   3.379   0.410  10.163 -2.5004 -0.0234 -0.2681
 1237SOL    HW215345   3.396   0.540  10.091  0.7968  0.6089 -1.8613
 1238SOL     OW15346   2.265   0.493  16.690  0.1005 -0.2325  0.4561
 1238SOL    HW115347   2.308   0.512  16.606  2.0414 -0.5338  1.3977
 1238SOL    HW215348   2.186   0.445  16.664 -1.8442  3.8601 -1.2345
 1239SOL     OW15349   0.580   3.242   8.607 -0.3754 -0.0798 -0.4758
 1239SOL    HW115350   0.527   3.184   8.552 -1.3280  0.4152 -0.0717
 1239SOL    HW215351   0.663   3.195   8.602 -0.6177 -0.6441  0.8689
 1240SOL     OW15352   2.569   2.795   8.799  0.3016  0.3389  0.6825
 1240SOL    HW115353   2.571   2.890   8.792  0.0188  0.2866 -0.1044
 1240SOL    HW215354   2.588   2.766   8.710  1.8219  1.7023  0.5647
 1241SOL     OW15355   1.859   3.736   1.017 -0.7014 -0.9315 -0.7476
 1241SOL    HW115356   1.861   3.686   0.935 -1.8606 -0.2790 -1.1732
 1241SOL    HW215357   1.868   3.824   0.980  1.3632 -0.4924  0.8024
 1242SOL     OW15358   3.661   0.768   6.385  0.2264  0.8111 -0.4336
 1242SOL    HW115359   3.692   0.697   6.329  1.0234  1.8427 -1.2985
 1242SOL    HW215360   3.567   0.764   6.370  0.0574  0.4520  0.7185
 1243SOL     OW15361   4.642   2.025   5.706  0.3522  1.1839 -0.0784
 1243SOL    HW115362   4.725   2.055   5.743  1.5749  0.9360 -2.6173
 1243SOL    HW215363   4.653   2.038   5.611 -0.6514  1.8529 -0.1117
 1244SOL     OW15364   2.356   2.642   4.237 -0.7215  0.1338 -0.0081
 1244SOL    HW115365   2.374   2.723   4.285 -0.2519 -0.7798  1.3589
 1244SOL    HW215366   2.439   2.596   4.243 -1.8583 -2.1977 -2.1927
 1245SOL     OW15367   1.412   4.690   5.808 -0.2262 -0.0941 -0.3106
 1245SOL    HW115368   1.502   4.666   5.788  0.0799 -0.0768  1.0410
 1245SOL    HW215369   1.355   4.615   5.786 -0.4307 -0.3342  1.0385
 1246SOL     OW15370   0.278   4.010   8.619  0.0572 -0.4827  0.0942
 1246SOL    HW115371   0.345   3.965   8.568  0.5570 -1.5744  1.7533
 1246SOL    HW215372   0.320   4.096   8.617 -0.2408 -0.3843 -2.6601
 1247SOL     OW15373   0.080   0.927   7.808  0.0332  0.6987  0.2460
 1247SOL    HW115374   0.029   1.007   7.824 -0.7794 -0.0998  1.6781
 1247SOL    HW215375   0.039   0.905   7.724 -0.1179  0.9885  0.2451
 1248SOL     OW15376   1.017   3.621  13.522  0.3850  0.5502 -0.7002
 1248SOL    HW115377   1.009   3.626  13.618 -0.8569 -1.5609 -0.6915
 1248SOL    HW215378   1.087   3.557  13.509 -0.5751 -0.5424 -0.4617
 1249SOL     OW15379   1.973   1.915   6.839  0.2449  0.1592 -0.6550
 1249SOL    HW115380   1.957   1.941   6.748 -2.5924 -0.2555 -0.2645
 1249SOL    HW215381   2.049   1.971   6.854  0.5418 -0.8861  1.7297
 1250SOL     OW15382   2.546   0.601   7.330  0.5186 -0.2554 -1.1530
 1250SOL    HW115383   2.569   0.691   7.307 -2.0245  1.1132  1.5403
 1250SOL    HW215384   2.548   0.568   7.241  1.3684  0.3075 -1.3457
 1251SOL     OW15385   1.752   2.063  11.209  0.2910  0.1674  0.5664
 1251SOL    HW115386   1.749   1.992  11.274  0.3453 -0.8712 -0.5560
 1251SOL    HW215387   1.841   2.093  11.226 -0.3328  2.2148  0.2386
 1252SOL     OW15388   0.107   0.427   8.118  0.3524 -0.4543 -0.0464
 1252SOL    HW115389   0.097   0.369   8.043 -0.7096  0.6073 -0.7264
 1252SOL    HW215390   0.122   0.511   8.073  0.2391 -1.0805 -1.2606
 1253SOL     OW15391   2.535   0.500   1.523 -0.1359 -0.0582  0.5422
 1253SOL    HW115392   2.495   0.556   1.590 -2.3758 -1.1065  0.1061
 1253SOL    HW215393   2.491   0.537   1.446  3.0588  0.6858 -0.8985
 1254SOL     OW15394   1.069   1.581   6.153 -0.0679 -0.2125 -0.5088
 1254SOL    HW115395   1.088   1.628   6.072 -0.0005  0.3500 -0.1710
 1254SOL    HW215396   1.076   1.649   6.221 -3.8812  0.3568 -0.7304
 1255SOL     OW15397   3.598   3.727   5.471  0.3131  0.5628 -0.4311
 1255SOL    HW115398   3.556   3.696   5.391 -2.2197 -1.1981  1.6097
 1255SOL    HW215399   3.577   3.821   5.470 -1.9237  0.0569 -0.2700
 1256SOL     OW15400   3.318   3.849   3.387  0.6773 -0.3151 -0.5061
 1256SOL    HW115401   3.242   3.908   3.387  0.7043 -0.2790  0.0429
 1256SOL    HW215402   3.309   3.806   3.302 -0.8677  1.4021 -1.2074
 1257SOL     OW15403   3.568   0.467   0.506  0.1751 -0.0958 -0.6992
 1257SOL    HW115404   3.647   0.490   0.458 -0.8346  3.2280 -0.7985
 1257SOL    HW215405   3.527   0.403   0.448  0.5686 -0.7468 -0.2615
 1258SOL     OW15406   1.096   2.825   3.266  0.1862  0.1778 -0.1082
 1258SOL    HW115407   1.005   2.848   3.286  1.2760  2.6298  1.9664
 1258SOL    HW215408   1.106   2.816   3.171  0.4958 -1.7796  0.1116
 1259SOL     OW15409   2.805   3.976   7.656 -0.3439 -0.8643 -0.0831
 1259SOL    HW115410   2.835   3.916   7.725 -2.2560 -0.9374  0.6737
 1259SOL    HW215411   2.731   3.928   7.618 -0.5394  0.3897 -1.2622
 1260SOL     OW15412   4.437   4.374  13.158  0.2661  0.1758 -0.3127
 1260SOL    HW115413   4.382   4.363  13.081 -0.5586 -0.7299  0.4137
 1260SOL    HW215414   4.444   4.470  13.163  1.4411  0.1562 -1.7293
 1261SOL     OW15415   1.427   2.751   3.940  1.0653 -0.0031 -0.0041
 1261SOL    HW115416   1.490   2.822   3.927 -0.2735  1.3281  0.8350
 1261SOL    HW215417   1.471   2.686   3.996 -1.1837  0.2360  2.0181
 1262SOL     OW15418   0.256   3.657  10.704  0.1092 -0.0095 -0.0599
 1262SOL    HW115419   0.258   3.708  10.785 -1.4815  4.2386 -2.6472
 1262SOL    HW215420   0.345   3.623  10.699  0.0712  0.0130 -0.9389
 1263SOL     OW15421   3.663   1.292   5.089  0.2829 -0.3014  0.0460
 1263SOL    HW115422   3.739   1.284   5.147  0.0451 -0.7509  0.2982
 1263SOL    HW215423   3.660   1.387   5.077  1.5874 -0.3658 -0.7120
 1264SOL     OW15424   2.917   4.090  10.868 -0.2684 -0.0951  0.2534
 1264SOL    HW115425   2.980   4.047  10.810  0.5681  1.1800  0.2151
 1264SOL    HW215426   2.896   4.165  10.813  4.2251  1.2313  0.4001
 1265SOL     OW15427   1.316   3.388   7.232 -0.5788 -0.0721  0.6000
 1265SOL    HW115428   1.407   3.414   7.220 -0.7881  0.1933 -0.4013
 1265SOL    HW215429   1.270   3.445   7.170 -0.2121  0.7439  1.0830
 1266SOL     OW15430   0.486   1.307   7.085 -0.3603 -0.5188  0.0689
 1266SOL    HW115431   0.558   1.292   7.023  0.6923 -3.1683  1.9186
 1266SOL    HW215432   0.534   1.368   7.141 -0.1154 -0.6378 -0.0105
 1267SOL     OW15433   0.389   3.957   6.531 -0.0625 -0.2140  0.3202
 1267SOL    HW115434   0.469   3.947   6.479  0.2399 -0.2612  0.7927
 1267SOL    HW215435   0.407   4.031   6.589 -2.2578  1.3344 -0.9744
 1268SOL     OW15436   3.903   4.632  17.514  0.2290  0.6761 -0.2018
 1268SOL    HW115437   3.844   4.682  17.458 -0.8254 -1.3491 -0.9025
 1268SOL    HW215438   3.978   4.616  17.456 -0.2752  1.6233 -1.1029
 1269SOL     OW15439   4.200   2.419  15.675  0.1885  0.2567 -0.2464
 1269SOL    HW115440   4.269   2.357  15.653 -0.7861 -0.8355 -0.2179
 1269SOL    HW215441   4.143   2.366  15.731 -0.4268  1.2871  0.1073
 1270SOL     OW15442   3.958   1.944   9.015 -0.0472  0.1544  0.1049
 1270SOL    HW115443   3.927   2.004   8.946  0.6104  0.0009 -0.3276
 1270SOL    HW215444   3.874   1.941   9.059  0.3287 -2.1188  0.6586
 1271SOL     OW15445   2.866   4.570   4.563 -0.2289  0.0297 -0.1732
 1271SOL    HW115446   2.781   4.529   4.576  0.9250 -2.4216 -0.1356
 1271SOL    HW215447   2.852   4.654   4.521 -0.0249 -0.2609 -0.8300
 1272SOL     OW15448   3.662   1.322  12.598 -0.1083 -0.0356  0.1583
 1272SOL    HW115449   3.635   1.254  12.660 -1.3250 -1.0253 -1.4396
 1272SOL    HW215450   3.574   1.347  12.570  0.1195 -0.5362 -1.0078
 1273SOL     OW15451   3.956   3.069  16.638 -0.7309  0.0728  0.1806
 1273SOL    HW115452   4.043   3.064  16.599 -0.3733 -0.7852  1.1130
 1273SOL    HW215453   3.964   3.112  16.723 -0.1648  0.6231 -0.1521
 1274SOL     OW15454   1.527   1.269   2.655  0.7356 -0.6108  0.2142
 1274SOL    HW115455   1.544   1.243   2.565  0.6675 -0.1699  0.0746
 1274SOL    HW215456   1.450   1.324   2.641  2.0338  1.7563  2.3819
 1275SOL     OW15457   1.052   0.874   1.797  0.0421  0.1172 -0.1548
 1275SOL    HW115458   0.976   0.931   1.787  1.9551  2.9060  1.2769
 1275SOL    HW215459   1.064   0.899   1.889  0.3989  0.8927 -0.4119
 1276SOL     OW15460   1.638   3.537   4.148 -0.6071  0.0794 -0.1949
 1276SOL    HW115461   1.722   3.539   4.194  0.3631  0.8295 -2.0118
 1276SOL    HW215462   1.664   3.501   4.064  1.1152  1.7368 -0.3746
 1277SOL     OW15463   4.321   4.299   7.836  0.0911  0.0283  0.2434
 1277SOL    HW115464   4.297   4.207   7.826 -3.3573  1.0450 -0.9178
 1277SOL    HW215465   4.364   4.305   7.921 -1.6165 -0.7953  1.1398
 1278SOL     OW15466   2.026   0.763   9.498 -0.6961  0.1869  0.3836
 1278SOL    HW115467   1.944   0.749   9.545 -0.7590 -0.3394  0.1172
 1278SOL    HW215468   2.005   0.849   9.460 -1.1005  0.5242  1.3924
 1279SOL     OW15469   1.259   1.578   9.191 -0.0321  0.5165  0.2108
 1279SOL    HW115470   1.275   1.654   9.247  0.0359  0.2512  0.5556
 1279SOL    HW215471   1.350   1.558   9.172 -0.3278  1.3814 -2.0763
 1280SOL     OW15472   1.381   0.235  12.488  0.1397  0.0283 -0.5780
 1280SOL    HW115473   1.465   0.191  12.477 -1.2187 -3.0714  1.5455
 1280SOL    HW215474   1.340   0.191  12.413 -0.2971 -2.4187  1.0933
 1281SOL     OW15475   3.524   2.943  16.077  0.2562  0.1884 -0.8773
 1281SOL    HW115476   3.511   2.849  16.074 -1.2788  0.4058 -1.0560
 1281SOL    HW215477   3.463   2.978  16.141 -0.1145  0.2811 -1.2836
 1282SOL     OW15478   1.460   1.283   5.541  0.0524  0.0145 -0.6871
 1282SOL    HW115479   1.436   1.217   5.606 -0.9025  1.1339  0.0944
 1282SOL    HW215480   1.490   1.224   5.472  0.1606  0.2780 -0.8644
 1283SOL     OW15481   0.491   0.777  12.788  0.3334 -0.3147 -0.3776
 1283SOL    HW115482   0.443   0.705  12.746  0.0331  1.4201 -3.0407
 1283SOL    HW215483   0.540   0.741  12.862 -1.1552  0.5526  1.0206
 1284SOL     OW15484   3.392   1.257  11.499  0.1974  0.8885  0.5579
 1284SOL    HW115485   3.406   1.215  11.584 -1.8624  1.1577  1.0279
 1284SOL    HW215486   3.441   1.202  11.438 -0.8894  0.0826  0.4159
 1285SOL     OW15487   3.397   0.978  17.517  0.3213  0.7184  0.3544
 1285SOL    HW115488   3.466   0.990  17.451 -0.1433  3.9299  0.4824
 1285SOL    HW215489   3.386   1.064  17.557 -0.2074  0.4878  0.6898
 1286SOL     OW15490   0.234   0.887   3.578 -0.0132  0.1762  0.5391
 1286SOL    HW115491   0.271   0.911   3.663 -0.0494  1.3235  0.2270
 1286SOL    HW215492   0.300   0.906   3.511  2.3585 -0.9801  2.5494
 1287SOL     OW15493   1.314   4.269   7.754 -0.0247 -0.1464  0.9999
 1287SOL    HW115494   1.342   4.336   7.817 -0.7199  0.4730  0.6521
 1287SOL    HW215495   1.319   4.184   7.797  0.4043 -0.8512 -0.4359
 1288SOL     OW15496   2.486   1.224  10.106  0.6668  0.5209 -0.0284
 1288SOL    HW115497   2.430   1.161  10.152  0.3386  1.7374  1.2539
 1288SOL    HW215498   2.521   1.179  10.030 -1.2884 -0.8082 -0.1640
 1289SOL     OW15499   1.203   0.721   2.474  0.3462  0.1638  0.0525
 1289SOL    HW115500   1.291   0.706   2.508 -0.1517 -0.2923  1.1454
 1289SOL    HW215501   1.177   0.629   2.466  1.0008 -0.0517  0.4517
 1290SOL     OW15502   2.347   3.002   8.937 -0.2174 -0.0474 -0.5977
 1290SOL    HW115503   2.397   3.014   8.856  2.7551  0.6800  1.3515
 1290SOL    HW215504   2.363   3.090   8.971 -0.8199  0.3256 -1.2934
 1291SOL     OW15505   1.646   2.481  17.162 -0.0477 -0.0819  0.0086
 1291SOL    HW115506   1.586   2.417  17.200 -0.1241 -0.2215 -0.3456
 1291SOL    HW215507   1.676   2.430  17.087 -0.2588 -0.0670 -0.0862
 1292SOL     OW15508   1.216   0.528  14.863 -0.0154  0.4603  0.5026
 1292SOL    HW115509   1.227   0.505  14.955  0.9928 -3.6281 -0.6209
 1292SOL    HW215510   1.246   0.619  14.867 -0.1211  0.3968  2.7100
 1293SOL     OW15511   1.194   3.427   3.153  0.1674 -0.2787 -0.0882
 1293SOL    HW115512   1.177   3.520   3.171  0.1890 -0.4292  0.7059
 1293SOL    HW215513   1.255   3.409   3.225  0.9134  0.5394 -0.5161
 1294SOL     OW15514   0.699   0.871   6.928  0.5104 -0.4443 -0.2956
 1294SOL    HW115515   0.792   0.865   6.910  0.5533  1.9701 -0.8870
 1294SOL    HW215516   0.691   0.800   6.992  1.2916 -0.1073  0.1705
 1295SOL     OW15517   3.211   1.008   3.780  0.0275  0.1643 -0.0299
 1295SOL    HW115518   3.207   1.068   3.855  0.9230 -0.0225  0.1593
 1295SOL    HW215519   3.209   1.076   3.714  1.3705  1.1937  0.9905
 1296SOL     OW15520   0.517   0.704   1.466 -0.0787  0.6780  0.1339
 1296SOL    HW115521   0.468   0.704   1.383 -0.0280  0.7712  0.1034
 1296SOL    HW215522   0.540   0.797   1.463  1.6234  0.2359 -1.0593
 1297SOL     OW15523   3.142   0.835   8.649  0.2937  0.2783 -0.1238
 1297SOL    HW115524   3.216   0.815   8.592  1.4927  0.0043  1.5274
 1297SOL    HW215525   3.060   0.811   8.606  1.5157  1.2593 -2.9766
 1298SOL     OW15526   2.839   1.449   2.919 -0.2528 -0.0428  0.1404
 1298SOL    HW115527   2.819   1.373   2.865 -2.4165  0.5011  0.1905
 1298SOL    HW215528   2.785   1.434   2.996 -1.2236 -2.5312 -1.0268
 1299SOL     OW15529   2.575   0.024   5.775  0.3736  0.0893 -0.4056
 1299SOL    HW115530   2.541   4.676   5.799 -0.3511  0.9227  1.5102
 1299SOL    HW215531   2.561   0.030   5.680 -0.5791  0.5858 -0.2398
 1300SOL     OW15532   3.712   3.570   3.659  0.1675  0.3793 -0.2759
 1300SOL    HW115533   3.629   3.548   3.615  0.8502  0.6846 -1.7065
 1300SOL    HW215534   3.707   3.502   3.726  1.7898  1.2897  0.7636
 1301SOL     OW15535   2.152   4.143   4.464 -0.0941 -0.0180  0.4557
 1301SOL    HW115536   2.143   4.067   4.407  2.8369 -0.6301  0.8069
 1301SOL    HW215537   2.192   4.118   4.547  0.9462 -1.5508 -0.5195
 1302SOL     OW15538   0.280   3.807  15.858  0.3007 -0.0922  0.5233
 1302SOL    HW115539   0.321   3.722  15.841  1.8853  0.8845 -0.4703
 1302SOL    HW215540   0.216   3.821  15.788  2.8470  1.0775 -1.5555
 1303SOL     OW15541   1.565   2.832   6.727 -0.1109 -0.2427  0.2208
 1303SOL    HW115542   1.590   2.924   6.717 -0.8230 -0.1171 -0.4462
 1303SOL    HW215543   1.504   2.830   6.653 -0.5782  1.8211  0.5531
 1304SOL     OW15544   1.035   0.610  15.171 -0.4892 -0.3154 -0.1759
 1304SOL    HW115545   0.960   0.659  15.140 -0.2599 -0.6305 -1.2282
 1304SOL    HW215546   1.014   0.521  15.142 -2.3547  0.4727 -1.2632
 1305SOL     OW15547   4.496   1.207   5.635 -0.3423 -0.1985  0.1772
 1305SOL    HW115548   4.422   1.259   5.604  1.0358  1.0032 -1.0884
 1305SOL    HW215549   4.534   1.173   5.554 -1.8743 -1.6079  0.0427
 1306SOL     OW15550   1.581   0.292  15.120 -0.1771 -0.0126 -0.0866
 1306SOL    HW115551   1.605   0.349  15.047 -0.5941  2.3775  1.6365
 1306SOL    HW215552   1.567   0.357  15.189  1.0079 -0.6134  0.7311
 1307SOL     OW15553   1.670   3.130   3.981 -0.4914 -0.1571  0.4402
 1307SOL    HW115554   1.605   3.113   3.913 -0.4364 -0.6149  0.5016
 1307SOL    HW215555   1.619   3.149   4.060  1.2477 -0.1996  1.5741
 1308SOL     OW15556   4.411   2.964  16.401 -0.5418 -0.1815 -0.0617
 1308SOL    HW115557   4.446   3.053  16.391 -1.2764 -0.0305 -1.1915
 1308SOL    HW215558   4.467   2.905  16.351  0.0090  1.3544 -1.2726
 1309SOL     OW15559   3.688   1.329  15.285  0.3227  0.1175  0.4424
 1309SOL    HW115560   3.761   1.273  15.261 -0.0061  0.1289 -0.5962
 1309SOL    HW215561   3.697   1.391  15.212  0.7016 -0.0390  0.3601
 1310SOL     OW15562   0.651   4.168  16.530  0.2377 -0.4683  0.2190
 1310SOL    HW115563   0.688   4.240  16.582 -0.0481 -0.5871  0.5889
 1310SOL    HW215564   0.728   4.110  16.535  0.1523 -0.6035 -0.0403
 1311SOL     OW15565   2.515   3.729   8.746  0.5260 -0.5518 -0.3573
 1311SOL    HW115566   2.448   3.700   8.684 -1.2750 -0.5687  1.6246
 1311SOL    HW215567   2.485   3.820   8.741 -0.2480 -0.8253 -0.6945
 1312SOL     OW15568   0.017   2.465   0.968 -0.6882  0.4495  0.2480
 1312SOL    HW115569   0.099   2.437   1.008  1.0051  1.6410 -2.3954
 1312SOL    HW215570   0.032   2.452   0.874 -1.1992  0.3687  0.1757
 1313SOL     OW15571   2.869   0.094  14.648  0.1115  0.0865  0.1485
 1313SOL    HW115572   2.944   0.126  14.698  0.3429 -0.4570  0.1533
 1313SOL    HW215573   2.860   0.175  14.598 -2.7589  1.0766  2.2972
 1314SOL     OW15574   3.590   4.590   3.784 -0.5778 -0.0140  0.4783
 1314SOL    HW115575   3.582   4.605   3.690 -1.1626  0.3650  0.5925
 1314SOL    HW215576   3.683   4.613   3.793 -0.5865 -0.3891  1.5851
 1315SOL     OW15577   0.707   3.129   8.112  0.0617 -1.0133  0.1929
 1315SOL    HW115578   0.721   3.034   8.114 -0.5929 -1.1238 -0.3019
 1315SOL    HW215579   0.797   3.156   8.125  0.6034 -1.9044 -1.5843
 1316SOL     OW15580   1.643   3.294   6.362 -0.4285  0.3155 -0.2995
 1316SOL    HW115581   1.614   3.315   6.450  0.1959 -0.7204  0.1528
 1316SOL    HW215582   1.634   3.380   6.321  1.4134 -0.7346 -2.9408
 1317SOL     OW15583   3.729   1.272  14.923  0.4382 -0.6914 -0.0385
 1317SOL    HW115584   3.679   1.327  14.983  2.6927  2.3733 -0.9731
 1317SOL    HW215585   3.768   1.344  14.874 -0.3217 -0.2141  0.0644
 1318SOL     OW15586   0.566   1.320   3.561  0.3077 -0.3503  0.2337
 1318SOL    HW115587   0.560   1.228   3.588  1.3609 -1.5865 -3.8380
 1318SOL    HW215588   0.654   1.344   3.589  1.1910 -1.2370 -1.8448
 1319SOL     OW15589   4.106   1.334   3.272  0.4284 -0.3534 -0.4384
 1319SOL    HW115590   4.171   1.367   3.211  1.2070  1.1477  1.1972
 1319SOL    HW215591   4.027   1.334   3.218 -1.7610  0.9064  2.7787
 1320SOL     OW15592   4.392   2.605   0.158  0.2158  0.0487 -0.0201
 1320SOL    HW115593   4.443   2.579   0.235  1.9064  0.5741 -0.9631
 1320SOL    HW215594   4.309   2.646   0.184  0.6962  2.4273 -2.2636
 1321SOL     OW15595   0.969   2.428   1.736 -0.2253 -0.0463  0.1597
 1321SOL    HW115596   1.044   2.375   1.710  1.1386  0.9087  2.1405
 1321SOL    HW215597   0.964   2.380   1.818  0.2751 -0.8018 -0.2494
 1322SOL     OW15598   2.507   0.562   6.321 -0.5408  0.1736  0.2148
 1322SOL    HW115599   2.420   0.600   6.332 -0.3813  0.1667  1.5995
 1322SOL    HW215600   2.508   0.510   6.241 -1.2426 -0.7307  0.7883
 1323SOL     OW15601   2.471   0.379   3.500 -0.0172 -0.8056  0.0569
 1323SOL    HW115602   2.448   0.421   3.583 -0.9806  0.0606 -0.6464
 1323SOL    HW215603   2.565   0.366   3.497  0.1539  0.0001  2.5239
 1324SOL     OW15604   3.452   3.315  12.768  0.0885 -0.0432  0.3947
 1324SOL    HW115605   3.510   3.332  12.694  0.2277  1.1863  0.7792
 1324SOL    HW215606   3.410   3.401  12.773 -0.8638 -0.7328  4.2104
 1325SOL     OW15607   1.968   2.740   6.227  0.1401  0.4589  0.2449
 1325SOL    HW115608   1.940   2.678   6.159  0.1221 -0.3612  1.0052
 1325SOL    HW215609   1.971   2.824   6.182 -1.0488 -0.4643 -1.5872
 1326SOL     OW15610   4.598   0.111   1.112 -0.0426  0.5622 -0.0168
 1326SOL    HW115611   4.593   0.206   1.123  0.4538  0.6609 -0.6271
 1326SOL    HW215612   4.693   0.109   1.121 -0.2093 -0.5487  1.4844
 1327SOL     OW15613   3.496   2.386  11.175  0.1101 -0.2151  0.3672
 1327SOL    HW115614   3.578   2.395  11.223  0.4526  0.1708 -0.2793
 1327SOL    HW215615   3.478   2.471  11.135  2.1011  0.7065  1.4590
 1328SOL     OW15616   2.175   4.159   3.352 -0.7633 -0.2723  0.3002
 1328SOL    HW115617   2.085   4.152   3.318  0.7380 -0.5738 -3.6699
 1328SOL    HW215618   2.197   4.066   3.358  4.1592  0.8933  0.0581
 1329SOL     OW15619   4.203   1.677   2.596 -0.9783  0.2303 -0.0553
 1329SOL    HW115620   4.266   1.748   2.604  0.3229 -1.0060  0.7378
 1329SOL    HW215621   4.139   1.722   2.542 -1.2914 -0.9534 -0.6792
 1330SOL     OW15622   4.319   4.407   1.966 -0.6512 -0.2300 -0.5030
 1330SOL    HW115623   4.279   4.376   2.047 -0.5466  1.4062  0.1793
 1330SOL    HW215624   4.295   4.331   1.913  0.1443 -1.1556  0.4679
 1331SOL     OW15625   2.192   3.827   6.260  0.1045 -0.0061  0.1505
 1331SOL    HW115626   2.259   3.874   6.311  0.8516 -0.5923 -0.3011
 1331SOL    HW215627   2.224   3.738   6.248  0.3370  0.0372  0.4503
 1332SOL     OW15628   1.322   1.721   1.670 -0.2033  0.0316 -0.1675
 1332SOL    HW115629   1.276   1.681   1.744 -0.8936 -1.5565 -1.4327
 1332SOL    HW215630   1.254   1.770   1.624 -0.7244 -0.4448  0.0897
 1333SOL     OW15631   3.223   0.953  11.818 -0.2342  0.5435  0.7014
 1333SOL    HW115632   3.171   1.017  11.770 -0.3004  0.1556  0.2623
 1333SOL    HW215633   3.263   0.898  11.751 -0.9223  1.2874 -0.3055
 1334SOL     OW15634   3.784   3.331  12.611 -0.1019 -0.5770 -0.0848
 1334SOL    HW115635   3.716   3.270  12.583 -1.4955  1.4202 -1.0377
 1334SOL    HW215636   3.825   3.286  12.685  2.3720  0.0566 -1.0788
 1335SOL     OW15637   1.072   0.044   9.690 -0.1070 -0.0516 -0.6794
 1335SOL    HW115638   1.025   0.029   9.609 -0.8398  0.4895 -0.3553
 1335SOL    HW215639   1.041   4.709   9.744  0.4208  0.2250  0.0105
 1336SOL     OW15640   1.715   2.254  14.175  0.3787  0.3940 -0.5689
 1336SOL    HW115641   1.784   2.296  14.227 -0.6446  0.9088  0.3863
 1336SOL    HW215642   1.641   2.303  14.211  0.5448  0.7233 -0.6817
 1337SOL     OW15643   3.614   2.389  11.991 -0.7887  0.0706  0.2163
 1337SOL    HW115644   3.584   2.348  11.909 -1.1588  1.6334 -0.4271
 1337SOL    HW215645   3.673   2.455  11.955 -0.1062 -0.6709 -0.0127
 1338SOL     OW15646   2.693   2.727   4.946 -0.2876  0.0335 -0.1331
 1338SOL    HW115647   2.628   2.714   4.877  0.3467  0.1391 -0.7388
 1338SOL    HW215648   2.719   2.817   4.926  0.3330  0.2706  1.7515
 1339SOL     OW15649   4.199   3.315   5.114  0.0945  0.1277  0.1452
 1339SOL    HW115650   4.163   3.267   5.039 -1.0910 -1.2415  1.5943
 1339SOL    HW215651   4.225   3.243   5.171  0.7995  1.2875  1.2767
 1340SOL     OW15652   1.193   1.574   5.197  0.1401  0.4863  0.7309
 1340SOL    HW115653   1.163   1.599   5.110  0.3850  1.5855  0.9614
 1340SOL    HW215654   1.281   1.541   5.180  0.5629  0.8694  2.1948
 1341SOL     OW15655   2.276   0.892   2.209 -0.1806 -0.0515 -0.1313
 1341SOL    HW115656   2.252   0.860   2.296  0.9076  0.2432  0.2708
 1341SOL    HW215657   2.328   0.965   2.241 -1.1220 -0.9749  3.5041
 1342SOL     OW15658   0.999   0.666   1.370 -0.4456  0.2378  0.2335
 1342SOL    HW115659   1.023   0.648   1.461 -2.6368  0.3549  0.8405
 1342SOL    HW215660   1.079   0.637   1.327 -0.7167 -0.5233  0.2300
 1343SOL     OW15661   1.459   2.253   4.529 -0.4127 -0.1248 -0.2034
 1343SOL    HW115662   1.506   2.197   4.591  0.6554  1.4902  0.4383
 1343SOL    HW215663   1.521   2.325   4.536 -1.0208  0.1572  2.4194
 1344SOL     OW15664   0.097   3.231  16.271  0.3300  0.5081 -0.0040
 1344SOL    HW115665   0.183   3.205  16.303  0.2252 -0.2843 -0.3547
 1344SOL    HW215666   0.087   3.322  16.297 -1.7287  0.0710  0.7681
 1345SOL     OW15667   2.117   2.357   3.966  0.0685 -0.3737  0.1727
 1345SOL    HW115668   2.125   2.440   4.014 -0.3217 -0.8192  1.0104
 1345SOL    HW215669   2.198   2.314   3.992  0.7481  0.8735  0.1316
 1346SOL     OW15670   3.096   0.439  10.159 -0.1943  0.0891  0.0981
 1346SOL    HW115671   3.064   0.478  10.240  0.0073 -0.1689  0.3022
 1346SOL    HW215672   3.175   0.492  10.149 -1.1726  1.5380  0.0255
 1347SOL     OW15673   0.062   1.840   3.504  0.3550 -0.0431  0.3296
 1347SOL    HW115674   0.136   1.787   3.475  0.7947  1.2393 -0.8874
 1347SOL    HW215675   4.732   1.821   3.440  0.2073  0.3049  0.3837
 1348SOL     OW15676   1.681   3.775   3.162  0.6129  0.4838 -0.1941
 1348SOL    HW115677   1.737   3.711   3.117 -0.6588 -0.4853 -0.3990
 1348SOL    HW215678   1.726   3.859   3.153 -0.1474  1.1495  2.3020
 1349SOL     OW15679   2.436   1.774   7.714  0.3781  0.1631 -0.1235
 1349SOL    HW115680   2.433   1.860   7.674 -1.9843 -0.7082 -1.8545
 1349SOL    HW215681   2.506   1.800   7.774  0.3686 -0.9021  0.3643
 1350SOL     OW15682   1.845   2.886  15.019 -0.3175 -0.1591  0.2950
 1350SOL    HW115683   1.888   2.825  15.079 -1.9209 -1.2031  0.3913
 1350SOL    HW215684   1.880   2.858  14.935  0.7874 -0.3182  0.8090
 1351SOL     OW15685   1.844   0.185  13.609 -0.5967 -0.6048 -0.2934
 1351SOL    HW115686   1.769   0.188  13.549 -1.5734  1.6494  1.0770
 1351SOL    HW215687   1.911   0.224  13.553  0.2261  0.0021  1.1146
 1352SOL     OW15688   4.552   1.144   0.575 -0.5320  0.6608  0.3248
 1352SOL    HW115689   4.460   1.119   0.562  0.4708 -0.8875 -3.9816
 1352SOL    HW215690   4.557   1.130   0.669  0.1273 -0.8725  0.0529
 1353SOL     OW15691   0.459   3.139   5.905 -0.6110 -0.1203  0.5176
 1353SOL    HW115692   0.546   3.128   5.867 -0.0597  0.7352  1.5287
 1353SOL    HW215693   0.401   3.091   5.846  1.3849 -1.6844 -0.1803
 1354SOL     OW15694   4.207   2.055   9.045  0.3211 -0.4880 -0.0336
 1354SOL    HW115695   4.128   2.000   9.046 -1.3454  1.8809 -0.6816
 1354SOL    HW215696   4.169   2.142   9.055  2.1531  0.2655  0.2600
 1355SOL     OW15697   2.688   2.032  17.010  0.4218  0.1591  0.3345
 1355SOL    HW115698   2.712   2.115  16.969 -0.0382  0.3850  0.5211
 1355SOL    HW215699   2.747   1.972  16.964  1.0465  1.7864 -1.0057
 1356SOL     OW15700   3.127   1.754   6.550  0.0640  0.2151 -0.4402
 1356SOL    HW115701   3.083   1.754   6.465 -0.2009  2.1869 -0.2877
 1356SOL    HW215702   3.078   1.686   6.596  0.3120  1.2673  1.3623
 1357SOL     OW15703   3.437   2.930  15.789  1.1313  0.1281 -0.6169
 1357SOL    HW115704   3.500   2.944  15.859 -2.4211 -3.6722  3.3432
 1357SOL    HW215705   3.467   2.851  15.743 -1.3497 -2.3592  2.0313
 1358SOL     OW15706   2.999   0.973   3.537  0.3818  0.1908 -0.2579
 1358SOL    HW115707   3.049   1.038   3.586  2.2902  1.5817 -4.0683
 1358SOL    HW215708   3.052   0.964   3.458 -1.4666  0.9988 -1.5849
 1359SOL     OW15709   1.664   4.144   7.822  0.3926 -0.2538  0.5205
 1359SOL    HW115710   1.584   4.127   7.871  0.6587  0.2326  1.1218
 1359SOL    HW215711   1.627   4.141   7.735 -1.9293  2.8584  1.4285
 1360SOL     OW15712   3.969   2.114   3.094  0.0024  0.4197  0.2379
 1360SOL    HW115713   3.952   2.077   3.180  0.7171  3.6274  1.7472
 1360SOL    HW215714   4.062   2.092   3.098  0.1666  0.6882 -1.7119
 1361SOL     OW15715   0.532   4.411  12.609 -0.4890 -0.0639  0.3919
 1361SOL    HW115716   0.534   4.497  12.651  2.3076 -0.4073  0.9180
 1361SOL    HW215717   0.445   4.384  12.639 -1.9370  1.5783 -2.3140
 1362SOL     OW15718   1.050   1.743   2.470 -0.2495  0.3728 -0.1663
 1362SOL    HW115719   1.049   1.817   2.530  3.1424  1.2310 -1.1905
 1362SOL    HW215720   0.957   1.727   2.486  0.0748 -0.0528  1.3459
 1363SOL     OW15721   0.155   3.381   8.387 -0.1143 -0.0493  0.2698
 1363SOL    HW115722   0.231   3.365   8.331 -0.8181  0.0311 -0.6960
 1363SOL    HW215723   0.102   3.302   8.377  0.8297 -0.4025 -1.8881
 1364SOL     OW15724   4.012   1.588  13.123 -0.0705 -0.0662  0.1439
 1364SOL    HW115725   4.076   1.600  13.053  1.4190  0.3425  1.5729
 1364SOL    HW215726   3.959   1.516  13.086  0.3561  0.6401 -1.8528
 1365SOL     OW15727   1.304   0.354   5.795  0.0527  0.0903 -0.0324
 1365SOL    HW115728   1.326   0.431   5.848 -0.3869  1.0068 -1.1758
 1365SOL    HW215729   1.290   0.297   5.871  0.2631  0.2186  0.1040
 1366SOL     OW15730   1.408   0.487   4.706 -0.4703 -0.1236  0.0026
 1366SOL    HW115731   1.380   0.434   4.781 -2.2749  1.7016  0.6150
 1366SOL    HW215732   1.327   0.534   4.687 -0.9005  0.0025  2.1350
 1367SOL     OW15733   2.122   0.764   9.767 -0.3683  0.1574 -0.5079
 1367SOL    HW115734   2.110   0.671   9.785 -1.2536  0.0475 -1.5999
 1367SOL    HW215735   2.128   0.766   9.671 -2.4006  0.0470 -0.6372
 1368SOL     OW15736   0.693   4.156  15.109 -0.2622 -0.6692 -0.1534
 1368SOL    HW115737   0.652   4.211  15.042 -2.0559 -1.8241  0.0045
 1368SOL    HW215738   0.669   4.074  15.068  1.4466 -0.5683 -1.3126
 1369SOL     OW15739   4.028   4.425   6.929  0.4264 -0.6872  0.1356
 1369SOL    HW115740   4.022   4.519   6.948 -0.2759 -1.0246  1.5697
 1369SOL    HW215741   3.974   4.384   6.996  1.2757  2.9773  3.0110
 1370SOL     OW15742   4.258   0.593   8.773 -0.2856 -0.4471 -0.2403
 1370SOL    HW115743   4.294   0.558   8.691  0.7280 -0.4345  0.1990
 1370SOL    HW215744   4.240   0.511   8.819  0.8865 -0.5148  0.1037
 1371SOL     OW15745   4.569   3.558   3.335  0.3239  0.0923  0.4376
 1371SOL    HW115746   4.556   3.577   3.428  0.1812  3.0985 -0.2092
 1371SOL    HW215747   4.656   3.595   3.320  0.9752 -2.1446 -1.4123
 1372SOL     OW15748   1.169   3.171  17.189 -0.5277  0.0887  0.5272
 1372SOL    HW115749   1.214   3.099  17.233  2.0492  1.3347 -0.0873
 1372SOL    HW215750   1.086   3.131  17.161  0.0084 -0.4648 -0.2816
 1373SOL     OW15751   3.384   0.873   4.851  0.6013  0.2152  0.1409
 1373SOL    HW115752   3.464   0.827   4.876  0.5689  0.3819  0.5456
 1373SOL    HW215753   3.348   0.805   4.793  1.4329 -0.6520  0.6282
 1374SOL     OW15754   3.460   2.221  14.755 -0.1443 -0.2592  0.1824
 1374SOL    HW115755   3.489   2.299  14.707  1.4298 -0.8485  0.1618
 1374SOL    HW215756   3.529   2.162  14.724 -0.6867 -0.9442  0.2785
 1375SOL     OW15757   3.964   0.338  11.308  0.3544 -0.3506 -0.0372
 1375SOL    HW115758   4.000   0.356  11.221  1.7656  1.1553  0.8514
 1375SOL    HW215759   3.982   0.244  11.304  0.9410 -0.1567 -2.2034
 1376SOL     OW15760   1.897   1.573  15.858  0.3828 -0.0433 -0.5100
 1376SOL    HW115761   1.843   1.566  15.936 -0.3734  0.8215 -0.9549
 1376SOL    HW215762   1.908   1.480  15.837  1.1235 -0.0348 -0.1746
 1377SOL     OW15763   2.393   3.240   2.998  0.3035 -0.2712 -0.2828
 1377SOL    HW115764   2.299   3.239   2.980  0.0873  2.0252  0.6711
 1377SOL    HW215765   2.392   3.331   3.027 -1.5820 -0.4067  0.1098
 1378SOL     OW15766   1.135   0.070   6.345 -0.4433  0.5264  0.1340
 1378SOL    HW115767   1.109   0.035   6.260  0.1780  0.0583  0.1368
 1378SOL    HW215768   1.223   0.103   6.325  0.3450 -2.3164 -1.0462
 1379SOL     OW15769   0.750   0.591  10.496 -0.1539  0.3402  0.2131
 1379SOL    HW115770   0.788   0.568  10.581 -0.2042 -0.8703 -0.0925
 1379SOL    HW215771   0.759   0.686  10.489  1.4134  0.0942 -1.1493
 1380SOL     OW15772   3.804   3.208   6.102  0.3243  0.9472 -0.3737
 1380SOL    HW115773   3.799   3.255   6.019 -3.9116  1.0622 -0.0461
 1380SOL    HW215774   3.893   3.173   6.097  0.8060  1.8880  1.4285
 1381SOL     OW15775   0.461   2.710   5.878  1.1694  0.4712  0.2942
 1381SOL    HW115776   0.514   2.777   5.834 -0.3764  1.3940 -0.1709
 1381SOL    HW215777   0.442   2.764   5.954 -1.3057 -0.0530  0.0481
 1382SOL     OW15778   0.129   1.191   7.354  0.3397  0.6228  0.2192
 1382SOL    HW115779   0.075   1.180   7.432 -1.4554  2.3748 -0.7784
 1382SOL    HW215780   0.186   1.262   7.383  0.3219  0.8022 -0.1874
 1383SOL     OW15781   0.760   0.320   8.453 -0.4968 -0.1674  0.8605
 1383SOL    HW115782   0.745   0.270   8.373 -1.6766  2.0850 -0.3318
 1383SOL    HW215783   0.717   0.401   8.426 -0.9461 -0.3976  0.8776
 1384SOL     OW15784   1.206   0.862   7.036 -0.4123  0.0553 -0.0513
 1384SOL    HW115785   1.275   0.909   7.082 -1.0123  0.2353  0.6762
 1384SOL    HW215786   1.175   0.929   6.975 -0.4364 -0.3532 -0.4867
 1385SOL     OW15787   0.693   2.417   7.253 -0.0477 -0.2844  0.0272
 1385SOL    HW115788   0.727   2.456   7.334 -0.6516 -2.3868  1.2657
 1385SOL    HW215789   0.624   2.370   7.298 -0.7170  2.2699  1.6785
 1386SOL     OW15790   2.685   0.822   4.273  0.2302  0.0711  0.0071
 1386SOL    HW115791   2.762   0.846   4.325  1.8993 -1.2966 -1.8379
 1386SOL    HW215792   2.733   0.771   4.207  0.1412  0.9380 -0.7366
 1387SOL     OW15793   1.165   0.577   4.598  0.4939 -0.4657 -0.6725
 1387SOL    HW115794   1.170   0.665   4.635 -0.7566 -0.8536  0.4249
 1387SOL    HW215795   1.071   0.571   4.617  0.9112  0.3303  1.5765
 1388SOL     OW15796   3.818   2.598   7.570 -0.9074 -0.6508  0.3286
 1388SOL    HW115797   3.802   2.545   7.493  0.2547 -0.1419 -0.2627
 1388SOL    HW215798   3.841   2.682   7.530  1.8853  0.8466  5.1233
 1389SOL     OW15799   3.292   1.095   1.823 -0.3059  0.2353  0.6761
 1389SOL    HW115800   3.247   1.176   1.799  0.0912 -0.1560 -1.4291
 1389SOL    HW215801   3.375   1.113   1.778  0.9377  0.3823  3.0393
 1390SOL     OW15802   3.635   4.647   7.477  0.0232  0.5517  0.6742
 1390SOL    HW115803   3.680   4.723   7.439 -1.5990  0.6870 -0.9637
 1390SOL    HW215804   3.649   4.667   7.569 -0.9924  1.2380  0.6743
 1391SOL     OW15805   4.118   4.577   2.617 -0.1080  0.1580  0.1837
 1391SOL    HW115806   4.201   4.583   2.664  0.6782  1.1038 -1.3409
 1391SOL    HW215807   4.111   4.481   2.614  0.5240  0.1249 -0.2212
 1392SOL     OW15808   1.457   0.639   9.211  0.4581  0.5274  0.2949
 1392SOL    HW115809   1.363   0.651   9.198  1.0299  2.6314 -1.8618
 1392SOL    HW215810   1.473   0.691   9.290 -1.0123  3.9486 -1.6549
 1393SOL     OW15811   0.368   2.049   2.030  0.2976  0.0997  0.1272
 1393SOL    HW115812   0.355   2.027   2.122 -1.7698  1.4989  0.1602
 1393SOL    HW215813   0.461   2.029   2.019  0.4934  1.5233 -0.8527
 1394SOL     OW15814   1.448   0.582   4.151 -0.3546  0.3497  0.3431
 1394SOL    HW115815   1.516   0.517   4.164 -0.5221 -0.2453 -1.7428
 1394SOL    HW215816   1.379   0.534   4.106  0.9700 -2.6940  1.5890
 1395SOL     OW15817   2.346   0.431   4.426 -0.0069  0.1903  0.0509
 1395SOL    HW115818   2.280   0.467   4.366 -1.1941 -2.2019 -0.0731
 1395SOL    HW215819   2.420   0.487   4.404  0.2639 -0.1924 -0.0150
 1396SOL     OW15820   1.375   2.421   3.638 -0.1807 -0.5307  0.4082
 1396SOL    HW115821   1.432   2.393   3.566 -1.1279  0.0386 -0.5740
 1396SOL    HW215822   1.437   2.434   3.709 -0.7862 -0.3784  0.9139
 1397SOL     OW15823   1.054   0.198   5.774  0.4560  0.3188  0.3170
 1397SOL    HW115824   1.046   0.167   5.865 -0.3423 -0.3332  0.0252
 1397SOL    HW215825   1.128   0.259   5.782  0.5475  0.4303 -1.5740
 1398SOL     OW15826   1.852   2.492   7.337  0.0575  0.6201 -0.0352
 1398SOL    HW115827   1.763   2.524   7.327 -0.5026 -1.0010 -0.0999
 1398SOL    HW215828   1.846   2.403   7.370 -1.4253  0.2566 -1.2711
 1399SOL     OW15829   2.542   4.223   4.878 -0.4810  0.0639 -0.0614
 1399SOL    HW115830   2.585   4.277   4.944 -2.0423  0.7326  0.4191
 1399SOL    HW215831   2.614   4.170   4.844  0.5298  3.3264 -3.0442
 1400SOL     OW15832   3.557   3.869   7.211 -0.0230  0.4178 -0.1746
 1400SOL    HW115833   3.635   3.922   7.228 -1.2965  2.6972 -1.3604
 1400SOL    HW215834   3.499   3.931   7.165  1.0217  0.8081 -0.9751
 1401SOL     OW15835   3.094   3.759   4.712  0.1152 -0.1291  0.9600
 1401SOL    HW115836   3.152   3.719   4.777  1.2994 -0.5349 -0.3295
 1401SOL    HW215837   3.139   3.839   4.684  2.7084 -1.7869  0.3214
 1402SOL     OW15838   3.345   0.718  10.124 -0.0011  0.1533 -0.0358
 1402SOL    HW115839   3.395   0.798  10.140 -0.6676 -0.1846  3.7528
 1402SOL    HW215840   3.308   0.738  10.038  0.7310 -2.2886 -0.9223
 1403SOL     OW15841   1.895   4.360  14.136  0.0375 -0.0380  0.2977
 1403SOL    HW115842   1.858   4.422  14.074  0.1030  0.6624  0.9612
 1403SOL    HW215843   1.923   4.418  14.207  1.5583  1.8247 -1.8012
 1404SOL     OW15844   0.428   0.280   2.298  0.8244  0.0339 -0.6217
 1404SOL    HW115845   0.449   0.235   2.216 -0.0150  0.3540 -1.0140
 1404SOL    HW215846   0.458   0.366   2.269 -0.7913  0.4605 -1.0280
 1405SOL     OW15847   4.697   0.202   0.776 -0.0500 -0.4292 -0.2607
 1405SOL    HW115848   0.031   0.139   0.779 -0.8058 -1.3370 -1.1197
 1405SOL    HW215849   4.728   0.274   0.830  2.7565 -0.1067 -2.3218
 1406SOL     OW15850   0.346   2.153  12.959 -0.1793  0.6342  0.1409
 1406SOL    HW115851   0.409   2.107  12.904  0.1640  1.3000 -0.0213
 1406SOL    HW215852   0.283   2.082  12.972  0.8150 -0.4689 -1.1138
 1407SOL     OW15853   3.774   1.966   2.158  0.3073 -0.2460 -0.4508
 1407SOL    HW115854   3.815   1.886   2.188  1.4950  0.3769 -0.4209
 1407SOL    HW215855   3.699   1.978   2.217  0.8928 -0.8674  0.4091
 1408SOL     OW15856   2.768   3.630   2.683 -0.5301  0.4780 -0.5455
 1408SOL    HW115857   2.849   3.679   2.694  0.4674 -1.8299  2.3738
 1408SOL    HW215858   2.755   3.663   2.594 -0.1542  0.3670 -0.6442
 1409SOL     OW15859   1.555   3.712   2.459  0.2082 -0.0713 -0.0273
 1409SOL    HW115860   1.638   3.757   2.472  0.2609  0.0301 -0.6886
 1409SOL    HW215861   1.577   3.661   2.380  0.7551 -1.4219  0.9992
 1410SOL     OW15862   3.291   1.925   9.381 -0.0369  0.4664  0.9342
 1410SOL    HW115863   3.272   1.956   9.470 -2.4848  0.5819  0.3509
 1410SOL    HW215864   3.300   1.831   9.400 -0.7721  0.4611  1.2578
 1411SOL     OW15865   3.463   2.095   9.255  0.0787  0.2541 -0.4464
 1411SOL    HW115866   3.404   2.041   9.307 -0.4406  0.9449 -0.3208
 1411SOL    HW215867   3.411   2.083   9.176  0.8721 -3.7494 -0.3452
 1412SOL     OW15868   0.402   4.210  16.174  0.4339 -0.0346  0.1556
 1412SOL    HW115869   0.379   4.276  16.110  1.9120  0.6651  0.3402
 1412SOL    HW215870   0.315   4.171  16.178  0.7622 -0.6642  1.1648
 1413SOL     OW15871   0.571   4.555   1.974  0.0588  0.0328  0.4680
 1413SOL    HW115872   0.574   4.481   1.913  0.8137  1.2624 -0.9731
 1413SOL    HW215873   0.478   4.565   1.996 -0.0689 -1.1247  0.4720
 1414SOL     OW15874   4.652   0.682   2.101 -0.0357 -0.2607  0.2507
 1414SOL    HW115875   4.590   0.755   2.088 -0.1892  0.0089  2.5527
 1414SOL    HW215876   4.653   0.657   2.008  0.1017 -1.9905  0.7258
 1415SOL     OW15877   1.348   4.393   3.602  0.7923  0.5443  0.2945
 1415SOL    HW115878   1.350   4.469   3.543  1.7212  0.0582 -0.2964
 1415SOL    HW215879   1.325   4.439   3.683 -1.3202 -1.9933  1.1085
 1416SOL     OW15880   0.320   4.298  10.255  0.3601  0.2792 -0.2492
 1416SOL    HW115881   0.225   4.290  10.245  0.0909 -0.4221  2.9996
 1416SOL    HW215882   0.337   4.276  10.346 -1.3738  1.7106  0.4306
 1417SOL     OW15883   3.434   1.709   2.925 -0.9363 -0.3729  0.0010
 1417SOL    HW115884   3.433   1.705   2.829  2.0233  2.8601 -0.1565
 1417SOL    HW215885   3.359   1.651   2.938  0.6179 -2.2766  0.3331
 1418SOL     OW15886   0.048   1.071   3.310 -0.3841  0.0741  0.0099
 1418SOL    HW115887   0.056   0.999   3.372 -0.2709  0.1208  0.0499
 1418SOL    HW215888   0.136   1.079   3.275  0.4949 -0.6498  2.0818
 1419SOL     OW15889   3.465   4.331  10.671 -0.3284 -0.0830  0.0697
 1419SOL    HW115890   3.447   4.423  10.655 -0.6737  0.1075  1.5550
 1419SOL    HW215891   3.534   4.346  10.735  0.3897 -0.1582 -0.6961
 1420SOL     OW15892   0.923   4.609  12.136 -0.4275 -0.5999 -0.2130
 1420SOL    HW115893   1.011   4.572  12.130 -0.7201 -1.1008 -1.4103
 1420SOL    HW215894   0.902   4.621  12.229  1.1327  1.2115 -0.0798
 1421SOL     OW15895   2.038   3.107   8.182 -0.1410 -0.1145  0.1879
 1421SOL    HW115896   2.132   3.123   8.185  0.2650 -2.4375 -0.4434
 1421SOL    HW215897   2.039   3.012   8.196 -1.4367 -0.1273  0.1607
 1422SOL     OW15898   0.447   0.619   8.037 -0.3647 -0.2726  0.5898
 1422SOL    HW115899   0.421   0.538   7.993  0.4382  0.5796 -1.4470
 1422SOL    HW215900   0.407   0.687   7.982  2.0291  1.3857  0.9278
 1423SOL     OW15901   1.924   4.092  10.614  0.2290 -0.4447 -0.2757
 1423SOL    HW115902   1.869   4.052  10.547 -1.5278  2.0908 -0.3394
 1423SOL    HW215903   1.867   4.161  10.648  0.0425  0.8365 -3.2378
 1424SOL     OW15904   2.653   2.225   4.756 -0.0251 -0.1580  0.6826
 1424SOL    HW115905   2.739   2.189   4.733 -0.8040 -1.5763 -0.0215
 1424SOL    HW215906   2.622   2.154   4.812 -0.4035 -1.2321 -0.8794
 1425SOL     OW15907   0.392   3.296   4.528  0.4877  0.1794 -0.4451
 1425SOL    HW115908   0.381   3.359   4.599  0.3294 -0.0641 -0.2528
 1425SOL    HW215909   0.317   3.237   4.530  0.1919  0.6310  1.3555
 1426SOL     OW15910   1.554   3.994   3.988 -0.1912  0.4205 -0.4432
 1426SOL    HW115911   1.521   3.904   3.999  0.6796  0.1791  0.2158
 1426SOL    HW215912   1.635   3.973   3.942  0.0183  1.9550 -0.7581
 1427SOL     OW15913   2.657   1.817   7.930 -0.6138  0.6020  0.3622
 1427SOL    HW115914   2.730   1.879   7.939  0.2505 -0.2698 -0.6269
 1427SOL    HW215915   2.703   1.733   7.938 -1.4527 -0.0327 -1.4995
 1428SOL     OW15916   3.426   3.789   7.732  0.0501  0.3314  0.1520
 1428SOL    HW115917   3.468   3.800   7.647  0.3352 -0.6846  0.1629
 1428SOL    HW215918   3.433   3.875   7.774 -1.0014  1.2102 -1.4788
 1429SOL     OW15919   0.545   2.025  16.582 -0.1268 -0.1659  0.0540
 1429SOL    HW115920   0.640   2.021  16.579  0.1350  5.9436 -0.9708
 1429SOL    HW215921   0.519   1.938  16.554 -0.9976  0.2029 -0.2899
 1430SOL     OW15922   0.930   1.343  13.038 -0.1719 -0.2876  0.1472
 1430SOL    HW115923   1.025   1.346  13.027 -0.2202  3.4594  0.9568
 1430SOL    HW215924   0.930   1.355  13.133  0.5383 -0.1833  0.1317
 1431SOL     OW15925   3.660   1.458   9.749 -0.4008 -0.0249 -0.0695
 1431SOL    HW115926   3.644   1.371   9.786 -0.2998 -1.1045 -2.5514
 1431SOL    HW215927   3.743   1.478   9.793 -0.2217  2.6821 -1.6789
 1432SOL     OW15928   4.343   4.116  12.724  0.1267 -0.9682 -0.6924
 1432SOL    HW115929   4.408   4.093  12.791  0.6769  1.6617 -0.3345
 1432SOL    HW215930   4.269   4.136  12.781  0.6488  2.0260 -1.0889
 1433SOL     OW15931   1.294   4.619   2.379  0.2558  0.6487  0.4611
 1433SOL    HW115932   1.217   4.667   2.408 -1.0744  0.9463 -3.6354
 1433SOL    HW215933   1.261   4.531   2.397 -3.2611  2.0762  0.9028
 1434SOL     OW15934   2.277   0.395   8.911 -0.0828  0.0380 -0.2530
 1434SOL    HW115935   2.326   0.453   8.968  0.4556  0.1297 -0.8083
 1434SOL    HW215936   2.242   0.332   8.974  0.1463  1.1619  1.0011
 1435SOL     OW15937   3.080   3.921   2.083  0.2426  0.4802  0.7220
 1435SOL    HW115938   3.161   3.876   2.060  1.3069  2.4600  0.6739
 1435SOL    HW215939   3.089   3.944   2.175  2.0948  0.1306  0.6300
 1436SOL     OW15940   2.154   0.631   5.127 -0.2367 -0.1034 -0.2557
 1436SOL    HW115941   2.121   0.696   5.189 -0.2684 -1.3431  1.0190
 1436SOL    HW215942   2.108   0.552   5.158 -1.1673  0.4108 -0.3274
 1437SOL     OW15943   2.215   1.444   2.263 -0.0614 -0.5450 -0.0902
 1437SOL    HW115944   2.304   1.479   2.264  0.4148 -1.7429 -1.0390
 1437SOL    HW215945   2.171   1.528   2.256  1.3604  0.2334  0.2109
 1438SOL     OW15946   3.156   4.352   2.904  0.4125 -0.2599  0.0594
 1438SOL    HW115947   3.123   4.393   2.984 -3.1385 -0.0110 -1.5438
 1438SOL    HW215948   3.074   4.338   2.857 -0.0221  1.9104  0.1764
 1439SOL     OW15949   3.968   4.213  12.356  0.7619 -0.0421 -0.0773
 1439SOL    HW115950   3.954   4.295  12.404  1.1767 -0.6024  1.0026
 1439SOL    HW215951   4.040   4.180  12.410  1.1426 -1.9130 -1.7559
 1440SOL     OW15952   0.681   2.089   7.452 -0.1566 -0.0979 -0.1200
 1440SOL    HW115953   0.765   2.124   7.423 -0.2620 -2.4995 -3.2926
 1440SOL    HW215954   0.635   2.171   7.433  0.3488 -0.0128 -0.9274
 1441SOL     OW15955   4.650   4.103   9.687  0.8604 -0.5702  0.5390
 1441SOL    HW115956   4.736   4.124   9.650 -0.3247 -0.6401 -2.3016
 1441SOL    HW215957   4.603   4.146   9.615  0.2697 -1.1433  0.5841
 1442SOL     OW15958   0.674   2.877  12.051  0.2584 -0.1545  0.3820
 1442SOL    HW115959   0.754   2.863  12.101  0.9769  3.1291  0.1966
 1442SOL    HW215960   0.667   2.973  12.049  0.6167 -0.0711  2.9718
 1443SOL     OW15961   4.562   0.790  14.514 -0.5473 -0.9018  0.8158
 1443SOL    HW115962   4.494   0.734  14.477 -0.3261 -0.6652  0.0518
 1443SOL    HW215963   4.507   0.863  14.544 -0.7414  0.0646 -1.9043
 1444SOL     OW15964   0.433   2.606   6.849 -0.1277 -0.0215  0.1654
 1444SOL    HW115965   0.461   2.683   6.799  0.9955  0.2849  1.2769
 1444SOL    HW215966   0.487   2.599   6.927  0.1930 -0.3920 -0.0904
 1445SOL     OW15967   3.758   3.769   5.755 -0.2970 -0.2903 -0.5309
 1445SOL    HW115968   3.719   3.725   5.831  0.7811  1.6041  1.1068
 1445SOL    HW215969   3.686   3.767   5.692  0.1995 -0.9296 -1.0748
 1446SOL     OW15970   3.303   0.537  11.506 -0.3622  0.3044  0.1138
 1446SOL    HW115971   3.384   0.500  11.470 -1.6568 -3.2068  0.8021
 1446SOL    HW215972   3.287   0.482  11.583  0.6583 -0.5270 -0.2606
 1447SOL     OW15973   0.864   1.675   1.315  0.6674 -0.3385  0.1358
 1447SOL    HW115974   0.947   1.629   1.305  0.3267 -1.2510  1.5095
 1447SOL    HW215975   0.832   1.677   1.225  0.4384  0.3913  0.2297
 1448SOL     OW15976   3.319   1.959   9.926 -0.6522  0.4648 -0.0377
 1448SOL    HW115977   3.239   1.988   9.968 -1.1081 -0.3768 -0.3325
 1448SOL    HW215978   3.302   1.995   9.839 -2.3685 -0.3934 -0.0427
 1449SOL     OW15979   4.399   4.634  16.671 -0.4919  0.2996 -0.0948
 1449SOL    HW115980   4.399   4.653  16.577 -0.1249 -1.9549 -0.5361
 1449SOL    HW215981   4.489   4.660  16.690 -0.3402  0.4709 -1.0081
 1450SOL     OW15982   2.723   3.863   8.126  0.0402  0.2383 -0.1361
 1450SOL    HW115983   2.804   3.899   8.161 -0.6642  1.4682  0.2167
 1450SOL    HW215984   2.730   3.772   8.154  1.1484  0.8113  1.3940
 1451SOL     OW15985   1.349   1.258  16.056  0.1953  0.0699 -0.0256
 1451SOL    HW115986   1.277   1.247  16.118 -0.1642 -0.2911 -0.5028
 1451SOL    HW215987   1.355   1.168  16.022  1.1753  0.4612 -0.8771
 1452SOL     OW15988   2.059   4.680  11.004  0.1068  0.0386 -0.2398
 1452SOL    HW115989   2.052   0.033  11.031  1.4368  0.1572 -0.3381
 1452SOL    HW215990   2.150   4.675  11.033 -0.0955 -2.1178  0.0671
 1453SOL     OW15991   2.131   3.103   4.220 -0.0934  0.0127 -0.2236
 1453SOL    HW115992   2.042   3.091   4.188 -0.2316  0.3903  0.0194
 1453SOL    HW215993   2.126   3.183   4.273 -0.9488 -0.7244  0.8187
 1454SOL     OW15994   1.219   2.886  17.286  0.7528 -0.1680  0.5357
 1454SOL    HW115995   1.249   2.820  17.348  1.3302  0.3895  0.8524
 1454SOL    HW215996   1.124   2.882  17.299  0.1545 -1.8744 -4.2631
 1455SOL     OW15997   0.415   3.404  12.624  0.5519  0.6611  0.2603
 1455SOL    HW115998   0.382   3.479  12.574 -0.3202  0.3926  0.4317
 1455SOL    HW215999   0.327   3.374  12.649  0.3396  1.0022 -0.0695
 1456SOL     OW16000   3.963   1.212  12.202  0.4335  0.2732 -0.0262
 1456SOL    HW116001   3.935   1.271  12.272  0.3116  0.2611 -0.0661
 1456SOL    HW216002   4.058   1.204  12.216  0.3180 -2.2323 -0.6467
 1457SOL     OW16003   0.306   4.210  17.629 -0.2798 -0.1798 -0.1247
 1457SOL    HW116004   0.386   4.170  17.595 -1.2887 -1.3254 -1.1735
 1457SOL    HW216005   0.247   4.172  17.564  0.1352 -1.3337  0.1751
 1458SOL     OW16006   3.712   1.312   2.144 -0.0154 -0.2837 -0.2814
 1458SOL    HW116007   3.691   1.404   2.160  1.7664 -0.0716  0.7658
 1458SOL    HW216008   3.766   1.322   2.066  1.8046  1.2892  1.1881
 1459SOL     OW16009   0.052   4.586   5.352  0.0173  0.1698  0.3460
 1459SOL    HW116010   4.711   4.603   5.403  0.3142 -1.1263  1.2170
 1459SOL    HW216011   0.099   4.669   5.344 -1.6051  0.8064 -2.7528
 1460SOL     OW16012   1.627   2.271   9.786 -0.3267  0.8029  0.4022
 1460SOL    HW116013   1.604   2.358   9.819 -1.4522  1.2506 -1.5892
 1460SOL    HW216014   1.690   2.294   9.718 -0.1080 -2.4897 -0.5192
 1461SOL     OW16015   3.064   3.354   2.126 -0.5984 -0.9088 -0.9250
 1461SOL    HW116016   3.025   3.432   2.167  1.5020  0.5524 -1.7543
 1461SOL    HW216017   3.134   3.330   2.186  1.2665  1.4884 -2.1825
 1462SOL     OW16018   3.108   1.969  10.289  0.6058 -0.0685  0.2171
 1462SOL    HW116019   3.064   1.987  10.372  5.1171  0.2208  2.5225
 1462SOL    HW216020   3.195   1.939  10.314 -0.1209 -0.5934  2.1374
 1463SOL     OW16021   0.306   4.072  15.849  0.0827  0.3302  0.3335
 1463SOL    HW116022   0.317   4.098  15.757 -1.2010 -0.4124 -0.0477
 1463SOL    HW216023   0.277   3.981  15.852  0.6840 -0.0089 -3.5817
 1464SOL     OW16024   4.078   2.337  16.123  0.5562 -0.0891  0.3240
 1464SOL    HW116025   4.133   2.364  16.197  2.2216  1.0567 -1.3335
 1464SOL    HW216026   4.024   2.271  16.167  1.2096 -2.3129 -2.2534
 1465SOL     OW16027   2.968   1.921  16.389 -0.2207 -0.3761  0.2962
 1465SOL    HW116028   2.900   1.858  16.364 -0.8112  0.1271  0.6328
 1465SOL    HW216029   2.962   1.924  16.485 -0.1780  0.6075  0.2712
 1466SOL     OW16030   3.761   0.648   0.052 -0.1356  0.6540 -0.0892
 1466SOL    HW116031   3.694   0.697   0.004 -0.2486  1.1808  0.6069
 1466SOL    HW216032   3.836   0.673  17.748  0.5552  0.7351  0.9171
 1467SOL     OW16033   3.424   1.396  15.117  0.1443 -0.0941 -0.1387
 1467SOL    HW116034   3.409   1.413  15.210  0.6185 -1.4146  0.1763
 1467SOL    HW216035   3.509   1.438  15.103  0.0963  0.5825  1.6813
 1468SOL     OW16036   0.020   1.605  12.825 -0.0857  0.0399 -0.0438
 1468SOL    HW116037   4.726   1.679  12.876 -0.2604  0.2766 -0.4994
 1468SOL    HW216038   0.091   1.563  12.874  0.6577  0.0087 -1.1468
 1469SOL     OW16039   3.568   1.167   3.027  0.1230  0.3765 -0.2318
 1469SOL    HW116040   3.575   1.107   2.952  1.2876  0.1289  0.0703
 1469SOL    HW216041   3.586   1.099   3.092  0.6820  1.2390  0.5068
 1470SOL     OW16042   3.813   4.166  11.957 -0.2770 -0.1191  0.5667
 1470SOL    HW116043   3.784   4.175  12.047 -1.2996 -1.2794  0.3543
 1470SOL    HW216044   3.745   4.114  11.914 -1.0238  1.9526 -0.7795
 1471SOL     OW16045   4.139   4.286   2.603 -0.1033 -0.2566  0.3690
 1471SOL    HW116046   4.214   4.270   2.546 -0.8093 -0.6903 -0.4340
 1471SOL    HW216047   4.132   4.207   2.657  0.3932  0.4033  1.4160
 1472SOL     OW16048   1.188   4.508  12.023 -0.1542  0.6076  0.4628
 1472SOL    HW116049   1.263   4.568  12.023  0.7497 -0.5118 -0.2950
 1472SOL    HW216050   1.211   4.455  12.099  0.7359 -0.0394 -0.2420
 1473SOL     OW16051   3.445   4.627   4.903 -0.5388 -0.4058 -0.6902
 1473SOL    HW116052   3.471   4.587   4.986  1.2066 -0.5792 -1.3282
 1473SOL    HW216053   3.350   4.616   4.908 -0.6481  1.4888  1.3555
 1474SOL     OW16054   1.005   3.184   7.113 -0.3131 -0.2777  0.1712
 1474SOL    HW116055   1.023   3.143   7.028 -1.4583  1.8189 -1.0974
 1474SOL    HW216056   1.081   3.171   7.169  1.0629 -0.3090 -1.7148
 1475SOL     OW16057   2.497   3.558  14.389 -0.3677 -0.0648 -0.1280
 1475SOL    HW116058   2.452   3.497  14.330  0.1265 -1.5808  1.0592
 1475SOL    HW216059   2.524   3.630  14.332  1.4765  0.2890  1.1980
 1476SOL     OW16060   0.075   1.990   7.178  0.2157  0.0122  0.3868
 1476SOL    HW116061   0.166   1.962   7.188  0.9569  1.3861 -2.4951
 1476SOL    HW216062   0.089   2.040   7.097 -3.0500 -0.7239 -0.6296
 1477SOL     OW16063   1.207   4.673  17.415 -0.1615  0.3720 -0.1973
 1477SOL    HW116064   1.114   4.696  17.419 -0.1285  0.3348  0.7945
 1477SOL    HW216065   1.198   4.605  17.348  0.3205  0.4439 -0.3296
 1478SOL     OW16066   0.020   2.993   5.170 -0.0307  0.0682  0.0265
 1478SOL    HW116067   0.083   2.936   5.126  1.1786  1.6803 -0.3384
 1478SOL    HW216068   0.056   3.022   5.254 -0.1964 -1.3733  0.5920
 1479SOL     OW16069   4.014   1.534   7.585  0.3825 -0.0245  0.1059
 1479SOL    HW116070   4.032   1.535   7.490  0.9729 -0.3680  0.2121
 1479SOL    HW216071   4.084   1.593   7.614 -0.9403  0.7981  1.5981
 1480SOL     OW16072   3.145   3.137   8.867  0.6218  0.4426  0.0191
 1480SOL    HW116073   3.122   3.155   8.959  0.3017  1.6914 -0.3104
 1480SOL    HW216074   3.064   3.161   8.822  2.0758  2.9434 -1.2199
 1481SOL     OW16075   3.438   0.705   6.862  0.0415  0.3443  0.0203
 1481SOL    HW116076   3.373   0.732   6.927 -0.4431 -1.4442  0.2896
 1481SOL    HW216077   3.388   0.747   6.791  0.0245 -0.1154 -0.2382
 1482SOL     OW16078   1.911   4.413   9.851  0.1140  0.5349  0.6215
 1482SOL    HW116079   1.975   4.405   9.780 -0.4040  2.1990 -0.0208
 1482SOL    HW216080   1.922   4.324   9.884 -0.4273  1.2557  2.7563
 1483SOL     OW16081   3.273   4.214   6.800  0.3972  0.2133 -0.2886
 1483SOL    HW116082   3.178   4.211   6.794  0.3363  0.7227  0.4262
 1483SOL    HW216083   3.294   4.188   6.710 -1.0711 -0.3169 -0.4684
 1484SOL     OW16084   1.114   4.368   5.718  0.0436  0.2229 -0.1388
 1484SOL    HW116085   1.079   4.404   5.799  0.1728 -0.4280  0.2001
 1484SOL    HW216086   1.174   4.296   5.735  0.3331 -0.2198 -2.9273
 1485SOL     OW16087   0.654   1.716   6.073  0.1085 -0.3893  0.4084
 1485SOL    HW116088   0.707   1.738   5.996 -1.0499 -0.6245 -0.4463
 1485SOL    HW216089   0.568   1.683   6.047  0.3675 -2.4397  2.1843
 1486SOL     OW16090   0.408   1.435   2.866 -0.7483  0.7228 -0.4999
 1486SOL    HW116091   0.483   1.399   2.818 -2.4383 -0.7297 -2.0889
 1486SOL    HW216092   0.423   1.395   2.952 -2.4061  1.0009 -0.0932
 1487SOL     OW16093   3.708   2.877  13.084 -0.1985  0.1611 -0.3527
 1487SOL    HW116094   3.765   2.802  13.066 -1.6075 -0.5309 -1.9440
 1487SOL    HW216095   3.773   2.939  13.117 -0.3552 -0.8803  1.8840
 1488SOL     OW16096   3.181   2.365   5.136 -0.4855  0.1636 -0.2667
 1488SOL    HW116097   3.116   2.419   5.181  1.6082 -0.1177  3.0526
 1488SOL    HW216098   3.123   2.357   5.060 -0.3661  0.3835 -0.3775
 1489SOL     OW16099   3.105   2.249   6.655  0.3774 -0.4422  0.1521
 1489SOL    HW116100   3.110   2.154   6.661 -0.8708 -0.7525 -3.2200
 1489SOL    HW216101   3.116   2.251   6.560  0.2162 -2.1143  0.1066
 1490SOL     OW16102   1.051   0.018   3.567 -0.5587  0.0029  0.1525
 1490SOL    HW116103   0.962   4.730   3.542  0.1647 -1.5886 -0.8157
 1490SOL    HW216104   1.038   0.079   3.640  0.4374  1.8818 -1.2418
 1491SOL     OW16105   2.045   2.983   9.948  0.3574 -0.4871  0.4018
 1491SOL    HW116106   2.123   3.036   9.930 -0.1276  0.7765  2.0303
 1491SOL    HW216107   1.983   2.995   9.876  1.0983  0.0587 -0.1526
 1492SOL     OW16108   4.154   1.381   4.624  0.2458 -0.0502 -0.2553
 1492SOL    HW116109   4.241   1.360   4.590  0.5459 -0.9429  1.0718
 1492SOL    HW216110   4.130   1.300   4.669 -0.6293 -1.1753 -2.7301
 1493SOL     OW16111   4.573   4.284   2.828 -0.3373 -0.6233  0.0822
 1493SOL    HW116112   4.658   4.250   2.801  0.2147  0.7764  0.0676
 1493SOL    HW216113   4.548   4.336   2.752 -2.5284 -0.0225  1.2107
 1494SOL     OW16114   0.644   3.390   6.552 -0.0350  0.3142  0.0947
 1494SOL    HW116115   0.730   3.357   6.527  0.6462  1.4150  1.0330
 1494SOL    HW216116   0.663   3.453   6.622 -0.4176  0.7870 -0.2219
 1495SOL     OW16117   4.132   3.971   4.526 -0.2020 -0.8540 -0.3372
 1495SOL    HW116118   4.054   3.946   4.575  2.0649 -0.8644  3.2755
 1495SOL    HW216119   4.102   4.059   4.502  0.2805  0.2219  2.9597
 1496SOL     OW16120   4.733   3.213   1.479 -0.0309 -0.4350 -0.0623
 1496SOL    HW116121   0.063   3.270   1.443 -0.5264  1.1746  1.5639
 1496SOL    HW216122   4.672   3.282   1.504  0.0424 -0.9985  1.6336
 1497SOL     OW16123   3.636   3.930   6.189 -0.0991  0.5951 -0.3906
 1497SOL    HW116124   3.582   4.000   6.153 -0.8188  0.0796 -0.3123
 1497SOL    HW216125   3.622   3.866   6.120 -0.6415 -2.0224  2.1412
 1498SOL     OW16126   0.377   1.433   5.056  0.6023 -0.2519  0.0875
 1498SOL    HW116127   0.378   1.375   5.132  1.3143  1.2668  1.2528
 1498SOL    HW216128   0.440   1.408   4.989 -1.2539 -0.7856 -1.4436
 1499SOL     OW16129   4.509   0.046  13.577 -0.3013 -0.4304 -0.1834
 1499SOL    HW116130   4.584   0.078  13.627 -1.1146  0.9984  0.1054
 1499SOL    HW216131   4.446   0.116  13.593  1.2241  1.4365 -2.2732
 1500SOL     OW16132   0.899   3.471   9.231  0.5256  0.7087 -0.4675
 1500SOL    HW116133   0.935   3.401   9.285  1.4067  0.8296 -0.9094
 1500SOL    HW216134   0.877   3.430   9.148 -0.7782  1.4259 -0.4868
 1501SOL     OW16135   0.692   1.982   2.203 -0.1871  0.3430  0.0719
 1501SOL    HW116136   0.781   1.970   2.170 -0.3627 -0.6566 -0.0530
 1501SOL    HW216137   0.650   1.963   2.119 -1.4310  1.1048  0.5215
 1502SOL     OW16138   2.234   2.745   2.320 -0.0422  0.2180  0.8067
 1502SOL    HW116139   2.229   2.770   2.228  0.0029  0.1583  0.7885
 1502SOL    HW216140   2.278   2.661   2.312 -2.1982 -0.4851 -3.3885
 1503SOL     OW16141   1.365   0.940   6.284  0.3053 -0.3110 -0.1811
 1503SOL    HW116142   1.451   0.917   6.249  0.4465 -1.8155  1.1499
 1503SOL    HW216143   1.349   0.857   6.330  1.7678 -0.8503 -0.6525
 1504SOL     OW16144   3.455   1.421   4.176  0.0239 -0.0384 -0.3071
 1504SOL    HW116145   3.387   1.443   4.239  1.6332  3.4371  0.2060
 1504SOL    HW216146   3.526   1.472   4.214  0.8196 -0.8519 -0.6992
 1505SOL     OW16147   0.852   4.095   2.941 -0.3307  0.0204  0.7840
 1505SOL    HW116148   0.887   4.031   2.879  0.7684 -0.2091  1.6471
 1505SOL    HW216149   0.767   4.051   2.951 -0.3421  0.1740  1.3633
 1506SOL     OW16150   3.287   1.606   7.757  0.1565 -0.3422 -0.1102
 1506SOL    HW116151   3.362   1.559   7.718 -0.0773 -0.1137 -0.8320
 1506SOL    HW216152   3.324   1.626   7.842 -1.2852 -0.6253  0.5781
 1507SOL     OW16153   0.800   1.008  11.125  0.0611  0.1014 -0.0220
 1507SOL    HW116154   0.798   1.102  11.143 -1.0075 -0.3898  2.3561
 1507SOL    HW216155   0.730   0.974  11.180  0.5149  0.6659  0.9241
 1508SOL     OW16156   0.312   4.484  15.447  0.9834 -0.8086  0.6593
 1508SOL    HW116157   0.373   4.430  15.498 -0.4501 -3.4112 -0.3792
 1508SOL    HW216158   0.350   4.461  15.362  0.0296 -0.7644  0.2313
 1509SOL     OW16159   2.537   4.024   1.397 -0.7009 -0.1856  0.2498
 1509SOL    HW116160   2.506   3.979   1.476 -1.9117  1.0696  0.4799
 1509SOL    HW216161   2.483   4.103   1.405  0.2800  0.4787  0.3152
 1510SOL     OW16162   1.505   2.257  16.955  0.5158 -0.3506  0.1113
 1510SOL    HW116163   1.584   2.234  16.905  1.8532 -1.6451  2.8108
 1510SOL    HW216164   1.541   2.228  17.039 -0.6553 -2.9279 -0.2686
 1511SOL     OW16165   1.742   1.635   9.561 -0.4637 -0.0555 -0.0649
 1511SOL    HW116166   1.809   1.567   9.568 -0.1688  0.3097  0.6795
 1511SOL    HW216167   1.761   1.687   9.640 -1.7343 -1.4944  1.1836
 1512SOL     OW16168   1.921   2.712   7.660 -0.6936  0.3673  0.6047
 1512SOL    HW116169   1.893   2.635   7.711  1.4581 -1.7144 -1.3925
 1512SOL    HW216170   2.014   2.722   7.681 -0.1839 -0.6436 -1.2306
 1513SOL     OW16171   0.719   1.555   9.259 -0.3620 -0.4138 -0.2912
 1513SOL    HW116172   0.795   1.548   9.201  0.8331 -1.8867  1.4490
 1513SOL    HW216173   0.750   1.524   9.345  0.2722 -0.5602 -0.5673
 1514SOL     OW16174   3.387   2.338  10.551 -0.4691 -0.4536 -0.1936
 1514SOL    HW116175   3.451   2.271  10.573  1.3298  1.6710  1.0383
 1514SOL    HW216176   3.429   2.386  10.480  1.8451 -1.0755  0.7686
 1515SOL     OW16177   2.097   2.191   4.259  0.0126 -0.6112  0.0618
 1515SOL    HW116178   2.108   2.108   4.213  0.6699 -1.1728  1.2316
 1515SOL    HW216179   2.162   2.252   4.225 -1.1693  0.1476 -0.8338
 1516SOL     OW16180   1.567   4.245   4.537 -0.1195  0.0532  0.4338
 1516SOL    HW116181   1.641   4.232   4.476 -0.7376  0.4297 -0.4019
 1516SOL    HW216182   1.511   4.174   4.506 -0.3012  0.4185 -0.0762
 1517SOL     OW16183   1.429   0.720   6.777 -0.6970  0.4194  0.0429
 1517SOL    HW116184   1.462   0.805   6.804  1.2304  0.4911 -2.5022
 1517SOL    HW216185   1.512   0.671   6.776 -0.2154  1.2021  1.6319
 1518SOL     OW16186   2.178   3.756   1.367 -0.6323 -0.6077  0.0269
 1518SOL    HW116187   2.108   3.691   1.360 -0.6971 -0.3805 -1.4519
 1518SOL    HW216188   2.229   3.734   1.289  1.3350  0.5369  0.9849
 1519SOL     OW16189   0.604   0.703   4.178  0.3964 -0.8005 -0.5576
 1519SOL    HW116190   0.613   0.625   4.233  0.3239  0.5412  1.3353
 1519SOL    HW216191   0.591   0.770   4.245 -1.2635  0.5769 -2.2630
 1520SOL     OW16192   2.091   4.501   6.350 -0.0395 -0.1686  0.3955
 1520SOL    HW116193   2.132   4.457   6.424 -0.0772 -0.4785  0.2295
 1520SOL    HW216194   2.042   4.563   6.404  1.2280  1.3303 -0.1860
 1521SOL     OW16195   3.192   2.632   4.731  0.1266  0.6275 -0.1569
 1521SOL    HW116196   3.136   2.637   4.808  3.0853 -1.8612  2.1611
 1521SOL    HW216197   3.235   2.547   4.740 -3.3075 -1.1627 -0.7213
 1522SOL     OW16198   3.360   0.764   9.001 -0.2592  0.1935  0.0449
 1522SOL    HW116199   3.394   0.838   9.050  0.5368  1.0734 -1.8559
 1522SOL    HW216200   3.443   0.732   8.966  0.3779  0.9464  0.8919
 1523SOL     OW16201   3.332   3.363  10.823  0.0619 -0.3152  0.1010
 1523SOL    HW116202   3.427   3.357  10.818 -0.0439 -0.0818 -2.0233
 1523SOL    HW216203   3.325   3.441  10.769 -0.3214 -0.8909 -0.6787
 1524SOL     OW16204   1.065   3.394   2.916  0.4096  0.0658  0.7106
 1524SOL    HW116205   1.102   3.381   3.003  1.3569 -1.6830  0.0472
 1524SOL    HW216206   1.071   3.306   2.879  0.3977 -1.0541  3.3520
 1525SOL     OW16207   3.812   4.694   3.895 -0.3564 -0.1500  0.1073
 1525SOL    HW116208   3.861   0.027   3.937  0.0659  0.7247 -1.8424
 1525SOL    HW216209   3.886   4.653   3.851 -0.7126  0.0598 -0.6948
 1526SOL     OW16210   2.758   0.725   3.399 -0.5851 -0.2957 -0.1213
 1526SOL    HW116211   2.779   0.783   3.325  0.7147 -0.9358 -0.2392
 1526SOL    HW216212   2.664   0.743   3.405 -0.6359 -0.1393 -1.2799
 1527SOL     OW16213   4.610   1.587   4.419  0.1455 -0.4848 -0.0648
 1527SOL    HW116214   4.664   1.514   4.386  0.9163  0.4668 -0.9057
 1527SOL    HW216215   4.650   1.628   4.495  0.2214  0.8457 -0.8269
 1528SOL     OW16216   3.681   1.436  11.484  0.0633 -0.0519 -0.1982
 1528SOL    HW116217   3.755   1.458  11.427 -1.0722  5.5768  0.5355
 1528SOL    HW216218   3.719   1.421  11.570 -0.4633  4.4050  0.7817
 1529SOL     OW16219   1.793   3.711   9.263 -0.1623  0.3807  0.5630
 1529SOL    HW116220   1.865   3.648   9.259  0.8872  1.5139  1.6406
 1529SOL    HW216221   1.739   3.676   9.334 -0.3807 -0.2606  0.0753
 1530SOL     OW16222   2.720   4.417   3.320 -0.3094 -0.1049  0.2214
 1530SOL    HW116223   2.755   4.441   3.405 -1.8485  2.6135  0.1129
 1530SOL    HW216224   2.655   4.488   3.313  0.2842  0.4957  0.8492
 1531SOL     OW16225   3.545   4.476   7.954  0.1677  0.0751  0.5441
 1531SOL    HW116226   3.607   4.422   7.906 -0.4283  1.0739 -1.3706
 1531SOL    HW216227   3.470   4.417   7.955  0.9150 -0.9261 -1.8692
 1532SOL     OW16228   4.096   3.478   3.437  1.4264  0.4441  0.3048
 1532SOL    HW116229   4.062   3.555   3.483 -0.2736 -0.2344  0.1782
 1532SOL    HW216230   4.170   3.513   3.387  1.7475 -0.9284 -0.1733
 1533SOL     OW16231   1.714   0.174   7.544  0.2046  0.0525  0.3150
 1533SOL    HW116232   1.666   0.121   7.607  2.1088 -0.4475  1.3546
 1533SOL    HW216233   1.782   0.109   7.527 -1.7364 -2.0262  0.5051
 1534SOL     OW16234   0.763   3.486   6.789 -0.1063  0.0803 -1.1005
 1534SOL    HW116235   0.716   3.559   6.830  0.2843 -1.0852  1.4163
 1534SOL    HW216236   0.793   3.429   6.860  0.6715  0.1936 -1.3386
 1535SOL     OW16237   4.321   3.586   6.229  0.6009  0.7005  0.6670
 1535SOL    HW116238   4.239   3.572   6.278  0.6757  2.0589  1.1769
 1535SOL    HW216239   4.291   3.614   6.142  1.0882  1.7875  0.8652
 1536SOL     OW16240   2.094   0.998  16.636 -0.1801 -0.1853  0.0623
 1536SOL    HW116241   2.044   0.999  16.718  0.4785  1.0793  0.4356
 1536SOL    HW216242   2.046   0.935  16.581  0.0096 -0.7116  0.4971
 1537SOL     OW16243   2.415   3.253  17.168 -0.1432 -0.1901 -0.4949
 1537SOL    HW116244   2.477   3.230  17.098 -0.9408 -1.9840 -0.6042
 1537SOL    HW216245   2.468   3.290  17.239 -1.6005 -2.7422  1.8978
 1538SOL     OW16246   1.567   4.116   2.007 -0.4066 -0.4950 -0.4393
 1538SOL    HW116247   1.545   4.200   2.048  1.3250 -0.4510  0.3950
 1538SOL    HW216248   1.555   4.062   2.084 -0.5939  1.5798  0.9905
 1539SOL     OW16249   3.052   2.646  12.988 -0.4240  0.4686  0.2522
 1539SOL    HW116250   3.131   2.681  12.948  1.1766 -0.5553  2.4788
 1539SOL    HW216251   2.986   2.715  12.991  0.9076  1.8002 -1.1419
 1540SOL     OW16252   3.944   3.274   6.378 -0.1573 -0.6031 -0.0629
 1540SOL    HW116253   3.871   3.332   6.397  1.4695  1.5433 -0.3849
 1540SOL    HW216254   3.897   3.207   6.329 -2.5425  0.2855  1.0029
 1541SOL     OW16255   2.124   4.427  13.867  0.1829 -0.6100  0.1871
 1541SOL    HW116256   2.110   4.449  13.775  1.3142  0.0051  0.1635
 1541SOL    HW216257   2.059   4.357  13.874 -1.0399  0.6393  1.4260
 1542SOL     OW16258   3.874   4.587   5.261  0.8112  0.2174  0.2547
 1542SOL    HW116259   3.940   4.531   5.301 -0.6781 -1.2690  0.5865
 1542SOL    HW216260   3.930   4.623   5.192  0.5046 -0.8997 -0.5751
 1543SOL     OW16261   3.488   1.775  10.971 -0.3077 -0.4472  0.1602
 1543SOL    HW116262   3.577   1.779  10.935 -0.1032 -0.5430  0.6511
 1543SOL    HW216263   3.518   1.744  11.056  3.1053  2.3064 -0.0361
 1544SOL     OW16264   3.040   1.821  13.371  0.0550 -0.1182  0.2962
 1544SOL    HW116265   3.007   1.858  13.453  1.9113 -0.1048  1.0301
 1544SOL    HW216266   3.090   1.748  13.407 -0.0250 -1.2352 -1.8419
 1545SOL     OW16267   3.487   3.785   3.599  0.2695  0.5339 -0.0419
 1545SOL    HW116268   3.438   3.732   3.661  0.6165 -1.1570 -1.2146
 1545SOL    HW216269   3.427   3.803   3.526 -1.7322  0.1546  1.5357
 1546SOL     OW16270   0.424   2.694  13.583 -0.4828 -0.1429 -0.0709
 1546SOL    HW116271   0.427   2.632  13.510 -0.3574 -2.5892  2.0168
 1546SOL    HW216272   0.399   2.775  13.539 -0.3687 -0.0320  0.0696
 1547SOL     OW16273   0.636   2.165   4.904 -0.2814 -0.1976 -0.0295
 1547SOL    HW116274   0.722   2.170   4.947 -0.7165  1.0639  0.6890
 1547SOL    HW216275   0.634   2.253   4.866 -3.0011 -0.4741 -0.5349
 1548SOL     OW16276   2.878   2.249   8.041  0.3502 -0.0698  0.1377
 1548SOL    HW116277   2.873   2.156   8.017 -0.6470 -0.1530  0.6691
 1548SOL    HW216278   2.920   2.291   7.966 -1.2340 -1.5487 -1.5880
 1549SOL     OW16279   0.752   0.364   1.156 -0.4809  0.3596  0.0761
 1549SOL    HW116280   0.836   0.338   1.193 -1.3487  1.3321  2.7374
 1549SOL    HW216281   0.719   0.430   1.217  2.0464  0.2342  1.5764
 1550SOL     OW16282   1.781   1.219   9.376 -0.5222 -0.2584  0.0702
 1550SOL    HW116283   1.719   1.150   9.350 -0.6687 -0.0321 -0.1770
 1550SOL    HW216284   1.738   1.283   9.319  0.4616  1.4594  1.2627
 1551SOL     OW16285   3.734   2.129   6.469  0.2451 -0.6188  0.3466
 1551SOL    HW116286   3.822   2.157   6.497  0.5517 -2.6649  1.3980
 1551SOL    HW216287   3.740   2.034   6.470 -0.9273 -0.6807  1.2353
 1552SOL     OW16288   4.010   3.364   5.759  0.3295 -0.0836 -0.3882
 1552SOL    HW116289   4.068   3.335   5.828 -0.8221  1.6573  1.3061
 1552SOL    HW216290   4.042   3.454   5.755 -2.2433  0.7981 -1.1722
 1553SOL     OW16291   0.029   0.822   5.623 -0.6284 -0.0374 -0.2376
 1553SOL    HW116292   0.114   0.840   5.582 -0.9552  0.7784 -0.5433
 1553SOL    HW216293   4.718   0.832   5.542 -3.2834  2.7235  1.7152
 1554SOL     OW16294   2.107   0.470   7.221 -0.4654  0.4303  0.7040
 1554SOL    HW116295   2.024   0.426   7.236 -1.3175  1.7065 -0.3365
 1554SOL    HW216296   2.134   0.463   7.313 -1.1123 -2.7785  0.6337
 1555SOL     OW16297   2.098   4.572   8.547 -0.2348 -0.4812 -0.2497
 1555SOL    HW116298   2.128   4.505   8.609 -0.6708  0.6013  1.1215
 1555SOL    HW216299   2.119   4.652   8.595 -1.5218 -0.1604 -0.2173
 1556SOL     OW16300   4.306   2.000  12.014  0.1776  0.3501  0.3349
 1556SOL    HW116301   4.267   1.932  11.959  0.0276 -0.7293  1.7734
 1556SOL    HW216302   4.243   2.070  12.001  0.2457 -0.2877 -3.6646
 1557SOL     OW16303   1.225   3.080  16.618  0.1322 -0.0277 -0.3505
 1557SOL    HW116304   1.199   2.990  16.602  3.4302 -1.2730  1.2452
 1557SOL    HW216305   1.319   3.076  16.602  0.3306 -0.5557  0.8901
 1558SOL     OW16306   3.814   1.195   3.961 -0.0332  0.3570  0.5063
 1558SOL    HW116307   3.909   1.188   3.967 -0.0319  0.9317  1.2386
 1558SOL    HW216308   3.789   1.104   3.973  1.1774  0.0643  0.7647
 1559SOL     OW16309   0.539   0.239  10.385 -0.0903 -0.3008  0.2125
 1559SOL    HW116310   0.615   0.244  10.442 -0.2270  1.5473  0.2247
 1559SOL    HW216311   0.474   0.291  10.434  0.0954 -1.5750  1.8072
 1560SOL     OW16312   3.050   2.459   3.246 -0.1233  0.2053 -0.0024
 1560SOL    HW116313   3.056   2.389   3.310  1.4159 -0.4808 -0.9131
 1560SOL    HW216314   3.103   2.531   3.281 -1.5838  0.8448  0.8921
 1561SOL     OW16315   3.089   1.801   0.344 -0.5053 -0.3839  0.1889
 1561SOL    HW116316   3.107   1.709   0.326  1.3984 -0.5277  2.9312
 1561SOL    HW216317   3.140   1.806   0.424  0.8729 -2.0642 -0.5868
 1562SOL     OW16318   1.017   0.437   2.173  0.4599  0.1478 -0.3972
 1562SOL    HW116319   0.931   0.477   2.157 -0.4800 -1.0284  1.6150
 1562SOL    HW216320   1.036   0.405   2.085  2.9693  0.4583  0.0402
 1563SOL     OW16321   1.251   1.949  11.620 -0.7587 -0.0467  0.3424
 1563SOL    HW116322   1.253   1.981  11.710 -1.5399 -0.9687  0.6950
 1563SOL    HW216323   1.296   1.866  11.635 -0.9576 -0.1248  0.5114
 1564SOL     OW16324   2.285   2.637  15.568 -0.7514 -0.3405  0.6921
 1564SOL    HW116325   2.262   2.658  15.659 -1.7284  0.8316  0.1602
 1564SOL    HW216326   2.242   2.708  15.521 -1.6501 -0.1329  1.8207
 1565SOL     OW16327   4.700   3.191   8.307 -0.1085 -0.1628 -0.1802
 1565SOL    HW116328   4.733   3.101   8.298 -0.8953 -0.2517 -2.0806
 1565SOL    HW216329   4.688   3.218   8.217 -2.1691 -1.1607 -0.2108
 1566SOL     OW16330   2.172   2.677   0.167  0.0044 -0.5367 -0.8946
 1566SOL    HW116331   2.251   2.624   0.175  0.1477  0.0655  1.7991
 1566SOL    HW216332   2.108   2.616   0.204  0.5343  0.0614  1.0118
 1567SOL     OW16333   2.120   3.271   4.441 -0.0145  0.2467 -0.0045
 1567SOL    HW116334   2.028   3.263   4.463 -0.1163 -3.4163 -1.6956
 1567SOL    HW216335   2.142   3.361   4.465  2.7557 -1.0135  2.2475
 1568SOL     OW16336   2.722   2.239   3.257 -0.0337  0.5724  0.6602
 1568SOL    HW116337   2.662   2.189   3.313 -1.3140  1.3288 -0.0415
 1568SOL    HW216338   2.796   2.179   3.242 -1.0844 -0.5450 -0.1124
 1569SOL     OW16339   1.718   0.180   2.400 -0.2941  0.0242  0.4493
 1569SOL    HW116340   1.770   0.205   2.323 -1.0252 -0.5933 -0.2375
 1569SOL    HW216341   1.627   0.194   2.373 -0.6224 -1.9173  0.5732
 1570SOL     OW16342   3.971   1.140  11.926 -0.1598 -0.6700 -0.2978
 1570SOL    HW116343   3.940   1.054  11.900 -0.6517 -0.6732  0.3032
 1570SOL    HW216344   3.990   1.137  12.020 -1.0973 -0.5203 -0.1103
 1571SOL     OW16345   4.370   3.651   5.211 -0.2639  0.2511 -0.1409
 1571SOL    HW116346   4.418   3.582   5.257 -2.3499 -0.2012  1.3867
 1571SOL    HW216347   4.361   3.709   5.287 -3.5391 -1.1393  0.5653
 1572SOL     OW16348   2.999   1.632   5.825 -0.1035 -0.0929 -0.2668
 1572SOL    HW116349   2.953   1.564   5.776  0.3028 -1.0481  0.6718
 1572SOL    HW216350   3.008   1.708   5.768  2.8355  0.0971  0.4401
 1573SOL     OW16351   3.107   4.580   3.516  0.0432 -0.0329 -0.2661
 1573SOL    HW116352   3.061   4.514   3.567 -1.3702  1.2205  0.0956
 1573SOL    HW216353   3.198   4.556   3.533  0.0766  0.0824 -0.2787
 1574SOL     OW16354   1.492   2.139  11.215 -0.1714  0.4150 -0.1049
 1574SOL    HW116355   1.587   2.134  11.217 -0.0475  2.1348 -2.4534
 1574SOL    HW216356   1.454   2.051  11.216  0.9805 -0.0645  0.5759
 1575SOL     OW16357   4.708   1.196   7.652 -0.1605 -0.1936 -0.1403
 1575SOL    HW116358   4.622   1.162   7.679 -0.5242  0.0553 -0.9944
 1575SOL    HW216359   4.688   1.289   7.649 -0.0506 -0.1401  0.7444
 1576SOL     OW16360   1.945   0.185  17.165 -0.4304  0.1723 -0.2735
 1576SOL    HW116361   1.895   0.166  17.085 -1.6518 -2.1727  1.0387
 1576SOL    HW216362   2.035   0.190  17.134 -0.1849  1.4974  0.6304
 1577SOL     OW16363   0.226   2.270   8.031  0.2966 -0.3026  0.2089
 1577SOL    HW116364   0.214   2.357   8.071  2.4342 -0.1154  0.4516
 1577SOL    HW216365   0.302   2.287   7.975  0.9033  1.6583  1.6041
 1578SOL     OW16366   1.664   0.824   9.387  0.0526  0.7646 -0.1856
 1578SOL    HW116367   1.714   0.821   9.468  0.8688 -1.2863 -0.7628
 1578SOL    HW216368   1.578   0.857   9.413  0.5014  1.2393  0.6962
 1579SOL     OW16369   2.751   2.970   7.433 -0.3496  0.4481 -0.2562
 1579SOL    HW116370   2.744   3.004   7.343  0.0974  0.0219 -0.4549
 1579SOL    HW216371   2.715   3.043   7.483 -1.4605 -0.1120 -0.2247
 1580SOL     OW16372   1.936   0.382   9.359  0.2835  0.1867  0.1671
 1580SOL    HW116373   1.913   0.406   9.449  1.7631  1.8275  0.1127
 1580SOL    HW216374   2.023   0.344   9.373  0.4297 -0.0042 -1.2841
 1581SOL     OW16375   0.618   2.513   4.140  0.0974  0.0485  0.0074
 1581SOL    HW116376   0.609   2.447   4.209 -2.9681  0.4680  0.0425
 1581SOL    HW216377   0.525   2.528   4.122 -0.0219 -0.0395  0.5706
 1582SOL     OW16378   4.174   2.153   1.219 -0.1106  0.3276 -0.0419
 1582SOL    HW116379   4.260   2.187   1.245 -0.9039  0.6799  2.1386
 1582SOL    HW216380   4.156   2.107   1.301 -0.5469  0.9334  0.2020
 1583SOL     OW16381   0.475   2.226   3.250 -0.0033 -0.3066  0.6235
 1583SOL    HW116382   0.481   2.295   3.316 -0.8897 -1.9977  2.4687
 1583SOL    HW216383   0.566   2.201   3.267 -0.1672 -0.3442  1.4603
 1584SOL     OW16384   0.169   3.359  10.345 -0.8100 -0.0664  0.4631
 1584SOL    HW116385   0.211   3.341  10.429 -0.6884 -0.4582  0.3191
 1584SOL    HW216386   0.173   3.275  10.299 -2.1059 -1.0200  2.0816
 1585SOL     OW16387   1.335   3.910   3.433 -0.2136  0.1987  0.0968
 1585SOL    HW116388   1.400   3.968   3.472 -0.9109  0.8612  0.2807
 1585SOL    HW216389   1.387   3.838   3.396  1.3766  1.5022 -0.1786
 1586SOL     OW16390   4.150   3.977   3.257  0.1322  0.2682 -0.2005
 1586SOL    HW116391   4.131   4.056   3.308 -2.9065  1.2975 -2.9614
 1586SOL    HW216392   4.092   3.912   3.296  1.6736 -1.1655 -0.2832
 1587SOL     OW16393   2.530   4.195   1.908  0.0165  0.3964  0.0534
 1587SOL    HW116394   2.555   4.257   1.839  2.2898 -1.2087 -0.5639
 1587SOL    HW216395   2.437   4.212   1.920 -0.2517 -0.8969 -0.1741
 1588SOL     OW16396   0.634   3.228   5.111 -0.2842 -0.5425  0.1681
 1588SOL    HW116397   0.589   3.220   5.027  0.0434 -0.6234  0.0021
 1588SOL    HW216398   0.717   3.193   5.079  0.3742  1.0369  0.1383
 1589SOL     OW16399   0.986   3.346   7.359  0.6562  0.0097 -0.1240
 1589SOL    HW116400   0.924   3.387   7.420 -0.1535 -1.8733  0.3092
 1589SOL    HW216401   0.969   3.253   7.350 -0.3606 -0.0445  2.3608
 1590SOL     OW16402   4.083   4.589   2.163 -0.5480 -0.5351  0.3550
 1590SOL    HW116403   3.993   4.568   2.190 -0.7577 -1.2799 -0.9540
 1590SOL    HW216404   4.116   4.504   2.135  1.2684  0.0768  0.6523
 1591SOL     OW16405   1.567   1.172   5.298  0.0350  0.3901  0.1160
 1591SOL    HW116406   1.551   1.241   5.233  0.5608  1.4323  1.0925
 1591SOL    HW216407   1.661   1.155   5.301 -0.6100 -2.8429  1.9395
 1592SOL     OW16408   2.505   0.922   5.501 -0.3532 -0.7637  0.1776
 1592SOL    HW116409   2.517   0.897   5.592  1.2364 -1.3508 -0.2041
 1592SOL    HW216410   2.574   0.984   5.476 -1.6382  0.8730  0.6847
 1593SOL     OW16411   3.030   3.935   2.477 -0.6393 -0.9523  0.3640
 1593SOL    HW116412   3.026   3.845   2.443 -0.2141 -0.8139 -0.0550
 1593SOL    HW216413   3.062   3.924   2.566  0.9998 -3.1684 -0.5007
 1594SOL     OW16414   1.813   0.924   2.150  0.2669 -0.1200  0.1261
 1594SOL    HW116415   1.854   0.958   2.070 -1.1463 -2.4833 -1.5711
 1594SOL    HW216416   1.865   0.957   2.223  1.4278 -0.1140 -0.7003
 1595SOL     OW16417   1.051   3.808   6.984  0.5497 -0.1579  0.0073
 1595SOL    HW116418   0.971   3.827   6.935  0.9518  2.2390  0.3137
 1595SOL    HW216419   1.104   3.760   6.920  1.6561  2.2543 -0.8751
 1596SOL     OW16420   4.416   1.603  14.097 -0.6966 -0.2728  0.2530
 1596SOL    HW116421   4.344   1.588  14.159 -1.0908 -0.0523 -0.1516
 1596SOL    HW216422   4.479   1.650  14.152 -1.0741 -1.7068  1.9233
 1597SOL     OW16423   2.800   3.113   4.189 -0.8284 -0.0054  0.3344
 1597SOL    HW116424   2.850   3.071   4.120  0.7059  0.0807  1.3859
 1597SOL    HW216425   2.792   3.044   4.255  1.8469 -0.8615 -0.2509
 1598SOL     OW16426   3.222   0.192  12.808  0.0301  0.4543 -0.4345
 1598SOL    HW116427   3.276   0.183  12.729  2.3101 -0.0780  1.1949
 1598SOL    HW216428   3.192   0.282  12.797  0.9643  0.6361 -1.4587
 1599SOL     OW16429   1.448   2.668  12.261 -0.0882 -0.5816 -0.0702
 1599SOL    HW116430   1.516   2.712  12.211 -0.2528  0.6078  0.7565
 1599SOL    HW216431   1.466   2.700  12.349  0.8469 -2.8822  0.5726
 1600SOL     OW16432   3.867   2.270  15.646 -0.3725 -0.2961 -0.3328
 1600SOL    HW116433   3.782   2.271  15.691  0.0870 -1.4527  0.5872
 1600SOL    HW216434   3.933   2.275  15.716 -0.9895 -1.1853  0.3248
 1601SOL     OW16435   2.859   0.770   3.635 -0.1084  0.0344 -0.2352
 1601SOL    HW116436   2.901   0.853   3.613 -1.8531  0.9151 -0.2550
 1601SOL    HW216437   2.807   0.748   3.558 -0.5211  2.0902 -0.5289
 1602SOL     OW16438   1.506   3.016   5.716 -0.1867  0.0963 -0.5904
 1602SOL    HW116439   1.486   3.011   5.622  0.2366  1.1914 -0.7479
 1602SOL    HW216440   1.458   3.095   5.742 -1.6278 -0.9189 -0.2228
 1603SOL     OW16441   2.327   2.615   3.616  0.4210  0.1704 -0.6333
 1603SOL    HW116442   2.399   2.670   3.648 -1.5357  0.0630  3.9608
 1603SOL    HW216443   2.287   2.583   3.697  1.2500  1.8834  0.4619
 1604SOL     OW16444   3.224   2.751   8.923  0.1570  0.3276 -0.0301
 1604SOL    HW116445   3.310   2.760   8.963  0.3962  0.3341 -0.5500
 1604SOL    HW216446   3.169   2.766   9.001 -2.1047  1.3905 -1.8209
 1605SOL     OW16447   0.002   4.389   6.468 -0.3631 -0.1830 -0.1146
 1605SOL    HW116448   4.690   4.371   6.388 -0.0683 -2.6713  0.2601
 1605SOL    HW216449   0.024   4.299   6.492  0.0607  0.0293  0.2862
 1606SOL     OW16450   1.176   1.361  12.859 -0.5686 -0.5939  0.3979
 1606SOL    HW116451   1.141   1.444  12.828  2.2459 -1.1859 -4.3621
 1606SOL    HW216452   1.154   1.294  12.794 -0.0983  1.2740 -1.6758
 1607SOL     OW16453   0.824   2.507   2.954  0.2612  0.4342  0.2260
 1607SOL    HW116454   0.876   2.469   3.025 -0.9008 -2.2773 -0.3568
 1607SOL    HW216455   0.835   2.599   2.978  0.1036 -0.3201  3.1831
 1608SOL     OW16456   0.001   3.768   4.469 -0.0920  0.2144 -0.0704
 1608SOL    HW116457   0.059   3.697   4.443 -0.8266  0.3757 -2.1352
 1608SOL    HW216458   4.699   3.786   4.384 -0.6528 -0.5537  0.0277
 1609SOL     OW16459   2.797   1.101   4.513 -0.0873  1.2753 -0.2008
 1609SOL    HW116460   2.807   1.047   4.592  2.0529  1.7872 -0.1035
 1609SOL    HW216461   2.870   1.162   4.524 -0.2734  1.1407  1.7717
 1610SOL     OW16462   4.268   4.017   5.784  0.3221  0.2141  0.1541
 1610SOL    HW116463   4.279   3.934   5.739  0.5783  1.2100 -1.6412
 1610SOL    HW216464   4.288   3.988   5.873 -1.9786 -0.5952  0.3996
 1611SOL     OW16465   2.555   2.413   5.398 -0.0098  0.3145  0.1442
 1611SOL    HW116466   2.479   2.381   5.348  0.5853 -1.8049  0.5826
 1611SOL    HW216467   2.549   2.364   5.480 -2.5697 -2.5606 -1.7392
 1612SOL     OW16468   3.273   4.049   3.006  0.1748  0.2268  0.1118
 1612SOL    HW116469   3.284   4.130   2.955 -1.4652 -0.9038 -2.0732
 1612SOL    HW216470   3.183   4.057   3.037  0.9016 -0.4185  2.3215
 1613SOL     OW16471   3.086   4.419  12.525 -0.3501 -0.2045  0.5048
 1613SOL    HW116472   3.114   4.509  12.543  1.5724 -0.6131 -0.5383
 1613SOL    HW216473   3.160   4.371  12.490 -0.5348 -0.2432  0.1678
 1614SOL     OW16474   0.972   1.561  11.581 -0.1063 -0.1817 -0.2644
 1614SOL    HW116475   0.927   1.482  11.550  0.6604 -1.8585  2.9129
 1614SOL    HW216476   0.965   1.611  11.500  1.4362  2.0890  0.9988
 1615SOL     OW16477   1.876   0.668  16.399 -0.0485 -0.3748 -0.7330
 1615SOL    HW116478   1.850   0.583  16.362 -1.5327  0.3273 -1.3026
 1615SOL    HW216479   1.927   0.697  16.324  1.2178 -1.4665 -0.2873
 1616SOL     OW16480   2.206   1.390   6.013  1.1280 -0.3238 -0.0933
 1616SOL    HW116481   2.175   1.350   6.094  0.3912 -2.4569 -1.4119
 1616SOL    HW216482   2.269   1.325   5.981  0.8012 -0.2029 -0.9915
 1617SOL     OW16483   4.325   3.693   6.691  0.5409 -0.5270 -0.4712
 1617SOL    HW116484   4.325   3.619   6.630 -0.9834 -2.2127  1.5597
 1617SOL    HW216485   4.404   3.670   6.739  0.2605 -0.5427 -0.0166
 1618SOL     OW16486   3.695   1.244   8.518  0.1567 -0.3267 -0.4896
 1618SOL    HW116487   3.736   1.244   8.432 -0.4009  0.4038 -0.7586
 1618SOL    HW216488   3.643   1.165   8.503  1.1398 -1.1311  0.3862
 1619SOL     OW16489   4.662   3.878   7.988 -0.7328 -0.2087  0.1012
 1619SOL    HW116490   4.570   3.892   7.965  0.1239  2.6300 -1.6299
 1619SOL    HW216491   4.658   3.786   8.014 -0.8072  0.1805  1.4775
 1620SOL     OW16492   0.571   0.584   8.702 -0.0778  0.0339 -0.0056
 1620SOL    HW116493   0.593   0.596   8.610  0.7984  1.0182  0.3316
 1620SOL    HW216494   0.622   0.655   8.742 -1.4754  1.0804 -0.0855
 1621SOL     OW16495   0.469   4.233   9.441 -0.0115  0.1922 -0.2019
 1621SOL    HW116496   0.530   4.240   9.515  2.0177  1.6829 -2.0274
 1621SOL    HW216497   0.383   4.220   9.481  0.8311  1.9529  2.1699
 1622SOL     OW16498   1.227   3.189   9.869  0.2283 -0.4616  0.1008
 1622SOL    HW116499   1.158   3.251   9.892  0.0184 -0.5802 -0.2210
 1622SOL    HW216500   1.308   3.234   9.895  0.0930 -1.2180  1.8833
 1623SOL     OW16501   1.237   3.190   4.810  0.4055  0.4892 -0.4950
 1623SOL    HW116502   1.314   3.201   4.754  0.7794  1.5469  0.2271
 1623SOL    HW216503   1.232   3.276   4.851 -1.2850 -0.4592  1.3305
 1624SOL     OW16504   0.855   4.574   7.145 -0.3672 -0.1811 -0.2306
 1624SOL    HW116505   0.893   4.645   7.092 -0.3736  0.1552  0.2127
 1624SOL    HW216506   0.838   4.503   7.084  1.8930 -2.9426  2.3594
 1625SOL     OW16507   1.704   1.927   2.993 -0.3725  0.4249  0.2748
 1625SOL    HW116508   1.767   1.948   3.062  0.2257 -3.0762  0.8215
 1625SOL    HW216509   1.713   1.995   2.927  1.4612 -0.7704 -0.6768
 1626SOL     OW16510   2.661   0.308   2.781 -0.2819  0.3843 -0.2456
 1626SOL    HW116511   2.621   0.340   2.700  0.3683 -0.2748 -0.8276
 1626SOL    HW216512   2.659   0.382   2.842 -0.1503 -2.2718  2.9181
 1627SOL     OW16513   2.696   4.452  15.818 -0.0947 -0.7358  0.3502
 1627SOL    HW116514   2.680   4.414  15.731  0.8068 -0.7490  0.1844
 1627SOL    HW216515   2.790   4.438  15.831  0.1774  1.9514  1.3302
 1628SOL     OW16516   2.853   1.343   3.247 -0.1294  0.4056 -0.0262
 1628SOL    HW116517   2.772   1.364   3.200  0.6938 -1.6040 -2.3479
 1628SOL    HW216518   2.832   1.262   3.294  0.9550  1.4605  2.3066
 1629SOL     OW16519   3.307   1.905   5.011  0.0887  0.0967  0.6410
 1629SOL    HW116520   3.328   1.982   5.065 -1.6046  0.3674  0.9291
 1629SOL    HW216521   3.293   1.938   4.923  0.0875 -0.9092  0.2699
 1630SOL     OW16522   0.451   3.906   6.961 -0.5095 -0.5062 -0.1696
 1630SOL    HW116523   0.370   3.914   7.011  1.0004  0.1487  2.2007
 1630SOL    HW216524   0.473   3.999   6.972 -0.0362 -0.2998 -2.8001
 1631SOL     OW16525   2.704   1.407   6.661 -0.2569 -0.1630 -0.1957
 1631SOL    HW116526   2.748   1.343   6.717 -1.5334  0.0175  1.0050
 1631SOL    HW216527   2.617   1.377   6.686 -0.5133  1.8120  1.2763
 1632SOL     OW16528   3.735   2.226   4.574  0.3977 -0.0440 -0.2305
 1632SOL    HW116529   3.814   2.245   4.624 -0.8473  0.4862  1.5088
 1632SOL    HW216530   3.722   2.315   4.542 -1.6610 -0.2227  0.1176
 1633SOL     OW16531   2.829   1.060   4.797  0.1222  0.9037  0.2232
 1633SOL    HW116532   2.923   1.045   4.788 -0.3120 -1.1386 -0.8898
 1633SOL    HW216533   2.801   0.976   4.833 -0.5062  1.1307  0.2585
 1634SOL     OW16534   2.754   4.361   2.330 -0.2185 -0.4949  0.3118
 1634SOL    HW116535   2.775   4.277   2.370 -0.0758  0.8312  3.0678
 1634SOL    HW216536   2.661   4.345   2.313 -1.1720  6.1118 -0.9274
 1635SOL     OW16537   1.668   3.618   7.656 -0.8466 -0.1465  0.0901
 1635SOL    HW116538   1.751   3.626   7.607 -1.0078  0.7408 -0.0442
 1635SOL    HW216539   1.632   3.541   7.611  1.3963 -1.1009 -0.0778
 1636SOL     OW16540   1.538   4.526   4.444 -0.4878 -0.5720  0.6992
 1636SOL    HW116541   1.445   4.531   4.467 -0.7666 -3.0339  0.1135
 1636SOL    HW216542   1.554   4.433   4.464  2.3207  0.0726  1.4131
 1637SOL     OW16543   3.486   4.263   5.450 -0.1203  0.2181 -0.3598
 1637SOL    HW116544   3.529   4.334   5.499 -2.4803  1.1377  0.3603
 1637SOL    HW216545   3.403   4.256   5.496 -0.4360  0.3598 -0.9051
 1638SOL     OW16546   0.541   3.604  12.322 -0.1978 -0.3477 -0.3361
 1638SOL    HW116547   0.603   3.607  12.250  0.4275 -1.1923  0.1687
 1638SOL    HW216548   0.489   3.534  12.282 -1.1864  0.8797 -1.2247
 1639SOL     OW16549   4.441   1.158   1.306 -0.2651 -0.1449  0.4833
 1639SOL    HW116550   4.485   1.073   1.295  0.3359  0.5497 -2.5926
 1639SOL    HW216551   4.504   1.226   1.285 -1.7687  0.2387 -2.7755
 1640SOL     OW16552   1.883   4.394  10.137  0.0347 -0.0884 -0.1679
 1640SOL    HW116553   1.796   4.433  10.139  0.6663  1.2318  1.2365
 1640SOL    HW216554   1.891   4.401  10.042  0.4675  0.3949 -0.0941
 1641SOL     OW16555   1.800   4.504   4.736  0.1767 -0.4438  0.0488
 1641SOL    HW116556   1.826   4.545   4.654 -1.2100  0.9603  0.3066
 1641SOL    HW216557   1.769   4.580   4.786  0.2771  0.2407 -0.9318
 1642SOL     OW16558   1.241   0.387   8.263  0.4234  0.3242 -0.3072
 1642SOL    HW116559   1.238   0.463   8.205  1.7175  1.5026  1.1729
 1642SOL    HW216560   1.149   0.379   8.290  0.5196 -0.2948 -0.1567
 1643SOL     OW16561   3.438   2.523  11.670 -0.2775 -0.3983 -0.1376
 1643SOL    HW116562   3.421   2.486  11.583 -2.1237 -1.0284  0.4743
 1643SOL    HW216563   3.481   2.450  11.713 -0.8606  0.6627  2.2790
 1644SOL     OW16564   4.737   3.747   2.773  0.1778  0.5753  0.0834
 1644SOL    HW116565   4.676   3.786   2.834 -1.7225 -0.5794 -1.0823
 1644SOL    HW216566   4.671   3.717   2.710  0.7570  0.8959 -0.6864
 1645SOL     OW16567   0.665   3.855   9.927  0.2465  0.6424  0.5558
 1645SOL    HW116568   0.702   3.774   9.960 -1.7772 -1.3107 -2.0001
 1645SOL    HW216569   0.593   3.821   9.873 -1.0603  2.0377  1.3897
 1646SOL     OW16570   2.925   2.051   6.396  0.2749 -0.3877 -0.3948
 1646SOL    HW116571   2.897   2.133   6.354 -1.9177 -1.1710 -0.4569
 1646SOL    HW216572   3.019   2.067   6.401 -0.0714  0.9281  1.8493
 1647SOL     OW16573   3.084   1.749   3.227 -0.1829 -0.6624  0.2191
 1647SOL    HW116574   3.076   1.780   3.137  1.4590  0.3127  0.4046
 1647SOL    HW216575   3.148   1.810   3.264  0.5741 -2.2999  1.6355
 1648SOL     OW16576   0.000   2.285   9.018 -0.5014 -0.0579 -0.2224
 1648SOL    HW116577   4.697   2.260   8.935 -0.7630 -0.4664  0.0302
 1648SOL    HW216578   0.042   2.202   9.044 -1.2036 -0.0464  0.9129
 1649SOL     OW16579   4.034   1.294   1.133 -0.6732  0.4186  0.3352
 1649SOL    HW116580   4.111   1.299   1.191 -0.0524 -0.1921 -0.4356
 1649SOL    HW216581   4.065   1.339   1.055 -0.3766 -1.5183 -0.6595
 1650SOL     OW16582   1.453   1.264  13.362 -0.4667 -0.6538  0.6556
 1650SOL    HW116583   1.403   1.228  13.288  1.3909 -0.2459 -0.7926
 1650SOL    HW216584   1.462   1.181  13.408  2.0418  1.3323  3.7505
 1651SOL     OW16585   4.652   0.892   6.020 -0.1454  0.4597 -0.1487
 1651SOL    HW116586   4.638   0.836   5.943  1.1607  1.0712 -0.8313
 1651SOL    HW216587   4.707   0.836   6.075 -1.3774 -0.6967 -0.0883
 1652SOL     OW16588   1.059   2.965   9.603 -0.4876  0.0654  0.5023
 1652SOL    HW116589   0.972   2.987   9.571  0.2193  0.7711 -0.9275
 1652SOL    HW216590   1.085   2.887   9.554 -1.0491 -0.3393  0.8590
 1653SOL     OW16591   2.489   0.028   7.832  0.2994  0.5963  0.6488
 1653SOL    HW116592   2.401   4.730   7.836  1.0790 -1.3455 -0.0037
 1653SOL    HW216593   2.500   0.044   7.738  2.3413 -0.0166  0.7834
 1654SOL     OW16594   0.934   3.220  14.288 -0.1360  0.1664  0.0703
 1654SOL    HW116595   0.890   3.271  14.356 -0.7847  1.1387 -1.0825
 1654SOL    HW216596   1.009   3.174  14.325 -0.8866 -0.5068  0.7456
 1655SOL     OW16597   4.694   2.179   6.669 -1.0114  0.1898 -0.2881
 1655SOL    HW116598   0.039   2.180   6.622 -0.0482  1.0585  1.4479
 1655SOL    HW216599   4.666   2.090   6.649 -1.6256 -0.6604  4.3771
 1656SOL     OW16600   4.387   2.430   7.715  0.3338 -0.0350 -0.3817
 1656SOL    HW116601   4.411   2.491   7.645 -0.2978  1.2646  0.5301
 1656SOL    HW216602   4.372   2.344   7.677 -1.7791  0.8225 -1.4373
 1657SOL     OW16603   1.200   1.912  12.938  0.3812  0.4107  0.3053
 1657SOL    HW116604   1.192   1.887  12.846  0.0759  0.0868  0.4239
 1657SOL    HW216605   1.289   1.882  12.958  0.6021  0.6502 -0.3135
 1658SOL     OW16606   0.433   0.377  16.063 -0.1800 -0.0506 -0.3864
 1658SOL    HW116607   0.455   0.355  15.972 -0.4042  0.5287 -0.5792
 1658SOL    HW216608   0.506   0.426  16.099 -0.4306  1.1930 -1.5798
 1659SOL     OW16609   2.776   3.092  11.336  0.1259 -0.0019 -0.2643
 1659SOL    HW116610   2.870   3.091  11.322  0.3761  1.0500  1.3436
 1659SOL    HW216611   2.772   3.056  11.425  0.6545 -2.4755 -1.2334
 1660SOL     OW16612   3.102   1.740   2.374 -0.3475  0.2186  0.8744
 1660SOL    HW116613   3.095   1.707   2.463 -0.3108 -0.3997  0.6497
 1660SOL    HW216614   3.150   1.673   2.325  1.8266  1.3852  1.4393
 1661SOL     OW16615   4.328   0.686   1.937 -0.8424  0.6075  0.1523
 1661SOL    HW116616   4.277   0.767   1.934  0.8908  1.6583 -0.7404
 1661SOL    HW216617   4.312   0.649   1.849 -1.4115  2.3921 -0.4945
 1662SOL     OW16618   4.709   2.741   3.084  0.2066  0.5803  0.1871
 1662SOL    HW116619   4.655   2.797   3.139 -1.8061 -0.7178 -0.4781
 1662SOL    HW216620   4.659   2.762   3.005 -1.7361  0.4828  1.3979
 1663SOL     OW16621   2.693   3.441   8.994 -0.4357  0.3267 -0.5240
 1663SOL    HW116622   2.645   3.414   9.073  0.9038 -0.6880 -0.0480
 1663SOL    HW216623   2.784   3.450   9.022 -0.5233  1.3644 -0.6062
 1664SOL     OW16624   2.733   3.444  12.616  0.0584 -0.1230 -0.5488
 1664SOL    HW116625   2.755   3.534  12.639 -2.2827  0.5424 -0.8887
 1664SOL    HW216626   2.654   3.436  12.670  0.7710  0.5605  0.5842
 1665SOL     OW16627   3.720   0.686   4.133 -0.6897 -0.0598 -0.5765
 1665SOL    HW116628   3.770   0.608   4.159 -2.8416 -1.1091  0.3328
 1665SOL    HW216629   3.644   0.691   4.191  0.7699 -2.6739  1.5901
 1666SOL     OW16630   1.055   4.226   8.621  0.2082  0.0899  0.5960
 1666SOL    HW116631   1.019   4.262   8.702  0.5025  0.4832  0.5496
 1666SOL    HW216632   0.970   4.215   8.577  0.1847  2.1738  0.1174
 1667SOL     OW16633   0.872   3.669   8.091  0.1512  0.1007 -0.0929
 1667SOL    HW116634   0.855   3.604   8.023 -3.7387  0.2692  0.7401
 1667SOL    HW216635   0.855   3.619   8.170  0.0563  1.8079  0.9611
 1668SOL     OW16636   4.367   3.191   2.068 -0.1265 -0.5317 -0.0758
 1668SOL    HW116637   4.376   3.096   2.075 -0.3683 -0.4029  1.7731
 1668SOL    HW216638   4.331   3.192   1.979  0.9577 -0.0812 -0.5070
 1669SOL     OW16639   3.319   1.733  17.518 -0.1757 -0.6281 -0.1975
 1669SOL    HW116640   3.276   1.659  17.561 -2.0332  0.0480 -0.8951
 1669SOL    HW216641   3.352   1.787  17.590  0.3615 -0.0237 -0.8906
 1670SOL     OW16642   1.750   3.087  17.368  0.0351 -0.1145 -0.0366
 1670SOL    HW116643   1.746   3.086  17.464  2.0478 -3.9083 -0.0002
 1670SOL    HW216644   1.656   3.098  17.354 -0.0410 -0.3262  0.3266
 1671SOL     OW16645   1.178   3.933   9.387  0.2662 -0.3855  0.2148
 1671SOL    HW116646   1.183   3.867   9.455 -2.0460 -2.5261 -1.6963
 1671SOL    HW216647   1.251   3.916   9.326 -1.4368 -0.7500 -1.7079
 1672SOL     OW16648   3.834   4.077   5.214 -0.1235 -0.3527 -0.2705
 1672SOL    HW116649   3.901   4.049   5.151  0.0131  1.4685 -0.9248
 1672SOL    HW216650   3.769   4.119   5.158 -0.0460 -1.7803 -1.4333
 1673SOL     OW16651   2.449   4.112   6.342 -0.7332 -0.2980 -0.2922
 1673SOL    HW116652   2.511   4.153   6.283 -0.7899  2.0537  1.2721
 1673SOL    HW216653   2.490   4.026   6.356 -0.9305 -0.5407 -1.2582
 1674SOL     OW16654   3.330   3.296   6.342  0.3096  0.3577  0.1584
 1674SOL    HW116655   3.237   3.292   6.366  0.2649 -1.7036 -0.3461
 1674SOL    HW216656   3.322   3.352   6.265  1.0037  0.7549  0.3698
 1675SOL     OW16657   1.327   4.201  10.186 -0.0728  0.5725 -0.7510
 1675SOL    HW116658   1.347   4.185  10.278 -0.4910 -0.1623 -0.7825
 1675SOL    HW216659   1.412   4.207  10.143 -1.2443 -0.5844 -3.2180
 1676SOL     OW16660   3.778   3.578   4.757  0.1165  0.1610  0.3599
 1676SOL    HW116661   3.817   3.566   4.671 -2.6134 -2.4402 -0.5529
 1676SOL    HW216662   3.697   3.527   4.748  0.6968 -0.5046 -1.0967
 1677SOL     OW16663   0.694   3.618   4.312 -0.0732 -0.0424  0.2756
 1677SOL    HW116664   0.605   3.653   4.318  0.0506  0.1549  0.9215
 1677SOL    HW216665   0.667   3.531   4.283  0.6605 -0.9121  2.1645
 1678SOL     OW16666   2.350   1.911   4.919 -0.3035  0.2914  0.4503
 1678SOL    HW116667   2.329   1.926   4.827 -0.3795 -1.4996  0.1732
 1678SOL    HW216668   2.264   1.877   4.944  0.7882 -1.5008  1.7682
 1679SOL     OW16669   2.692   3.934   9.491  0.1693 -0.0024  0.0730
 1679SOL    HW116670   2.785   3.917   9.504  0.3357 -2.1829 -3.7275
 1679SOL    HW216671   2.671   3.859   9.435 -2.3152  0.3427  0.5361
 1680SOL     OW16672   0.332   0.367   0.739  0.4355  0.6322 -0.4492
 1680SOL    HW116673   0.426   0.348   0.732  0.4107 -1.1043  4.0009
 1680SOL    HW216674   0.322   0.345   0.646 -0.2147  1.2762 -0.5290
 1681SOL     OW16675   1.463   2.538  16.895  0.0238 -0.1238  0.4335
 1681SOL    HW116676   1.482   2.450  16.927  1.8026  0.1384  0.0937
 1681SOL    HW216677   1.468   2.527  16.800 -0.1847  1.2964  0.2564
 1682SOL     OW16678   0.852   4.634  10.828 -0.2328 -0.5638 -0.3981
 1682SOL    HW116679   0.769   4.588  10.819  1.3745 -2.7949 -3.7966
 1682SOL    HW216680   0.910   4.577  10.778  1.0225 -4.2254  5.2538
 1683SOL     OW16681   3.127   1.153   6.673 -0.4858  0.3573  0.1105
 1683SOL    HW116682   3.184   1.227   6.651 -1.3216  1.6016  2.0036
 1683SOL    HW216683   3.104   1.123   6.586 -1.0845 -0.4185  0.5355
 1684SOL     OW16684   4.679   3.781   4.205  0.2667  0.0941 -0.4918
 1684SOL    HW116685   0.014   3.765   4.145  2.3310  0.2567  1.9543
 1684SOL    HW216686   4.603   3.748   4.157 -0.3066 -0.7710  0.9951
 1685SOL     OW16687   2.783   2.171   2.734  0.2505  0.0887  0.4417
 1685SOL    HW116688   2.726   2.125   2.673 -0.1306 -0.3892  1.1661
 1685SOL    HW216689   2.850   2.104   2.741 -0.4744 -0.8050 -1.3270
 1686SOL     OW16690   3.202   1.571   2.988  0.1501 -0.0366  0.6791
 1686SOL    HW116691   3.251   1.504   3.037 -0.0985  0.7025  1.9243
 1686SOL    HW216692   3.118   1.571   3.033 -1.0134 -0.4833 -1.5121
 1687SOL     OW16693   3.571   4.733   2.731 -0.2897 -0.4105 -0.2187
 1687SOL    HW116694   3.492   4.694   2.767 -0.7180  1.2254  0.6479
 1687SOL    HW216695   3.632   4.660   2.721 -1.1512 -1.4005  1.6845
 1688SOL     OW16696   0.027   2.403   1.386  0.1481 -0.4367 -0.5134
 1688SOL    HW116697   0.024   2.468   1.316  1.3241 -0.6026 -0.7217
 1688SOL    HW216698   0.122   2.385   1.387 -0.0547 -1.3031  3.2933
 1689SOL     OW16699   2.891   0.768   4.626  0.7556  0.2342 -0.6849
 1689SOL    HW116700   2.957   0.756   4.693 -0.3803 -1.1316  0.1858
 1689SOL    HW216701   2.932   0.785   4.541  1.6085  0.8935 -0.1402
 1690SOL     OW16702   1.247   0.432   2.555 -0.7132  0.0309  0.4709
 1690SOL    HW116703   1.309   0.435   2.482 -0.1025 -0.9001  0.9480
 1690SOL    HW216704   1.260   0.341   2.583  2.2507  1.0114  2.2669
 1691SOL     OW16705   4.152   3.475   5.332  0.1465  0.2588  0.2144
 1691SOL    HW116706   4.139   3.441   5.244  0.4080  0.5956  0.0477
 1691SOL    HW216707   4.224   3.534   5.310 -0.4287  1.2729  0.9974
 1692SOL     OW16708   4.543   2.272   6.895  0.2814  0.0253  0.1130
 1692SOL    HW116709   4.558   2.242   6.806 -0.7505 -0.9273  0.2724
 1692SOL    HW216710   4.612   2.338   6.905 -1.0869  1.3675  0.6742
 1693SOL     OW16711   2.538   0.028  17.247  0.1971 -0.0974 -0.1841
 1693SOL    HW116712   2.481   0.063  17.315  1.0531  1.7991 -0.4526
 1693SOL    HW216713   2.478   0.026  17.173 -0.6012  0.4918  0.4553
 1694SOL     OW16714   4.163   1.685  10.522  0.2949  0.0138  0.3276
 1694SOL    HW116715   4.162   1.658  10.430 -0.7732  0.3874  0.2254
 1694SOL    HW216716   4.258   1.691  10.530  0.1427  2.5778  0.1303
 1695SOL     OW16717   3.259   2.997   3.616 -0.0286 -0.6052 -0.0070
 1695SOL    HW116718   3.196   2.925   3.608 -1.9933  1.3760 -2.4617
 1695SOL    HW216719   3.251   3.016   3.710  1.3471  2.5397 -0.5316
 1696SOL     OW16720   2.729   4.291   2.868 -0.1643 -0.0744 -0.0801
 1696SOL    HW116721   2.688   4.377   2.856 -0.4506 -0.1976  0.0247
 1696SOL    HW216722   2.816   4.306   2.830 -0.5004 -1.4624 -1.4255
 1697SOL     OW16723   2.819   3.749  15.053 -0.2156  0.0748  0.2276
 1697SOL    HW116724   2.795   3.788  15.138 -0.5424  0.5160 -0.0662
 1697SOL    HW216725   2.763   3.801  14.995 -0.2193  0.1703  0.3150
 1698SOL     OW16726   3.173   0.072   1.874  0.3164  0.2603 -0.1056
 1698SOL    HW116727   3.247   0.019   1.903  0.3989 -0.6754 -2.0496
 1698SOL    HW216728   3.098   0.021   1.905  0.0466  2.0483  2.1988
 1699SOL     OW16729   0.595   2.064   5.759  0.5557  0.2873 -0.2509
 1699SOL    HW116730   0.656   2.109   5.702  1.1422 -2.2379 -1.6315
 1699SOL    HW216731   0.532   2.133   5.781 -0.8232 -0.4385 -1.9493
 1700SOL     OW16732   1.609   0.598   2.781  0.5832 -0.3725  0.0411
 1700SOL    HW116733   1.629   0.626   2.870  0.4055  2.8235 -0.9204
 1700SOL    HW216734   1.620   0.505   2.797  0.3041 -0.5107 -0.5687
 1701SOL     OW16735   0.793   0.875  16.988 -0.2157 -0.2762 -0.1256
 1701SOL    HW116736   0.769   0.796  17.035  1.6163 -1.0052 -0.4240
 1701SOL    HW216737   0.886   0.891  17.003  0.3345 -0.7797 -3.0604
 1702SOL     OW16738   0.654   3.153   3.808 -0.1424  0.1576  0.2745
 1702SOL    HW116739   0.740   3.184   3.780  0.1737  1.0226  2.1854
 1702SOL    HW216740   0.642   3.084   3.743 -0.2085 -0.0891  0.5431
 1703SOL     OW16741   2.275   3.877   3.380  0.0062  0.1693 -0.3020
 1703SOL    HW116742   2.332   3.802   3.364  0.1625 -0.2105  1.9365
 1703SOL    HW216743   2.330   3.951   3.355  0.3216 -0.3622 -1.1615
 1704SOL     OW16744   0.486   1.109  12.808  0.2030 -0.2764 -0.5302
 1704SOL    HW116745   0.454   1.176  12.748 -1.9683  0.3014  1.2467
 1704SOL    HW216746   0.426   1.112  12.883 -1.1394 -0.8474 -1.5819
 1705SOL     OW16747   0.606   0.038  10.186  0.4034 -0.0667  0.3298
 1705SOL    HW116748   0.699   0.059  10.195  0.3649  1.4931 -2.8562
 1705SOL    HW216749   0.588   0.096  10.260  2.7632  0.1647  0.7305
 1706SOL     OW16750   3.070   0.779   2.838  0.1129 -0.4804 -0.1031
 1706SOL    HW116751   3.037   0.869   2.845  1.9163  0.2000 -0.4517
 1706SOL    HW216752   3.138   0.777   2.906  0.0958 -0.3362 -0.0807
 1707SOL     OW16753   0.660   0.136  12.260  0.0278  0.1581  0.1727
 1707SOL    HW116754   0.660   0.088  12.343  0.3004  0.3080  0.2583
 1707SOL    HW216755   0.754   0.152  12.252 -0.2151  1.4465 -0.1185
 1708SOL     OW16756   0.459   1.559  14.855 -0.5096  0.4438 -0.1171
 1708SOL    HW116757   0.493   1.597  14.936  0.1147  0.5230 -0.4214
 1708SOL    HW216758   0.503   1.611  14.788  0.9451 -2.0796 -1.1402
 1709SOL     OW16759   1.724   3.266  17.647  0.0171 -0.1748  0.7542
 1709SOL    HW116760   1.802   3.210  17.641 -0.6192 -0.9690 -0.0006
 1709SOL    HW216761   1.747   3.349  17.690  1.3233 -1.6186  2.8887
 1710SOL     OW16762   1.017   0.377   6.337  0.2504 -0.0008  1.1348
 1710SOL    HW116763   1.042   0.289   6.308  0.1614  1.3919 -3.0934
 1710SOL    HW216764   1.054   0.385   6.425  0.6096 -2.5171  1.2189
 1711SOL     OW16765   0.027   3.265  15.558  0.2199  0.2652  0.1301
 1711SOL    HW116766   0.045   3.216  15.638  0.8022  1.6825  0.8632
 1711SOL    HW216767   0.073   3.209  15.495 -0.0270 -0.2548  0.4150
 1712SOL     OW16768   3.362   0.148   9.990 -0.5605 -0.1365  0.0782
 1712SOL    HW116769   3.408   0.166   9.908 -2.2044  2.6131 -0.2459
 1712SOL    HW216770   3.363   0.239  10.019  2.6253  0.3169 -1.4420
 1713SOL     OW16771   2.147   0.099   3.175 -0.0548  0.3636  0.1317
 1713SOL    HW116772   2.061   0.111   3.215 -0.1314  0.8726 -0.1795
 1713SOL    HW216773   2.212   0.084   3.244 -0.4719  0.0710  0.4588
 1714SOL     OW16774   1.409   0.338   5.497  0.3100  0.0538  0.0839
 1714SOL    HW116775   1.494   0.295   5.493  1.3236  2.1611 -0.6185
 1714SOL    HW216776   1.404   0.348   5.592  0.7819 -2.1382  0.3558
 1715SOL     OW16777   0.591   4.427   9.053  0.0850  0.0920  0.2636
 1715SOL    HW116778   0.634   4.512   9.041  1.8955 -0.9118 -0.2920
 1715SOL    HW216779   0.596   4.390   8.965  1.2861  0.7832  0.0412
 1716SOL     OW16780   3.263   3.027   9.674 -0.3947 -0.2711 -0.9511
 1716SOL    HW116781   3.319   3.103   9.689  0.7674 -1.3263 -0.0484
 1716SOL    HW216782   3.198   3.047   9.742  1.5873  0.8738  0.5974
 1717SOL     OW16783   2.005   1.885  17.662 -0.2932  0.2076  0.1627
 1717SOL    HW116784   2.078   1.919  17.713  0.7317  0.1590 -1.2870
 1717SOL    HW216785   1.978   1.807  17.711  0.7870  0.1707  0.6812
 1718SOL     OW16786   0.890   1.636   4.204  0.4157  0.3021  0.4884
 1718SOL    HW116787   0.934   1.585   4.272 -0.0830  0.1060  0.6628
 1718SOL    HW216788   0.873   1.559   4.149  1.6964  1.7134 -1.8559
 1719SOL     OW16789   1.584   0.351   5.870  0.5749 -0.3962  0.0030
 1719SOL    HW116790   1.500   0.312   5.845  1.5568 -1.5041 -1.5055
 1719SOL    HW216791   1.557   0.441   5.891 -0.0065 -0.8871  1.4053
 1720SOL     OW16792   1.409   0.971   7.156 -0.1854 -0.4241 -0.2295
 1720SOL    HW116793   1.432   1.063   7.170  2.8925 -0.6596 -3.8402
 1720SOL    HW216794   1.473   0.924   7.210  0.9966 -0.9531 -2.1088
 1721SOL     OW16795   1.455   1.087   3.638  0.1313  0.2239 -0.4062
 1721SOL    HW116796   1.492   1.176   3.637 -0.2382  0.3924  0.2858
 1721SOL    HW216797   1.370   1.105   3.597  1.3721  2.9552 -1.7931
 1722SOL     OW16798   3.698   0.048   5.293  0.1414  0.0352 -0.2829
 1722SOL    HW116799   3.770   4.722   5.286  0.3011  0.0228  1.4693
 1722SOL    HW216800   3.636   4.737   5.347 -0.0848  0.4153 -0.1960
 1723SOL     OW16801   3.454   0.153   9.737  0.2161 -0.3209 -0.0096
 1723SOL    HW116802   3.476   0.180   9.648  2.6075  1.5393  1.1620
 1723SOL    HW216803   3.399   0.075   9.729 -1.3058  0.6233  1.1990
 1724SOL     OW16804   2.735   2.222  10.094 -0.2313  0.6330 -0.3504
 1724SOL    HW116805   2.747   2.131  10.068 -1.9780  0.4726 -0.5699
 1724SOL    HW216806   2.773   2.224  10.182 -3.2024  2.8045  0.8853
 1725SOL     OW16807   2.056   3.569   6.060 -0.2906  0.5299 -0.4250
 1725SOL    HW116808   2.151   3.574   6.067 -0.3767  1.8335 -0.1386
 1725SOL    HW216809   2.035   3.477   6.071 -1.3826  0.5922 -1.9591
 1726SOL     OW16810   3.980   2.482   6.480 -0.2657  0.1866 -0.0952
 1726SOL    HW116811   3.979   2.396   6.524 -2.2374  0.5468  0.5786
 1726SOL    HW216812   4.000   2.458   6.390  0.3108 -1.2434  0.3967
 1727SOL     OW16813   2.158   1.519   6.954  0.4708 -0.3981 -0.2337
 1727SOL    HW116814   2.138   1.531   7.047  3.9255  3.7534 -0.0548
 1727SOL    HW216815   2.253   1.509   6.963  0.4620  0.5639  0.8730
 1728SOL     OW16816   2.989   1.465   4.996  0.3338  0.0413 -0.1946
 1728SOL    HW116817   3.019   1.554   4.981  1.7532 -0.1352  1.7479
 1728SOL    HW216818   3.038   1.425   4.924 -1.0416 -1.3731 -0.3680
 1729SOL     OW16819   1.204   0.618   3.689  0.1246  0.5868  0.3212
 1729SOL    HW116820   1.138   0.670   3.643 -1.0780 -0.7914  0.4738
 1729SOL    HW216821   1.282   0.630   3.636  1.1138  0.0757  1.6580
 1730SOL     OW16822   0.296   4.581   3.802  0.1947  0.3072  0.4579
 1730SOL    HW116823   0.358   4.515   3.833 -0.1503  0.4319  1.4113
 1730SOL    HW216824   0.217   4.527   3.799 -1.1151  2.2341  0.6670
 1731SOL     OW16825   4.101   3.773   7.890  0.7843 -0.4897 -0.9176
 1731SOL    HW116826   4.066   3.724   7.815  0.3073 -0.4388 -0.7316
 1731SOL    HW216827   4.038   3.843   7.908  1.5016  0.4311 -2.0247
 1732SOL     OW16828   4.716   1.699   6.582 -0.4975  0.3473  0.7705
 1732SOL    HW116829   0.033   1.706   6.660  0.0314  1.5410  0.2948
 1732SOL    HW216830   0.020   1.624   6.541 -0.8621  0.8453 -0.5123
 1733SOL     OW16831   3.912   4.140  10.519  0.4501  0.0344  0.1067
 1733SOL    HW116832   3.950   4.225  10.499 -1.0423  0.8550  0.7144
 1733SOL    HW216833   3.890   4.102  10.434 -1.8826 -0.0584  0.7439
 1734SOL     OW16834   3.366   2.953   5.820  0.0880  0.2945 -0.8960
 1734SOL    HW116835   3.310   2.894   5.769 -0.5537  1.0575 -1.0666
 1734SOL    HW216836   3.310   3.030   5.823  0.1621  0.2943  0.5840
 1735SOL     OW16837   1.455   3.063   9.143  0.7041 -0.2376 -0.2386
 1735SOL    HW116838   1.452   3.071   9.239  0.9621  0.8371 -0.3255
 1735SOL    HW216839   1.374   3.014   9.129  0.9374  0.1297 -2.8563
 1736SOL     OW16840   0.073   4.580   9.465  0.0273 -0.2414 -0.3002
 1736SOL    HW116841   0.154   4.610   9.506 -0.6245 -0.7442  1.3496
 1736SOL    HW216842   0.051   4.643   9.396 -0.7016 -0.3741 -0.1846
 1737SOL     OW16843   3.662   1.056   2.536  0.0931  0.2389 -0.3069
 1737SOL    HW116844   3.748   1.017   2.555  0.8148  2.4021  0.9363
 1737SOL    HW216845   3.683   1.073   2.444  0.4279  1.1308 -0.0631
 1738SOL     OW16846   3.327   1.760   4.342 -0.7441 -0.4168  0.5758
 1738SOL    HW116847   3.410   1.801   4.367 -1.5631  1.8760 -0.5620
 1738SOL    HW216848   3.266   1.812   4.394  0.3607  1.0418  0.3889
 1739SOL     OW16849   4.595   0.387   4.585  0.0158 -0.3169 -0.5642
 1739SOL    HW116850   4.583   0.295   4.562  1.4426 -0.8338  0.7013
 1739SOL    HW216851   4.614   0.438   4.507  1.9053 -0.3156 -0.1062
 1740SOL     OW16852   2.767   0.341   4.213 -0.5097 -0.2898  0.7387
 1740SOL    HW116853   2.821   0.311   4.140 -1.5464  1.5523 -0.7962
 1740SOL    HW216854   2.767   0.436   4.201 -0.6841 -0.3190  0.5062
 1741SOL     OW16855   1.953   3.527   1.160 -0.2723 -0.2570  0.1554
 1741SOL    HW116856   1.880   3.481   1.119 -1.5877  0.8246  1.2642
 1741SOL    HW216857   1.935   3.611   1.117  2.0428  0.5329  0.7133
 1742SOL     OW16858   0.788   1.077   2.435  0.6130  0.2417  0.0651
 1742SOL    HW116859   0.742   1.049   2.514  1.0834  2.8124  1.2590
 1742SOL    HW216860   0.826   0.996   2.403  1.9042  1.0895 -0.5258
 1743SOL     OW16861   2.884   1.654   7.211  0.1700  0.1794  0.1100
 1743SOL    HW116862   2.966   1.695   7.238  0.9169 -0.2972 -1.4266
 1743SOL    HW216863   2.819   1.676   7.277 -0.8085 -2.7477  0.1077
 1744SOL     OW16864   0.996   2.467   6.389 -0.3986  0.0717  0.3199
 1744SOL    HW116865   0.910   2.509   6.383 -0.4749 -0.0576  0.5361
 1744SOL    HW216866   1.001   2.460   6.484 -1.5839 -3.1458  0.1247
 1745SOL     OW16867   3.830   1.321   3.204  0.3356 -0.4025 -0.4136
 1745SOL    HW116868   3.843   1.375   3.282 -1.3372  0.8996 -1.0295
 1745SOL    HW216869   3.748   1.362   3.178 -0.1619 -1.2576 -0.1716
 1746SOL     OW16870   1.145   3.341   5.393  0.2475 -0.3062  0.6408
 1746SOL    HW116871   1.238   3.329   5.374  0.1751  0.8067 -0.3847
 1746SOL    HW216872   1.133   3.402   5.321  2.5608  0.0143  0.5342
 1747SOL     OW16873   2.848   2.569   0.749  0.4589 -0.3000 -0.3662
 1747SOL    HW116874   2.825   2.659   0.774 -0.2739 -0.8230  0.8483
 1747SOL    HW216875   2.818   2.522   0.827 -1.9039 -0.9691 -1.6919
 1748SOL     OW16876   3.363   4.041   8.151  0.4670 -0.3309 -0.4572
 1748SOL    HW116877   3.363   4.011   8.242  0.6916 -0.2258 -0.4233
 1748SOL    HW216878   3.394   4.132   8.155 -0.1904 -0.1754  1.3675
 1749SOL     OW16879   0.611   0.750   7.268 -0.2477 -0.1294  0.0322
 1749SOL    HW116880   0.564   0.670   7.243 -0.0799 -0.1193 -0.3131
 1749SOL    HW216881   0.542   0.813   7.290  0.5755  0.4079  1.1071
 1750SOL     OW16882   0.176   1.079   5.737 -0.0196 -0.3368 -0.1102
 1750SOL    HW116883   0.119   1.121   5.801 -1.2802  1.2993 -2.3152
 1750SOL    HW216884   0.217   1.014   5.794  0.9143  1.2294  1.0285
 1751SOL     OW16885   3.282   0.353   2.064  0.7671  0.0561 -0.2590
 1751SOL    HW116886   3.329   0.401   1.996  1.3713 -0.1202  0.0289
 1751SOL    HW216887   3.302   0.263   2.039 -1.1941 -0.1369 -1.1435
 1752SOL     OW16888   4.203   2.822   3.497  0.0729 -0.5275  0.7497
 1752SOL    HW116889   4.247   2.744   3.531  0.3956 -0.6860 -0.0243
 1752SOL    HW216890   4.177   2.800   3.408  2.1875 -0.4861  0.1092
 1753SOL     OW16891   0.606   0.693  15.463 -0.0126  0.2139  0.2139
 1753SOL    HW116892   0.634   0.625  15.524 -2.2830  0.3235  1.3975
 1753SOL    HW216893   0.666   0.763  15.489 -0.6143  1.6152 -2.1364
 1754SOL     OW16894   4.150   4.281   7.247 -0.5978  0.7197  0.6224
 1754SOL    HW116895   4.153   4.344   7.319 -1.1178 -0.3075  1.5511
 1754SOL    HW216896   4.060   4.249   7.254 -1.1681  2.0807 -0.3766
 1755SOL     OW16897   3.339   3.938   9.185 -0.0873 -1.0170  0.1159
 1755SOL    HW116898   3.244   3.930   9.193 -0.2830  0.3310 -0.8117
 1755SOL    HW216899   3.364   3.848   9.204  1.3016 -0.1638  2.3300
 1756SOL     OW16900   1.330   3.873   9.163  0.0845 -0.3320  0.2482
 1756SOL    HW116901   1.403   3.811   9.158  0.3083 -0.3319  3.9251
 1756SOL    HW216902   1.269   3.832   9.101  1.5497 -0.4682 -1.1244
 1757SOL     OW16903   2.683   4.144   5.504  0.0275 -0.1173  0.4535
 1757SOL    HW116904   2.643   4.065   5.468 -0.1235  0.4710 -0.6800
 1757SOL    HW216905   2.753   4.097   5.549 -0.1663 -0.1350  0.7357
 1758SOL     OW16906   0.473   3.731   9.786 -0.0997  0.7197 -0.5137
 1758SOL    HW116907   0.431   3.663   9.734  2.4224 -0.8267 -0.5281
 1758SOL    HW216908   0.420   3.733   9.866  0.5240  1.8894 -0.1250
 1759SOL     OW16909   0.321   2.239   5.535  0.3601 -0.2792  0.2654
 1759SOL    HW116910   0.366   2.186   5.600  0.8502 -1.5063 -1.0599
 1759SOL    HW216911   0.398   2.257   5.481 -0.2780  0.4898 -0.3953
 1760SOL     OW16912   2.916   2.390  15.619  0.1733 -0.2322 -0.0525
 1760SOL    HW116913   3.011   2.397  15.611  0.0240  1.5468 -0.2054
 1760SOL    HW216914   2.901   2.458  15.685  0.0569  0.1780 -0.5064
 1761SOL     OW16915   1.126   4.720   8.909  0.4335  0.0586  0.1071
 1761SOL    HW116916   1.171   4.667   8.844 -2.1799 -0.5374 -1.2066
 1761SOL    HW216917   1.183   4.708   8.985  0.3820 -2.1818 -0.2082
 1762SOL     OW16918   3.297   1.579  10.902 -0.2387  0.4216  0.3396
 1762SOL    HW116919   3.311   1.587  10.807  0.4624  0.5082  0.4498
 1762SOL    HW216920   3.380   1.616  10.931  0.3603  0.3804 -1.2995
 1763SOL     OW16921   3.640   1.518  13.196 -0.1274 -0.3696  0.6034
 1763SOL    HW116922   3.580   1.591  13.178  0.4902  0.0287  0.1507
 1763SOL    HW216923   3.701   1.514  13.122 -1.4070  0.8345 -0.5080
 1764SOL     OW16924   2.249   0.694   6.317 -0.2974 -0.1987  0.4370
 1764SOL    HW116925   2.293   0.779   6.317  1.1374 -0.9531 -2.3798
 1764SOL    HW216926   2.218   0.676   6.228 -2.2132  1.4425  0.7761
 1765SOL     OW16927   1.614   3.751   9.530 -0.3875  0.0036 -0.4567
 1765SOL    HW116928   1.581   3.741   9.620  3.4987  1.3265  1.0777
 1765SOL    HW216929   1.562   3.824   9.497 -1.1451 -0.6565 -0.7165
 1766SOL     OW16930   3.115   3.399   5.266 -0.4929  0.2795  0.3863
 1766SOL    HW116931   3.197   3.402   5.316 -1.1101  0.2911  1.4007
 1766SOL    HW216932   3.151   3.411   5.179 -0.9768 -2.4486 -0.1867
 1767SOL     OW16933   3.111   2.543   8.214  0.2437 -0.0353  0.4114
 1767SOL    HW116934   3.166   2.465   8.198  0.8864 -0.5305  5.0024
 1767SOL    HW216935   3.046   2.505   8.273  0.2627 -1.9833 -0.8150
 1768SOL     OW16936   2.016   3.843   7.894 -0.4609 -0.3824 -0.4152
 1768SOL    HW116937   2.053   3.931   7.891  1.8056 -1.2117  2.4152
 1768SOL    HW216938   1.923   3.860   7.900 -0.5845 -0.3251 -2.5901
 1769SOL     OW16939   2.150   3.210   7.888 -0.1279 -0.5195  0.3721
 1769SOL    HW116940   2.234   3.256   7.881 -0.4409  0.0323  0.2441
 1769SOL    HW216941   2.095   3.282   7.918 -0.3692 -0.5475 -0.0102
 1770SOL     OW16942   3.018   3.262  11.892  0.1895 -0.6084 -0.0514
 1770SOL    HW116943   3.029   3.175  11.928  0.0613 -0.4787  0.2960
 1770SOL    HW216944   2.923   3.268  11.904 -0.0649 -0.0420 -2.3578
 1771SOL     OW16945   4.566   3.676   6.834 -0.7464  0.2812 -0.3715
 1771SOL    HW116946   4.590   3.749   6.777 -0.1335 -0.1987 -0.7344
 1771SOL    HW216947   4.583   3.704   6.924 -0.0362  0.4975 -0.5778
 1772SOL     OW16948   4.385   0.857   7.488 -0.0063  0.2974 -0.4859
 1772SOL    HW116949   4.322   0.894   7.427 -0.0375  3.7029  1.5713
 1772SOL    HW216950   4.340   0.776   7.512 -0.8331  1.1768  0.9781
 1773SOL     OW16951   0.065   3.845  11.990  0.0697 -0.1982  0.0322
 1773SOL    HW116952   0.138   3.902  11.965  0.2167 -0.0963  0.6966
 1773SOL    HW216953   0.065   3.871  12.082 -3.5673 -1.3939  0.3488
 1774SOL     OW16954   3.908   0.676   2.273 -0.3161  0.6559  0.1074
 1774SOL    HW116955   3.869   0.725   2.200  1.5545  1.0214 -0.6487
 1774SOL    HW216956   3.830   0.650   2.323  0.6962  0.3143  1.5047
 1775SOL     OW16957   0.958   3.052   7.488 -0.3221  0.0048  0.0460
 1775SOL    HW116958   0.907   2.998   7.548 -0.6301 -0.5803 -0.7507
 1775SOL    HW216959   0.888   3.067   7.425  0.1248 -2.2397 -0.9681
 1776SOL     OW16960   0.488   0.195   2.047 -0.0014 -0.2589 -0.2388
 1776SOL    HW116961   0.530   0.253   1.984 -0.2713 -0.1219 -0.2946
 1776SOL    HW216962   0.519   0.110   2.018 -1.4120 -0.7090 -0.4124
 1777SOL     OW16963   1.315   1.824   8.627 -0.1094  0.2522 -0.5770
 1777SOL    HW116964   1.274   1.748   8.670 -1.0567  3.6654  4.6470
 1777SOL    HW216965   1.327   1.882   8.703  0.3941 -1.6994  0.8287
 1778SOL     OW16966   4.242   2.837   7.015 -0.0356 -0.5684 -0.4446
 1778SOL    HW116967   4.186   2.770   6.976 -3.1309 -0.1306  3.2374
 1778SOL    HW216968   4.274   2.888   6.940 -0.2281  2.3890  1.4773
 1779SOL     OW16969   3.823   1.884   8.021 -0.0906 -0.4503  0.4681
 1779SOL    HW116970   3.729   1.885   8.034 -0.0994 -1.0256  0.4420
 1779SOL    HW216971   3.844   1.957   8.079 -0.2171  0.3478 -0.5089
 1780SOL     OW16972   2.241   3.449   5.774 -0.0578 -0.3336 -0.2557
 1780SOL    HW116973   2.183   3.382   5.809 -1.1451  0.3575 -0.7528
 1780SOL    HW216974   2.310   3.391   5.742  0.8518  0.6868 -0.1391
 1781SOL     OW16975   2.345   3.590   2.192 -0.2226 -0.5679  0.2762
 1781SOL    HW116976   2.317   3.500   2.204 -0.8247 -0.0864  2.5944
 1781SOL    HW216977   2.303   3.625   2.113 -0.6871 -1.1766  0.2623
 1782SOL     OW16978   1.753   4.541   2.730  0.7215 -0.0089  0.0673
 1782SOL    HW116979   1.706   4.597   2.792  0.7408  0.9607 -0.8051
 1782SOL    HW216980   1.772   4.466   2.786 -1.9744 -0.2800  0.6290
 1783SOL     OW16981   3.315   1.307   7.802  0.8338 -0.5732  0.7258
 1783SOL    HW116982   3.410   1.304   7.790  0.6691 -1.7401 -0.3315
 1783SOL    HW216983   3.303   1.212   7.809  0.1532 -0.6215 -0.9623
 1784SOL     OW16984   0.084   0.287  10.921  0.4725  0.1352 -0.5824
 1784SOL    HW116985   0.092   0.230  10.997  0.3275 -3.1321 -2.9943
 1784SOL    HW216986   4.728   0.297  10.904 -0.2350 -0.8628  2.7703
 1785SOL     OW16987   2.558   3.544   5.983 -0.2275 -0.0908  0.5052
 1785SOL    HW116988   2.554   3.515   5.892  0.7017  1.4421 -0.0323
 1785SOL    HW216989   2.531   3.462   6.025 -0.8097 -0.6969 -1.0743
 1786SOL     OW16990   3.208   0.487   5.407  0.2796  0.5056  0.9079
 1786SOL    HW116991   3.232   0.579   5.398  1.1664  0.2454  0.5664
 1786SOL    HW216992   3.180   0.465   5.318  0.7068 -0.2625  0.9603
 1787SOL     OW16993   3.127   4.233   7.678  0.1813 -0.6908  0.2122
 1787SOL    HW116994   3.049   4.276   7.643 -0.5846 -1.8182  0.5302
 1787SOL    HW216995   3.128   4.154   7.624  0.5427  0.4151 -1.3999
 1788SOL     OW16996   1.166   0.608   6.742  0.2606 -0.7647  0.0751
 1788SOL    HW116997   1.243   0.662   6.724 -0.8971  1.8608  2.9472
 1788SOL    HW216998   1.176   0.533   6.683  1.0819  0.8808 -1.8384
 1789SOL     OW16999   0.698   2.168   3.724 -0.1376 -0.0105 -0.3990
 1789SOL    HW117000   0.667   2.077   3.728 -1.2367  0.5198  3.6605
 1789SOL    HW217001   0.707   2.194   3.816 -0.9526  0.1302 -0.3604
 1790SOL     OW17002   3.704   4.619   6.712  0.3832 -0.3293 -0.6908
 1790SOL    HW117003   3.788   4.665   6.710 -0.2132  0.8225  0.6827
 1790SOL    HW217004   3.653   4.669   6.775 -0.5582 -1.6092 -0.4423
 1791SOL     OW17005   0.882   3.835   6.393 -0.0610  0.5849  0.4727
 1791SOL    HW117006   0.891   3.883   6.311  0.1577 -4.1021 -2.2786
 1791SOL    HW217007   0.903   3.745   6.368 -3.0920 -0.3868  1.4033
 1792SOL     OW17008   2.919   2.698   7.018 -0.2932 -0.0403 -0.2842
 1792SOL    HW117009   2.866   2.777   7.027  1.3407  0.8603  1.4360
 1792SOL    HW217010   3.002   2.734   6.986  1.2930 -0.7174  3.0631
 1793SOL     OW17011   0.366   3.020  16.543  0.0482  0.3915 -0.4640
 1793SOL    HW117012   0.411   3.103  16.527 -0.7651  0.4268 -2.4605
 1793SOL    HW217013   0.279   3.058  16.551  0.0080 -0.3893  2.9508
 1794SOL     OW17014   0.450   0.634   1.206  0.4159  0.1162 -0.2003
 1794SOL    HW117015   0.396   0.593   1.139 -1.2877  2.0760 -0.0217
 1794SOL    HW217016   0.534   0.645   1.163  1.7143 -1.4746  1.9223
 1795SOL     OW17017   1.333   0.246  11.868 -0.0233 -0.2218  0.1551
 1795SOL    HW117018   1.409   0.256  11.925  0.3716  1.1095 -0.6083
 1795SOL    HW217019   1.381   0.264  11.787  1.9128  2.9108  2.0162
 1796SOL     OW17020   2.838   2.109   0.890 -0.2607 -0.1015  0.0785
 1796SOL    HW117021   2.882   2.064   0.817  1.9326  1.6118  0.3516
 1796SOL    HW217022   2.891   2.188   0.904  0.0034 -0.1574 -0.5699
 1797SOL     OW17023   2.266   0.061  16.518  0.2808 -0.5544 -0.6106
 1797SOL    HW117024   2.253   4.705  16.529 -1.3523 -0.2861 -0.3363
 1797SOL    HW217025   2.204   0.061  16.446 -0.0044  1.7050 -0.3613
 1798SOL     OW17026   2.108   1.807   4.973  0.3599 -0.6299  0.0349
 1798SOL    HW117027   2.062   1.749   5.033  1.3256 -1.3996  0.0287
 1798SOL    HW217028   2.034   1.820   4.914 -0.2185  1.7460  1.2637
 1799SOL     OW17029   4.400   4.090   2.922  0.5992  0.4274  0.2374
 1799SOL    HW117030   4.456   4.153   2.877  0.4235  0.7880  0.5176
 1799SOL    HW217031   4.403   4.129   3.009  3.3484  0.1324  0.2508
 1800SOL     OW17032   2.031   3.521   0.876 -0.3527 -0.4982 -0.4306
 1800SOL    HW117033   1.991   3.528   0.790 -0.4924  0.5819 -0.2767
 1800SOL    HW217034   2.124   3.531   0.855  0.1333  0.6610  2.2043
 1801SOL     OW17035   2.390   3.404   2.510 -0.4360 -0.1115  0.3694
 1801SOL    HW117036   2.333   3.479   2.531 -0.2641 -0.2587  1.3848
 1801SOL    HW217037   2.386   3.398   2.415 -0.8180 -0.7697  0.4280
 1802SOL     OW17038   1.349   1.946   3.959 -0.2631 -0.2179  0.3728
 1802SOL    HW117039   1.394   1.902   3.887 -1.0023 -1.2782  0.5502
 1802SOL    HW217040   1.413   2.015   3.973 -3.0903  2.7386 -1.3347
 1803SOL     OW17041   0.994   1.961   4.678  0.1450  0.5516  0.1786
 1803SOL    HW117042   0.971   1.910   4.756 -0.0981  1.8999  0.9911
 1803SOL    HW217043   1.075   2.002   4.707 -0.8925  3.0352 -0.4507
 1804SOL     OW17044   3.894   4.202   8.339 -0.3262  0.1934 -0.3698
 1804SOL    HW117045   3.957   4.233   8.404 -0.1731 -1.6174  0.3682
 1804SOL    HW217046   3.862   4.118   8.372  0.1490 -0.3610 -1.2938
 1805SOL     OW17047   3.095   1.117  11.645  0.2661  0.1569 -0.1937
 1805SOL    HW117048   3.100   1.212  11.631 -0.7597  0.0593 -1.1166
 1805SOL    HW217049   3.124   1.083  11.560  1.3544  0.5240  0.0240
 1806SOL     OW17050   2.314   1.734  11.269  0.4988  0.1093  0.2324
 1806SOL    HW117051   2.275   1.757  11.353  1.6784 -0.2947  0.8953
 1806SOL    HW217052   2.361   1.653  11.292 -1.8321 -1.3098  0.0404
 1807SOL     OW17053   1.516   2.050   4.364  0.9288 -0.4342 -0.4644
 1807SOL    HW117054   1.560   2.110   4.303  1.2477 -0.4811 -0.2795
 1807SOL    HW217055   1.461   2.105   4.420 -0.8004 -1.2060 -1.4217
 1808SOL     OW17056   1.280   4.481   4.504 -0.3466 -0.0130  0.0676
 1808SOL    HW117057   1.243   4.443   4.424 -3.4949 -1.1961  2.0941
 1808SOL    HW217058   1.265   4.412   4.569 -0.3485  0.4583  0.5619
 1809SOL     OW17059   3.746   4.497  17.110  0.1774  0.0321  0.1453
 1809SOL    HW117060   3.727   4.581  17.068  0.1086  0.0502  0.2152
 1809SOL    HW217061   3.792   4.455  17.037 -1.2966  0.3960 -0.9907
 1810SOL     OW17062   0.524   1.962   5.062 -0.0956 -0.2764 -0.6000
 1810SOL    HW117063   0.543   2.042   5.015  1.3132 -0.0639  0.3459
 1810SOL    HW217064   0.509   1.898   4.992 -1.6737 -0.9841  0.3852
 1811SOL     OW17065   0.603   1.379   4.281  0.9254 -0.7191 -0.0509
 1811SOL    HW117066   0.544   1.362   4.207 -2.1945 -0.5924  2.4161
 1811SOL    HW217067   0.587   1.471   4.304  0.8764 -0.4884 -1.0186
 1812SOL     OW17068   4.113   1.996   0.253  0.6711 -0.2166 -0.4821
 1812SOL    HW117069   4.186   2.058   0.249  0.8158 -0.2644  1.5909
 1812SOL    HW217070   4.048   2.061   0.280  0.5391 -0.6168  0.1497
 1813SOL     OW17071   3.734   0.879   5.544 -0.6850  0.1600 -0.3394
 1813SOL    HW117072   3.724   0.903   5.452 -0.4883  0.9365 -0.1545
 1813SOL    HW217073   3.721   0.963   5.587 -0.6504  0.4039 -0.8172
 1814SOL     OW17074   3.172   2.971   8.140 -0.6651  0.2607  0.2268
 1814SOL    HW117075   3.257   3.003   8.113 -0.8712 -1.0582 -1.9274
 1814SOL    HW217076   3.116   3.022   8.081 -1.9705  2.0527  2.9915
 1815SOL     OW17077   4.311   4.601   7.151  0.7048 -0.0385  0.1062
 1815SOL    HW117078   4.327   4.587   7.057  1.6452 -2.3559  0.6064
 1815SOL    HW217079   4.369   4.675   7.169  0.1968  1.0977 -2.8148
 1816SOL     OW17080   2.681   4.105  12.284  0.1980  0.5703 -0.0924
 1816SOL    HW117081   2.650   4.170  12.221  1.7599  1.6039  0.1974
 1816SOL    HW217082   2.595   4.084  12.320 -0.6054  1.7720 -1.2803
 1817SOL     OW17083   3.204   0.676   7.306 -0.5013 -0.4174  0.4046
 1817SOL    HW117084   3.252   0.606   7.349  1.5126 -0.6811 -2.2969
 1817SOL    HW217085   3.140   0.702   7.373  0.7340  2.2247  0.5484
 1818SOL     OW17086   2.927   1.688   2.963 -0.3266  0.2779 -1.0229
 1818SOL    HW117087   2.874   1.747   2.908 -1.6684 -0.9795 -1.0778
 1818SOL    HW217088   2.881   1.604   2.962  2.0770 -1.0268 -0.5371
 1819SOL     OW17089   2.344   3.503   3.059 -0.3760  0.7763 -0.1808
 1819SOL    HW117090   2.357   3.561   2.984 -0.1962  0.6415 -0.2543
 1819SOL    HW217091   2.253   3.515   3.087 -0.3290 -1.7313  1.1041
 1820SOL     OW17092   0.694   1.064   3.984 -0.4063 -0.7443 -0.2648
 1820SOL    HW117093   0.697   0.968   3.979  1.2764 -0.6247 -1.4533
 1820SOL    HW217094   0.743   1.084   4.063 -0.5175  1.9675 -0.8984
 1821SOL     OW17095   1.122   2.122   2.171  0.1710 -0.0003  0.4246
 1821SOL    HW117096   1.200   2.093   2.125  0.1785 -1.3916  1.3236
 1821SOL    HW217097   1.066   2.047   2.155 -0.0277  0.6797 -2.1069
 1822SOL     OW17098   2.525   1.663   5.149  0.2416  0.4969  0.4747
 1822SOL    HW117099   2.460   1.730   5.171 -0.7887  0.3708 -2.1673
 1822SOL    HW217100   2.542   1.614   5.229  0.8140 -1.2481 -0.7134
 1823SOL     OW17101   4.057   4.388   5.304  0.8098 -0.1894 -0.0896
 1823SOL    HW117102   3.991   4.333   5.347 -1.2187  1.1415 -1.5414
 1823SOL    HW217103   4.121   4.325   5.272  2.1168  0.7433  0.6717
 1824SOL     OW17104   0.092   3.146   6.900  0.2804  0.6578 -0.5409
 1824SOL    HW117105   0.092   3.145   6.804 -0.4107 -0.7508 -0.5280
 1824SOL    HW217106   0.067   3.237   6.918  1.6570  0.8489  0.4221
 1825SOL     OW17107   0.775   2.312   2.175 -0.0937 -0.8284  0.1104
 1825SOL    HW117108   0.696   2.287   2.222  0.0011 -1.5599 -0.1307
 1825SOL    HW217109   0.780   2.236   2.117 -1.8087 -2.2101  1.8208
 1826SOL     OW17110   0.608   3.556   3.249 -0.9968  0.2939  0.3010
 1826SOL    HW117111   0.698   3.524   3.251 -0.5607  1.3888 -2.0392
 1826SOL    HW217112   0.619   3.635   3.196 -0.4761 -1.0828 -1.6465
 1827SOL     OW17113   0.613   3.751   3.857  0.2616  0.1715 -0.3114
 1827SOL    HW117114   0.615   3.667   3.905 -1.3928  1.0017  1.2237
 1827SOL    HW217115   0.639   3.726   3.769  1.5396 -0.4874  0.2526
 1828SOL     OW17116   3.730   4.236   2.106  0.4267 -0.1678  0.0992
 1828SOL    HW117117   3.804   4.234   2.166  0.2147 -2.6700  0.2699
 1828SOL    HW217118   3.683   4.312   2.141  0.3202  0.3200 -1.0994
 1829SOL     OW17119   1.592   1.723  15.795  0.2886 -0.4726  0.1175
 1829SOL    HW117120   1.651   1.690  15.726  0.3716  0.0836 -0.0789
 1829SOL    HW217121   1.553   1.642  15.829  0.3500  0.9268  3.5311
 1830SOL     OW17122   4.125   3.238  10.837  0.0938 -0.6260 -0.3334
 1830SOL    HW117123   4.076   3.166  10.797  0.5693 -1.5199  0.6834
 1830SOL    HW217124   4.191   3.187  10.883  1.0551 -0.8276 -1.9262
 1831SOL     OW17125   0.115   2.114   1.952  0.0392 -0.5806  0.3832
 1831SOL    HW117126   0.112   2.104   1.857 -0.8479  0.6178  0.2941
 1831SOL    HW217127   0.207   2.099   1.973  0.1338  0.5211  0.7153
 1832SOL     OW17128   3.868   1.561   2.599  0.3711  0.6310  0.3309
 1832SOL    HW117129   3.828   1.474   2.604  2.1973 -0.1530  0.9859
 1832SOL    HW217130   3.885   1.586   2.690 -0.4707  2.7644 -0.0932
 1833SOL     OW17131   2.251   4.259   2.288 -0.1898 -0.0977  0.2134
 1833SOL    HW117132   2.175   4.242   2.343 -1.2203 -2.1193 -1.8284
 1833SOL    HW217133   2.245   4.185   2.227  1.9774  0.5056 -0.7596
 1834SOL     OW17134   4.001   1.138   5.528  0.5883 -0.4761 -0.2331
 1834SOL    HW117135   4.003   1.042   5.521 -2.0287 -0.6903  2.3284
 1834SOL    HW217136   4.050   1.158   5.608  1.5129  0.4256 -1.0133
 1835SOL     OW17137   4.719   2.590   8.865 -0.4394 -0.2811  0.5113
 1835SOL    HW117138   0.058   2.564   8.915 -1.3777 -2.6686  0.7448
 1835SOL    HW217139   4.717   2.683   8.888  2.1704 -0.2833  0.7294
 1836SOL     OW17140   4.323   1.395   0.767 -0.4317 -0.0624  0.1479
 1836SOL    HW117141   4.327   1.345   0.849  0.4192 -0.4437 -0.1340
 1836SOL    HW217142   4.406   1.442   0.770  0.0740 -0.9237 -0.4310
 1837SOL     OW17143   1.393   2.872   2.399 -0.0238 -0.6321  0.5208
 1837SOL    HW117144   1.415   2.791   2.354  1.1163  0.5804 -1.1213
 1837SOL    HW217145   1.298   2.877   2.391 -0.1369 -2.3219  0.8887
 1838SOL     OW17146   4.720   1.265   6.709  0.3672  0.0409 -0.4039
 1838SOL    HW117147   4.663   1.208   6.657 -1.2196  0.5182  0.8166
 1838SOL    HW217148   0.038   1.193   6.739  0.1576 -0.4258 -1.1163
 1839SOL     OW17149   4.389   1.204   6.839 -0.4917 -0.0742  0.4543
 1839SOL    HW117150   4.468   1.158   6.810 -1.4932 -0.7602 -1.2140
 1839SOL    HW217151   4.405   1.292   6.805 -2.6355  0.9251  2.0810
 1840SOL     OW17152   1.655   3.322   3.692  0.4183  0.3777 -0.3109
 1840SOL    HW117153   1.712   3.375   3.636  2.8601 -1.6974  0.2379
 1840SOL    HW217154   1.671   3.364   3.777  0.1553 -1.2891  0.5580
 1841SOL     OW17155   2.694   1.365   4.426  0.0521 -0.0380 -0.1670
 1841SOL    HW117156   2.638   1.303   4.472  1.8670 -3.1096 -2.1249
 1841SOL    HW217157   2.766   1.306   4.404 -2.1140 -1.9447 -2.1670
 1842SOL     OW17158   0.997   2.652   4.773  0.6079 -0.4035 -0.3477
 1842SOL    HW117159   1.077   2.601   4.755  2.0717  1.2453  1.5801
 1842SOL    HW217160   0.999   2.726   4.712 -0.5893  1.3617  1.7884
 1843SOL     OW17161   0.600   2.931   3.616 -0.1746 -0.3515  0.5936
 1843SOL    HW117162   0.519   2.943   3.567  0.2903 -1.3373 -0.4458
 1843SOL    HW217163   0.573   2.853   3.665 -0.1530  0.0889  1.2982
 1844SOL     OW17164   1.216   0.867   3.209 -0.0637 -0.1552 -0.0437
 1844SOL    HW117165   1.255   0.859   3.121  1.5195 -0.2021  0.6577
 1844SOL    HW217166   1.167   0.785   3.217 -0.3791  0.2284  1.7382
 1845SOL     OW17167   1.637   4.003   0.500  0.0095  0.0258  0.0140
 1845SOL    HW117168   1.664   4.094   0.487  0.6601 -0.0125  1.0296
 1845SOL    HW217169   1.559   4.010   0.556 -0.0665  0.4264 -0.1406
 1846SOL     OW17170   3.124   1.984   9.131  0.1914 -0.1554 -0.2462
 1846SOL    HW117171   3.174   1.997   9.211 -1.1319  3.8530 -0.1035
 1846SOL    HW217172   3.043   1.956   9.174 -0.8919  0.7514 -1.6938
 1847SOL     OW17173   4.401   4.572   4.227  0.7153  0.3188  0.4469
 1847SOL    HW117174   4.329   4.628   4.255  1.4887  2.9085 -2.7398
 1847SOL    HW217175   4.438   4.639   4.170  1.8070  0.9950  1.9501
 1848SOL     OW17176   2.784   2.645   0.029 -0.0079  0.2465 -0.0710
 1848SOL    HW117177   2.695   2.644  17.746  0.1905 -0.7398 -0.5628
 1848SOL    HW217178   2.796   2.552   0.014  1.2407  0.5857 -1.1997
 1849SOL     OW17179   2.399   0.340   1.882 -0.1739 -0.2332 -0.6268
 1849SOL    HW117180   2.462   0.401   1.919 -0.1763 -0.5377 -0.1264
 1849SOL    HW217181   2.453   0.268   1.850 -1.1676 -1.9477  1.6009
 1850SOL     OW17182   1.401   1.774   6.134  0.5825  0.1308  0.9239
 1850SOL    HW117183   1.337   1.776   6.205  0.8182  0.6774  1.1173
 1850SOL    HW217184   1.478   1.809   6.179  3.2525 -1.9607 -1.9916
 1851SOL     OW17185   2.919   0.593   9.680 -0.2291 -0.1116 -0.1191
 1851SOL    HW117186   2.946   0.501   9.686 -0.2702 -0.1698 -0.8846
 1851SOL    HW217187   2.923   0.610   9.774  0.6594  0.2729 -0.2258
 1852SOL     OW17188   2.811   2.298   0.480  0.3283  0.1965  0.3480
 1852SOL    HW117189   2.876   2.252   0.426 -1.2589 -0.2830 -1.1783
 1852SOL    HW217190   2.869   2.363   0.518 -2.6000  3.1684 -0.1903
 1853SOL     OW17191   0.848   0.002   5.211 -0.4765 -0.2413  0.4484
 1853SOL    HW117192   0.758   4.716   5.188  0.0596 -1.0872 -0.7444
 1853SOL    HW217193   0.867   4.681   5.283  1.4696 -0.6641 -0.4268
 1854SOL     OW17194   2.884   4.048   9.969 -0.2547  0.1521  0.4075
 1854SOL    HW117195   2.860   3.956   9.963  0.7612 -0.1088  0.2714
 1854SOL    HW217196   2.934   4.032  10.049  1.5017  1.2141 -0.4698
 1855SOL     OW17197   0.856   1.918   0.071 -0.2887  0.2170  0.8325
 1855SOL    HW117198   0.815   2.005   0.072 -0.7574  0.0018 -1.5049
 1855SOL    HW217199   0.948   1.929   0.093  0.1427 -0.3770 -0.6789
 1856SOL     OW17200   3.249   1.973  13.752 -0.0914 -0.4855  0.0254
 1856SOL    HW117201   3.277   1.888  13.787  0.2978  0.1672  1.3209
 1856SOL    HW217202   3.332   2.000  13.714  0.3448 -1.1488  0.5173
 1857SOL     OW17203   3.345   2.019  17.221  0.3807 -0.5481  0.5799
 1857SOL    HW117204   3.428   2.061  17.202  0.3535  0.2534  2.2074
 1857SOL    HW217205   3.293   2.075  17.164 -2.5247  0.1578  3.9047
 1858SOL     OW17206   3.328   1.094   8.591 -0.3771 -0.3804 -0.0116
 1858SOL    HW117207   3.257   1.059   8.644  2.0660 -1.5489  2.5250
 1858SOL    HW217208   3.398   1.048   8.638 -1.4498  0.3042  2.2629
 1859SOL     OW17209   0.206   3.047   5.811  0.3027  0.0338  0.5020
 1859SOL    HW117210   0.182   3.125   5.760 -1.4137  0.3727  1.8442
 1859SOL    HW217211   0.122   3.002   5.805  0.8051 -1.1546  2.5680
 1860SOL     OW17212   1.016   2.835   4.482  0.0047 -0.3129  0.1665
 1860SOL    HW117213   0.962   2.848   4.404  0.6716 -0.3970 -0.3045
 1860SOL    HW217214   1.088   2.786   4.442 -0.2498 -1.0126  0.5618
 1861SOL     OW17215   1.221   3.213  17.527  0.1767 -0.1845  0.1806
 1861SOL    HW117216   1.282   3.244  17.594  1.5127  0.4794 -1.3247
 1861SOL    HW217217   1.201   3.297  17.485 -1.5069  0.0600  1.4723
 1862SOL     OW17218   3.491   3.610   6.404  0.3877  0.0021  0.5052
 1862SOL    HW117219   3.578   3.647   6.422  0.4970  0.6599 -1.2835
 1862SOL    HW217220   3.501   3.518   6.427  2.6482  0.8964  3.0485
 1863SOL     OW17221   2.023   3.128  12.661  0.3320 -0.1819  0.0953
 1863SOL    HW117222   1.970   3.133  12.582  0.6409  0.3868 -0.0824
 1863SOL    HW217223   1.975   3.181  12.725 -0.1501  0.5223 -0.8496
 1864SOL     OW17224   4.111   2.174   6.331  0.2837 -0.0674 -0.0696
 1864SOL    HW117225   4.202   2.194   6.351  0.1848 -2.5907  2.9074
 1864SOL    HW217226   4.100   2.200   6.240 -0.8710  3.0144  0.9684
 1865SOL     OW17227   4.251   4.709   1.351  0.3288  0.5028 -0.0314
 1865SOL    HW117228   4.342   4.696   1.322 -0.3903 -2.3535 -0.9889
 1865SOL    HW217229   4.258   4.666   1.436  0.3106 -1.3745 -0.9782
 1866SOL     OW17230   3.549   1.676   6.387 -0.7400 -0.5309 -0.3183
 1866SOL    HW117231   3.543   1.606   6.321  0.0683 -1.2499  0.3679
 1866SOL    HW217232   3.627   1.647   6.435 -0.9064  1.5436  1.1620
 1867SOL     OW17233   1.305   0.095  12.238 -0.5461  0.4179 -0.0364
 1867SOL    HW117234   1.316   0.014  12.286 -0.2931  0.1021 -0.6306
 1867SOL    HW217235   1.345   0.063  12.157  0.5895  0.1514  0.6342
 1868SOL     OW17236   3.528   4.251   8.652  0.4489 -0.4939 -0.2284
 1868SOL    HW117237   3.524   4.320   8.585 -0.5883 -1.4316 -1.1247
 1868SOL    HW217238   3.439   4.258   8.686  0.6338 -1.0283  0.3599
 1869SOL     OW17239   4.488   4.378   7.136 -0.5748 -0.5684  0.0447
 1869SOL    HW117240   4.417   4.358   7.074  2.9033  0.1916 -4.1249
 1869SOL    HW217241   4.443   4.447   7.185 -2.1712  0.0858 -2.3369
 1870SOL     OW17242   2.582   1.074   4.205 -0.0598 -0.2852  0.2507
 1870SOL    HW117243   2.653   1.130   4.235 -2.1332  1.4270  1.9199
 1870SOL    HW217244   2.615   0.988   4.233  0.9842 -0.3454 -1.2162
 1871SOL     OW17245   4.321   1.905   6.203 -0.2579  0.3876 -0.2243
 1871SOL    HW117246   4.372   1.955   6.266  0.2118  0.4178 -0.6340
 1871SOL    HW217247   4.392   1.849   6.174  0.5025  0.7690  0.9028
 1872SOL     OW17248   2.056   1.382  12.958  0.2171 -0.3070 -0.2809
 1872SOL    HW117249   2.042   1.448  12.890 -0.0903  1.3141  1.3500
 1872SOL    HW217250   2.057   1.431  13.040  2.0829 -3.7731  1.7898
 1873SOL     OW17251   2.592   2.043   4.962  0.0641 -0.2019 -0.2027
 1873SOL    HW117252   2.504   2.008   4.952 -0.6122  1.1682  1.1517
 1873SOL    HW217253   2.649   1.966   4.955  0.1341 -0.0665 -1.1859
 1874SOL     OW17254   4.400   0.669   7.156 -0.4050 -0.4150  0.2216
 1874SOL    HW117255   4.309   0.661   7.127 -0.1995 -0.1279 -0.5127
 1874SOL    HW217256   4.445   0.624   7.084 -0.0064 -0.0807  0.2616
 1875SOL     OW17257   4.239   1.707   5.538 -0.2418 -0.9250 -0.1097
 1875SOL    HW117258   4.269   1.684   5.450 -2.3565  2.3709 -1.6601
 1875SOL    HW217259   4.317   1.732   5.588 -0.1617 -0.7580 -0.3165
 1876SOL     OW17260   0.489   1.446   8.701  0.4968  0.8732 -0.3808
 1876SOL    HW117261   0.454   1.439   8.612  0.3699  1.7432 -0.3964
 1876SOL    HW217262   0.525   1.358   8.717 -0.6121  1.0731  3.1169
 1877SOL     OW17263   3.445   1.090  15.744  0.5867 -0.0630  0.8127
 1877SOL    HW117264   3.470   1.076  15.653 -0.1650 -1.1123  0.7680
 1877SOL    HW217265   3.401   1.174  15.740  0.2635 -0.3153 -0.7181
 1878SOL     OW17266   1.674   1.191  17.069  0.3025  0.0381  0.3969
 1878SOL    HW117267   1.632   1.278  17.068 -0.0226 -0.0901  2.7152
 1878SOL    HW217268   1.745   1.206  17.131 -0.0456 -0.6486  0.9561
 1879SOL     OW17269   4.498   0.288   8.988  0.0216  0.1085 -0.0358
 1879SOL    HW117270   4.582   0.306   8.945  0.3944 -2.1739 -0.2333
 1879SOL    HW217271   4.437   0.276   8.915  0.5971  2.1685 -0.8547
 1880SOL     OW17272   2.451   4.235   9.765 -0.1585  0.2269 -0.5736
 1880SOL    HW117273   2.361   4.211   9.740 -0.4815  0.4020  0.4417
 1880SOL    HW217274   2.459   4.319   9.720 -1.5754  1.7836  2.1261
 1881SOL     OW17275   1.427   0.306  13.741  0.2389 -0.2293  0.0408
 1881SOL    HW117276   1.519   0.293  13.767  0.2973  0.1625  0.0281
 1881SOL    HW217277   1.389   0.316  13.828 -1.2989  1.2204 -0.8086
 1882SOL     OW17278   1.221   2.710  13.648  0.0194 -0.3353 -0.3692
 1882SOL    HW117279   1.140   2.690  13.695  0.0344  0.7943  0.1319
 1882SOL    HW217280   1.282   2.743  13.714 -1.8661 -1.7150  2.0462
 1883SOL     OW17281   3.618   2.625   2.866  0.6069  0.1584  0.0003
 1883SOL    HW117282   3.581   2.677   2.795  0.7501  0.2793  0.0142
 1883SOL    HW217283   3.709   2.614   2.839  0.4312  1.4569 -1.1040
 1884SOL     OW17284   3.721   0.634   5.250  0.0812 -0.3572  0.1649
 1884SOL    HW117285   3.707   0.573   5.323 -2.9634 -0.8421 -0.8195
 1884SOL    HW217286   3.727   0.568   5.181 -0.7093 -1.5873  1.2734
 1885SOL     OW17287   0.926   2.637   5.019  0.1131  0.3709 -0.6296
 1885SOL    HW117288   0.986   2.697   5.062  0.1507  0.1325 -0.3503
 1885SOL    HW217289   0.954   2.635   4.927  0.9233  0.2828 -0.3787
 1886SOL     OW17290   0.334   3.791  12.343  0.0619  0.7570  0.4917
 1886SOL    HW117291   0.399   3.832  12.287  0.8591 -0.0398  0.8273
 1886SOL    HW217292   0.370   3.702  12.349  1.0687  1.1268 -0.1059
 1887SOL     OW17293   2.454   1.740  11.533  0.4616  0.6598  0.0159
 1887SOL    HW117294   2.497   1.757  11.616  1.3192  0.4780 -0.3916
 1887SOL    HW217295   2.527   1.728  11.473  0.3470 -1.2986  0.2846
 1888SOL     OW17296   4.418   2.282   9.028 -0.2469  0.0046  0.2063
 1888SOL    HW117297   4.430   2.372   8.999 -1.9852  0.9007  2.3094
 1888SOL    HW217298   4.327   2.279   9.058  0.5921 -0.3470  2.6499
 1889SOL     OW17299   3.266   4.726   6.915 -0.1287 -0.1128 -0.6745
 1889SOL    HW117300   3.287   0.011   6.825 -0.1095 -2.1909 -1.1922
 1889SOL    HW217301   3.288   4.634   6.909 -1.7764 -0.5888  0.3718
 1890SOL     OW17302   3.845   1.100   8.086 -0.1113 -0.5064  0.4165
 1890SOL    HW117303   3.911   1.165   8.064 -0.0234 -0.6444  0.2660
 1890SOL    HW217304   3.840   1.046   8.007 -1.9490 -0.6425  0.6131
 1891SOL     OW17305   0.765   0.413   9.699  0.6233 -0.3039  0.1495
 1891SOL    HW117306   0.799   0.419   9.789  2.6475 -0.1884 -0.6225
 1891SOL    HW217307   0.703   0.486   9.696  3.1563  1.7728 -1.2257
 1892SOL     OW17308   0.048   4.716   9.216  0.3833 -0.1680 -1.0013
 1892SOL    HW117309   0.046   4.643   9.154  0.4767 -1.7757  0.8769
 1892SOL    HW217310   0.045   0.049   9.152 -0.2167  0.9592  0.2888
 1893SOL     OW17311   0.627   3.760   6.137  0.8074 -0.1030  0.0184
 1893SOL    HW117312   0.681   3.765   6.058  0.0676 -1.6592 -0.5984
 1893SOL    HW217313   0.545   3.744   6.090  0.3515  1.7461  0.1807
 1894SOL     OW17314   3.161   0.553  17.617 -0.1476 -0.2293  0.5641
 1894SOL    HW117315   3.207   0.525  17.538  0.9632  2.4445  0.2812
 1894SOL    HW217316   3.127   0.638  17.591  1.6795  0.7589  1.4369
 1895SOL     OW17317   1.307   4.513   7.448 -0.3230 -0.4780  0.2391
 1895SOL    HW117318   1.319   4.467   7.365 -1.0160 -0.0296 -0.1133
 1895SOL    HW217319   1.228   4.466   7.474 -0.5627 -0.5119 -0.5310
 1896SOL     OW17320   3.156   1.455  13.240 -0.2971  1.2221 -0.2714
 1896SOL    HW117321   3.077   1.494  13.204 -0.8326  2.2498  1.9896
 1896SOL    HW217322   3.152   1.501  13.324  0.6869  0.8632 -0.0278
 1897SOL     OW17323   3.767   2.541  14.129  0.4634 -0.4289  0.1205
 1897SOL    HW117324   3.809   2.476  14.073 -2.0008 -1.4369 -0.5108
 1897SOL    HW217325   3.797   2.618  14.080  0.2890 -0.3240  0.1764
 1898SOL     OW17326   1.732   1.342   6.464  0.0671 -0.3427 -0.2340
 1898SOL    HW117327   1.738   1.369   6.555  0.6850 -1.8062  0.1501
 1898SOL    HW217328   1.736   1.247   6.478 -0.2434 -0.0064  2.1197
 1899SOL     OW17329   1.454   0.938   9.510  0.1557 -0.3497 -0.2241
 1899SOL    HW117330   1.371   0.893   9.524 -0.6480  1.3480  0.3900
 1899SOL    HW217331   1.462   0.991   9.589 -2.7860  1.3080 -1.0717
 1900SOL     OW17332   1.051   1.661   6.754  0.5437  0.0694  0.0964
 1900SOL    HW117333   1.014   1.676   6.667  2.0626  2.1093 -0.2128
 1900SOL    HW217334   0.980   1.691   6.811  1.6838 -0.5596  1.8555
 1901SOL     OW17335   1.344   0.436  11.543  0.5292 -0.5967  0.2376
 1901SOL    HW117336   1.432   0.418  11.576  0.8675 -2.8271 -1.9305
 1901SOL    HW217337   1.333   0.396  11.457 -0.1438 -1.4759  0.7230
 1902SOL     OW17338   3.628   1.065   6.746 -0.3119  0.6685  0.4103
 1902SOL    HW117339   3.543   1.089   6.709 -0.3375  1.2814  0.8681
 1902SOL    HW217340   3.665   1.018   6.671  0.0764 -1.4678  1.9340
 1903SOL     OW17341   0.650   2.666  14.582  0.1632  0.0465  0.1107
 1903SOL    HW117342   0.692   2.719  14.514  0.3835  0.3957  0.5250
 1903SOL    HW217343   0.680   2.575  14.572 -0.6513 -0.3435  1.2211
 1904SOL     OW17344   2.497   3.403   8.530 -0.4883 -0.0816  0.2669
 1904SOL    HW117345   2.406   3.430   8.547 -0.6275  0.0839 -0.7349
 1904SOL    HW217346   2.486   3.321   8.482 -2.4851 -0.3440  1.1628
 1905SOL     OW17347   2.439   2.305   0.459 -0.4335  0.3586  0.1474
 1905SOL    HW117348   2.480   2.299   0.545  1.4553 -0.0404 -0.7911
 1905SOL    HW217349   2.510   2.326   0.398 -0.3967  1.1849  0.4658
 1906SOL     OW17350   0.219   3.691  16.914 -0.0592  0.2666 -0.0675
 1906SOL    HW117351   0.173   3.694  16.830  1.1501  1.4235 -0.6877
 1906SOL    HW217352   0.304   3.652  16.894  0.4390  0.4027  1.7953
 1907SOL     OW17353   3.512   4.017   3.941 -0.3018  0.2880 -0.0090
 1907SOL    HW117354   3.474   3.976   4.019  1.0544  1.4509  1.2765
 1907SOL    HW217355   3.579   3.951   3.922 -1.3985 -1.0434  0.7518
 1908SOL     OW17356   4.617   0.122   1.457  0.2497 -0.0672 -0.0176
 1908SOL    HW117357   4.683   0.140   1.390  0.5465 -1.0978 -0.0019
 1908SOL    HW217358   4.664   0.055   1.506 -1.5163 -0.0333  1.7260
 1909SOL     OW17359   0.739   1.456   6.102 -0.0062  0.1167 -0.0872
 1909SOL    HW117360   0.714   1.546   6.122 -1.7881 -0.5517  0.7335
 1909SOL    HW217361   0.682   1.425   6.032  0.4543 -0.2339 -0.2991
 1910SOL     OW17362   0.480   2.921  15.245  0.2223  0.7447  0.6100
 1910SOL    HW117363   0.551   2.916  15.181  0.7081  2.9599  0.9649
 1910SOL    HW217364   0.490   2.841  15.296 -0.0862  0.4676  0.2409
 1911SOL     OW17365   4.233   4.188   9.545  0.7467  0.2433 -0.2458
 1911SOL    HW117366   4.192   4.217   9.463  0.0072 -0.0723  0.0059
 1911SOL    HW217367   4.174   4.232   9.606 -0.5294 -0.0887 -1.2373
 1912SOL     OW17368   1.529   3.416  17.197 -0.0448 -0.3761 -0.4724
 1912SOL    HW117369   1.517   3.327  17.230  0.0494 -0.0612  0.3963
 1912SOL    HW217370   1.602   3.440  17.253  0.6233 -0.9842 -1.0837
 1913SOL     OW17371   1.776   1.757  13.866  0.2429 -0.1316 -0.0132
 1913SOL    HW117372   1.693   1.804  13.877 -1.3333 -2.9108  0.1495
 1913SOL    HW217373   1.832   1.804  13.927 -0.2266 -0.1082  0.4029
 1914SOL     OW17374   1.569   1.318   4.579  0.4034  0.1082  0.3833
 1914SOL    HW117375   1.627   1.266   4.524  0.9113  1.2140 -0.1303
 1914SOL    HW217376   1.557   1.263   4.656  0.3743  0.7048  0.8065
 1915SOL     OW17377   1.439   0.243   4.110 -0.2383 -0.4527  0.1351
 1915SOL    HW117378   1.489   0.204   4.038  1.2107  0.5465  0.6118
 1915SOL    HW217379   1.497   0.305   4.154  0.9533 -0.0746 -2.0240
 1916SOL     OW17380   2.808   4.161  14.089  0.2405 -0.7285  0.1174
 1916SOL    HW117381   2.894   4.163  14.048 -0.1804 -3.4137 -0.8687
 1916SOL    HW217382   2.743   4.198  14.029  3.2042  3.5665 -0.4299
 1917SOL     OW17383   3.201   0.612  10.916  0.5095 -0.3948 -0.2264
 1917SOL    HW117384   3.157   0.652  10.992  0.1373 -1.3248  0.0370
 1917SOL    HW217385   3.133   0.613  10.849 -0.3070  2.1178  0.6186
 1918SOL     OW17386   0.732   4.356  16.731 -0.0171 -0.1024 -0.4644
 1918SOL    HW117387   0.689   4.419  16.788  0.0860 -0.6680  0.2347
 1918SOL    HW217388   0.720   4.288  16.798  3.5017 -1.1632 -0.9201
 1919SOL     OW17389   1.876   0.366   7.317  0.2348  0.3223  0.1985
 1919SOL    HW117390   1.784   0.379   7.297  0.3307  1.1458  0.2791
 1919SOL    HW217391   1.872   0.364   7.413  1.2155 -3.2251  0.1487
 1920SOL     OW17392   2.669   2.653   3.369  0.4900  0.6299 -0.1469
 1920SOL    HW117393   2.663   2.561   3.344 -0.9809  1.4581 -2.8307
 1920SOL    HW217394   2.657   2.702   3.288 -0.1951 -0.6586 -0.8178
 1921SOL     OW17395   1.919   4.052   6.670  0.2915 -0.1433  1.1447
 1921SOL    HW117396   1.950   4.051   6.760 -1.7989 -2.8107  1.8412
 1921SOL    HW217397   1.833   4.011   6.683  1.4773 -2.1808  2.4744
 1922SOL     OW17398   1.002   2.310   3.372  0.2829 -0.1747 -0.8376
 1922SOL    HW117399   1.049   2.285   3.293 -0.1434 -1.3684 -0.7024
 1922SOL    HW217400   1.047   2.253   3.434 -2.3496 -0.0818  1.1792
 1923SOL     OW17401   4.595   3.140  16.291  0.0018 -0.4989 -0.1331
 1923SOL    HW117402   4.683   3.168  16.266  0.2030 -3.1256 -2.4050
 1923SOL    HW217403   4.565   3.113  16.204  0.4941 -1.1352 -0.1122
 1924SOL     OW17404   4.433   0.409   1.908 -0.3906 -0.4515  0.0197
 1924SOL    HW117405   4.447   0.358   1.828  2.4133  1.9295 -1.0278
 1924SOL    HW217406   4.438   0.501   1.882 -1.3491 -0.1628  0.8780
 1925SOL     OW17407   2.945   1.616  13.107  0.1277 -0.4166  0.0721
 1925SOL    HW117408   2.863   1.568  13.094  0.1518 -0.7242  1.1136
 1925SOL    HW217409   2.916   1.707  13.112 -0.3054 -0.6645  1.7655
 1926SOL     OW17410   1.023   4.583   1.358  0.0041 -0.1376  0.6206
 1926SOL    HW117411   0.929   4.588   1.376  0.2968  2.7115  1.3111
 1926SOL    HW217412   1.045   4.499   1.398 -0.5950  0.9303  3.1852
 1927SOL     OW17413   0.904   0.443  15.975 -0.2043  0.0181 -0.1400
 1927SOL    HW117414   0.939   0.363  15.936  0.3824 -0.9522  2.3678
 1927SOL    HW217415   0.927   0.509  15.909 -1.9330  1.2786  0.5073
 1928SOL     OW17416   1.815   1.673   3.679 -0.0155 -0.1183  0.0253
 1928SOL    HW117417   1.818   1.669   3.584  0.0451  1.4037 -0.0356
 1928SOL    HW217418   1.722   1.688   3.697  0.0402  0.5712 -0.2796
 1929SOL     OW17419   0.155   0.820   6.359  0.7965  0.4942 -0.1749
 1929SOL    HW117420   0.159   0.767   6.280 -0.1471  4.3895 -2.8191
 1929SOL    HW217421   0.240   0.792   6.392 -0.4267 -1.9099  0.9263
 1930SOL     OW17422   3.186   0.820   9.368 -0.0154 -0.2865 -0.1678
 1930SOL    HW117423   3.133   0.847   9.442 -0.7366 -1.8198 -0.1249
 1930SOL    HW217424   3.140   0.874   9.304 -0.4806  0.8958  1.1767
 1931SOL     OW17425   1.359   3.444  11.416 -0.1636  0.4788 -0.0019
 1931SOL    HW117426   1.379   3.359  11.455 -0.8451  1.2703  2.0703
 1931SOL    HW217427   1.427   3.501  11.452  0.9131 -0.4982 -0.4989
 1932SOL     OW17428   0.059   2.132  15.628 -0.4048  0.0933 -0.6058
 1932SOL    HW117429   0.125   2.200  15.637 -0.6531  0.3194 -0.4864
 1932SOL    HW217430   0.076   2.091  15.543  2.3183  0.5570 -0.2740
 1933SOL     OW17431   4.258   4.639  16.053 -0.1430 -0.5096 -1.2827
 1933SOL    HW117432   4.326   4.681  16.107 -0.0548  1.2618 -2.7585
 1933SOL    HW217433   4.292   4.646  15.964  1.4517 -1.4986 -0.7587
 1934SOL     OW17434   0.410   4.384   1.121 -0.6122 -0.3603  0.2158
 1934SOL    HW117435   0.348   4.317   1.151 -1.1839  0.0893  0.0437
 1934SOL    HW217436   0.379   4.459   1.172 -0.6331 -0.5648  0.5053
 1935SOL     OW17437   2.260   1.258   2.838  0.1826 -0.8235 -0.0733
 1935SOL    HW117438   2.310   1.328   2.796 -1.5404  0.3299 -0.2050
 1935SOL    HW217439   2.203   1.309   2.895 -0.3893  1.2898 -2.5691
 1936SOL     OW17440   1.495   0.656   8.001  0.4930  0.4357 -0.9230
 1936SOL    HW117441   1.411   0.701   8.009  0.0639 -0.0685 -2.6002
 1936SOL    HW217442   1.467   0.573   7.964 -0.5055  0.4803 -0.2805
 1937SOL     OW17443   1.395   3.285   7.990  0.0162 -0.0811 -0.2597
 1937SOL    HW117444   1.347   3.330   7.921 -1.0982 -1.5522 -0.4477
 1937SOL    HW217445   1.343   3.311   8.066 -0.3513  0.4380 -0.6932
 1938SOL     OW17446   3.249   1.305  15.360 -0.0447 -0.5899 -0.0641
 1938SOL    HW117447   3.158   1.335  15.351  0.9675  2.0227 -1.5429
 1938SOL    HW217448   3.241   1.227  15.304 -2.1376 -0.2198 -0.2846
 1939SOL     OW17449   0.177   1.671  16.590 -0.1305 -0.4639 -0.1223
 1939SOL    HW117450   0.128   1.622  16.656  1.8135 -0.9686  0.9480
 1939SOL    HW217451   0.119   1.651  16.517 -0.5429  2.2599 -0.5304
 1940SOL     OW17452   0.256   3.876  16.119  0.3226 -0.3354 -0.3285
 1940SOL    HW117453   0.279   3.861  16.028  1.6849  0.0432 -0.0450
 1940SOL    HW217454   0.205   3.957  16.120 -1.4061 -1.4288 -0.0877
 1941SOL     OW17455   3.594   2.073   5.843 -0.1497  0.3338 -0.0092
 1941SOL    HW117456   3.664   2.010   5.824  1.6459  2.3757 -0.1244
 1941SOL    HW217457   3.633   2.122   5.916  1.5925 -0.5381 -0.3524
 1942SOL     OW17458   2.118   3.077   2.961 -0.4359 -0.1563  0.0437
 1942SOL    HW117459   2.093   3.003   2.906  0.3700 -0.3743 -0.0334
 1942SOL    HW217460   2.034   3.099   3.001 -1.0622  1.7199 -2.2584
 1943SOL     OW17461   3.346   4.471   3.646 -0.0144 -0.0659 -0.5844
 1943SOL    HW117462   3.338   4.375   3.654  0.2320 -0.1047 -0.8223
 1943SOL    HW217463   3.341   4.506   3.735 -0.8184 -0.8992 -0.2932
 1944SOL     OW17464   0.563   1.153   5.455  0.1660 -0.2831 -0.2411
 1944SOL    HW117465   0.628   1.220   5.477  0.1103 -0.3215  0.0406
 1944SOL    HW217466   0.623   1.096   5.409 -1.4251 -0.5634 -1.9566
 1945SOL     OW17467   0.325   0.315  12.356 -0.4666 -0.1006  0.6550
 1945SOL    HW117468   0.288   0.381  12.415 -1.2192  0.6290 -0.6279
 1945SOL    HW217469   0.390   0.281  12.417  0.2237  0.1976  0.0774
 1946SOL     OW17470   4.019   2.470  13.159 -0.4598  0.4676  0.1895
 1946SOL    HW117471   3.967   2.433  13.230 -0.6242 -0.1381 -0.2424
 1946SOL    HW217472   4.048   2.555  13.192 -0.3596 -0.2454  1.9447
 1947SOL     OW17473   1.086   3.780   7.630 -0.1276  0.5895  0.1377
 1947SOL    HW117474   1.077   3.767   7.724  2.5877 -2.9777 -0.1249
 1947SOL    HW217475   1.033   3.710   7.592  0.6322  0.0115  0.1464
 1948SOL     OW17476   2.479   2.761   2.805 -0.4277 -0.3149 -0.0619
 1948SOL    HW117477   2.454   2.693   2.868 -1.4572  1.0493  0.9938
 1948SOL    HW217478   2.434   2.828   2.857  3.7819  2.6348 -0.2407
 1949SOL     OW17479   2.778   4.142   2.485 -0.0851 -0.4449  0.6946
 1949SOL    HW117480   2.741   4.055   2.499  0.2100 -0.5607  0.7462
 1949SOL    HW217481   2.855   4.142   2.541  0.8822 -1.0252 -0.6358
 1950SOL     OW17482   4.216   2.242  12.193  0.0719 -0.3152 -0.0947
 1950SOL    HW117483   4.196   2.316  12.251 -1.5601 -1.2633  0.5559
 1950SOL    HW217484   4.273   2.196  12.255 -0.1073  0.1369  0.4114
 1951SOL     OW17485   0.774   4.352   7.314 -0.4373  0.1977 -0.1021
 1951SOL    HW117486   0.808   4.422   7.259  0.5617 -1.2663 -1.3508
 1951SOL    HW217487   0.680   4.353   7.296 -0.5950 -1.8529  0.5694
 1952SOL     OW17488   4.392   0.233   3.613 -0.0036 -0.0817 -0.5394
 1952SOL    HW117489   4.321   0.194   3.664 -0.6156  3.2215  1.1776
 1952SOL    HW217490   4.433   0.159   3.571  1.3836  1.4571 -1.8863
 1953SOL     OW17491   2.425   2.916   0.222 -0.0479 -0.3189 -0.1743
 1953SOL    HW117492   2.492   2.891   0.158  0.6803  0.5753  0.2453
 1953SOL    HW217493   2.445   2.860   0.296 -0.2936  0.9763  0.8637
 1954SOL     OW17494   3.613   4.524  13.321 -0.6103  0.1375 -0.4661
 1954SOL    HW117495   3.601   4.585  13.394 -0.2723 -0.6295  0.2337
 1954SOL    HW217496   3.708   4.533  13.313 -0.5814 -0.6295 -0.9752
 1955SOL     OW17497   1.282   4.076   5.760 -0.3728  0.2496 -0.5092
 1955SOL    HW117498   1.239   4.013   5.702  1.4007 -0.9626 -0.5073
 1955SOL    HW217499   1.354   4.019   5.785  0.0946  1.3355  0.6328
 1956SOL     OW17500   4.231   4.537   8.757  0.3806  0.0615  0.2309
 1956SOL    HW117501   4.246   4.447   8.787 -0.1244  0.6297  2.1999
 1956SOL    HW217502   4.211   4.563   8.847 -1.3166 -1.5442  0.3223
 1957SOL     OW17503   2.172   2.199   0.339  0.1058 -0.2543 -0.2661
 1957SOL    HW117504   2.216   2.283   0.355 -0.3890  0.1205 -0.8764
 1957SOL    HW217505   2.160   2.198   0.244 -2.5882  0.2512  0.0649
 1958SOL     OW17506   3.522   2.658   9.903  0.0858 -0.5162  0.3808
 1958SOL    HW117507   3.514   2.633   9.811 -0.8098 -2.1599  0.9063
 1958SOL    HW217508   3.615   2.633   9.899 -0.3452 -1.8717 -1.1391
 1959SOL     OW17509   0.365   1.434   7.988  0.0603  0.2366 -0.1086
 1959SOL    HW117510   0.311   1.360   7.962 -0.5597  0.9215 -0.7898
 1959SOL    HW217511   0.320   1.460   8.068 -0.0115  0.1995 -0.1375
 1960SOL     OW17512   3.733   0.909   7.328  0.4668  0.1693 -0.4033
 1960SOL    HW117513   3.733   0.998   7.363  0.1630 -0.3130  0.8126
 1960SOL    HW217514   3.794   0.930   7.258  0.2481  2.5892  0.1315
 1961SOL     OW17515   0.319   0.578  14.696 -0.3741 -0.2224  0.7127
 1961SOL    HW117516   0.373   0.561  14.620 -0.7247  1.1868  0.1481
 1961SOL    HW217517   0.378   0.645  14.730  0.5897 -0.2350 -0.9583
 1962SOL     OW17518   3.704   1.476   7.441 -0.2194  0.9364  0.1981
 1962SOL    HW117519   3.668   1.449   7.356 -0.5689 -0.7804  0.9008
 1962SOL    HW217520   3.794   1.445   7.427 -0.0867  0.2416  2.6187
 1963SOL     OW17521   0.857   2.270  10.614  0.4080 -0.1663 -0.0738
 1963SOL    HW117522   0.915   2.320  10.556  2.3133 -2.5655 -0.2668
 1963SOL    HW217523   0.911   2.239  10.687  0.3371  0.5986  0.3093
 1964SOL     OW17524   4.416   1.446  17.666  0.3601 -0.1669  0.0218
 1964SOL    HW117525   4.428   1.492  17.583  0.6436 -0.7056 -0.2392
 1964SOL    HW217526   4.436   1.521  17.722 -0.0421  0.7756 -1.1051
 1965SOL     OW17527   1.248   1.748   2.728  0.3682  0.6686 -0.5125
 1965SOL    HW117528   1.287   1.797   2.801  0.4310 -1.1810  0.7103
 1965SOL    HW217529   1.186   1.815   2.701 -0.8605 -0.0339  0.5504
 1966SOL     OW17530   4.300   4.719  12.192  0.0596 -0.4082  0.5840
 1966SOL    HW117531   4.281   0.074  12.181 -1.5682 -1.0772 -2.1707
 1966SOL    HW217532   4.217   4.684  12.160 -1.2980  0.0851  3.5434
 1967SOL     OW17533   0.906   4.390  12.575  0.5703  0.5800 -0.5087
 1967SOL    HW117534   0.892   4.484  12.576  0.3838  0.5698 -1.9059
 1967SOL    HW217535   0.907   4.365  12.483 -1.7866 -2.3488  0.2676
 1968SOL     OW17536   0.299   0.424   9.995 -0.1576 -0.0087  0.2814
 1968SOL    HW117537   0.307   0.356   9.928  0.1603 -1.4911  1.8477
 1968SOL    HW217538   0.383   0.411  10.038  0.0632  2.2932  0.5671
 1969SOL     OW17539   2.601   2.274  13.721 -0.4528 -0.1219 -0.5089
 1969SOL    HW117540   2.662   2.297  13.652  0.9329 -0.6360  0.5470
 1969SOL    HW217541   2.514   2.290  13.683 -0.1967 -2.0236 -1.8576
 1970SOL     OW17542   2.339   4.429   4.570 -0.5363  0.3167  0.6425
 1970SOL    HW117543   2.244   4.436   4.575 -0.6033  0.2703 -0.6013
 1970SOL    HW217544   2.361   4.522   4.576  1.8428 -0.2929  1.6324
 1971SOL     OW17545   1.318   2.447  10.074  1.1789  0.5132 -0.4350
 1971SOL    HW117546   1.350   2.387  10.142  0.1649 -0.9759 -1.2765
 1971SOL    HW217547   1.375   2.523  10.089 -0.7897  1.1576  3.6408
 1972SOL     OW17548   0.561   1.983  14.621 -0.3434  0.3788  0.4003
 1972SOL    HW117549   0.615   2.041  14.674  1.6836 -1.2176  0.1102
 1972SOL    HW217550   0.604   1.901  14.647  1.5965  0.3096 -2.9999
 1973SOL     OW17551   4.732   4.201  17.285 -0.5738 -0.1361 -0.2606
 1973SOL    HW117552   4.652   4.157  17.254  0.0445 -1.3828 -0.0916
 1973SOL    HW217553   4.719   4.282  17.236  0.1037 -0.0182 -0.2394
 1974SOL     OW17554   0.606   1.885   7.282 -0.2612 -0.1079  0.1393
 1974SOL    HW117555   0.615   1.947   7.354 -1.5317 -0.5957  0.7142
 1974SOL    HW217556   0.673   1.825   7.315  0.0321  0.6643  0.9306
 1975SOL     OW17557   4.192   1.590  12.924  0.1937  0.2109  0.3675
 1975SOL    HW117558   4.236   1.505  12.932  0.5585  0.3801  0.1662
 1975SOL    HW217559   4.218   1.612  12.835  0.5575 -1.0170  0.1738
 1976SOL     OW17560   2.075   1.260   1.078 -0.1588 -0.2068  0.4303
 1976SOL    HW117561   2.167   1.274   1.100 -0.6211 -0.8413  2.6948
 1976SOL    HW217562   2.026   1.320   1.134 -1.6640 -1.3259  0.2991
 1977SOL     OW17563   4.359   1.121  14.250  0.9128  0.8866 -0.2141
 1977SOL    HW117564   4.310   1.039  14.248  1.7710  0.4356 -2.2436
 1977SOL    HW217565   4.287   1.170  14.210 -0.6152 -0.1725  1.2291
 1978SOL     OW17566   1.232   1.034   5.057  1.0593 -0.1018  0.1988
 1978SOL    HW117567   1.304   0.988   5.099  2.2224  0.6649 -0.9690
 1978SOL    HW217568   1.162   1.023   5.122 -0.0748  0.3036 -0.9409
 1979SOL     OW17569   2.614   3.532   2.154 -0.3118 -0.1844 -0.5274
 1979SOL    HW117570   2.523   3.521   2.182 -0.7864 -0.9074 -2.3769
 1979SOL    HW217571   2.610   3.547   2.060  0.4417 -2.7840 -0.9566
 1980SOL     OW17572   2.116   1.052   4.260  0.6595 -0.0479 -0.0940
 1980SOL    HW117573   2.137   1.098   4.342  0.7714 -0.7094  0.2487
 1980SOL    HW217574   2.195   1.059   4.208  0.1515 -1.5075 -1.0906
 1981SOL     OW17575   3.064   4.283  11.066 -0.2077 -0.3807 -0.2977
 1981SOL    HW117576   3.133   4.301  11.002  0.4297 -0.7734  0.2782
 1981SOL    HW217577   3.020   4.211  11.021  1.6520 -2.5801  1.4159
 1982SOL     OW17578   3.002   3.992  17.478 -0.3393 -0.6010  0.2865
 1982SOL    HW117579   2.907   4.000  17.473 -0.4491 -0.6758  2.2561
 1982SOL    HW217580   3.014   4.049  17.402  0.7584  1.1440  1.7425
 1983SOL     OW17581   0.945   2.529  14.023  0.5866 -0.3878 -0.3818
 1983SOL    HW117582   0.927   2.614  14.061  3.4982 -0.3297  0.8911
 1983SOL    HW217583   0.888   2.473  14.075 -1.3832 -0.5409 -2.7313
 1984SOL     OW17584   0.780   3.907   4.539  0.8844 -0.2857 -0.2561
 1984SOL    HW117585   0.763   3.815   4.560 -0.8826  0.6344  2.3018
 1984SOL    HW217586   0.690   3.940   4.547  0.4376 -1.0840 -1.9777
 1985SOL     OW17587   0.218   2.790   0.072  0.6637 -0.0115  0.1361
 1985SOL    HW117588   0.227   2.814  17.730 -1.0322 -2.7408 -0.7344
 1985SOL    HW217589   0.312   2.778   0.085  0.7972  2.4313  1.6472
 1986SOL     OW17590   4.454   3.089   5.679 -0.7165  0.4902 -0.1213
 1986SOL    HW117591   4.438   3.177   5.714  2.5911  1.5806 -1.4123
 1986SOL    HW217592   4.392   3.028   5.719 -0.9793 -0.6096 -2.1967
 1987SOL     OW17593   0.756   0.312  13.398  0.2733  0.3629 -0.1692
 1987SOL    HW117594   0.791   0.387  13.349 -0.8107  0.8656 -0.1810
 1987SOL    HW217595   0.833   0.262  13.424  0.8255  2.0562  1.5057
 1988SOL     OW17596   4.048   3.934  14.223 -0.3156  0.0447  0.1429
 1988SOL    HW117597   4.008   4.009  14.179 -0.5119  0.9746  1.9010
 1988SOL    HW217598   4.063   3.963  14.313 -0.7922 -2.0198  0.8951
 1989SOL     OW17599   2.469   0.481   9.735 -0.3593 -0.4060 -0.0967
 1989SOL    HW117600   2.515   0.559   9.707 -1.2085 -0.2567 -1.0516
 1989SOL    HW217601   2.490   0.424   9.661 -1.0380 -1.2753  0.3809
 1990SOL     OW17602   0.723   0.255   7.553  0.4673  0.0196  0.2910
 1990SOL    HW117603   0.646   0.286   7.505  0.5806 -0.2795 -0.0839
 1990SOL    HW217604   0.687   0.271   7.640 -3.5148 -0.8875 -1.1804
 1991SOL     OW17605   1.966   2.806   6.869  0.7112 -0.4088 -0.0665
 1991SOL    HW117606   1.981   2.868   6.798  0.2612 -1.4044 -1.0235
 1991SOL    HW217607   1.945   2.860   6.946 -0.3818 -1.3075  0.2589
 1992SOL     OW17608   3.278   0.268   3.681  0.1977 -0.7578 -0.2452
 1992SOL    HW117609   3.317   0.307   3.602 -2.1311 -0.2097 -1.1107
 1992SOL    HW217610   3.190   0.250   3.648  0.7868 -3.4956 -0.3226
 1993SOL     OW17611   2.728   3.251  12.439 -0.0382  0.4306 -0.3497
 1993SOL    HW117612   2.735   3.335  12.485 -2.3197  0.1486  0.4930
 1993SOL    HW217613   2.788   3.199  12.493  0.2753  1.1850  0.0335
 1994SOL     OW17614   3.739   1.672  17.198 -0.8911  0.3200 -0.1458
 1994SOL    HW117615   3.669   1.648  17.260 -1.5717  0.4210 -0.8805
 1994SOL    HW217616   3.684   1.689  17.121 -0.6778 -1.3100 -0.6523
 1995SOL     OW17617   1.142   3.101   6.865 -0.7213  0.1496  0.2020
 1995SOL    HW117618   1.145   3.195   6.850 -2.3738  0.0409 -0.7886
 1995SOL    HW217619   1.142   3.063   6.778  1.2320 -1.1278  0.7507
 1996SOL     OW17620   1.879   2.342   6.141  0.1662 -0.2771  0.3378
 1996SOL    HW117621   1.963   2.375   6.173  0.6640 -0.5352 -0.7069
 1996SOL    HW217622   1.827   2.416   6.173 -0.6777 -0.3897 -0.7736
 1997SOL     OW17623   2.952   2.334  10.262  0.5902  0.4318 -0.1692
 1997SOL    HW117624   2.951   2.429  10.254 -2.0564  0.2188 -2.2546
 1997SOL    HW217625   2.929   2.314  10.353  1.6807  0.8647  0.1962
 1998SOL     OW17626   2.792   3.267   2.080  0.2574  0.4905  0.2831
 1998SOL    HW117627   2.884   3.288   2.095  0.4138 -0.2055  0.3223
 1998SOL    HW217628   2.794   3.301   1.991 -2.0323 -1.6225 -0.5786
 1999SOL     OW17629   2.623   2.255   2.348 -0.0959 -0.0880  0.7476
 1999SOL    HW117630   2.536   2.292   2.362  0.0308  0.9317 -1.2253
 1999SOL    HW217631   2.683   2.329   2.337 -1.1426  0.6534  0.0304
 2000SOL     OW17632   3.788   0.182  17.666  0.1276  0.5033 -1.0551
 2000SOL    HW117633   3.704   0.159  17.706 -1.2008  0.0782 -4.1331
 2000SOL    HW217634   3.803   0.124  17.591  0.2456 -1.9085  0.7922
 2001SOL     OW17635   0.621   2.368   2.818 -0.1069  0.4702  0.3596
 2001SOL    HW117636   0.664   2.368   2.732  0.7504  0.6162  0.7882
 2001SOL    HW217637   0.679   2.411   2.881  1.3376 -0.8714 -0.0439
 2002SOL     OW17638   4.143   1.634   5.995  0.1784 -0.0012 -0.0981
 2002SOL    HW117639   4.055   1.670   5.983 -0.1851 -0.6441  0.6195
 2002SOL    HW217640   4.168   1.665   6.083 -0.8551  1.8420 -0.4479
 2003SOL     OW17641   2.786   0.922   9.951 -0.8494  0.0627 -0.0997
 2003SOL    HW117642   2.761   0.832   9.974  1.9164 -0.6309  0.2425
 2003SOL    HW217643   2.700   0.963   9.955  0.1974  1.9661  3.1714
 2004SOL     OW17644   3.181   2.045  13.001  0.3503 -0.3111 -0.0609
 2004SOL    HW117645   3.203   2.029  13.093 -1.5140  0.7005  0.5611
 2004SOL    HW217646   3.198   1.956  12.970 -1.1234  0.3165 -2.6408
 2005SOL     OW17647   2.600   0.876  14.421 -0.2131  0.6678  0.2671
 2005SOL    HW117648   2.613   0.918  14.506  1.3306  0.9365 -0.1091
 2005SOL    HW217649   2.575   0.787  14.446  2.3429 -0.3144 -0.6544
 2006SOL     OW17650   4.683   2.036   5.217  0.5288 -0.1463 -0.3438
 2006SOL    HW117651   4.650   2.056   5.305  1.3026 -1.7467  0.3232
 2006SOL    HW217652   0.039   2.041   5.232  0.2686 -1.3306  1.8027
 2007SOL     OW17653   4.410   3.643   8.858 -0.0252  0.2171  0.2968
 2007SOL    HW117654   4.373   3.624   8.772  0.7605 -0.9223  0.1995
 2007SOL    HW217655   4.493   3.595   8.860 -1.2511 -1.9223 -1.1070
 2008SOL     OW17656   3.515   2.893   7.611  0.4419 -0.1320 -0.1393
 2008SOL    HW117657   3.565   2.974   7.600 -1.4219  0.7421 -2.1793
 2008SOL    HW217658   3.525   2.873   7.704  0.9287 -1.8492 -0.5730
 2009SOL     OW17659   3.254   1.821   8.957 -0.4621  0.4265 -0.1218
 2009SOL    HW117660   3.214   1.822   8.870 -0.8416  1.4324  0.0653
 2009SOL    HW217661   3.186   1.869   9.003  1.2256  3.2087 -0.5265
 2010SOL     OW17662   1.846   3.452   5.066  0.1615 -0.0089  0.5087
 2010SOL    HW117663   1.880   3.438   4.977 -0.3774 -2.2109  0.6485
 2010SOL    HW217664   1.898   3.529   5.091  1.6205 -1.7566  2.8549
 2011SOL     OW17665   1.221   3.702   5.976 -0.1044  0.1280  0.0191
 2011SOL    HW117666   1.244   3.726   5.886 -0.1754  0.4960  0.1024
 2011SOL    HW217667   1.141   3.650   5.967  0.6460 -1.5936  3.3956
 2012SOL     OW17668   4.136   4.114  12.926  0.1774  0.4627 -0.0490
 2012SOL    HW117669   4.101   4.136  13.012 -0.5101  0.0092 -0.2130
 2012SOL    HW217670   4.145   4.019  12.927 -3.2170  0.0976 -2.0611
 2013SOL     OW17671   0.497   3.041   7.755  0.3013  0.0596 -0.2061
 2013SOL    HW117672   0.463   3.046   7.666  0.9196 -3.6939 -0.6597
 2013SOL    HW217673   0.447   3.111   7.797 -1.6390 -2.2799  1.4017
 2014SOL     OW17674   2.114   2.933   7.187  0.1265 -0.1089  0.9073
 2014SOL    HW117675   2.026   2.947   7.154 -0.3701 -0.1061  2.2088
 2014SOL    HW217676   2.102   2.847   7.227  0.6039 -0.4243  0.3657
 2015SOL     OW17677   1.002   2.863   6.247 -0.4233 -0.2343 -0.1059
 2015SOL    HW117678   0.963   2.845   6.161  0.4159 -2.4667 -0.0022
 2015SOL    HW217679   0.926   2.855   6.304  0.1717  0.1417  0.7420
 2016SOL     OW17680   4.431   2.825   4.048  0.3221 -0.5749  0.6484
 2016SOL    HW117681   4.383   2.905   4.027  0.7345 -0.1555  1.3112
 2016SOL    HW217682   4.457   2.804   3.958  1.6715  3.3246  0.1465
 2017SOL     OW17683   2.523   0.192   7.174 -0.2810  0.5795  0.0222
 2017SOL    HW117684   2.535   0.283   7.143  1.7664  0.7218  1.2230
 2017SOL    HW217685   2.614   0.171   7.197 -0.3824 -1.8622 -1.8089
 2018SOL     OW17686   3.445   1.454   6.247  0.1440 -0.0725 -0.1936
 2018SOL    HW117687   3.485   1.374   6.214 -1.3529 -1.4330  1.2653
 2018SOL    HW217688   3.394   1.473   6.168 -0.2295 -2.4938 -0.5524
 2019SOL     OW17689   4.372   2.655   7.521 -0.0711  0.2103 -0.5740
 2019SOL    HW117690   4.354   2.749   7.526 -0.3820  0.2136 -1.6566
 2019SOL    HW217691   4.309   2.633   7.452  0.1117 -0.0766 -0.6466
 2020SOL     OW17692   1.109   1.937  10.021 -0.4898 -0.1113 -0.4100
 2020SOL    HW117693   1.100   2.032  10.023  1.0502  0.0098  1.4570
 2020SOL    HW217694   1.198   1.926  10.056 -0.5600  2.2609  0.5191
 2021SOL     OW17695   0.746   2.383  13.266  0.2473  0.3073 -0.8549
 2021SOL    HW117696   0.693   2.458  13.294 -2.2357 -1.4133 -0.9284
 2021SOL    HW217697   0.811   2.391  13.335 -2.4944  1.2224  1.6125
 2022SOL     OW17698   2.488   1.503   2.780  0.2647 -0.0409 -0.2470
 2022SOL    HW117699   2.513   1.594   2.792 -0.9245  0.2521 -0.0651
 2022SOL    HW217700   2.412   1.490   2.836 -1.0220 -0.7952 -2.1463
 2023SOL     OW17701   0.958   0.158  15.836 -0.3911 -0.1791 -0.0057
 2023SOL    HW117702   1.003   0.113  15.908  0.1628  1.8893  0.9329
 2023SOL    HW217703   0.911   0.086  15.794  0.4507 -1.3310  1.0007
 2024SOL     OW17704   3.528   2.210   2.325 -0.1764  0.1770  0.1653
 2024SOL    HW117705   3.588   2.282   2.343  0.8095 -0.7350  0.4785
 2024SOL    HW217706   3.574   2.133   2.358  2.0189  1.2894 -0.3125
 2025SOL     OW17707   3.199   2.588  10.174  0.1281 -0.2080  0.2876
 2025SOL    HW117708   3.234   2.509  10.215  0.7688  1.1090  2.3013
 2025SOL    HW217709   3.207   2.561  10.082 -1.3187  3.3464 -0.8712
 2026SOL     OW17710   4.081   4.388  17.612 -0.5197  0.7825  0.7832
 2026SOL    HW117711   4.142   4.460  17.627 -0.9265  1.2944  0.0196
 2026SOL    HW217712   3.999   4.425  17.646 -1.7074  1.1304 -2.3783
 2027SOL     OW17713   4.449   3.029   7.812  0.4911  0.6279  0.4316
 2027SOL    HW117714   4.458   3.001   7.903 -0.1266  2.1212  0.9513
 2027SOL    HW217715   4.521   3.091   7.804 -0.4620  2.0801  2.7954
 2028SOL     OW17716   2.629   2.765   7.228  0.0121 -0.2205  0.2862
 2028SOL    HW117717   2.691   2.830   7.196  0.1323 -0.8615 -0.7805
 2028SOL    HW217718   2.557   2.774   7.166  1.3094 -0.6235 -1.2791
 2029SOL     OW17719   2.017   2.418   8.510  0.7476  0.2376 -0.1261
 2029SOL    HW117720   2.084   2.350   8.518  2.1417  1.6331 -0.0823
 2029SOL    HW217721   1.940   2.361   8.512 -0.0998  1.3697 -0.2707
 2030SOL     OW17722   2.143   3.860   9.648 -0.2514  0.1555  0.2979
 2030SOL    HW117723   2.147   3.858   9.743  1.1208 -2.5503  0.1531
 2030SOL    HW217724   2.048   3.868   9.632  0.0104  2.3061 -0.2698
 2031SOL     OW17725   1.495   3.520   5.547  0.5577 -0.4497  0.1093
 2031SOL    HW117726   1.568   3.543   5.490 -1.6338  3.0311 -1.2599
 2031SOL    HW217727   1.441   3.471   5.485 -0.7522 -2.3401  2.7445
 2032SOL     OW17728   3.083   1.563   9.025 -0.0277  0.7371  0.2400
 2032SOL    HW117729   3.174   1.544   9.004  0.0147 -0.1571  1.2412
 2032SOL    HW217730   3.066   1.628   8.957  1.5857 -0.5500 -1.3830
 2033SOL     OW17731   2.988   2.177   7.416  0.0330 -0.0040  0.3942
 2033SOL    HW117732   3.001   2.134   7.500  0.7729 -0.1370  0.2161
 2033SOL    HW217733   2.958   2.262   7.446  1.6201  0.1234  1.6283
 2034SOL     OW17734   2.684   2.576  10.200 -0.5123 -0.4661 -0.1585
 2034SOL    HW117735   2.720   2.530  10.276 -1.9161  1.6141  1.7683
 2034SOL    HW217736   2.614   2.518  10.171  0.2992 -2.0056  0.9780
 2035SOL     OW17737   3.669   4.602  15.632 -0.2039  0.2216 -1.1446
 2035SOL    HW117738   3.657   4.691  15.600  0.6691  0.5272 -0.6426
 2035SOL    HW217739   3.760   4.606  15.661 -1.4933  2.5254  2.4631
 2036SOL     OW17740   0.281   2.921   2.885  0.4197  0.4485 -0.7590
 2036SOL    HW117741   0.259   2.851   2.824  0.3948 -0.6511  0.5423
 2036SOL    HW217742   0.374   2.903   2.898  0.5635  2.0992  0.5146
 2037SOL     OW17743   0.967   4.399  11.703 -0.2059 -0.9676 -0.5036
 2037SOL    HW117744   0.954   4.402  11.608 -2.2057 -1.8688 -0.2588
 2037SOL    HW217745   1.016   4.478  11.723  0.2546 -1.8917  2.0243
 2038SOL     OW17746   1.736   0.353   1.151  0.6264 -0.2860 -0.3891
 2038SOL    HW117747   1.772   0.442   1.145  0.1033  0.0416  1.1561
 2038SOL    HW217748   1.675   0.346   1.078 -0.4772 -0.2010  0.5272
 2039SOL     OW17749   2.085   1.976   7.909 -0.3739 -0.0625 -0.0262
 2039SOL    HW117750   2.086   1.914   7.836  0.4023 -2.1518  1.7527
 2039SOL    HW217751   2.084   2.063   7.869  0.3954  0.6806  1.5348
 2040SOL     OW17752   1.004   0.766  13.868  0.1754  0.0870 -0.4426
 2040SOL    HW117753   1.023   0.682  13.911 -2.5234 -0.3601 -0.1085
 2040SOL    HW217754   0.932   0.798  13.922  1.2899  0.8125  0.6123
 2041SOL     OW17755   1.802   0.428   8.286 -0.0921  0.4194 -0.4844
 2041SOL    HW117756   1.772   0.376   8.212  3.1150  0.3257 -1.7105
 2041SOL    HW217757   1.759   0.513   8.272  0.6819  1.4406  3.3151
 2042SOL     OW17758   1.554   0.680   3.055  0.3471  0.5619  0.0077
 2042SOL    HW117759   1.472   0.631   3.046  1.3619 -1.3997  1.5834
 2042SOL    HW217760   1.584   0.646   3.140  3.2038 -1.0105 -1.6414
 2043SOL     OW17761   0.241   4.622   4.594  0.4150 -0.0840 -0.5337
 2043SOL    HW117762   0.257   4.654   4.683 -0.9058 -2.7726  0.6743
 2043SOL    HW217763   0.160   4.571   4.602  0.5775 -0.2024  0.3732
 2044SOL     OW17764   2.617   0.715   9.705 -0.4685  0.0135 -0.2863
 2044SOL    HW117765   2.712   0.700   9.714 -0.4345  1.0799  1.1816
 2044SOL    HW217766   2.631   0.809   9.690  0.6152  0.2345  2.1107
 2045SOL     OW17767   3.071   0.375  16.043 -0.3990  0.3935  0.3901
 2045SOL    HW117768   3.165   0.380  16.027 -0.4692 -0.2681 -0.1970
 2045SOL    HW217769   3.054   0.282  16.052  0.0227  0.5933  3.2450
 2046SOL     OW17770   1.296   0.943   4.523 -0.0980  0.1050  0.0190
 2046SOL    HW117771   1.206   0.927   4.495  0.7336 -0.6165 -2.2749
 2046SOL    HW217772   1.337   0.902   4.447 -0.0723  1.7258 -0.8491
 2047SOL     OW17773   1.957   1.770   8.961 -0.1557 -0.1109 -0.6090
 2047SOL    HW117774   1.946   1.826   9.038 -1.5165  0.8175 -1.4789
 2047SOL    HW217775   2.052   1.763   8.963 -0.0760  0.4226 -2.4424
 2048SOL     OW17776   2.203   0.194  17.050  0.3026 -0.1234 -0.0748
 2048SOL    HW117777   2.228   0.176  16.960  0.0889  1.8454 -0.5267
 2048SOL    HW217778   2.258   0.272  17.057  2.1123 -1.3274 -0.9098
 2049SOL     OW17779   3.065   0.929   9.684  0.2677  0.5895  0.0678
 2049SOL    HW117780   3.048   0.848   9.732 -0.1000 -0.0056 -1.0741
 2049SOL    HW217781   3.029   0.992   9.747 -1.5124 -0.3847  0.0201
 2050SOL     OW17782   0.477   4.575   2.947  0.1350 -0.4959  0.5596
 2050SOL    HW117783   0.504   4.584   3.038 -0.0940  3.5914  0.2340
 2050SOL    HW217784   0.560   4.575   2.898 -1.2959 -1.8055 -1.8221
 2051SOL     OW17785   4.492   0.349   6.333 -0.1112 -0.6460  0.1136
 2051SOL    HW117786   4.513   0.281   6.269  1.2747 -0.9135  0.8509
 2051SOL    HW217787   4.446   0.303   6.403 -0.6260  0.4418  0.4933
 2052SOL     OW17788   1.013   3.250   4.292  0.0682 -0.1738 -0.0282
 2052SOL    HW117789   1.029   3.334   4.250  0.1880  0.3137  0.9946
 2052SOL    HW217790   1.084   3.253   4.356 -1.4273  1.2174  1.5669
 2053SOL     OW17791   4.108   1.558   4.191 -0.3457 -0.1011  0.6058
 2053SOL    HW117792   4.191   1.566   4.239  0.1652  2.2784 -0.6819
 2053SOL    HW217793   4.079   1.472   4.220  0.1593 -0.0720  1.2181
 2054SOL     OW17794   2.531   0.005   5.493 -0.0993  0.0468 -0.6303
 2054SOL    HW117795   2.512   0.098   5.501 -1.8101 -0.5309  1.9660
 2054SOL    HW217796   2.625   4.734   5.478  0.0076 -0.1450  0.1772
 2055SOL     OW17797   4.057   0.966   8.491  0.1633 -0.6527 -0.0398
 2055SOL    HW117798   4.062   0.873   8.512  0.5890 -0.8924 -1.2051
 2055SOL    HW217799   4.062   1.003   8.579  1.4204 -0.4150 -0.2131
 2056SOL     OW17800   4.089   4.453  15.087 -0.0068  0.2999 -0.7852
 2056SOL    HW117801   4.010   4.446  15.140  0.0672  0.4452 -0.6538
 2056SOL    HW217802   4.046   4.482  15.007 -0.2154  0.1912 -0.7118
 2057SOL     OW17803   4.566   0.673   1.330  0.2685 -0.0801  0.0463
 2057SOL    HW117804   4.475   0.653   1.354 -0.9725  2.6439 -2.4195
 2057SOL    HW217805   4.611   0.603   1.377 -1.4118 -2.7501 -2.2626
 2058SOL     OW17806   3.944   3.683   3.212  0.5918  0.3616 -0.3472
 2058SOL    HW117807   3.866   3.711   3.164  0.6844  1.0118 -0.1193
 2058SOL    HW217808   3.923   3.726   3.295  0.1720 -1.1198  0.3037
 2059SOL     OW17809   4.683   4.068   8.458 -0.2639 -0.2582 -0.0951
 2059SOL    HW117810   0.004   4.014   8.510  1.6721  0.6994 -1.2947
 2059SOL    HW217811   4.689   4.025   8.373 -2.2676 -1.1371  0.2015
 2060SOL     OW17812   1.884   2.196   5.387 -0.7738 -0.0694  0.2328
 2060SOL    HW117813   1.909   2.180   5.478 -1.0697  0.7610  0.4583
 2060SOL    HW217814   1.802   2.148   5.374 -0.2708 -1.3554  1.9021
 2061SOL     OW17815   3.967   4.509  14.841  0.5745 -0.0018 -0.0538
 2061SOL    HW117816   3.895   4.462  14.801  1.5611 -1.0470 -0.5858
 2061SOL    HW217817   4.011   4.534  14.760  2.8330 -1.9282  0.5720
 2062SOL     OW17818   0.041   2.242   7.288 -0.1645  0.4052 -0.6896
 2062SOL    HW117819   4.698   2.266   7.242  0.3735  1.1254 -1.2662
 2062SOL    HW217820   0.021   2.150   7.303 -0.2332  0.6759  0.8209
 2063SOL     OW17821   0.678   2.920   9.836  0.0431  0.0441  0.1344
 2063SOL    HW117822   0.638   2.989   9.890  0.2834  1.3079 -1.2923
 2063SOL    HW217823   0.762   2.914   9.881  0.5831 -0.9564 -1.0074
 2064SOL     OW17824   2.587   4.661   6.599  0.1288  0.4130  0.3501
 2064SOL    HW117825   2.643   4.737   6.581 -1.2638  0.9109 -1.8555
 2064SOL    HW217826   2.508   4.712   6.618  0.3081  0.5756  0.6696
 2065SOL     OW17827   4.363   4.279   8.586  0.1286 -0.2347 -0.6474
 2065SOL    HW117828   4.424   4.209   8.563 -0.3777 -1.3283  1.3977
 2065SOL    HW217829   4.361   4.269   8.681  0.1479 -0.3410 -0.6589
 2066SOL     OW17830   3.259   2.554   4.407  0.2165 -0.0359  0.0302
 2066SOL    HW117831   3.253   2.637   4.455  0.5989 -0.8653  1.5129
 2066SOL    HW217832   3.338   2.513   4.442 -0.0045 -0.0044  0.5601
 2067SOL     OW17833   2.189   0.819   9.029  0.3082 -0.2861 -0.0139
 2067SOL    HW117834   2.117   0.760   9.054  0.2824 -0.9862 -1.7269
 2067SOL    HW217835   2.219   0.835   9.118 -1.1198  1.5930  0.1166
 2068SOL     OW17836   0.266   4.590   5.127  0.1836 -0.0678 -0.0045
 2068SOL    HW117837   0.259   4.510   5.178  1.9825  0.4131  1.0137
 2068SOL    HW217838   0.195   4.571   5.066  1.4249 -1.2620 -1.0819
 2069SOL     OW17839   4.012   1.498   1.604  0.1402 -0.1264  0.2434
 2069SOL    HW117840   4.035   1.552   1.680  3.9318 -0.2918 -0.7929
 2069SOL    HW217841   4.033   1.551   1.528 -1.2950 -2.3802 -1.7246
 2070SOL     OW17842   0.070   2.726   6.136  0.3807 -0.5335 -0.3364
 2070SOL    HW117843   0.056   2.701   6.045 -0.6086 -1.0391 -0.0352
 2070SOL    HW217844   0.123   2.803   6.114 -1.5199  0.9665  0.3975
 2071SOL     OW17845   4.024   1.846   9.638  0.3211  0.1559  0.0140
 2071SOL    HW117846   4.092   1.780   9.623 -0.4292 -0.3059 -1.4873
 2071SOL    HW217847   4.077   1.916   9.675  0.1169 -0.1115  0.8105
 2072SOL     OW17848   1.320   1.783   8.331  0.1675  0.0530  0.2373
 2072SOL    HW117849   1.312   1.791   8.426 -1.3920  1.4641  0.0025
 2072SOL    HW217850   1.374   1.705   8.325  1.7583  1.2237 -0.6860
 2073SOL     OW17851   0.665   4.266   3.429  0.6196  0.1698  0.2790
 2073SOL    HW117852   0.650   4.225   3.514 -2.1034 -0.8956 -0.7168
 2073SOL    HW217853   0.724   4.337   3.455  1.4266 -0.7322  0.9180
 2074SOL     OW17854   4.556   3.606   4.808  0.3395 -0.1947  0.1915
 2074SOL    HW117855   4.499   3.557   4.868 -0.9669 -0.2459 -1.1135
 2074SOL    HW217856   4.509   3.593   4.726 -0.6045  0.1778  0.6715
 2075SOL     OW17857   0.144   4.141  15.034 -0.5064 -0.3625  0.2255
 2075SOL    HW117858   0.058   4.132  14.992  0.2058 -1.6412 -0.9521
 2075SOL    HW217859   0.185   4.209  14.981 -1.8971 -0.9344 -1.5874
 2076SOL     OW17860   1.067   1.834   3.427 -0.4646 -0.2845  0.0115
 2076SOL    HW117861   1.132   1.901   3.404  1.2816 -1.3455  1.8031
 2076SOL    HW217862   1.049   1.802   3.339 -0.6850  0.3139 -0.1613
 2077SOL     OW17863   0.767   1.858   5.556  0.2371  0.0514 -0.6419
 2077SOL    HW117864   0.735   1.888   5.471 -1.2169  2.0406  0.6197
 2077SOL    HW217865   0.857   1.891   5.556  0.9959 -2.0006  0.9570
 2078SOL     OW17866   2.698   2.523   7.350  0.6293  0.1772  0.0116
 2078SOL    HW117867   2.667   2.610   7.324 -1.4027 -0.4474  0.3542
 2078SOL    HW217868   2.689   2.463   7.276  0.4078  1.8221 -1.2953
 2079SOL     OW17869   2.615   2.259   9.456  0.3484 -0.0968 -0.1085
 2079SOL    HW117870   2.680   2.208   9.407 -0.2439  0.2476 -1.2558
 2079SOL    HW217871   2.573   2.300   9.381  0.0459  0.5809  0.4339
 2080SOL     OW17872   4.602   3.633   3.056 -0.2813 -0.0442  0.2927
 2080SOL    HW117873   4.609   3.721   3.019  3.1245 -1.9668 -3.7626
 2080SOL    HW217874   4.539   3.651   3.125 -0.4057  0.1351  0.1331
 2081SOL     OW17875   0.747   0.696   4.986 -0.3025 -0.1795 -0.2328
 2081SOL    HW117876   0.670   0.715   5.038  1.2476  0.1889  1.9433
 2081SOL    HW217877   0.764   0.603   4.977  0.6722  0.2033 -2.4305
 2082SOL     OW17878   3.856   0.839   8.260 -0.5191  0.6430  0.5521
 2082SOL    HW117879   3.839   0.932   8.244 -0.0874  0.4270 -1.1405
 2082SOL    HW217880   3.809   0.807   8.337 -3.3672  3.3396 -0.0652
 2083SOL     OW17881   3.326   4.035   3.753 -0.1098 -0.8046  0.2412
 2083SOL    HW117882   3.339   4.055   3.846 -0.2727  0.5193 -0.0183
 2083SOL    HW217883   3.413   3.998   3.739 -0.3901 -1.2254 -0.3539
 2084SOL     OW17884   0.828   1.381   5.120  0.2245  0.0031 -0.0411
 2084SOL    HW117885   0.882   1.372   5.042  0.6155  1.3583  0.0616
 2084SOL    HW217886   0.894   1.372   5.189 -0.0682 -1.1925  0.0794
 2085SOL     OW17887   2.072   3.491   2.415 -0.0589  0.0809 -0.0352
 2085SOL    HW117888   1.993   3.461   2.369  1.5483  0.2363 -2.8875
 2085SOL    HW217889   2.130   3.430   2.370 -1.5460 -1.1428 -0.2984
 2086SOL     OW17890   3.236   1.243   2.266 -0.1584  0.3598 -0.2343
 2086SOL    HW117891   3.280   1.158   2.275  0.8438  0.8477 -0.5523
 2086SOL    HW217892   3.148   1.207   2.277  0.3079 -0.2754  1.4731
 2087SOL     OW17893   4.404   3.651   9.167 -0.2122 -0.6739  0.0614
 2087SOL    HW117894   4.474   3.709   9.197 -1.1222  0.5625 -0.2061
 2087SOL    HW217895   4.424   3.642   9.073  1.1597 -3.1893  0.5879
 2088SOL     OW17896   1.308   1.244  17.518 -0.8235 -0.4677  0.3138
 2088SOL    HW117897   1.385   1.224  17.570 -0.8290  0.9420  0.8697
 2088SOL    HW217898   1.234   1.223  17.575 -0.6610  2.2373  1.5053
 2089SOL     OW17899   3.695   3.044   4.968  0.2600 -0.0512 -0.3625
 2089SOL    HW117900   3.650   3.073   5.047 -1.2352 -1.1461 -0.8264
 2089SOL    HW217901   3.745   2.966   4.993  0.8877  0.2855 -0.5415
 2090SOL     OW17902   2.105   4.088   7.905  0.3575 -0.6166 -0.2426
 2090SOL    HW117903   2.069   4.135   7.829 -0.0024 -0.7929 -0.1839
 2090SOL    HW217904   2.088   4.144   7.981 -0.9630 -1.0003 -0.2510
 2091SOL     OW17905   1.369   2.038   2.622  0.5098 -0.6635  0.0786
 2091SOL    HW117906   1.373   1.946   2.648  1.9809 -0.5473  0.3024
 2091SOL    HW217907   1.384   2.037   2.527 -1.5109  0.5735 -0.2584
 2092SOL     OW17908   1.410   1.423   4.866 -0.4176 -0.1758 -0.1503
 2092SOL    HW117909   1.378   1.511   4.885 -2.4330 -1.3336  1.8765
 2092SOL    HW217910   1.347   1.379   4.923 -0.2460  0.8692  0.8447
 2093SOL     OW17911   1.287   2.251   3.236  0.0269  0.2029 -0.0203
 2093SOL    HW117912   1.365   2.236   3.183 -0.1871 -2.6558  0.4667
 2093SOL    HW217913   1.229   2.293   3.172  0.6038  0.4668 -0.3681
 2094SOL     OW17914   1.770   2.573   5.307 -0.0875  0.4252  0.1441
 2094SOL    HW117915   1.772   2.603   5.216 -2.4012 -1.8623 -0.6317
 2094SOL    HW217916   1.678   2.592   5.327 -0.3652 -1.0765  0.2452
 2095SOL     OW17917   2.227   1.654   5.954  0.4810 -0.1163 -0.0169
 2095SOL    HW117918   2.180   1.693   6.028  1.7819 -0.2673  0.8869
 2095SOL    HW217919   2.214   1.561   5.973 -0.5981  0.0302 -0.0002
 2096SOL     OW17920   3.353   0.297   7.999  0.0723 -0.6564 -0.0802
 2096SOL    HW117921   3.277   0.246   8.024 -0.6916  0.2234 -0.6061
 2096SOL    HW217922   3.369   0.369   8.060  0.5443 -0.8753  0.0595
 2097SOL     OW17923   3.417   3.389   5.396  0.1915  0.1544 -0.4000
 2097SOL    HW117924   3.388   3.452   5.462 -0.4877  0.0434 -0.5920
 2097SOL    HW217925   3.471   3.342   5.459 -0.3481 -0.8476 -0.6852
 2098SOL     OW17926   0.003   3.965   0.799  0.2062  0.2906  0.1283
 2098SOL    HW117927   4.731   3.878   0.761 -0.3053  0.6825 -0.6388
 2098SOL    HW217928   4.700   4.006   0.723  2.4360  1.0151 -0.6857
 2099SOL     OW17929   1.736   0.358   8.016  0.0478 -0.0190 -0.0342
 2099SOL    HW117930   1.776   0.445   8.023 -0.1946  0.0050  1.0462
 2099SOL    HW217931   1.678   0.360   7.941  0.9862 -0.1923 -0.7573
 2100SOL     OW17932   3.626   2.652  17.181 -0.3113 -0.8337 -0.1728
 2100SOL    HW117933   3.677   2.669  17.102 -1.0108  0.7934 -0.2778
 2100SOL    HW217934   3.583   2.577  17.137 -0.8455 -1.0213  0.6749
 2101SOL     OW17935   2.765   2.601   5.341  0.9704  0.3867  0.0475
 2101SOL    HW117936   2.712   2.681   5.344 -0.9419 -0.8394 -1.8401
 2101SOL    HW217937   2.697   2.538   5.363  1.8204 -0.9528 -1.2155
 2102SOL     OW17938   2.897   0.220   0.630 -0.2850 -0.4969 -0.2875
 2102SOL    HW117939   2.953   0.282   0.584  0.7162 -0.0826  1.4582
 2102SOL    HW217940   2.827   0.212   0.566  0.7652  1.4970 -1.6686
 2103SOL     OW17941   3.669   4.659   7.022 -0.6751  0.0184  0.3033
 2103SOL    HW117942   3.751   4.650   7.071 -0.4059 -0.6652 -0.2676
 2103SOL    HW217943   3.638   4.568   7.022  0.3498 -0.3372 -0.0464
 2104SOL     OW17944   2.169   3.058   3.287 -0.0093 -0.0273  0.5303
 2104SOL    HW117945   2.181   2.967   3.261 -0.5998 -0.3746  1.4917
 2104SOL    HW217946   2.110   3.095   3.221 -1.0287 -0.9673  0.9138
 2105SOL     OW17947   0.125   3.549   7.534  0.4559  0.8057 -0.6463
 2105SOL    HW117948   0.071   3.503   7.470  2.0862 -1.0712 -0.6715
 2105SOL    HW217949   0.077   3.545   7.617  0.5048 -2.5038 -0.7945
 2106SOL     OW17950   3.865   1.055   3.133 -0.6716  0.2208  0.1631
 2106SOL    HW117951   3.860   1.145   3.163  4.5784  0.5197  0.0926
 2106SOL    HW217952   3.792   1.024   3.187  1.3494 -2.5766  1.2828
 2107SOL     OW17953   1.325   2.239   5.576  0.0113 -0.1172 -0.5922
 2107SOL    HW117954   1.395   2.304   5.575 -0.2845  0.2533  1.6714
 2107SOL    HW217955   1.354   2.163   5.525 -0.6222 -1.7183  1.4019
 2108SOL     OW17956   2.426   1.386   4.007  0.2094 -0.0786 -0.0089
 2108SOL    HW117957   2.441   1.409   4.098 -0.0437  0.6816 -0.1537
 2108SOL    HW217958   2.354   1.323   4.010  1.3853 -1.3380  1.2545
 2109SOL     OW17959   0.152   4.216   8.269  0.3903  0.0540 -0.0642
 2109SOL    HW117960   0.105   4.136   8.247  0.2161  0.2977 -0.5799
 2109SOL    HW217961   0.082   4.279   8.251  0.2541 -0.6696 -2.0078
 2110SOL     OW17962   2.837   3.432   6.885 -0.7729  0.1114  0.1596
 2110SOL    HW117963   2.743   3.432   6.867 -0.8441 -2.4340  0.5039
 2110SOL    HW217964   2.834   3.478   6.969  0.2942  1.9743 -0.8278
 2111SOL     OW17965   3.557   1.737  12.770  0.7469  0.0295 -0.2870
 2111SOL    HW117966   3.569   1.829  12.793 -1.7801  0.1147  0.6686
 2111SOL    HW217967   3.496   1.752  12.698 -0.0197 -0.0900  0.3301
 2112SOL     OW17968   3.725   3.058   7.940  0.2720 -0.3160 -0.4206
 2112SOL    HW117969   3.803   3.085   7.892  1.0457 -1.5089  0.1594
 2112SOL    HW217970   3.680   3.019   7.866  0.5425 -1.7661  0.1702
 2113SOL     OW17971   2.409   3.387  10.020 -0.5645  0.0507 -0.0423
 2113SOL    HW117972   2.502   3.374  10.039 -0.6518  2.0459  1.6881
 2113SOL    HW217973   2.394   3.349   9.933  2.6214 -0.0877 -0.5698
 2114SOL     OW17974   1.311   0.582   2.844  0.1482 -0.4216 -0.0775
 2114SOL    HW117975   1.293   0.565   2.752  1.0752  0.3245 -0.3935
 2114SOL    HW217976   1.386   0.523   2.847 -0.0130 -0.6869 -1.6264
 2115SOL     OW17977   3.508   2.827   8.613  0.2636 -0.0497 -0.4457
 2115SOL    HW117978   3.526   2.890   8.543  0.9006 -0.0359 -0.2701
 2115SOL    HW217979   3.427   2.868   8.643  0.9521  0.7647  0.2730
 2116SOL     OW17980   2.605   0.631  14.565  0.1126 -0.6869 -0.0338
 2116SOL    HW117981   2.589   0.549  14.611  0.0910 -0.1176  0.9596
 2116SOL    HW217982   2.584   0.686  14.640 -0.4430  1.0975 -1.4930
 2117SOL     OW17983   4.679   0.154   6.602 -0.5136  0.4973  0.5542
 2117SOL    HW117984   4.688   0.063   6.575  1.7990  0.3974  1.7028
 2117SOL    HW217985   4.731   0.192   6.531 -0.9442 -0.4308 -0.2538
 2118SOL     OW17986   2.887   0.217   5.444 -0.3466 -0.0161 -0.6157
 2118SOL    HW117987   2.841   0.206   5.527  0.3438  0.3890 -0.1924
 2118SOL    HW217988   2.863   0.307   5.423 -1.1168  0.2324  1.3865
 2119SOL     OW17989   3.269   2.939   8.703 -0.5902  0.2448  0.0818
 2119SOL    HW117990   3.262   2.891   8.786 -0.2917  0.9922  0.5417
 2119SOL    HW217991   3.236   3.021   8.739  0.2482  0.7161 -0.2470
 2120SOL     OW17992   0.963   4.089   4.894  0.7127 -0.4862  0.0866
 2120SOL    HW117993   0.928   4.157   4.951 -1.6767 -1.0963 -0.6176
 2120SOL    HW217994   0.904   4.013   4.897 -0.5360  0.4428 -0.8302
 2121SOL     OW17995   2.863   0.584  11.359  0.0414  0.2060 -0.0611
 2121SOL    HW117996   2.853   0.528  11.282  1.9133  0.5115 -0.5273
 2121SOL    HW217997   2.822   0.667  11.333 -0.0302  0.3405  0.4795
 2122SOL     OW17998   4.213   0.383   7.144 -0.1987 -0.0319 -0.2526
 2122SOL    HW117999   4.309   0.387   7.150 -0.2237  0.8972 -0.5279
 2122SOL    HW218000   4.178   0.438   7.214  0.2998  0.4413 -0.3713
 2123SOL     OW18001   4.530   4.159   5.651 -0.1369  0.4507 -0.2239
 2123SOL    HW118002   4.515   4.092   5.717 -0.1164  1.2709  0.6102
 2123SOL    HW218003   4.590   4.216   5.700 -1.2208  1.5099 -0.1495
 2124SOL     OW18004   4.228   0.551   3.136 -0.1211 -0.2235 -0.1517
 2124SOL    HW118005   4.313   0.596   3.145 -0.5880  1.2336 -2.9128
 2124SOL    HW218006   4.216   0.554   3.041  2.0486 -1.2840 -0.4693
 2125SOL     OW18007   3.696   0.527   2.550 -0.3867  0.4143  0.0008
 2125SOL    HW118008   3.720   0.463   2.483 -3.7508  0.3539 -1.1549
 2125SOL    HW218009   3.695   0.612   2.506  2.3004  0.8604  0.8161
 2126SOL     OW18010   1.422   4.224   8.760 -0.4143  0.4569  0.2618
 2126SOL    HW118011   1.481   4.297   8.741 -1.8920  1.4804 -0.4393
 2126SOL    HW218012   1.382   4.218   8.674  2.0173  0.3350 -0.8673
 2127SOL     OW18013   2.196   4.386   6.581 -0.3452  0.3417  0.5169
 2127SOL    HW118014   2.287   4.359   6.597 -0.5470 -0.8360 -0.3533
 2127SOL    HW218015   2.183   4.461   6.639 -0.9666  0.7421 -0.1358
 2128SOL     OW18016   2.355   4.074  12.120  0.3939 -0.3352  0.3807
 2128SOL    HW118017   2.330   4.153  12.168 -1.3239 -0.6160 -0.0590
 2128SOL    HW218018   2.415   4.126  12.066  0.5485 -1.9218 -0.9863
 2129SOL     OW18019   2.062   0.644   3.221  0.4820  0.4341 -0.2545
 2129SOL    HW118020   2.141   0.600   3.253  0.1523 -1.6354 -2.2561
 2129SOL    HW218021   2.092   0.729   3.253  1.3476  0.0734 -0.1167
 2130SOL     OW18022   2.783   4.134   9.070 -0.3603 -0.3874 -0.5509
 2130SOL    HW118023   2.868   4.173   9.090  0.1652 -1.7824 -0.0970
 2130SOL    HW218024   2.734   4.215   9.085 -0.9696 -1.5706  3.6926
 2131SOL     OW18025   0.778   3.851   2.478 -0.5027 -0.1906 -0.0993
 2131SOL    HW118026   0.703   3.895   2.518  0.4017 -0.0667  1.4375
 2131SOL    HW218027   0.724   3.794   2.422 -0.5434 -1.8923  1.6767
 2132SOL     OW18028   1.544   2.311   3.427 -0.3711 -0.1381  0.1668
 2132SOL    HW118029   1.619   2.253   3.413 -0.8382 -0.6442 -0.2515
 2132SOL    HW218030   1.517   2.327   3.337 -1.7422  2.8281  1.1395
 2133SOL     OW18031   3.971   4.498   4.263  0.3958  0.0783  0.8756
 2133SOL    HW118032   3.984   4.545   4.180 -2.0180 -2.1446 -0.7590
 2133SOL    HW218033   3.922   4.561   4.316  1.5508  0.4779  1.4769
 2134SOL     OW18034   4.515   1.463  13.867 -0.1980  0.1617  0.4055
 2134SOL    HW118035   4.453   1.396  13.895 -0.4888  0.0347 -0.5549
 2134SOL    HW218036   4.530   1.519  13.944 -2.3054 -0.2357  1.1107
 2135SOL     OW18037   2.536   2.490   7.628  0.6820  0.4515 -0.0422
 2135SOL    HW118038   2.621   2.533   7.627  0.4666  0.8572 -0.8420
 2135SOL    HW218039   2.500   2.536   7.704 -0.1920 -0.0113 -0.1764
 2136SOL     OW18040   4.313   1.696   2.097 -0.2087 -0.7079 -0.1192
 2136SOL    HW118041   4.233   1.648   2.116 -1.0258  0.5309 -0.4284
 2136SOL    HW218042   4.379   1.647   2.146 -0.8435 -2.2609 -0.8477
 2137SOL     OW18043   1.853   0.517   2.399 -0.2234 -0.0674  0.0660
 2137SOL    HW118044   1.761   0.543   2.405 -0.1970 -1.0442  4.4576
 2137SOL    HW218045   1.890   0.605   2.404 -0.7547  0.2389 -1.3095
 2138SOL     OW18046   4.163   0.733   0.345  0.6370  0.1659 -0.7176
 2138SOL    HW118047   4.256   0.722   0.328  1.4703  2.9080  2.0233
 2138SOL    HW218048   4.153   0.813   0.294 -1.4779  0.0082 -0.5651
 2139SOL     OW18049   1.501   3.301   1.005 -0.4042 -0.2410 -0.1652
 2139SOL    HW118050   1.589   3.283   1.037 -0.6599  0.5930  0.9804
 2139SOL    HW218051   1.518   3.350   0.925  0.5216 -0.9891 -0.4249
 2140SOL     OW18052   3.774   2.291  10.379  0.1201 -0.3610 -0.7423
 2140SOL    HW118053   3.856   2.283  10.428 -1.2054 -0.7847  1.4056
 2140SOL    HW218054   3.739   2.201  10.379  1.2833 -0.8139  0.6505
 2141SOL     OW18055   0.196   0.841  17.628  0.3395 -0.2617 -0.2379
 2141SOL    HW118056   0.105   0.821  17.651  0.0462  0.7593 -0.4784
 2141SOL    HW218057   0.187   0.902  17.555  1.6894  1.4224  0.9948
 2142SOL     OW18058   2.183   0.353   8.352  0.3209  0.5285  0.1368
 2142SOL    HW118059   2.193   0.410   8.429  1.2007 -0.5902  0.8557
 2142SOL    HW218060   2.158   0.424   8.293  0.1111  0.0365 -0.3676
 2143SOL     OW18061   2.067   4.484   8.100 -0.5488  0.1511  0.3372
 2143SOL    HW118062   2.155   4.520   8.105  0.1198 -1.4380  0.0205
 2143SOL    HW218063   2.033   4.549   8.161 -0.1238 -0.0317  0.7657
 2144SOL     OW18064   4.371   0.395   0.280  0.4493  0.6752 -0.1344
 2144SOL    HW118065   4.404   0.464   0.337 -0.6639  0.8209  0.3422
 2144SOL    HW218066   4.331   0.441   0.206 -1.9043  1.1856  1.4297
 2145SOL     OW18067   0.563   0.425   0.970  0.3509  0.5285  0.4414
 2145SOL    HW118068   0.483   0.374   0.982  0.9422 -0.1135  1.6964
 2145SOL    HW218069   0.624   0.386   1.033  0.8988  0.4323 -0.1544
 2146SOL     OW18070   2.874   2.413   7.528 -0.7269  0.5960 -0.1619
 2146SOL    HW118071   2.923   2.448   7.453 -0.8416 -1.9020 -1.3739
 2146SOL    HW218072   2.790   2.419   7.483 -0.0710 -0.3165 -1.4986
 2147SOL     OW18073   3.164   1.888   8.684 -0.2827 -0.4102 -0.1760
 2147SOL    HW118074   3.194   1.857   8.598  0.6166 -1.6102  0.5603
 2147SOL    HW218075   3.071   1.871   8.668 -0.7360  1.2233  0.7204
 2148SOL     OW18076   3.269   0.802   3.948  0.0926  0.6146 -0.0098
 2148SOL    HW118077   3.226   0.867   3.893 -0.5764  0.7329  0.6604
 2148SOL    HW218078   3.361   0.824   3.934  0.3136  0.1482  0.6843
 2149SOL     OW18079   3.736   0.670   8.435 -0.4340  0.1704  0.3254
 2149SOL    HW118080   3.695   0.620   8.506  0.3281 -0.3543  0.3942
 2149SOL    HW218081   3.719   0.616   8.358  2.2073  1.2018 -0.9776
 2150SOL     OW18082   2.280   3.150   0.154  0.1513 -0.1310  0.2809
 2150SOL    HW118083   2.295   3.157   0.060 -1.0394 -1.2280  0.0036
 2150SOL    HW218084   2.317   3.062   0.159 -1.0139 -0.6659 -0.4289
 2151SOL     OW18085   1.646   2.236   4.188  0.0626  0.0489 -0.6356
 2151SOL    HW118086   1.683   2.310   4.237 -4.1580  2.3803 -0.9195
 2151SOL    HW218087   1.704   2.216   4.115  0.7005  0.4788 -0.2447
 2152SOL     OW18088   3.333   0.884   4.376 -0.0506 -0.4626  0.2293
 2152SOL    HW118089   3.355   0.977   4.375  2.0162 -0.9692 -0.7909
 2152SOL    HW218090   3.259   0.881   4.315  0.6984 -2.6919 -0.5487
 2153SOL     OW18091   2.808   3.975  16.438  0.1751 -0.8670  0.7193
 2153SOL    HW118092   2.872   3.942  16.375 -2.3654 -5.6347  0.6566
 2153SOL    HW218093   2.755   3.900  16.464 -0.6510 -0.7550 -0.6193
 2154SOL     OW18094   0.788   0.211  11.444 -0.2288 -0.0062  0.7918
 2154SOL    HW118095   0.776   0.276  11.513  1.7189  2.5510 -1.3051
 2154SOL    HW218096   0.789   0.268  11.368  1.5886  2.4544  2.6898
 2155SOL     OW18097   1.593   0.304   7.345 -0.4965 -0.0534 -0.4523
 2155SOL    HW118098   1.532   0.247   7.299  0.7997 -1.9676  0.1701
 2155SOL    HW218099   1.626   0.256   7.421 -1.7023 -1.4077 -0.7995
 2156SOL     OW18100   0.169   2.733   2.689 -0.2462  0.6530 -0.0265
 2156SOL    HW118101   0.091   2.707   2.738  0.3051  1.0004  1.0355
 2156SOL    HW218102   0.183   2.676   2.614 -3.0059 -1.2826  0.9078
 2157SOL     OW18103   3.937   1.419   1.938 -0.1308  0.2368  0.1547
 2157SOL    HW118104   3.899   1.466   1.863 -0.9652 -2.3547 -1.0378
 2157SOL    HW218105   3.940   1.330   1.902  1.0742 -0.1122  1.1229
 2158SOL     OW18106   1.745   2.600  10.028 -0.5199 -0.4478  0.1090
 2158SOL    HW118107   1.840   2.608  10.040 -0.6968  2.0562 -0.1334
 2158SOL    HW218108   1.712   2.677  10.074 -1.0382 -0.9789  0.6266
 2159SOL     OW18109   3.763   0.962   3.568  0.3831  0.1338 -0.3809
 2159SOL    HW118110   3.681   0.988   3.610  0.0623 -1.1104 -0.2497
 2159SOL    HW218111   3.792   1.049   3.541 -1.3096  0.2901 -1.7027
 2160SOL     OW18112   3.699   1.778   2.859 -0.2789  0.0450  0.1910
 2160SOL    HW118113   3.674   1.870   2.872 -3.1365 -0.8788  1.0447
 2160SOL    HW218114   3.626   1.736   2.904 -0.9426  1.3340  0.3161
 2161SOL     OW18115   2.775   0.183   0.387  0.3993 -0.2062 -0.1616
 2161SOL    HW118116   2.852   0.166   0.332  1.1535  1.6396  0.3035
 2161SOL    HW218117   2.734   0.250   0.332 -2.0887  0.0724  2.0573
 2162SOL     OW18118   2.337   0.384  10.981  0.4848  0.2704  0.3148
 2162SOL    HW118119   2.351   0.344  11.067 -2.2062 -3.6271 -1.0633
 2162SOL    HW218120   2.268   0.328  10.946  0.7311  0.5452 -0.6230
 2163SOL     OW18121   0.148   0.379   6.484 -0.2682  0.1492 -0.5118
 2163SOL    HW118122   0.234   0.394   6.525  0.2995 -1.1374 -1.2237
 2163SOL    HW218123   0.166   0.292   6.449 -1.6096 -0.5154  0.4410
 2164SOL     OW18124   1.453   3.403   0.748 -0.2213  0.3374 -0.2837
 2164SOL    HW118125   1.471   3.389   0.655 -1.2929 -0.6421 -0.3318
 2164SOL    HW218126   1.404   3.483   0.728  0.0403  0.7767  0.8576
 2165SOL     OW18127   3.304   1.008   7.303 -0.1366  0.2406 -0.0505
 2165SOL    HW118128   3.280   0.916   7.298 -3.3829  1.1314 -0.5972
 2165SOL    HW218129   3.233   1.053   7.348  0.3955 -0.5460  1.5588
 2166SOL     OW18130   1.705   1.955  15.900 -0.2526  0.6733  0.4480
 2166SOL    HW118131   1.642   1.905  15.849 -1.8766  1.9536  1.1791
 2166SOL    HW218132   1.785   1.934  15.852 -0.2862  1.8128 -0.1222
 2167SOL     OW18133   0.802   2.254   5.590  0.3558  0.7662 -0.0122
 2167SOL    HW118134   0.886   2.208   5.600 -0.6958 -0.9864  0.6538
 2167SOL    HW218135   0.817   2.345   5.615  0.6779  1.1972 -1.7491
 2168SOL     OW18136   4.338   1.709   5.299  0.3341 -0.0915 -0.0898
 2168SOL    HW118137   4.360   1.616   5.295 -0.8477 -0.3498 -0.7133
 2168SOL    HW218138   4.387   1.737   5.222  0.6884  0.1129  0.2114
 2169SOL     OW18139   3.679   3.733   8.456 -0.1745  0.7416  0.7367
 2169SOL    HW118140   3.619   3.680   8.508  1.2928  1.0838  2.7944
 2169SOL    HW218141   3.759   3.681   8.453  0.1755  1.2781  0.5839
 2170SOL     OW18142   1.080   2.506   9.696 -0.1461 -0.0118  0.4687
 2170SOL    HW118143   1.051   2.589   9.733 -1.2192 -0.0828 -0.1990
 2170SOL    HW218144   1.005   2.447   9.696  0.3614 -0.6585  1.0311
 2171SOL     OW18145   3.967   2.788  15.933  0.0642 -0.8492  0.4026
 2171SOL    HW118146   3.925   2.863  15.975  0.8759  0.0608 -0.4057
 2171SOL    HW218147   3.972   2.817  15.842 -0.9618 -3.2541 -0.4358
 2172SOL     OW18148   2.948   1.229   5.524  0.4374 -0.2102  0.1340
 2172SOL    HW118149   3.003   1.227   5.603 -0.4305  0.1739  0.7428
 2172SOL    HW218150   3.011   1.200   5.458  0.2109  1.7190 -0.9433
 2173SOL     OW18151   4.183   0.227   9.001 -0.1805  0.0502 -0.4385
 2173SOL    HW118152   4.204   0.307   9.050  0.5655 -0.4199  0.0249
 2173SOL    HW218153   4.202   0.262   8.914 -1.6280  0.7638 -0.4674
 2174SOL     OW18154   0.796   4.103   7.042 -0.1279  0.2941 -0.0908
 2174SOL    HW118155   0.839   4.054   7.112 -0.5611  0.4666  0.2923
 2174SOL    HW218156   0.857   4.177   7.045 -1.4609  1.4960 -3.2387
 2175SOL     OW18157   3.373   0.469   4.765  1.0334  0.2866 -0.1533
 2175SOL    HW118158   3.346   0.536   4.828 -0.0887 -0.3035 -0.0176
 2175SOL    HW218159   3.378   0.533   4.693 -0.8974  2.7305  1.8826
 2176SOL     OW18160   1.100   0.971   6.480 -0.1634  0.1580 -0.3687
 2176SOL    HW118161   1.070   1.020   6.404  0.8105 -1.3255 -1.7018
 2176SOL    HW218162   1.181   1.018   6.499  0.4086 -0.4982 -1.2186
 2177SOL     OW18163   2.161   2.835   7.768 -0.4110  0.3452  0.5487
 2177SOL    HW118164   2.234   2.811   7.710 -2.3501 -0.6306 -1.4597
 2177SOL    HW218165   2.204   2.892   7.832  2.5083 -1.4463  0.2182
 2178SOL     OW18166   0.537   3.793  11.920 -0.0285 -0.5269  0.1508
 2178SOL    HW118167   0.569   3.734  11.989 -0.8531 -0.9871  0.1466
 2178SOL    HW218168   0.524   3.873  11.970 -2.6603 -0.1052 -1.2106
 2179SOL     OW18169   3.761   1.000   0.692 -0.2069  0.3633 -0.2141
 2179SOL    HW118170   3.773   1.023   0.600 -1.0615 -0.2261 -0.4676
 2179SOL    HW218171   3.666   0.989   0.686 -0.5331  2.4259  1.2890
 2180SOL     OW18172   3.041   2.778  10.299 -0.4146 -0.5037  0.5428
 2180SOL    HW118173   3.081   2.700  10.261  2.4919  0.5782  1.3801
 2180SOL    HW218174   2.961   2.781  10.248  1.2960  2.0746 -2.0124
 2181SOL     OW18175   3.032   2.967   4.486 -0.1225  0.3287 -0.0824
 2181SOL    HW118176   3.105   2.905   4.485 -0.2679  0.1771 -1.4768
 2181SOL    HW218177   2.969   2.930   4.424  2.3205 -3.8008 -0.0649
 2182SOL     OW18178   4.034   0.572   1.895 -0.7181  0.6589  0.7534
 2182SOL    HW118179   4.088   0.519   1.954 -0.0554 -0.4099 -0.8119
 2182SOL    HW218180   3.995   0.507   1.836 -0.2789  0.9238  0.1782
 2183SOL     OW18181   4.325   4.261   5.466 -0.2072  0.2095 -0.1982
 2183SOL    HW118182   4.348   4.239   5.557 -0.3320  0.2000 -0.1695
 2183SOL    HW218183   4.348   4.354   5.466 -2.0422  0.6427  2.3267
 2184SOL     OW18184   1.988   3.495   9.221 -0.4496  0.6606 -0.1265
 2184SOL    HW118185   1.993   3.464   9.131 -0.3718  1.5310 -0.4248
 2184SOL    HW218186   2.008   3.415   9.270 -0.1059 -0.1355 -1.5684
 2185SOL     OW18187   3.728   4.090   6.579 -0.1845  0.6666  0.1974
 2185SOL    HW118188   3.731   3.996   6.563 -1.9599  0.4402  1.1420
 2185SOL    HW218189   3.745   4.121   6.490 -2.9258  1.4254 -0.0570
 2186SOL     OW18190   2.584   0.913   2.985  0.1159 -0.3799 -0.5961
 2186SOL    HW118191   2.496   0.898   2.948 -0.5644  0.6119  0.6225
 2186SOL    HW218192   2.637   0.860   2.926 -0.6409  0.0553 -1.6736
 2187SOL     OW18193   3.770   1.601   8.291 -0.1389 -0.3246  0.2857
 2187SOL    HW118194   3.679   1.580   8.309 -0.4948 -0.2866 -1.4907
 2187SOL    HW218195   3.818   1.529   8.333  0.8219 -2.0938 -3.8674
 2188SOL     OW18196   0.163   3.482   8.024 -0.0779 -0.3755  0.5194
 2188SOL    HW118197   0.158   3.388   8.006  0.2378 -0.1414 -0.7593
 2188SOL    HW218198   0.256   3.497   8.009 -0.5295  0.4294 -1.4767
 2189SOL     OW18199   0.395   4.163  16.471 -0.3724  0.4608  0.1779
 2189SOL    HW118200   0.485   4.162  16.505 -0.2194 -1.9671 -0.2616
 2189SOL    HW218201   0.407   4.179  16.377 -1.7943  1.1652  0.1269
 2190SOL     OW18202   4.317   0.351   4.740 -0.0145  0.2643  0.1278
 2190SOL    HW118203   4.398   0.402   4.736 -0.8585  1.6571  0.8890
 2190SOL    HW218204   4.331   0.257   4.723  1.0387  0.0159  2.3680
 2191SOL     OW18205   0.921   1.475   8.757 -0.4993  0.4595 -0.5634
 2191SOL    HW118206   0.843   1.507   8.712 -0.7288  1.5004  0.5786
 2191SOL    HW218207   0.927   1.535   8.832 -0.0910 -1.8310  1.2274
 2192SOL     OW18208   4.609   1.320  11.372 -0.2287 -0.0764  0.2878
 2192SOL    HW118209   4.549   1.361  11.309 -1.3629 -1.9615  0.1431
 2192SOL    HW218210   4.566   1.238  11.396  2.3389 -0.5333  3.2251
 2193SOL     OW18211   1.116   0.961   2.047 -0.3105  0.8942  0.8290
 2193SOL    HW118212   1.152   0.923   2.127  0.6284 -0.1722 -0.1016
 2193SOL    HW218213   1.099   1.053   2.069  3.1934  1.5020  0.9987
 2194SOL     OW18214   2.980   4.447   7.812 -0.6186 -0.0665 -0.4361
 2194SOL    HW118215   3.052   4.390   7.785  0.3728  0.2125  1.5857
 2194SOL    HW218216   2.935   4.390   7.875 -2.3478  0.4207 -1.2433
 2195SOL     OW18217   1.584   1.107   4.782 -0.3144  0.4718 -0.1401
 2195SOL    HW118218   1.589   1.031   4.725 -1.7784  1.0283 -1.0131
 2195SOL    HW218219   1.568   1.065   4.866  2.2326 -0.5433 -0.1571
 2196SOL     OW18220   4.606   3.772   8.297  0.1321  0.5575 -0.1543
 2196SOL    HW118221   4.511   3.788   8.297 -0.1439 -1.1514 -0.4977
 2196SOL    HW218222   4.607   3.690   8.345 -1.1618  1.1466  0.8754
 2197SOL     OW18223   3.120   1.587   1.708 -0.3701 -0.4375 -0.4601
 2197SOL    HW118224   3.104   1.657   1.645  1.7405 -0.6065 -1.1789
 2197SOL    HW218225   3.033   1.573   1.745 -0.0346 -0.4906  0.3121
 2198SOL     OW18226   2.375   2.604   3.275 -0.2970 -0.4233  0.3478
 2198SOL    HW118227   2.378   2.645   3.362 -1.5240 -1.7126  0.9855
 2198SOL    HW218228   2.313   2.533   3.287  1.5582 -2.0307  0.4880
 2199SOL     OW18229   0.891   4.489   1.087  0.0780  0.0815 -0.0575
 2199SOL    HW118230   0.847   4.567   1.119 -2.0848 -0.9126 -0.6544
 2199SOL    HW218231   0.843   4.412   1.116 -0.8922  2.0500  3.6083
 2200SOL     OW18232   3.532   1.203  11.728  0.4326  1.0062  0.1696
 2200SOL    HW118233   3.616   1.247  11.712  0.9962  0.2001  0.9163
 2200SOL    HW218234   3.490   1.271  11.780 -2.1084  0.9620 -1.8350
 2201SOL     OW18235   3.269   2.043   4.779 -0.1033  0.2766 -0.3343
 2201SOL    HW118236   3.348   2.090   4.752 -0.4193  1.6404  1.1680
 2201SOL    HW218237   3.236   2.008   4.696 -1.4709  0.6387  0.0625
 2202SOL     OW18238   3.823   0.030   3.148  0.5888 -0.0143  0.1862
 2202SOL    HW118239   3.764   0.053   3.077  0.9937 -2.1665 -0.8797
 2202SOL    HW218240   3.781   0.074   3.221 -2.0630  1.2272 -2.1013
 2203SOL     OW18241   2.404   3.902  15.525 -0.0625 -0.6701  0.1333
 2203SOL    HW118242   2.408   3.821  15.475 -0.0628  0.6739 -2.0203
 2203SOL    HW218243   2.491   3.940  15.511  0.5583 -1.4068  2.0397
 2204SOL     OW18244   0.563   4.338   9.920 -0.0332  0.5000 -0.3847
 2204SOL    HW118245   0.587   4.360  10.010  1.8557 -1.9147 -0.2868
 2204SOL    HW218246   0.471   4.314   9.929  0.8380 -3.4377 -1.5502
 2205SOL     OW18247   3.870   3.051  15.288  0.2445 -0.2642 -0.7675
 2205SOL    HW118248   3.806   2.983  15.266  0.4166 -0.9312  0.7789
 2205SOL    HW218249   3.937   3.007  15.341 -0.8606  1.2126  1.8074
 2206SOL     OW18250   1.702   0.223   4.614  0.3597  0.1112 -0.5165
 2206SOL    HW118251   1.660   0.145   4.650  1.6507 -0.3708 -0.0635
 2206SOL    HW218252   1.716   0.185   4.527 -0.6793 -0.8242 -0.2834
 2207SOL     OW18253   4.234   1.129   9.747  0.4655  0.4010  0.1044
 2207SOL    HW118254   4.215   1.045   9.705  0.2234  1.2908 -1.5507
 2207SOL    HW218255   4.164   1.135   9.811 -1.1973  0.0207 -1.6708
 2208SOL     OW18256   3.668   1.001   4.309  0.4454  0.4332  0.1657
 2208SOL    HW118257   3.639   1.071   4.250 -1.6070 -0.7069 -0.1673
 2208SOL    HW218258   3.620   0.921   4.289  2.3934 -1.1342  1.8037
 2209SOL     OW18259   2.128   1.542   7.864 -0.0837 -0.2408 -0.1182
 2209SOL    HW118260   2.058   1.559   7.801  0.7955  1.4745 -0.6368
 2209SOL    HW218261   2.203   1.543   7.805  1.2593 -0.1366  1.5933
 2210SOL     OW18262   4.199   4.639   1.824  0.1170 -0.9430  0.0527
 2210SOL    HW118263   4.114   4.638   1.868 -0.8939  3.4718 -1.7313
 2210SOL    HW218264   4.258   4.601   1.889  2.0769  0.2882 -1.0047
 2211SOL     OW18265   1.422   2.895   4.489 -0.0035  0.1319  0.1869
 2211SOL    HW118266   1.364   2.899   4.565  0.3345  2.9423  0.3061
 2211SOL    HW218267   1.496   2.849   4.529  0.0627  0.2824  0.2372
 2212SOL     OW18268   0.978   1.910  11.261  0.9276  0.1349 -0.2463
 2212SOL    HW118269   0.986   1.968  11.336  1.1384  0.3522 -0.4375
 2212SOL    HW218270   0.918   1.841  11.292  0.3387  1.2938  1.1888
 2213SOL     OW18271   2.111   0.914   3.276 -0.4822  0.4958 -0.9257
 2213SOL    HW118272   2.022   0.940   3.297 -0.2721  1.0560 -0.7392
 2213SOL    HW218273   2.136   0.987   3.220  2.7463 -0.6496 -0.9667
 2214SOL     OW18274   1.401   3.504   1.137 -0.8009  0.4941 -0.0056
 2214SOL    HW118275   1.460   3.552   1.080  1.4394  0.1682  1.9890
 2214SOL    HW218276   1.423   3.415   1.108  0.6718  1.3571 -1.5482
 2215SOL     OW18277   0.955   1.774  12.061  0.1181 -0.0478 -0.3110
 2215SOL    HW118278   1.004   1.705  12.017 -1.7572 -1.7519  0.3009
 2215SOL    HW218279   0.866   1.740  12.053  0.0174  0.1368  0.0313
 2216SOL     OW18280   1.423   2.624   9.016 -0.0179 -0.5734  0.1855
 2216SOL    HW118281   1.480   2.667   8.952  1.8162 -2.2382  0.6707
 2216SOL    HW218282   1.487   2.553   9.025 -0.4305 -0.9810 -0.0745
 2217SOL     OW18283   3.275   3.777   5.402 -0.5352  0.2314 -0.5587
 2217SOL    HW118284   3.323   3.695   5.391 -0.2996  0.4121 -0.8894
 2217SOL    HW218285   3.263   3.795   5.495  1.1678  0.8087 -0.4490
 2218SOL     OW18286   2.867   0.793   5.150  0.2774  0.1892  0.2279
 2218SOL    HW118287   2.952   0.750   5.163 -0.0230 -0.2372  0.7600
 2218SOL    HW218288   2.826   0.782   5.235 -2.6698  4.2471 -0.6831
 2219SOL     OW18289   2.088   1.413  11.684 -0.1679 -0.1556 -0.6891
 2219SOL    HW118290   2.064   1.488  11.631 -1.2845 -0.9426 -1.2999
 2219SOL    HW218291   2.183   1.410  11.676 -0.0799  1.0985 -0.0805
 2220SOL     OW18292   2.803   2.502   9.538  0.3868 -0.1123  0.9509
 2220SOL    HW118293   2.767   2.420   9.505 -2.0081  0.5665  1.8764
 2220SOL    HW218294   2.890   2.477   9.568  0.1457 -1.4107  0.5975
 2221SOL     OW18295   3.775   1.535   9.446 -0.1824  0.3588  0.3578
 2221SOL    HW118296   3.772   1.561   9.354  1.6179  1.9561  0.7327
 2221SOL    HW218297   3.682   1.522   9.462  0.1360 -1.3757  0.7892
 2222SOL     OW18298   2.214   0.661   0.132 -0.2091 -0.1160 -0.0944
 2222SOL    HW118299   2.165   0.594   0.179  0.3851 -0.8372 -0.5035
 2222SOL    HW218300   2.238   0.608   0.056 -0.5085  0.2210 -0.4244
 2223SOL     OW18301   3.275   3.845  15.816  0.0615  0.1109 -0.4008
 2223SOL    HW118302   3.293   3.751  15.821  1.0993  0.2826 -0.8161
 2223SOL    HW218303   3.332   3.871  15.744  0.4898  0.3779  0.0282
 2224SOL     OW18304   1.841   0.664  13.254  0.3338 -0.4957  0.7113
 2224SOL    HW118305   1.772   0.667  13.320 -0.0930 -0.9647  0.2937
 2224SOL    HW218306   1.911   0.714  13.294  0.6042  0.6253 -1.1399
 2225SOL     OW18307   2.853   0.695   1.904  0.6423  0.2026 -0.2863
 2225SOL    HW118308   2.842   0.638   1.981 -1.6281  0.9802 -0.0391
 2225SOL    HW218309   2.844   0.784   1.936 -0.3272  0.3424 -0.9604
 2226SOL     OW18310   0.009   0.761   4.350  0.3959 -0.5220  0.0808
 2226SOL    HW118311   4.711   0.850   4.349  2.0591  0.1584  1.1225
 2226SOL    HW218312   0.100   0.777   4.374  0.1267  0.9463  0.1634
 2227SOL     OW18313   3.355   4.122   4.252 -0.5587  0.0055 -0.8440
 2227SOL    HW118314   3.364   4.169   4.335  0.0927 -2.2481  0.3506
 2227SOL    HW218315   3.339   4.192   4.189  4.9366  1.2771 -0.8562
 2228SOL     OW18316   3.259   0.722  17.242  1.0444 -0.1519  0.5958
 2228SOL    HW118317   3.340   0.738  17.195  0.3667  1.6176  0.0389
 2228SOL    HW218318   3.194   0.745  17.176  0.5141 -0.1480  1.1155
 2229SOL     OW18319   1.594   2.457   3.804  0.0827 -0.5263 -0.1516
 2229SOL    HW118320   1.663   2.394   3.785 -0.4717 -1.0920 -0.2873
 2229SOL    HW218321   1.639   2.539   3.785  0.6933 -0.7014  0.5404
 2230SOL     OW18322   2.489   1.321  10.360 -0.1823 -0.4737 -0.2753
 2230SOL    HW118323   2.501   1.301  10.267 -2.6511  2.2724 -1.1883
 2230SOL    HW218324   2.523   1.243  10.404 -1.5193 -1.6233 -1.2749
 2231SOL     OW18325   1.557   4.165   0.879 -0.2241  0.1061  0.2476
 2231SOL    HW118326   1.474   4.210   0.891  0.2848  1.3726 -0.9845
 2231SOL    HW218327   1.576   4.139   0.970  0.1774  0.3590  0.2385
 2232SOL     OW18328   0.627   0.648   3.261 -0.3614 -0.4107  1.1980
 2232SOL    HW118329   0.606   0.582   3.328 -0.8901  1.0263  2.4422
 2232SOL    HW218330   0.716   0.628   3.232 -1.2936 -2.2467 -0.3430
 2233SOL     OW18331   1.679   0.152   5.167  0.5711  0.1697  0.4904
 2233SOL    HW118332   1.718   0.157   5.254 -1.9000  1.4009  1.5525
 2233SOL    HW218333   1.673   0.244   5.139  0.3630  0.8704  2.8165
 2234SOL     OW18334   3.055   1.454  11.740  0.3399  0.5576  0.1305
 2234SOL    HW118335   3.050   1.549  11.736 -0.2503  0.4954 -0.6201
 2234SOL    HW218336   3.084   1.425  11.654  0.1890 -1.0527  0.6037
 2235SOL     OW18337   1.342   2.952   9.576 -0.5604  0.3096  0.7217
 2235SOL    HW118338   1.398   3.029   9.574  0.4476 -0.3914  1.6646
 2235SOL    HW218339   1.256   2.989   9.593 -0.8972 -0.1166 -0.0459
 2236SOL     OW18340   2.907   2.925   6.091 -0.4529  0.0160 -1.2633
 2236SOL    HW118341   2.930   3.015   6.066  0.8611  0.2252  0.6722
 2236SOL    HW218342   2.992   2.884   6.106 -0.5055  0.3066 -0.1322
 2237SOL     OW18343   3.034   4.584   3.835  0.0222 -0.0818  0.0895
 2237SOL    HW118344   3.100   4.631   3.783  1.7039 -2.7627 -0.2098
 2237SOL    HW218345   3.027   4.514   3.769  0.9071 -0.1264  0.0431
 2238SOL     OW18346   0.465   3.239   9.471 -0.0349 -0.2813 -0.1625
 2238SOL    HW118347   0.460   3.186   9.391  0.6700  1.2997 -1.2377
 2238SOL    HW218348   0.457   3.328   9.439 -1.7289 -0.8298 -1.2596
 2239SOL     OW18349   0.635   2.013   7.836  0.3050  0.3148  0.5650
 2239SOL    HW118350   0.615   2.106   7.845 -1.5833  0.0010 -0.4712
 2239SOL    HW218351   0.651   1.988   7.927 -1.4056 -1.1000  0.4907
 2240SOL     OW18352   0.016   1.110  17.699  0.2285 -0.0587  0.5345
 2240SOL    HW118353   0.078   1.090   0.019 -0.3559 -0.8520  0.8194
 2240SOL    HW218354   4.729   1.023  17.668  0.7083 -0.1044  0.2685
 2241SOL     OW18355   3.690   0.348   6.566  0.1366 -0.1563 -0.1397
 2241SOL    HW118356   3.605   0.348   6.521 -1.1137  3.6415  2.2180
 2241SOL    HW218357   3.745   0.277   6.533  1.1876 -0.7461  2.9046
 2242SOL     OW18358   2.641   0.502  14.944  0.1042  0.1305 -0.0775
 2242SOL    HW118359   2.677   0.443  15.010  1.3746  1.9596  0.8630
 2242SOL    HW218360   2.703   0.503  14.871 -0.3777  0.1091 -0.4887
 2243SOL     OW18361   1.866   0.131   6.018 -0.0208 -0.4232  0.0712
 2243SOL    HW118362   1.824   0.068   6.077  1.7916 -2.0164 -0.3696
 2243SOL    HW218363   1.838   0.216   6.054  1.2336  0.1795 -0.3945
 2244SOL     OW18364   0.424   2.705   3.577 -0.2226 -0.1060  0.1743
 2244SOL    HW118365   0.363   2.767   3.616 -2.0081 -0.3758 -2.1635
 2244SOL    HW218366   0.427   2.733   3.485 -3.4510 -2.4885 -0.6548
 2245SOL     OW18367   0.443   1.871   9.751  0.4653  0.6180 -0.0555
 2245SOL    HW118368   0.411   1.883   9.661  1.0237  0.2384 -0.3064
 2245SOL    HW218369   0.498   1.945   9.774  0.0479  0.3331  1.8790
 2246SOL     OW18370   4.521   1.065  12.983 -0.2327  0.5603  0.1089
 2246SOL    HW118371   4.454   1.087  12.917  1.9505  0.2929 -2.1904
 2246SOL    HW218372   4.560   1.152  12.991  1.8665 -0.5251  1.5883
 2247SOL     OW18373   1.573   1.499   3.744 -0.5743  0.3004  0.6917
 2247SOL    HW118374   1.481   1.508   3.769 -1.1811  0.1767 -1.4936
 2247SOL    HW218375   1.611   1.518   3.830 -0.9635 -0.3933  1.0146
 2248SOL     OW18376   1.859   2.278   0.212 -0.5166 -0.1687  0.5715
 2248SOL    HW118377   1.888   2.343   0.276 -0.0374 -0.0795  0.2697
 2248SOL    HW218378   1.788   2.330   0.175 -1.0038 -2.3427 -1.5018
 2249SOL     OW18379   3.645   0.537  10.353  0.0714 -0.0254 -0.5153
 2249SOL    HW118380   3.620   0.629  10.367  1.2984  0.5602 -2.0771
 2249SOL    HW218381   3.736   0.552  10.327 -0.1215  0.3465 -0.9988
 2250SOL     OW18382   0.677   1.587   4.713  0.0365  0.2070  0.2652
 2250SOL    HW118383   0.656   1.589   4.806  0.4339  1.8156  0.3358
 2250SOL    HW218384   0.607   1.534   4.674 -0.9476  3.0780 -1.8935
 2251SOL     OW18385   2.938   2.512  13.286  0.3422  0.4157  0.7074
 2251SOL    HW118386   2.979   2.461  13.355 -0.3946  0.5509  1.2407
 2251SOL    HW218387   2.961   2.602  13.306  0.5753  0.5889 -0.3269
 2252SOL     OW18388   2.397   1.932   3.757  0.6671 -0.2088 -0.2509
 2252SOL    HW118389   2.459   1.914   3.828 -0.8302 -1.3568  0.7692
 2252SOL    HW218390   2.362   1.849   3.724  1.8214 -0.8149  0.0440
 2253SOL     OW18391   2.768   4.033   2.824 -0.6133 -0.1599 -0.5486
 2253SOL    HW118392   2.753   4.125   2.847  1.1061 -0.1327  0.4849
 2253SOL    HW218393   2.717   4.028   2.743 -2.5542 -1.2462  0.7268
 2254SOL     OW18394   2.378   0.831   6.669 -0.0948 -0.2761 -0.3723
 2254SOL    HW118395   2.397   0.802   6.758  1.3280  1.3301 -0.1422
 2254SOL    HW218396   2.341   0.916   6.692  0.0975 -0.4107  0.4603
 2255SOL     OW18397   3.234   1.361   0.159 -0.3668  0.2745 -0.2497
 2255SOL    HW118398   3.197   1.413   0.230  1.1085  2.2506 -0.9289
 2255SOL    HW218399   3.298   1.321   0.219  0.6372  2.5348  0.1491
 2256SOL     OW18400   0.537   0.396   7.400 -0.2088  0.3656 -0.0873
 2256SOL    HW118401   0.555   0.394   7.306  1.4461 -0.1206  0.2318
 2256SOL    HW218402   0.441   0.392   7.396 -0.2395 -1.0854  2.1327
 2257SOL     OW18403   2.126   0.377   1.858  0.0209  0.2864 -0.3128
 2257SOL    HW118404   2.221   0.366   1.866  0.1879  0.8540 -1.4804
 2257SOL    HW218405   2.117   0.472   1.859 -0.2488  0.2125  3.5237
 2258SOL     OW18406   4.059   1.644   7.883 -0.0415 -0.5954  0.0055
 2258SOL    HW118407   3.975   1.622   7.923 -0.4460 -1.0139 -1.0875
 2258SOL    HW218408   4.118   1.661   7.957 -0.5607  1.3752 -0.0404
 2259SOL     OW18409   0.120   2.134   4.089  0.3703 -0.1035 -0.3880
 2259SOL    HW118410   0.036   2.163   4.125  0.0840  0.0339 -1.1690
 2259SOL    HW218411   0.174   2.213   4.079  0.2682 -0.2288 -1.9301
 2260SOL     OW18412   2.669   1.437  15.576  0.4938  0.5011  0.6014
 2260SOL    HW118413   2.652   1.404  15.488 -2.8391  1.5897  0.8619
 2260SOL    HW218414   2.760   1.407  15.587  0.7718  1.4440  0.8927
 2261SOL     OW18415   2.152   4.111   4.835  0.1547 -0.0841 -0.0455
 2261SOL    HW118416   2.170   4.195   4.876  1.5790 -0.3716 -0.0729
 2261SOL    HW218417   2.059   4.091   4.850 -0.3872  1.1759 -1.6841
 2262SOL     OW18418   1.169   4.473   7.017 -0.1454  0.4782 -0.5027
 2262SOL    HW118419   1.239   4.453   7.078  1.2680  0.7300 -2.0360
 2262SOL    HW218420   1.124   4.543   7.065  1.1746  0.0268  1.3500
 2263SOL     OW18421   4.237   2.779  16.593 -0.2480  0.1024 -0.2042
 2263SOL    HW118422   4.168   2.792  16.657  1.0781 -0.9894  1.4257
 2263SOL    HW218423   4.204   2.802  16.506  0.5032 -1.5998 -0.9386
 2264SOL     OW18424   1.900   2.190  15.263 -0.6088 -0.1878  0.0253
 2264SOL    HW118425   1.925   2.136  15.337  1.4571  0.7524  0.0075
 2264SOL    HW218426   1.815   2.215  15.299  0.1152 -0.1656  1.7220
 2265SOL     OW18427   2.616   3.218   8.301  0.5198 -0.6095 -0.5091
 2265SOL    HW118428   2.672   3.152   8.342  0.3203 -0.0577  0.6784
 2265SOL    HW218429   2.673   3.291   8.279 -0.3620  1.0273  2.6059
 2266SOL     OW18430   4.033   2.221  15.864 -0.0322 -0.5083 -0.1489
 2266SOL    HW118431   4.030   2.261  15.951 -1.0771  1.5178 -1.1151
 2266SOL    HW218432   4.109   2.167  15.886  0.0973 -0.0622  0.4963
 2267SOL     OW18433   4.120   4.419   9.088  0.2192 -0.0844 -0.0408
 2267SOL    HW118434   4.112   4.324   9.098 -0.2068 -0.3852 -3.2608
 2267SOL    HW218435   4.216   4.417   9.091  0.2020  0.3818  0.7280
 2268SOL     OW18436   1.285   0.040   4.240  0.2384  0.2133  0.1724
 2268SOL    HW118437   1.317   0.128   4.217 -0.4044  0.3747 -0.1043
 2268SOL    HW218438   1.368   4.730   4.243  0.0715 -0.0942 -0.2057
 2269SOL     OW18439   1.979   2.871   5.454 -0.6279 -0.3535 -0.1284
 2269SOL    HW118440   2.061   2.846   5.496  0.0832  1.1447 -0.6536
 2269SOL    HW218441   1.919   2.899   5.524 -1.2564 -0.2722 -0.7008
 2270SOL     OW18442   0.401   3.048   2.016 -0.3308 -0.5508  0.2478
 2270SOL    HW118443   0.438   3.035   2.103 -0.3301  0.7082  0.4429
 2270SOL    HW218444   0.331   3.109   2.040 -1.5653 -1.3510 -1.2853
 2271SOL     OW18445   0.077   3.928  12.266 -0.3121 -0.3013  0.1945
 2271SOL    HW118446   0.137   3.859  12.295 -1.6023 -1.2429  0.6298
 2271SOL    HW218447   0.004   3.898  12.321  0.0216  0.4345  1.0396
 2272SOL     OW18448   1.312   1.211   4.161  0.0504 -0.3281 -0.1945
 2272SOL    HW118449   1.232   1.246   4.122 -0.7444 -1.7618  0.1471
 2272SOL    HW218450   1.302   1.234   4.254  0.3263 -1.3293  0.0873
 2273SOL     OW18451   2.512   2.061   0.216 -0.1568 -0.2549 -0.5632
 2273SOL    HW118452   2.605   2.068   0.194  0.8283 -1.8847  2.9830
 2273SOL    HW218453   2.471   2.132   0.166 -0.4237 -0.0104  0.0016
 2274SOL     OW18454   0.055   1.586   5.200 -0.3427 -0.7297 -0.4412
 2274SOL    HW118455   0.034   1.627   5.284 -0.1310 -0.7021 -0.4028
 2274SOL    HW218456   0.126   1.524   5.217  0.6626  0.7951  0.8468
 2275SOL     OW18457   1.594   3.365  11.668 -0.4760  0.4956 -0.5511
 2275SOL    HW118458   1.608   3.446  11.619 -1.6823  1.7457  1.1635
 2275SOL    HW218459   1.681   3.327  11.660 -0.9442 -0.5153 -0.9557
 2276SOL     OW18460   3.245   4.707   2.529 -0.0027 -0.1011 -0.2160
 2276SOL    HW118461   3.248   4.630   2.586  1.5688  0.7917  0.9045
 2276SOL    HW218462   3.275   4.664   2.449 -1.7505 -2.0719  0.1987
 2277SOL     OW18463   4.210   3.886   5.324  0.3131  0.3596  0.0430
 2277SOL    HW118464   4.246   3.963   5.280  0.3921  0.5207  0.3928
 2277SOL    HW218465   4.127   3.919   5.359  0.5419 -1.1503  2.0003
 2278SOL     OW18466   1.108   1.531   2.780  0.3880  0.1679 -0.6686
 2278SOL    HW118467   1.168   1.598   2.747 -1.0780  1.7928 -0.0502
 2278SOL    HW218468   1.149   1.451   2.749  0.0510 -1.2681  2.5643
 2279SOL     OW18469   3.506   1.366  13.380 -0.6467 -0.0031  0.1065
 2279SOL    HW118470   3.577   1.409  13.333 -0.3287  1.3369  1.8265
 2279SOL    HW218471   3.470   1.437  13.433  0.6953  0.3217  0.5830
 2280SOL     OW18472   1.819   3.473   2.071  0.0647 -0.4377  0.2314
 2280SOL    HW118473   1.882   3.544   2.087 -0.9416  0.7054 -0.8701
 2280SOL    HW218474   1.856   3.433   1.993  0.0004  0.4941 -0.2751
 2281SOL     OW18475   2.634   0.910   8.279  0.7055  0.4429  0.1637
 2281SOL    HW118476   2.566   0.845   8.296 -1.0074  2.1280 -0.2290
 2281SOL    HW218477   2.588   0.965   8.215 -0.4713 -0.7742 -0.0421
 2282SOL     OW18478   2.351   4.142   2.632 -0.0964 -0.0837 -0.2391
 2282SOL    HW118479   2.289   4.088   2.583  2.5670 -1.8722 -1.6159
 2282SOL    HW218480   2.293   4.193   2.689 -0.0655 -0.3214  0.0013
 2283SOL     OW18481   1.193   2.056   7.663  0.3008 -0.2348 -0.2945
 2283SOL    HW118482   1.169   1.985   7.721 -0.0537  0.3076  0.2268
 2283SOL    HW218483   1.138   2.037   7.586 -1.5370  1.7391  0.5115
 2284SOL     OW18484   0.721   2.990  12.865  0.2183 -0.2079 -0.0918
 2284SOL    HW118485   0.646   3.049  12.870 -0.8786 -1.6015 -0.0816
 2284SOL    HW218486   0.693   2.945  12.785  1.8467  0.7760 -1.2178
 2285SOL     OW18487   2.690   4.231   7.674 -0.4092 -0.3189 -0.4016
 2285SOL    HW118488   2.637   4.261   7.747  2.1883 -2.6026  2.4075
 2285SOL    HW218489   2.712   4.142   7.700 -3.4028 -0.2387  2.3474
 2286SOL     OW18490   0.259   0.293   5.962  0.0853  0.1075 -0.5930
 2286SOL    HW118491   0.338   0.286   5.908  0.6969  2.6030 -0.0573
 2286SOL    HW218492   0.289   0.242   6.036 -0.2902 -0.5977 -0.9303
 2287SOL     OW18493   3.109   2.881  11.880  0.1117  0.2956  0.1332
 2287SOL    HW118494   3.154   2.800  11.858  0.7379  1.5857 -3.2972
 2287SOL    HW218495   3.170   2.944  11.843 -1.3130 -0.2596 -3.1807
 2288SOL     OW18496   4.737   2.396   4.201 -0.3083 -0.5102 -0.4710
 2288SOL    HW118497   4.719   2.349   4.283 -0.7220  2.2666  1.0426
 2288SOL    HW218498   4.734   2.488   4.227 -1.8228 -0.7842  0.3493
 2289SOL     OW18499   4.583   0.944   3.555 -0.5264 -0.4255 -1.0158
 2289SOL    HW118500   4.518   0.874   3.554  1.2413 -2.0676 -0.3387
 2289SOL    HW218501   4.553   0.996   3.481  1.5433  2.6979  0.3585
 2290SOL     OW18502   3.468   4.369  15.139 -0.2742  0.0940 -0.2426
 2290SOL    HW118503   3.495   4.448  15.187 -0.1052 -0.4121  0.5001
 2290SOL    HW218504   3.504   4.396  15.055  0.9226 -0.9514 -0.0524
 2291SOL     OW18505   1.217   3.390   7.748  0.2436  0.0689  0.4357
 2291SOL    HW118506   1.195   3.409   7.657  0.3481  0.5240  0.5075
 2291SOL    HW218507   1.150   3.439   7.796  0.8302  0.8226  0.4754
 2292SOL     OW18508   1.026   4.509   1.901 -0.4410  0.3634  0.3668
 2292SOL    HW118509   1.016   4.603   1.888 -3.0070 -0.1497 -1.5495
 2292SOL    HW218510   0.975   4.471   1.830 -0.1475 -0.3564  0.5434
 2293SOL     OW18511   2.971   1.920  10.937  0.2448 -0.1475 -0.0773
 2293SOL    HW118512   2.926   2.005  10.938 -1.3032 -0.9678  0.8300
 2293SOL    HW218513   3.061   1.951  10.935  0.7319 -1.5415  0.3349
 2294SOL     OW18514   1.258   0.613   1.301  0.0358  0.4324 -0.1775
 2294SOL    HW118515   1.302   0.581   1.222  0.1495  0.0901  0.0235
 2294SOL    HW218516   1.332   0.587   1.356 -1.7126 -1.7973  1.1555
 2295SOL     OW18517   0.324   3.213  12.049 -0.3059 -0.5779  0.4733
 2295SOL    HW118518   0.312   3.129  12.005  3.8078 -1.0277  0.1785
 2295SOL    HW218519   0.290   3.271  11.980 -1.2712 -2.5319 -0.7024
 2296SOL     OW18520   3.980   0.486  12.034  0.1473  0.0902 -0.3031
 2296SOL    HW118521   3.950   0.575  12.052 -0.6509 -0.0934 -0.7394
 2296SOL    HW218522   4.051   0.509  11.975 -0.4188  0.3108 -0.8970
 2297SOL     OW18523   2.883   1.924   9.238 -0.2768 -0.7626 -0.0353
 2297SOL    HW118524   2.791   1.927   9.261  0.1372 -0.0469  1.5188
 2297SOL    HW218525   2.899   1.830   9.247  0.6653 -0.5143  0.9369
 2298SOL     OW18526   1.485   0.935   3.255 -0.2558 -0.1762  0.3605
 2298SOL    HW118527   1.392   0.914   3.256  0.2763 -2.5126  1.1985
 2298SOL    HW218528   1.516   0.911   3.167 -3.2328 -0.4021 -0.6258
 2299SOL     OW18529   0.566   1.684  15.102  0.3528 -0.2364 -0.2654
 2299SOL    HW118530   0.533   1.605  15.145 -1.3090  0.0782 -0.9756
 2299SOL    HW218531   0.654   1.654  15.126  0.8487 -0.5149 -2.4137
 2300SOL     OW18532   3.629   0.785   4.689  0.2457 -0.5458 -0.0583
 2300SOL    HW118533   3.719   0.815   4.683 -0.6443  1.8607 -1.6148
 2300SOL    HW218534   3.624   0.738   4.772 -1.3940  1.8304  1.1850
 2301SOL     OW18535   2.303   3.092   6.549 -0.7597 -0.2910  0.0166
 2301SOL    HW118536   2.276   3.064   6.462  1.4206  0.2632 -0.8576
 2301SOL    HW218537   2.349   3.017   6.586 -3.2232 -0.6290  2.3819
 2302SOL     OW18538   0.707   0.330  16.388 -0.0832  0.3613  0.1402
 2302SOL    HW118539   0.768   0.393  16.427  1.6029 -0.8099 -0.6320
 2302SOL    HW218540   0.693   0.369  16.302  1.5086 -0.4546 -0.4826
 2303SOL     OW18541   4.139   1.254   1.667  0.4527 -0.2742  0.0130
 2303SOL    HW118542   4.179   1.204   1.596  1.0803  1.6110 -0.9507
 2303SOL    HW218543   4.103   1.334   1.628  0.4559 -0.4214 -0.2882
 2304SOL     OW18544   4.505   4.541   1.733  0.7336  0.4596  0.2384
 2304SOL    HW118545   4.583   4.513   1.686  0.0579  1.7563 -1.6699
 2304SOL    HW218546   4.538   4.599   1.801 -2.3178  1.6349  0.7252
 2305SOL     OW18547   3.319   0.204   3.099 -0.3100 -0.0589 -0.1276
 2305SOL    HW118548   3.310   0.248   3.184  0.5668  1.0560 -0.6173
 2305SOL    HW218549   3.315   0.111   3.120 -1.9872 -0.0468 -0.3869
 2306SOL     OW18550   2.216   3.434   8.511 -0.3474  0.2198 -0.1158
 2306SOL    HW118551   2.185   3.437   8.421  0.4455 -0.1098 -0.4043
 2306SOL    HW218552   2.137   3.463   8.557  0.2220  0.9037  0.4336
 2307SOL     OW18553   1.515   4.340   8.206  0.3701 -0.1495  0.0459
 2307SOL    HW118554   1.468   4.378   8.132 -0.7369 -0.8549  0.3778
 2307SOL    HW218555   1.555   4.417   8.245  2.8689 -0.0054 -2.7792
 2308SOL     OW18556   1.830   0.767   2.677 -0.1482  0.0682  0.0415
 2308SOL    HW118557   1.760   0.754   2.741 -1.6202  0.7188 -1.4241
 2308SOL    HW218558   1.846   0.862   2.681  0.9354 -0.1901  2.2216
 2309SOL     OW18559   4.290   2.370   3.361  0.2594  0.0071 -0.5245
 2309SOL    HW118560   4.352   2.385   3.432 -0.4506 -0.1394  0.1193
 2309SOL    HW218561   4.285   2.275   3.372 -1.1343 -0.2153 -2.9701
 2310SOL     OW18562   4.652   1.310  12.683  0.7138 -0.1897 -0.0174
 2310SOL    HW118563   4.710   1.382  12.657  1.6614 -0.4831  1.2594
 2310SOL    HW218564   4.663   1.248  12.611 -0.8090 -2.0077  1.3118
 2311SOL     OW18565   2.725   2.992   4.418  0.4030 -0.6748  0.3448
 2311SOL    HW118566   2.731   3.020   4.509  3.6504  0.1425 -0.1139
 2311SOL    HW218567   2.723   2.896   4.423  1.4598 -0.7056  0.0714
 2312SOL     OW18568   4.375   0.781   5.349  0.2422  0.3420 -0.1088
 2312SOL    HW118569   4.408   0.779   5.439  1.1455 -1.8374 -0.4811
 2312SOL    HW218570   4.294   0.831   5.360  0.9476  1.0266  1.9757
 2313SOL     OW18571   1.642   3.038   8.550  0.8739  0.1615  0.0851
 2313SOL    HW118572   1.613   3.094   8.622  3.9466 -0.7012  2.0224
 2313SOL    HW218573   1.682   3.103   8.492 -1.5847  0.3353 -1.4093
 2314SOL     OW18574   1.680   1.456   5.438  0.2450  0.6730  0.2898
 2314SOL    HW118575   1.625   1.415   5.505  0.3384 -0.3596 -0.2604
 2314SOL    HW218576   1.767   1.451   5.478  0.1851 -1.9553  0.0945
 2315SOL     OW18577   4.419   1.483  12.526  0.3009  0.1045  0.4469
 2315SOL    HW118578   4.433   1.562  12.473 -0.2632 -0.6817 -0.8779
 2315SOL    HW218579   4.508   1.450  12.535  0.3633 -0.2595 -1.4147
 2316SOL     OW18580   0.590   3.987   2.963  0.5356  0.3647  0.1028
 2316SOL    HW118581   0.565   4.040   3.039  0.7551  0.0950  0.3626
 2316SOL    HW218582   0.569   4.052   2.897 -0.0743 -0.8477 -0.8955
 2317SOL     OW18583   4.194   3.445   7.082 -0.0831 -0.4098  0.4668
 2317SOL    HW118584   4.281   3.444   7.042  0.8631 -1.3699  2.5805
 2317SOL    HW218585   4.177   3.538   7.097 -0.1811 -0.6683  1.9592
 2318SOL     OW18586   3.772   1.008   5.950  0.0719  0.4362  0.4611
 2318SOL    HW118587   3.767   0.917   5.981 -0.2064  0.2188 -0.2146
 2318SOL    HW218588   3.814   0.983   5.867  2.4172 -1.2463  2.1481
 2319SOL     OW18589   2.636   1.816   2.133 -0.0477 -0.1159  0.2964
 2319SOL    HW118590   2.691   1.779   2.202  0.4951 -1.6370 -0.9555
 2319SOL    HW218591   2.687   1.895   2.113  1.0621 -0.2753  2.5925
 2320SOL     OW18592   1.268   3.261   4.426 -0.5038  0.4373  0.1889
 2320SOL    HW118593   1.311   3.319   4.363  1.7244 -2.1735 -0.6566
 2320SOL    HW218594   1.328   3.273   4.500  1.0629 -1.3533 -0.7816
 2321SOL     OW18595   1.643   2.836   5.868  0.1678 -0.3518 -0.7801
 2321SOL    HW118596   1.630   2.744   5.845  1.1706 -1.2874  2.3755
 2321SOL    HW218597   1.561   2.882   5.851  1.2966  2.2500  0.7880
 2322SOL     OW18598   0.084   4.555  14.998  0.5304 -0.4594  0.4717
 2322SOL    HW118599   4.736   4.522  15.023  0.4897 -2.1995 -1.9399
 2322SOL    HW218600   0.052   4.617  14.932  1.7271  1.2266  1.4790
 2323SOL     OW18601   2.822   3.567  14.004 -0.6521 -0.2058  0.8212
 2323SOL    HW118602   2.731   3.585  13.979 -0.8715 -1.5932  0.5944
 2323SOL    HW218603   2.829   3.475  13.979 -2.1120  0.4731 -2.1713
 2324SOL     OW18604   3.025   4.289   6.729  0.1055 -0.3221 -0.5485
 2324SOL    HW118605   2.982   4.204   6.722 -0.6084 -0.0102 -0.0277
 2324SOL    HW218606   2.955   4.335   6.776  0.2675 -1.0843  0.4297
 2325SOL     OW18607   2.709   1.086   5.462 -0.1510 -0.7362 -0.3283
 2325SOL    HW118608   2.777   1.141   5.501 -1.3649 -0.2182  1.0419
 2325SOL    HW218609   2.746   1.082   5.374 -1.6240  1.4497 -1.0362
 2326SOL     OW18610   0.257   3.902   6.290 -0.1901  0.3332 -0.2924
 2326SOL    HW118611   0.252   3.849   6.369  0.7084  1.3411  0.4404
 2326SOL    HW218612   0.243   3.990   6.326 -1.0927  0.7002 -1.5385
 2327SOL     OW18613   1.903   0.549   4.369 -0.0902  0.4199 -0.2591
 2327SOL    HW118614   1.839   0.615   4.395  3.2918  3.8674 -0.7760
 2327SOL    HW218615   1.884   0.493   4.444  0.2338 -0.0790 -0.5522
 2328SOL     OW18616   1.273   1.924  13.986 -0.4348  0.3694 -0.0745
 2328SOL    HW118617   1.277   1.912  14.081 -1.5212  1.4487  0.0947
 2328SOL    HW218618   1.223   2.004  13.975 -0.0779  0.5293 -0.5696
 2329SOL     OW18619   3.830   1.572   8.026  0.0389 -0.5261 -0.1013
 2329SOL    HW118620   3.759   1.569   7.962 -1.4295 -2.0058  1.5988
 2329SOL    HW218621   3.781   1.602   8.103  0.8527  1.0470 -0.2161
 2330SOL     OW18622   4.453   0.052  16.155 -0.0335  0.8532  0.1407
 2330SOL    HW118623   4.481   0.001  16.231 -0.7134  0.8933  0.4172
 2330SOL    HW218624   4.536   0.100  16.146 -0.2594  1.4364  1.2093
 2331SOL     OW18625   0.294   0.899  14.737 -0.1805 -0.1756  0.4795
 2331SOL    HW118626   0.331   0.971  14.687  0.5703  0.1472  1.5088
 2331SOL    HW218627   0.211   0.881  14.691 -0.1643 -0.4199  0.5471
 2332SOL     OW18628   1.147   0.716   0.009  0.1163  0.0141  0.1373
 2332SOL    HW118629   1.223   0.773   0.023 -0.9724  1.4379  0.2508
 2332SOL    HW218630   1.077   0.757   0.059 -1.1804  1.8314 -3.1561
 2333SOL     OW18631   2.129   2.699   9.724  0.1255 -0.0255  0.1747
 2333SOL    HW118632   2.155   2.616   9.685  0.3244  0.0009  0.2500
 2333SOL    HW218633   2.204   2.748   9.690 -0.8033  0.7992 -0.6991
 2334SOL     OW18634   1.987   1.825   1.628  0.1870  0.0796 -0.3480
 2334SOL    HW118635   1.923   1.881   1.584 -0.5018  0.4008  1.0641
 2334SOL    HW218636   2.015   1.770   1.555  0.5993 -1.3040  0.8486
 2335SOL     OW18637   1.585   1.910   9.850  0.0726 -0.4236  0.1864
 2335SOL    HW118638   1.492   1.931   9.837  0.3891  1.1001  0.3998
 2335SOL    HW218639   1.577   1.834   9.908 -3.5648  0.9413  1.5265
 2336SOL     OW18640   2.452   3.677   5.522  0.4987  0.4114  0.4309
 2336SOL    HW118641   2.473   3.592   5.562  0.2676  0.5589  0.8661
 2336SOL    HW218642   2.368   3.690   5.566  0.9272 -0.4255  1.5107
 2337SOL     OW18643   3.488   1.423  10.639  0.1904  0.1154  0.1737
 2337SOL    HW118644   3.398   1.393  10.622 -0.3620  1.1711  1.1756
 2337SOL    HW218645   3.516   1.396  10.727 -1.4637 -1.6896  0.1342
 2338SOL     OW18646   3.430   2.811   3.966  0.1859 -0.3635  0.0885
 2338SOL    HW118647   3.429   2.738   4.028 -0.9363 -0.2717  0.1715
 2338SOL    HW218648   3.509   2.858   3.993 -0.1860  0.1906  0.2262
 2339SOL     OW18649   0.119   4.179   4.752  0.2940  0.4671  0.3467
 2339SOL    HW118650   0.109   4.172   4.657 -0.7650  1.7421  0.3812
 2339SOL    HW218651   0.148   4.092   4.781 -0.5248  0.3374  0.7848
 2340SOL     OW18652   1.640   1.304   5.047 -0.0482 -0.3384  0.3770
 2340SOL    HW118653   1.692   1.384   5.050 -1.1740  0.3846  0.4979
 2340SOL    HW218654   1.589   1.314   4.967 -1.3425 -0.4043  1.1862
 2341SOL     OW18655   1.914   2.288   8.211  0.6487  0.0070  0.3047
 2341SOL    HW118656   2.000   2.256   8.240 -0.1488 -2.2461  0.1764
 2341SOL    HW218657   1.939   2.362   8.156 -1.6910  0.3747 -0.2442
 2342SOL     OW18658   3.939   1.881   5.942  0.6139  0.2983  0.5758
 2342SOL    HW118659   3.939   1.838   5.856 -0.6714 -0.0409  0.7354
 2342SOL    HW218660   4.015   1.937   5.952  0.7418  0.3727 -0.7812
 2343SOL     OW18661   3.359   4.573   3.891  0.0454  0.0950  0.0200
 2343SOL    HW118662   3.450   4.592   3.870  0.4680 -0.8268  1.0223
 2343SOL    HW218663   3.331   4.654   3.935 -1.2906  0.3416 -1.2665
 2344SOL     OW18664   1.280   1.986   3.333 -0.1683  0.1907  0.4220
 2344SOL    HW118665   1.280   2.081   3.323 -0.1625  0.2316  0.8207
 2344SOL    HW218666   1.289   1.966   3.240 -0.3661  0.8646  0.2584
 2345SOL     OW18667   2.813   2.273   6.298 -0.2562  0.7387  0.1576
 2345SOL    HW118668   2.819   2.362   6.333 -0.0691  0.2967  1.2615
 2345SOL    HW218669   2.749   2.285   6.228 -1.2460  2.1225  1.2969
 2346SOL     OW18670   1.985   2.495   5.531 -0.2088  0.1678 -0.0630
 2346SOL    HW118671   1.911   2.434   5.529  1.0018 -1.3199  0.0705
 2346SOL    HW218672   1.935   2.576   5.521 -0.6960  0.0558  1.3413
 2347SOL     OW18673   0.869   2.580   5.773 -0.4871 -0.0374  0.5496
 2347SOL    HW118674   0.789   2.623   5.742 -0.0623 -0.3468 -0.9705
 2347SOL    HW218675   0.933   2.609   5.709 -0.6238 -1.4517 -0.2202
 2348SOL     OW18676   4.723   0.885   1.670  0.0443  0.2340  0.4416
 2348SOL    HW118677   4.725   0.917   1.580  2.1050  0.3241  0.5143
 2348SOL    HW218678   0.042   0.951   1.708 -0.0488  1.0312 -0.8006
 2349SOL     OW18679   3.239   3.779   5.675 -0.3800  0.1641 -0.3545
 2349SOL    HW118680   3.239   3.868   5.712 -3.9994 -0.3025  0.7283
 2349SOL    HW218681   3.150   3.757   5.702  0.1019  0.1737  1.2719
 2350SOL     OW18682   1.115   3.054   9.331 -0.2765  0.0067  0.0070
 2350SOL    HW118683   1.090   3.046   9.239 -1.7035  1.1414  0.3060
 2350SOL    HW218684   1.143   2.966   9.358  0.4083  0.0436 -0.5719
 2351SOL     OW18685   1.536   0.053  13.631 -0.2236  0.2538 -0.1385
 2351SOL    HW118686   1.506   0.137  13.665 -0.1232  0.4531 -0.5394
 2351SOL    HW218687   1.570   0.072  13.543  0.6740 -1.8357 -0.2439
 2352SOL     OW18688   0.183   3.776  15.316  0.0959  0.2509  0.4317
 2352SOL    HW118689   0.184   3.835  15.240  0.8452  0.0830  0.3070
 2352SOL    HW218690   0.176   3.694  15.267  1.9624 -0.9117  2.1148
 2353SOL     OW18691   4.538   2.716   3.452 -0.2976 -0.2381 -0.1206
 2353SOL    HW118692   4.570   2.637   3.408  0.0947 -1.0968  1.6966
 2353SOL    HW218693   4.551   2.780   3.382 -0.7363 -0.6726 -0.6035
 2354SOL     OW18694   2.685   3.592   8.147 -0.4910 -0.7731 -0.1181
 2354SOL    HW118695   2.670   3.563   8.057 -0.2945  0.8845 -0.6749
 2354SOL    HW218696   2.764   3.548   8.178 -0.2975 -0.7251 -0.5490
 2355SOL     OW18697   4.512   1.458   1.348 -0.2664 -0.0846 -0.2857
 2355SOL    HW118698   4.594   1.507   1.336 -0.0036 -0.8185 -1.3814
 2355SOL    HW218699   4.499   1.450   1.443  0.0933  1.2751 -0.1048
 2356SOL     OW18700   4.115   1.560   7.315 -0.2687 -0.0569  0.1687
 2356SOL    HW118701   4.148   1.521   7.234  0.5154 -0.7314  0.8157
 2356SOL    HW218702   4.188   1.616   7.341  1.2018 -2.2135  0.7047
 2357SOL     OW18703   4.102   1.927   6.719  0.3814 -0.3146  0.0285
 2357SOL    HW118704   4.153   2.000   6.685  0.1533 -0.8977 -1.5640
 2357SOL    HW218705   4.065   1.974   6.794 -0.2916 -0.2512 -0.3360
 2358SOL     OW18706   3.442   2.418   5.142 -0.1617  0.3794 -0.0363
 2358SOL    HW118707   3.350   2.414   5.116 -0.4348  0.5945  0.9253
 2358SOL    HW218708   3.484   2.406   5.056 -0.5286  1.4614 -0.3663
 2359SOL     OW18709   4.070   0.246   2.554  0.1238  0.4892  0.0817
 2359SOL    HW118710   4.002   0.185   2.584  1.2725 -1.1242 -0.5747
 2359SOL    HW218711   4.031   0.329   2.581  0.6189  0.6657  0.2579
 2360SOL     OW18712   3.708   0.053   2.475 -0.0141  0.4325 -0.0690
 2360SOL    HW118713   3.639   0.083   2.533 -0.1795 -3.4339  1.7737
 2360SOL    HW218714   3.751   4.725   2.530 -3.4986  0.6621  2.8529
 2361SOL     OW18715   1.659   0.532   5.593 -0.1175  0.1723 -0.6763
 2361SOL    HW118716   1.667   0.467   5.524  0.7850  1.0637 -1.4160
 2361SOL    HW218717   1.738   0.514   5.644  0.1805  0.7491 -0.9256
 2362SOL     OW18718   3.847   2.078   8.798  0.2101  0.4633 -0.6742
 2362SOL    HW118719   3.755   2.089   8.822  0.3586 -0.5395  0.3578
 2362SOL    HW218720   3.834   2.031   8.716  1.8939 -1.7648  0.3504
 2363SOL     OW18721   1.121   2.982   6.604 -0.2242  0.2703 -0.2457
 2363SOL    HW118722   1.132   2.887   6.601  0.0053  0.3077 -0.5811
 2363SOL    HW218723   1.187   3.012   6.542  0.1726 -0.0673  0.0166
 2364SOL     OW18724   4.667   4.351  14.726 -0.1280  0.4632 -0.3291
 2364SOL    HW118725   0.003   4.412  14.724 -0.5886  1.0452  0.6530
 2364SOL    HW218726   4.678   4.301  14.645 -0.3659  1.0695 -0.7369
 2365SOL     OW18727   3.678   1.925   1.671 -0.0533 -0.4634 -0.0577
 2365SOL    HW118728   3.734   1.983   1.619 -0.3901 -0.3298 -0.2649
 2365SOL    HW218729   3.632   1.988   1.726 -0.7216  0.5872 -1.8198
 2366SOL     OW18730   1.034   3.584   6.311 -0.2331 -0.1630  0.8348
 2366SOL    HW118731   1.118   3.630   6.306  0.0974 -0.8290  0.3232
 2366SOL    HW218732   1.045   3.527   6.387  0.4931 -2.2948 -0.8758
 2367SOL     OW18733   3.737   4.201   3.325  0.2424  0.2265 -0.1658
 2367SOL    HW118734   3.671   4.138   3.296  0.3071 -1.2259  2.8664
 2367SOL    HW218735   3.693   4.235   3.402  0.0871  0.7519 -0.4876
 2368SOL     OW18736   4.145   4.544   4.482 -0.3749 -0.1524 -0.0343
 2368SOL    HW118737   4.211   4.610   4.458 -0.5580  0.4346  1.0462
 2368SOL    HW218738   4.091   4.533   4.404  0.4473 -3.6531 -0.0975
 2369SOL     OW18739   4.023   3.211   3.474 -0.1968  0.1390 -0.3309
 2369SOL    HW118740   4.085   3.169   3.534  0.6749  1.4789 -0.3111
 2369SOL    HW218741   4.062   3.298   3.471  2.6370 -1.0622  1.5574
 2370SOL     OW18742   4.372   4.124  16.248  0.2838  0.4483  0.3938
 2370SOL    HW118743   4.358   4.213  16.279  1.3496  0.1338  1.7766
 2370SOL    HW218744   4.281   4.099  16.233  0.2926  0.2130  0.7040
 2371SOL     OW18745   0.723   2.512   8.375  0.0139  0.0702 -0.0892
 2371SOL    HW118746   0.658   2.579   8.355  0.2818 -0.4221 -2.6251
 2371SOL    HW218747   0.805   2.554   8.347 -1.3917  0.9846 -2.7316
 2372SOL     OW18748   2.752   2.302  17.493  0.1901  0.1153  0.2669
 2372SOL    HW118749   2.668   2.286  17.450  1.4562 -1.6211 -1.6002
 2372SOL    HW218750   2.783   2.211  17.498  0.7839  0.1283 -3.0193
 2373SOL     OW18751   3.893   1.721   2.230 -0.7561  0.9027 -0.0251
 2373SOL    HW118752   3.950   1.744   2.303 -0.3717  2.1625 -0.7325
 2373SOL    HW218753   3.961   1.667   2.188 -0.3189  1.5170 -0.1085
 2374SOL     OW18754   2.303   2.329  16.082 -0.0147  0.1640  0.3493
 2374SOL    HW118755   2.221   2.308  16.037 -1.0360  0.6153  2.0215
 2374SOL    HW218756   2.369   2.355  16.017 -2.2795 -0.5195 -2.2323
 2375SOL     OW18757   1.033   0.118  10.798  0.8207  0.0004 -0.2559
 2375SOL    HW118758   0.977   0.051  10.837  0.2041  0.4807 -0.3101
 2375SOL    HW218759   1.051   0.072  10.716 -1.5750 -2.9588  0.8654
 2376SOL     OW18760   3.499   4.066   3.412 -0.1714 -0.0166 -0.3426
 2376SOL    HW118761   3.458   4.150   3.391  0.9999  1.1263  1.9706
 2376SOL    HW218762   3.432   3.999   3.400  1.5780 -1.7363 -0.4866
 2377SOL     OW18763   3.338   4.580   5.692  0.0302  0.5787 -0.0558
 2377SOL    HW118764   3.301   4.642   5.755 -0.6194 -0.2294  0.3650
 2377SOL    HW218765   3.306   4.620   5.611  0.4565 -0.6917 -0.8512
 2378SOL     OW18766   0.552   0.781   2.788  0.0906  0.3939 -0.0002
 2378SOL    HW118767   0.525   0.726   2.862 -0.2416 -0.2589 -0.6054
 2378SOL    HW218768   0.505   0.727   2.724 -0.2199  2.8783 -1.8696
 2379SOL     OW18769   4.482   2.902   5.493  0.1631 -0.1362 -0.3829
 2379SOL    HW118770   4.457   2.959   5.566 -0.0139 -0.9349  0.1808
 2379SOL    HW218771   4.400   2.903   5.444 -0.6974  1.5437  1.0985
 2380SOL     OW18772   0.921   1.779   3.647  0.5812 -0.6363  0.2502
 2380SOL    HW118773   0.978   1.788   3.724  0.8761  1.3484 -0.1935
 2380SOL    HW218774   0.967   1.811   3.570  1.3764 -0.0997  0.9443
 2381SOL     OW18775   1.675   2.117  15.647 -0.0309 -0.0965  0.4999
 2381SOL    HW118776   1.618   2.050  15.686 -0.5425  1.4376  2.3712
 2381SOL    HW218777   1.616   2.164  15.588  0.9979 -3.2390 -2.9967
 2382SOL     OW18778   2.186   2.333  11.910  0.1099  0.3341 -0.1866
 2382SOL    HW118779   2.195   2.352  11.817  1.3435  0.7148  0.0026
 2382SOL    HW218780   2.123   2.404  11.925 -0.8955 -0.8464  1.2002
 2383SOL     OW18781   4.038   0.252   8.605 -0.0082 -0.2085 -0.0961
 2383SOL    HW118782   4.058   0.162   8.631  1.4310  0.3443  0.6570
 2383SOL    HW218783   3.980   0.283   8.674 -0.6574 -1.7956  0.0727
 2384SOL     OW18784   1.797   0.581   5.302 -0.0063 -0.1884 -0.4203
 2384SOL    HW118785   1.854   0.619   5.369 -2.4705  1.8043  0.5514
 2384SOL    HW218786   1.738   0.653   5.279 -1.8552 -2.0619 -1.6815
 2385SOL     OW18787   1.891   3.059   4.716  0.5079  0.0739  0.0703
 2385SOL    HW118788   1.958   3.078   4.782  2.0642 -1.3575 -1.1136
 2385SOL    HW218789   1.918   2.975   4.679 -2.8700 -0.5063 -1.0105
 2386SOL     OW18790   2.642   4.039   6.990 -0.1768 -0.5507  0.0123
 2386SOL    HW118791   2.678   4.026   7.077  1.3406  4.4679  0.1432
 2386SOL    HW218792   2.552   4.054   7.019 -0.5808 -3.4938  0.2702
 2387SOL     OW18793   1.610   1.098   9.192  0.0070 -0.3946  0.5754
 2387SOL    HW118794   1.524   1.081   9.154  1.3299  0.2534 -2.7518
 2387SOL    HW218795   1.679   1.088   9.127  0.7323 -0.7130  1.3883
 2388SOL     OW18796   0.698   4.702   8.288 -0.1229 -0.2426 -0.0030
 2388SOL    HW118797   0.780   4.674   8.249  0.4553 -1.4403  2.0619
 2388SOL    HW218798   0.636   4.692   8.216  0.8536 -0.1737 -0.8368
 2389SOL     OW18799   2.400   1.472   2.512  0.2794 -0.2933 -0.2457
 2389SOL    HW118800   2.435   1.464   2.601  0.7376 -1.9574 -0.5736
 2389SOL    HW218801   2.313   1.505   2.533  0.6956  0.0994  0.8837
 2390SOL     OW18802   0.133   0.684  14.408 -0.0900  0.1243 -0.2133
 2390SOL    HW118803   0.213   0.645  14.442 -0.7336  0.3501  1.5840
 2390SOL    HW218804   0.078   0.707  14.483  1.8078 -0.8410  1.4582
 2391SOL     OW18805   3.966   1.397  12.738 -0.2215 -0.6014 -0.7595
 2391SOL    HW118806   3.966   1.491  12.758 -2.9608 -0.7749  0.0177
 2391SOL    HW218807   3.872   1.380  12.740 -0.4618  0.9444  0.4823
 2392SOL     OW18808   4.248   3.581   8.053  0.2168 -0.5900 -0.2650
 2392SOL    HW118809   4.221   3.650   7.992 -0.7244 -1.0890 -0.4014
 2392SOL    HW218810   4.273   3.513   7.990 -0.6911 -1.1577 -0.0065
 2393SOL     OW18811   0.467   0.536   4.890  0.2817  0.0277 -0.2091
 2393SOL    HW118812   0.420   0.484   4.955  2.7972 -2.2379 -0.1911
 2393SOL    HW218813   0.555   0.499   4.901  0.2534  0.1362  0.3898
 2394SOL     OW18814   1.775   0.802   7.072  0.2734  0.3285 -0.2389
 2394SOL    HW118815   1.815   0.888   7.071 -1.1004  0.9805  1.2101
 2394SOL    HW218816   1.838   0.748   7.120  0.4947 -0.0369 -0.9319
 2395SOL     OW18817   3.118   1.757  10.076 -0.4688  0.2485  0.1040
 2395SOL    HW118818   3.085   1.723  10.160 -0.1832  0.1108  0.1627
 2395SOL    HW218819   3.059   1.827  10.050  0.6138  1.1410  0.0517
 2396SOL     OW18820   0.354   0.557  15.197  0.5614  0.1735 -0.2303
 2396SOL    HW118821   0.435   0.508  15.189  0.3512 -0.2612  0.2819
 2396SOL    HW218822   0.297   0.522  15.128  0.9021  0.3879 -0.6130
 2397SOL     OW18823   2.499   1.708   5.943  0.0665 -0.1303 -0.0072
 2397SOL    HW118824   2.423   1.669   5.987  0.8139  0.3713  1.7080
 2397SOL    HW218825   2.553   1.635   5.911 -0.9548 -0.8690 -0.0595
 2398SOL     OW18826   3.208   2.989  12.438 -0.2865  0.2221  0.3933
 2398SOL    HW118827   3.151   2.939  12.496  0.1416  0.6628  1.1934
 2398SOL    HW218828   3.253   2.909  12.410 -1.6112 -1.2627  2.4854
 2399SOL     OW18829   1.326   3.755   5.722  0.7714 -0.1426  0.3195
 2399SOL    HW118830   1.298   3.718   5.638  0.8348  2.1563 -0.7243
 2399SOL    HW218831   1.395   3.812   5.688  1.3934 -1.2225 -0.2481
 2400SOL     OW18832   3.326   3.626   4.770  0.1241  0.5591  0.2953
 2400SOL    HW118833   3.292   3.580   4.693  1.0441  0.9149 -0.3199
 2400SOL    HW218834   3.346   3.713   4.737  1.0090  0.5409  0.7598
 2401SOL     OW18835   3.010   3.399   2.978  0.3938  0.0761  0.6801
 2401SOL    HW118836   2.971   3.362   3.058 -0.0642 -1.1363 -0.1072
 2401SOL    HW218837   2.956   3.351   2.914  1.9160 -0.2810 -0.3173
 2402SOL     OW18838   2.505   3.092   6.254 -0.1065  0.5553  0.3993
 2402SOL    HW118839   2.525   3.090   6.348 -0.4311  0.1168  0.4617
 2402SOL    HW218840   2.562   3.020   6.227 -2.0809 -1.5834  1.8832
 2403SOL     OW18841   4.070   1.781  17.320 -0.2654 -0.4749 -0.7606
 2403SOL    HW118842   4.132   1.794  17.248 -0.7032 -1.4240 -1.3002
 2403SOL    HW218843   4.116   1.740  17.394 -0.6349  2.5419  1.1431
 2404SOL     OW18844   4.169   0.958   3.265 -0.3909  0.6847 -0.3081
 2404SOL    HW118845   4.083   0.974   3.226 -0.1482  3.3108  0.2794
 2404SOL    HW218846   4.150   0.988   3.353  1.0170  0.8355 -0.0494
 2405SOL     OW18847   3.054   4.682   2.885 -0.2662  0.5211  0.2486
 2405SOL    HW118848   2.995   4.686   2.810  0.5496  2.1500 -0.3049
 2405SOL    HW218849   3.094   0.030   2.874 -3.9110  1.8044 -2.9007
 2406SOL     OW18850   2.345   2.367   7.444 -0.2214  0.2532  0.3455
 2406SOL    HW118851   2.391   2.407   7.518 -0.5907  0.7847  0.2898
 2406SOL    HW218852   2.424   2.345   7.394 -0.4531  0.3558 -0.0606
 2407SOL     OW18853   2.493   1.090  15.057  0.2830 -0.2624  0.5133
 2407SOL    HW118854   2.567   1.150  15.060 -1.9036  2.4713  0.1244
 2407SOL    HW218855   2.436   1.148  15.106  0.5601  1.2365 -0.9255
 2408SOL     OW18856   3.733   3.621   4.278 -0.4206  0.2858  0.0072
 2408SOL    HW118857   3.744   3.648   4.187  1.2927 -2.7595 -0.7004
 2408SOL    HW218858   3.765   3.699   4.323 -0.9833 -0.8551  2.3872
 2409SOL     OW18859   2.657   4.188  16.382 -0.5903 -0.1762  0.7356
 2409SOL    HW118860   2.710   4.201  16.304  3.0707 -0.7271  3.0916
 2409SOL    HW218861   2.697   4.106  16.411  1.2747  0.4812  0.0446
 2410SOL     OW18862   0.603   3.609   5.823  0.3210  0.0426  0.4024
 2410SOL    HW118863   0.645   3.689   5.853  1.5627 -0.0806 -0.9987
 2410SOL    HW218864   0.561   3.642   5.744 -1.4806 -0.1545  1.2764
 2411SOL     OW18865   1.092   0.106   5.106 -0.1833  0.1042  0.1908
 2411SOL    HW118866   1.136   0.136   5.186  0.5534 -1.0158  0.1949
 2411SOL    HW218867   1.018   0.068   5.154  0.4290 -1.5126 -0.1458
 2412SOL     OW18868   1.709   0.721   4.420  0.4790 -0.5675  0.0344
 2412SOL    HW118869   1.687   0.743   4.329  0.8827  0.4771  0.1834
 2412SOL    HW218870   1.663   0.793   4.463  0.0356 -0.3159 -0.8689
 2413SOL     OW18871   1.708   2.847   7.788  0.1698  0.6583  0.1885
 2413SOL    HW118872   1.754   2.929   7.807  0.4412  0.3918  0.6974
 2413SOL    HW218873   1.774   2.792   7.748  1.7403  3.2601 -0.8067
 2414SOL     OW18874   3.816   1.839   6.484  0.5623 -0.3240 -1.2510
 2414SOL    HW118875   3.911   1.833   6.488  0.6604  0.2935 -2.4284
 2414SOL    HW218876   3.787   1.752   6.511 -2.4055  0.3079 -2.2826
 2415SOL     OW18877   3.661   4.737   2.228 -0.0265  0.2144 -0.1881
 2415SOL    HW118878   3.660   0.020   2.321 -0.2875  0.9729 -0.3628
 2415SOL    HW218879   3.658   0.081   2.179  0.1020  1.3163  1.6596
 2416SOL     OW18880   1.139   2.655  16.921 -0.1965  0.0838  0.3170
 2416SOL    HW118881   1.053   2.653  16.963 -0.3320 -2.7987 -0.1120
 2416SOL    HW218882   1.195   2.618  16.990  0.2471 -0.4685 -0.3410
 2417SOL     OW18883   1.449   2.480   7.030  0.3572 -0.3338  0.1092
 2417SOL    HW118884   1.514   2.515   6.969 -0.1534  3.3991  1.6796
 2417SOL    HW218885   1.373   2.503   6.976  2.3050 -1.4735 -3.1061
 2418SOL     OW18886   4.353   3.920   4.659 -0.3943  0.0716  0.3745
 2418SOL    HW118887   4.263   3.944   4.634 -0.2521 -0.8832 -1.0474
 2418SOL    HW218888   4.348   3.832   4.622  0.9018  0.1211  0.0974
 2419SOL     OW18889   1.756   1.442   6.707 -0.2739  0.6651  0.4338
 2419SOL    HW118890   1.666   1.466   6.686  0.1861  0.7623 -1.4093
 2419SOL    HW218891   1.753   1.460   6.801 -4.4498 -1.3383  0.7169
 2420SOL     OW18892   2.790   0.659   4.074 -0.1098 -0.1539 -0.4788
 2420SOL    HW118893   2.865   0.633   4.021 -0.7049  0.9376 -1.8592
 2420SOL    HW218894   2.730   0.702   4.013 -0.5091  2.8474  2.0170
 2421SOL     OW18895   3.308   3.766   7.428 -0.0322  0.6371 -0.4244
 2421SOL    HW118896   3.263   3.722   7.356  0.0344  0.8870 -0.6150
 2421SOL    HW218897   3.378   3.702   7.443  1.7485  2.9465  1.0304
 2422SOL     OW18898   0.888   1.136   2.135 -0.1021 -0.0713  0.0689
 2422SOL    HW118899   0.886   1.050   2.177 -0.5217 -0.4121 -0.6530
 2422SOL    HW218900   0.907   1.192   2.210  1.3357 -0.7496  0.2186
 2423SOL     OW18901   2.791   0.733   8.705  0.0763  0.1642  0.2953
 2423SOL    HW118902   2.717   0.791   8.685 -0.8173 -1.7817 -2.1353
 2423SOL    HW218903   2.835   0.737   8.620 -1.2310 -0.7328 -0.4346
 2424SOL     OW18904   1.958   2.675   8.564  0.5075  0.1297  0.3368
 2424SOL    HW118905   1.864   2.677   8.546  0.1836 -1.0533  1.8254
 2424SOL    HW218906   1.982   2.586   8.539  1.0146  0.5777 -0.7592
 2425SOL     OW18907   2.260   2.426   5.131  0.4070 -0.1865 -0.5396
 2425SOL    HW118908   2.181   2.418   5.184  0.5838 -0.9417 -0.3866
 2425SOL    HW218909   2.293   2.336   5.132 -1.7398 -0.9800 -1.4838
 2426SOL     OW18910   4.502   3.837  16.916  0.2508  0.6466 -0.4404
 2426SOL    HW118911   4.537   3.774  16.852 -1.0690 -0.9512  0.3896
 2426SOL    HW218912   4.525   3.922  16.879 -2.0555  1.7592  0.6221
 2427SOL     OW18913   0.191   0.312   3.749  0.4735 -0.1297  0.2983
 2427SOL    HW118914   0.142   0.394   3.752 -0.7027 -0.8430  0.6941
 2427SOL    HW218915   0.134   0.252   3.701  0.8619 -1.3200  1.3133
 2428SOL     OW18916   1.508   2.197   2.899 -0.6038 -0.4593 -0.0130
 2428SOL    HW118917   1.470   2.279   2.867  1.2640 -0.0345 -1.1668
 2428SOL    HW218918   1.599   2.217   2.879 -0.5205  0.4125  1.2162
 2429SOL     OW18919   3.913   2.651   9.276  0.3198  0.1243 -0.0020
 2429SOL    HW118920   3.904   2.687   9.188  1.1442  0.8629  0.2175
 2429SOL    HW218921   3.885   2.559   9.268 -1.6929  0.7681 -0.3163
 2430SOL     OW18922   0.996   4.273   2.793 -1.1583  0.2797  0.3586
 2430SOL    HW118923   0.940   4.225   2.854  1.2981 -2.2012  0.6068
 2430SOL    HW218924   0.936   4.286   2.719  1.1827 -2.5411 -2.0194
 2431SOL     OW18925   1.806   1.999   7.294 -0.8716 -0.1338  0.0671
 2431SOL    HW118926   1.808   2.082   7.343  1.0251 -0.8980  1.2752
 2431SOL    HW218927   1.876   2.033   7.238 -0.7113  1.7580  1.4145
 2432SOL     OW18928   3.695   0.961   7.630  0.5066 -0.0782  0.3477
 2432SOL    HW118929   3.725   0.903   7.560 -1.4606  2.4253 -2.4940
 2432SOL    HW218930   3.619   1.004   7.592  0.7371  2.7182  3.0784
 2433SOL     OW18931   1.943   1.546   4.852 -0.6376 -0.1882 -0.0137
 2433SOL    HW118932   1.986   1.462   4.871 -2.3228 -0.7825  1.0708
 2433SOL    HW218933   1.943   1.530   4.757 -2.3234 -1.3386  0.1784
 2434SOL     OW18934   2.687   1.193   2.955 -0.5053  0.6908 -0.1738
 2434SOL    HW118935   2.640   1.256   3.010 -1.8193 -0.6473  0.2466
 2434SOL    HW218936   2.641   1.110   2.962  1.1984 -0.0954  1.6881
 2435SOL     OW18937   4.115   2.619   9.053 -0.7452 -0.0402 -0.4943
 2435SOL    HW118938   4.029   2.650   9.024 -0.2005  3.2714  1.4168
 2435SOL    HW218939   4.164   2.619   8.971  0.8771  1.5868  0.4793
 2436SOL     OW18940   2.493   4.435   8.509  0.0501 -0.4162  0.1662
 2436SOL    HW118941   2.504   4.514   8.561  2.7724 -0.9718  0.4718
 2436SOL    HW218942   2.537   4.365   8.558  1.5705  0.5863  0.2244
 2437SOL     OW18943   4.737   1.190   1.138 -0.2720  0.6995 -0.2316
 2437SOL    HW118944   0.012   1.285   1.137  0.2315  0.6800  2.5785
 2437SOL    HW218945   4.737   1.172   1.232 -0.3390 -0.6438 -0.4918
 2438SOL     OW18946   0.422   3.121   5.593  0.0861  0.1045 -0.5800
 2438SOL    HW118947   0.461   3.161   5.515  1.0782  2.4833  1.1290
 2438SOL    HW218948   0.404   3.195   5.652  0.9833 -1.9922  2.3166
 2439SOL     OW18949   0.371   3.896  14.073 -0.0075 -0.3959  0.5436
 2439SOL    HW118950   0.299   3.922  14.131  0.7030  1.9341  0.3775
 2439SOL    HW218951   0.433   3.874  14.143  2.1147 -0.0398 -1.2164
 2440SOL     OW18952   0.289   2.207   3.664 -0.7262 -0.1869  0.3829
 2440SOL    HW118953   0.341   2.163   3.597 -0.2138 -0.7147  1.1245
 2440SOL    HW218954   0.355   2.262   3.705 -1.8796  0.7930  0.9214
 2441SOL     OW18955   0.235   0.470   1.172  0.0431  0.2329  0.2359
 2441SOL    HW118956   0.200   0.449   1.085 -1.0973 -2.3861  1.3225
 2441SOL    HW218957   0.195   0.551   1.204 -1.6795 -0.3446 -0.4356
 2442SOL     OW18958   1.559   0.964  10.892 -0.2326  0.2208 -0.0706
 2442SOL    HW118959   1.610   0.970  10.973  1.8259 -0.2986 -1.3171
 2442SOL    HW218960   1.471   0.982  10.925  0.4757  2.1416  0.8189
 2443SOL     OW18961   0.528   1.106   3.748  0.0883 -0.1114 -0.4895
 2443SOL    HW118962   0.585   1.103   3.824  0.7440 -1.1445 -1.0279
 2443SOL    HW218963   0.459   1.049   3.783  1.0932 -0.9181  0.1660
 2444SOL     OW18964   0.211   2.735   3.263  0.0660 -0.9794  0.2299
 2444SOL    HW118965   0.190   2.715   3.172 -0.1434 -0.3592  0.1395
 2444SOL    HW218966   0.162   2.814   3.286  1.0601 -0.7230  1.5130
 2445SOL     OW18967   2.965   2.200  13.057  0.1047  0.4587 -0.3344
 2445SOL    HW118968   2.915   2.152  13.122 -1.0713  0.9108 -0.9085
 2445SOL    HW218969   3.043   2.144  13.056 -1.2785 -1.4713  0.4624
 2446SOL     OW18970   1.810   3.938  10.301 -0.3456  0.2605  0.4616
 2446SOL    HW118971   1.828   3.844  10.311  2.2953  0.5192 -1.8715
 2446SOL    HW218972   1.881   3.957  10.240  0.8902 -2.9609  0.8551
 2447SOL     OW18973   3.666   2.109   3.375 -0.1898 -0.3768  0.3591
 2447SOL    HW118974   3.735   2.115   3.441 -0.7199 -0.4935  0.9326
 2447SOL    HW218975   3.682   2.188   3.324  0.3236  0.5814  1.9851
 2448SOL     OW18976   1.414   3.961   2.797 -0.8494 -0.1312  0.8348
 2448SOL    HW118977   1.329   3.973   2.756  0.6873  0.9155 -2.0684
 2448SOL    HW218978   1.436   3.870   2.779  1.7182  0.8045 -0.7315
 2449SOL     OW18979   2.603   3.466   7.578 -0.5851 -0.3544 -0.0396
 2449SOL    HW118980   2.630   3.502   7.494 -0.3544 -2.3070 -0.7930
 2449SOL    HW218981   2.584   3.373   7.564 -2.9622  0.0073  0.7294
 2450SOL     OW18982   3.407   3.332   6.062  0.2295 -0.0755  0.6058
 2450SOL    HW118983   3.422   3.321   5.968  1.0442  0.7102  0.6442
 2450SOL    HW218984   3.460   3.263   6.101 -0.0165 -0.4440  0.2872
 2451SOL     OW18985   3.089   0.373  10.702  0.4064 -0.0657  0.1267
 2451SOL    HW118986   3.051   0.460  10.714 -2.8489 -1.2945 -1.1697
 2451SOL    HW218987   3.145   0.389  10.626  1.9578 -1.7991  0.9013
 2452SOL     OW18988   0.981   4.168   8.237  0.0309  0.4343 -0.0723
 2452SOL    HW118989   1.019   4.108   8.301 -1.6683  1.2310  1.6672
 2452SOL    HW218990   0.922   4.112   8.186  1.7175 -0.4258 -1.0924
 2453SOL     OW18991   2.693   0.988   9.319  0.0312  0.3293 -0.2678
 2453SOL    HW118992   2.787   1.006   9.329 -0.3331  0.8061  2.3222
 2453SOL    HW218993   2.695   0.924   9.248 -0.2185  0.7825 -0.6838
 2454SOL     OW18994   4.374   0.812   8.618  0.1301 -0.1342 -0.0577
 2454SOL    HW118995   4.337   0.841   8.536 -2.7627 -1.8869  0.6303
 2454SOL    HW218996   4.298   0.763   8.649  0.5839  0.2783  1.7099
 2455SOL     OW18997   0.587   2.220  16.402 -0.3418  0.3146  0.8221
 2455SOL    HW118998   0.570   2.147  16.462  0.6472 -0.7395 -0.1657
 2455SOL    HW218999   0.503   2.217  16.355 -0.2095  1.3252  0.5123
 2456SOL     OW19000   2.780   2.654   6.038 -0.6369 -0.4054  0.0363
 2456SOL    HW119001   2.847   2.630   6.102 -2.4477 -1.8723  1.3725
 2456SOL    HW219002   2.813   2.737   6.004 -0.4280  0.3254  2.0127
 2457SOL     OW19003   2.031   2.668   7.294 -0.1396 -0.8124 -0.3397
 2457SOL    HW119004   2.058   2.629   7.211  1.5607  0.5527 -0.4355
 2457SOL    HW219005   1.958   2.611   7.317 -1.6062  1.2857  0.2244
 2458SOL     OW19006   2.523   3.973   4.289  0.1127 -0.3597 -0.0182
 2458SOL    HW119007   2.484   4.055   4.318 -1.6087 -1.8294  1.8875
 2458SOL    HW219008   2.605   3.999   4.247 -1.1580  2.8152 -0.4976
 2459SOL     OW19009   0.951   3.710   9.865 -0.0648 -0.0960 -0.3147
 2459SOL    HW119010   0.891   3.635   9.863  0.1750 -0.2890 -0.2249
 2459SOL    HW219011   0.910   3.770   9.804 -0.6930  0.3437  0.5418
 2460SOL     OW19012   3.723   1.908   0.756 -0.2510  0.0815 -0.8253
 2460SOL    HW119013   3.644   1.885   0.805  1.4727 -2.2878  0.8078
 2460SOL    HW219014   3.772   1.827   0.765 -0.9365 -0.0804  1.3413
 2461SOL     OW19015   1.027   3.037   8.761  0.1196 -0.3235  1.3288
 2461SOL    HW119016   1.077   2.956   8.773 -1.4683 -1.5781 -0.5525
 2461SOL    HW219017   1.097   3.095   8.733 -2.0596  0.9648 -1.3872
 2462SOL     OW19018   2.495   4.700   1.950  0.2403 -0.0240  0.6764
 2462SOL    HW119019   2.467   4.682   1.860 -0.1707  0.2402  0.7486
 2462SOL    HW219020   2.457   4.622   1.991  0.3221 -1.0107 -1.1157
 2463SOL     OW19021   3.809   2.671   9.926  1.2075  0.5633  0.2359
 2463SOL    HW119022   3.891   2.654   9.972  1.9842  0.5461 -1.1377
 2463SOL    HW219023   3.831   2.727   9.851  4.6225 -1.0360  0.0639
 2464SOL     OW19024   2.762   3.002  17.731 -0.1038  0.2601  0.3343
 2464SOL    HW119025   2.678   3.027  17.693 -0.2984  0.0091  0.6046
 2464SOL    HW219026   2.802   3.088  17.743 -2.2354  1.3190 -0.1292
 2465SOL     OW19027   1.951   3.383   7.795 -0.3393 -0.2944 -0.1007
 2465SOL    HW119028   1.870   3.359   7.840 -1.6250  0.6642 -1.8983
 2465SOL    HW219029   1.956   3.468   7.838 -1.2712  0.3582 -1.2863
 2466SOL     OW19030   0.025   2.616   4.364 -1.1298 -0.4186  0.4702
 2466SOL    HW119031   4.695   2.673   4.328 -1.1936 -0.1166  1.0803
 2466SOL    HW219032   0.041   2.658   4.448 -3.5163 -0.0802  0.7531
 2467SOL     OW19033   2.126   0.900   4.957  0.0837 -0.0851  0.4169
 2467SOL    HW119034   2.125   0.826   5.018  0.1081 -2.1577 -2.0774
 2467SOL    HW219035   2.064   0.871   4.890  0.6296 -0.3950  0.0484
 2468SOL     OW19036   3.354   4.709   7.758  0.7124 -0.2879  0.2651
 2468SOL    HW119037   3.411   4.665   7.694  0.6847 -1.7924  1.2624
 2468SOL    HW219038   3.390   0.055   7.785  4.0510 -1.9206  0.8491
 2469SOL     OW19039   0.881   3.259   6.473 -0.3376  0.2056 -0.5997
 2469SOL    HW119040   0.891   3.177   6.522  1.3148  1.2470  0.8229
 2469SOL    HW219041   0.954   3.262   6.411 -0.6359  0.9341 -0.9183
 2470SOL     OW19042   3.088   3.418   6.063 -0.1311 -0.0857 -0.1276
 2470SOL    HW119043   3.018   3.481   6.047 -0.8853 -0.9400 -0.1773
 2470SOL    HW219044   3.162   3.463   6.022 -0.1357  0.4741  0.4783
 2471SOL     OW19045   1.023   3.469  16.533 -0.0256  0.4131  0.1323
 2471SOL    HW119046   1.098   3.480  16.475  0.1448  1.8156  0.6051
 2471SOL    HW219047   0.953   3.516  16.487  0.5693  2.0803  0.9122
 2472SOL     OW19048   2.558   1.970   6.701 -0.2720  0.1524 -0.4043
 2472SOL    HW119049   2.585   2.035   6.766  0.4767 -0.5979  0.0447
 2472SOL    HW219050   2.522   1.902   6.759 -0.0231  1.4546  1.2793
 2473SOL     OW19051   3.175   2.551  11.501 -0.0741 -0.3658 -0.8125
 2473SOL    HW119052   3.256   2.502  11.489 -1.0614 -1.7300 -1.9124
 2473SOL    HW219053   3.100   2.495  11.479 -0.6407  0.1617 -0.2174
 2474SOL     OW19054   0.604   2.573  14.149 -0.2557  0.8062  0.3500
 2474SOL    HW119055   0.682   2.553  14.200  0.3593 -0.3198 -1.0378
 2474SOL    HW219056   0.632   2.648  14.096 -0.7442  1.6270  1.2490
 2475SOL     OW19057   0.719   1.612   3.510 -0.4119  0.5269 -0.8250
 2475SOL    HW119058   0.771   1.547   3.463 -0.0570 -0.0884  0.4442
 2475SOL    HW219059   0.778   1.637   3.580 -0.2573  0.8280 -1.0602
 2476SOL     OW19060   0.936   3.043   4.117  0.5471 -0.2810 -0.3808
 2476SOL    HW119061   0.981   3.097   4.181  2.8647 -0.9330 -1.4635
 2476SOL    HW219062   1.001   3.050   4.047  0.3438  1.0342 -0.4422
 2477SOL     OW19063   3.051   0.263   8.723 -0.7078  0.0580  0.2423
 2477SOL    HW119064   3.061   0.280   8.629 -1.5659 -0.4314  0.0565
 2477SOL    HW219065   2.985   0.327   8.752 -0.6501  0.6697 -0.9790
 2478SOL     OW19066   4.262   2.584  16.032  0.0868 -0.5061  0.1335
 2478SOL    HW119067   4.248   2.503  15.983  0.3919 -0.6583  0.3020
 2478SOL    HW219068   4.293   2.642  15.961  1.0056 -1.7483 -0.4651
 2479SOL     OW19069   1.876   3.656   4.511  0.7871 -0.0706  0.2829
 2479SOL    HW119070   1.861   3.749   4.493  1.8283  0.1187  0.3612
 2479SOL    HW219071   1.933   3.670   4.587  0.3819  1.2989  0.3227
 2480SOL     OW19072   1.323   0.734   5.317 -0.7220 -0.0926  0.2108
 2480SOL    HW119073   1.370   0.740   5.401 -0.5654 -1.8262  0.2418
 2480SOL    HW219074   1.379   0.799   5.274  2.6449 -2.4427  1.0210
 2481SOL     OW19075   1.049   1.918   8.629  0.2728  0.6642 -0.0056
 2481SOL    HW119076   1.140   1.904   8.600 -0.0271  0.4769 -0.8502
 2481SOL    HW219077   1.060   1.909   8.724 -0.1188 -0.0126 -0.0226
 2482SOL     OW19078   4.171   4.656   7.671 -0.3626 -0.6001  0.3172
 2482SOL    HW119079   4.171   0.010   7.697 -3.4852 -0.3306 -0.5771
 2482SOL    HW219080   4.244   4.660   7.609 -1.4641  0.1965 -0.9418
 2483SOL     OW19081   0.376   0.611   6.390  0.3455 -0.2938 -0.4742
 2483SOL    HW119082   0.412   0.531   6.352 -0.5885 -0.8855 -0.1138
 2483SOL    HW219083   0.434   0.673   6.345  2.1170 -0.4387  1.6568
 2484SOL     OW19084   0.779   4.727   2.040  0.4873  0.5657  0.5447
 2484SOL    HW119085   0.736   0.040   2.108 -2.6154  0.8538 -1.6068
 2484SOL    HW219086   0.713   4.665   2.009  0.7782  1.5899 -2.1769
 2485SOL     OW19087   3.283   0.739   4.633  0.2531 -0.2249 -0.1222
 2485SOL    HW119088   3.322   0.813   4.587 -0.5951 -0.3482 -1.0502
 2485SOL    HW219089   3.203   0.726   4.582 -0.1212 -0.8822  0.6213
 2486SOL     OW19090   4.200   1.067   2.566 -0.3144 -0.4909  0.2278
 2486SOL    HW119091   4.178   1.126   2.638  0.5166 -1.2870  1.1316
 2486SOL    HW219092   4.193   1.129   2.492 -0.8333  0.8115  1.3670
 2487SOL     OW19093   2.538   2.593   6.758 -0.2470 -0.0651  0.3636
 2487SOL    HW119094   2.617   2.580   6.706  1.3912  1.3418  2.4539
 2487SOL    HW219095   2.476   2.536   6.712 -2.2473  0.4468  2.4115
 2488SOL     OW19096   3.715   1.773   3.900 -0.0788 -0.2446 -0.2490
 2488SOL    HW119097   3.741   1.755   3.990  0.5659  0.3981 -0.3078
 2488SOL    HW219098   3.751   1.700   3.848 -2.5536 -2.8994  1.7554
 2489SOL     OW19099   3.542   2.781   3.090 -0.3475  0.1954  0.0190
 2489SOL    HW119100   3.568   2.727   3.015  0.3490 -1.7156  1.6433
 2489SOL    HW219101   3.473   2.723   3.123 -1.1675  0.9720 -0.3335
 2490SOL     OW19102   4.118   2.635  13.754 -0.1975  0.4113  0.0746
 2490SOL    HW119103   4.207   2.644  13.719 -0.1861 -0.0012  0.0015
 2490SOL    HW219104   4.125   2.635  13.849  0.0653 -0.9293  0.0630
 2491SOL     OW19105   3.100   3.990  17.723 -0.2071 -0.4973  0.1606
 2491SOL    HW119106   3.088   3.981  17.628 -2.0330 -0.0100  0.3512
 2491SOL    HW219107   3.053   4.069  17.747  1.5725  0.2257  1.2689
 2492SOL     OW19108   0.090   3.071   2.648  0.1260  0.1035  0.3085
 2492SOL    HW119109   0.114   2.999   2.707  1.3329 -1.4654 -2.0872
 2492SOL    HW219110   0.160   3.069   2.582 -0.9889  3.3775 -0.9706
 2493SOL     OW19111   2.736   2.979   3.002 -0.0054 -0.4964 -0.6376
 2493SOL    HW119112   2.796   3.002   2.931  0.3889 -0.0990 -0.1812
 2493SOL    HW219113   2.749   2.886   3.017 -2.1091 -0.6957 -0.1438
 2494SOL     OW19114   2.142   1.493   2.669 -0.2955  0.8424 -0.0335
 2494SOL    HW119115   2.166   1.546   2.746  1.2002 -0.8336  0.6712
 2494SOL    HW219116   2.047   1.499   2.669 -0.2895  0.9240  0.7092
 2495SOL     OW19117   1.733   2.091   8.292  0.4536  0.1218  0.1462
 2495SOL    HW119118   1.746   2.138   8.374  0.8335  0.0685  0.1155
 2495SOL    HW219119   1.781   2.152   8.236  0.6833  0.0301  0.2458
 2496SOL     OW19120   4.550   1.882  17.347 -0.0938  0.3254  0.4714
 2496SOL    HW119121   4.572   1.892  17.255 -0.3447  1.4722  0.5407
 2496SOL    HW219122   4.634   1.860  17.386  0.1045 -0.0134 -0.1409
 2497SOL     OW19123   4.096   3.159  15.765 -0.3045  0.7351  0.2038
 2497SOL    HW119124   4.168   3.103  15.794  0.4625  2.3099  1.3517
 2497SOL    HW219125   4.121   3.248  15.792  0.3244  1.1102 -1.6471
 2498SOL     OW19126   1.266   4.402   2.012  0.1444 -0.2090  0.3684
 2498SOL    HW119127   1.215   4.365   2.083  1.8005 -0.9962  1.1557
 2498SOL    HW219128   1.193   4.441   1.965 -0.1300  0.5822  1.4477
 2499SOL     OW19129   1.976   2.199   7.144  0.2447  0.0212 -0.0593
 2499SOL    HW119130   2.038   2.168   7.077  2.9633  0.3018  2.3305
 2499SOL    HW219131   1.944   2.274   7.095 -0.9951  0.9315  2.1540
 2500SOL     OW19132   1.617   3.594   2.225 -0.0755  0.6045 -0.6221
 2500SOL    HW119133   1.577   3.592   2.138  0.8379 -0.5553 -1.0281
 2500SOL    HW219134   1.677   3.519   2.227  1.0021  1.4517 -1.2694
 2501SOL     OW19135   3.558   0.883   7.856 -0.8355 -0.2252 -0.4878
 2501SOL    HW119136   3.588   0.919   7.773  0.0823 -1.1515 -0.5521
 2501SOL    HW219137   3.567   0.789   7.840  1.3629  0.1437 -1.3943
 2502SOL     OW19138   4.061   1.778   8.236 -0.0410  0.4306 -0.4114
 2502SOL    HW119139   4.079   1.852   8.294 -1.4886  1.4097 -1.2260
 2502SOL    HW219140   3.975   1.740   8.255  0.5042 -1.4479 -1.7132
 2503SOL     OW19141   3.216   1.840   2.728  0.7543  0.2666  0.9085
 2503SOL    HW119142   3.289   1.789   2.693 -0.2634  1.7873 -3.4824
 2503SOL    HW219143   3.243   1.927   2.698  1.4853 -0.4440 -0.4841
 2504SOL     OW19144   2.406   2.398   4.904 -0.2013 -0.3167  0.8540
 2504SOL    HW119145   2.476   2.354   4.954  0.1312 -1.8050 -0.9261
 2504SOL    HW219146   2.337   2.404   4.970 -0.8415  1.2581  0.0345
 2505SOL     OW19147   4.373   0.461  11.588  0.1849 -0.0270  0.0375
 2505SOL    HW119148   4.358   0.497  11.501 -0.4528 -0.3901 -0.0073
 2505SOL    HW219149   4.284   0.456  11.623  0.3426 -2.0812  0.1506
 2506SOL     OW19150   1.669   3.895  13.482  0.3525 -0.0011 -0.6574
 2506SOL    HW119151   1.581   3.923  13.504  0.2645  0.4156 -1.5575
 2506SOL    HW219152   1.646   3.857  13.397 -0.3613 -0.4847 -0.2506
 2507SOL     OW19153   3.048   3.989  16.870 -0.4624 -0.3021 -0.4230
 2507SOL    HW119154   3.132   3.943  16.882  0.1438  0.6105 -1.1743
 2507SOL    HW219155   2.994   3.914  16.895  1.4662 -1.2800  0.8105
 2508SOL     OW19156   0.852   0.118  10.282 -0.0600  0.0029 -0.2755
 2508SOL    HW119157   0.879   0.196  10.331 -1.5382 -1.2530  2.5908
 2508SOL    HW219158   0.914   0.116  10.210  0.1535 -1.9098 -0.0354
 2509SOL     OW19159   0.821   0.394   9.989  0.1249 -0.2003  0.4851
 2509SOL    HW119160   0.753   0.393  10.056  0.2885  2.4185  0.6920
 2509SOL    HW219161   0.843   0.303   9.970 -1.0369 -0.3426 -0.2609
 2510SOL     OW19162   4.296   3.938   6.046 -0.4308 -0.5673 -0.4708
 2510SOL    HW119163   4.344   3.945   6.129  2.2496 -0.9991 -1.9740
 2510SOL    HW219164   4.207   3.961   6.073  0.5269 -0.1124  2.3185
 2511SOL     OW19165   1.803   0.519   6.406 -0.0990  0.4619  0.5195
 2511SOL    HW119166   1.793   0.483   6.494  0.7341 -2.1458 -0.4652
 2511SOL    HW219167   1.897   0.536   6.405 -0.3679  1.7795 -1.7730
 2512SOL     OW19168   2.926   1.530  10.561 -0.6429 -0.1153  0.0729
 2512SOL    HW119169   2.971   1.448  10.581 -1.2864 -0.2969  0.7947
 2512SOL    HW219170   2.905   1.571  10.645 -0.5131 -0.4938  0.2888
 2513SOL     OW19171   0.429   3.757   2.465 -0.4941 -0.0107  0.5218
 2513SOL    HW119172   0.475   3.831   2.505  0.4643 -0.7773  0.8431
 2513SOL    HW219173   0.486   3.686   2.496 -0.6495  0.0327  0.9066
 2514SOL     OW19174   0.237   3.481   6.794  0.1281  0.0621  0.0302
 2514SOL    HW119175   0.276   3.531   6.723 -0.7104  1.3867  0.5069
 2514SOL    HW219176   0.150   3.472   6.755  1.1317  0.7814 -2.3737
 2515SOL     OW19177   1.439   0.070  16.347 -0.3967 -0.6217  0.1311
 2515SOL    HW119178   1.469   0.156  16.375 -1.0755 -1.3527  3.0595
 2515SOL    HW219179   1.425   0.072  16.252  0.1435  0.2180  0.0715
 2516SOL     OW19180   0.049   1.070   2.725  0.4366  0.5549 -0.7958
 2516SOL    HW119181   4.713   1.129   2.712 -1.1631 -0.9052  1.4571
 2516SOL    HW219182   0.122   1.131   2.725  1.1040 -0.2491 -1.2884
 2517SOL     OW19183   3.399   3.572  17.002  0.4695 -0.4385 -0.4472
 2517SOL    HW119184   3.323   3.607  17.049  0.2058 -1.1102 -0.3696
 2517SOL    HW219185   3.372   3.568  16.911  0.7866  0.2027 -0.5697
 2518SOL     OW19186   0.267   1.548   4.211 -0.3265 -0.3208 -0.0274
 2518SOL    HW119187   0.357   1.562   4.242 -0.0417  0.0943 -1.0492
 2518SOL    HW219188   0.220   1.631   4.219 -0.9870 -0.8579  1.5825
 2519SOL     OW19189   0.445   3.018  11.271  0.2706 -0.5002 -0.4549
 2519SOL    HW119190   0.459   3.032  11.177 -4.0738  0.2731 -1.0073
 2519SOL    HW219191   0.447   3.105  11.311  0.1003 -0.9726  0.5803
 2520SOL     OW19192   4.463   0.014   2.286 -0.5031 -0.3346  0.1479
 2520SOL    HW119193   4.533   0.057   2.334  0.1957 -0.6337 -0.6118
 2520SOL    HW219194   4.385   0.034   2.338 -2.4244  1.1005 -3.2312
 2521SOL     OW19195   1.570   2.944   3.784 -0.0794  0.3791  0.3761
 2521SOL    HW119196   1.648   2.910   3.829  1.0200 -0.5709 -2.2445
 2521SOL    HW219197   1.543   2.872   3.727  2.2247  0.3796 -0.7276
 2522SOL     OW19198   1.693   1.677   2.715  0.1248 -0.2419 -0.0865
 2522SOL    HW119199   1.618   1.670   2.656  0.6277  0.4031 -0.8106
 2522SOL    HW219200   1.711   1.769   2.696  0.4766 -0.1777  0.5687
 2523SOL     OW19201   0.030   0.602   6.622 -0.1111 -0.3955  0.0404
 2523SOL    HW119202   0.107   0.654   6.643  1.0107 -2.3279  0.7544
 2523SOL    HW219203   0.061   0.560   6.542 -0.3665 -1.8999  0.7219
 2524SOL     OW19204   0.905   4.081   2.541  0.3772  0.8551  0.1920
 2524SOL    HW119205   0.939   4.036   2.618  1.2367  0.3486 -0.4924
 2524SOL    HW219206   0.849   4.011   2.508  2.6516 -1.0270  0.3654
 2525SOL     OW19207   1.297   0.969  13.815  0.2210 -0.4361 -0.0179
 2525SOL    HW119208   1.344   1.014  13.745 -0.7266  2.9172  1.5079
 2525SOL    HW219209   1.330   0.879  13.817 -2.0634 -1.2211  1.1943
 2526SOL     OW19210   3.238   4.051  14.167 -0.7857  0.4104  0.0381
 2526SOL    HW119211   3.314   3.994  14.179 -0.0786  0.7136 -2.9682
 2526SOL    HW219212   3.173   4.024  14.233 -0.3101 -2.2368 -0.5582
 2527SOL     OW19213   2.971   0.671   3.858  0.4330  0.0497  0.3784
 2527SOL    HW119214   3.056   0.639   3.825 -0.1314 -1.0401 -0.0040
 2527SOL    HW219215   2.939   0.704   3.774  1.8677 -1.9375 -0.9863
 2528SOL     OW19216   0.578   0.130   3.339 -0.2380 -0.4176 -0.4174
 2528SOL    HW119217   0.513   0.175   3.393 -1.6953 -0.4980 -2.1217
 2528SOL    HW219218   0.560   0.165   3.251 -0.6394  0.8211  0.1536
 2529SOL     OW19219   2.575   3.783  14.220  0.3059 -0.1412  0.2899
 2529SOL    HW119220   2.642   3.836  14.176  0.1079 -0.5914 -0.5562
 2529SOL    HW219221   2.510   3.847  14.249  0.0124 -0.0873 -0.4976
 2530SOL     OW19222   0.412   0.424  16.704 -0.0557 -0.2181 -0.0489
 2530SOL    HW119223   0.484   0.447  16.647 -1.3022 -0.4106 -1.6936
 2530SOL    HW219224   0.341   0.480  16.672  0.4623 -0.1445 -1.0684
 2531SOL     OW19225   4.216   2.397   5.083 -0.1034 -0.4899  0.2648
 2531SOL    HW119226   4.213   2.490   5.060  1.4878 -0.4794  0.1059
 2531SOL    HW219227   4.133   2.366   5.048  0.3959 -2.7192  1.0099
 2532SOL     OW19228   0.375   3.632   6.384  0.1663 -0.2183 -0.4180
 2532SOL    HW119229   0.357   3.641   6.478 -1.1733  0.4711 -0.7357
 2532SOL    HW219230   0.463   3.669   6.388  0.3675 -0.8529  1.1989
 2533SOL     OW19231   1.253   2.898   8.782 -0.8720  0.7320  0.3683
 2533SOL    HW119232   1.341   2.860   8.781 -0.7545  1.0516 -2.4778
 2533SOL    HW219233   1.269   2.968   8.719  2.1105  1.1924  1.6606
 2534SOL     OW19234   0.081   3.694   2.397  0.0192  0.0300 -0.2458
 2534SOL    HW119235   0.132   3.742   2.462 -2.9889 -1.6195  3.3808
 2534SOL    HW219236   0.053   3.612   2.438  2.5527  0.3243  2.0648
 2535SOL     OW19237   4.651   4.445   2.288  0.1840  0.1045  0.3715
 2535SOL    HW119238   4.571   4.468   2.335 -1.9192 -2.7737 -1.7966
 2535SOL    HW219239   4.625   4.439   2.196  0.2889 -0.3568  0.3699
 2536SOL     OW19240   1.318   4.343   8.962 -0.5594 -0.3853  0.1359
 2536SOL    HW119241   1.271   4.275   9.010  0.2269 -0.3918  0.9066
 2536SOL    HW219242   1.351   4.299   8.884 -2.1601 -2.6112  0.7185
 2537SOL     OW19243   0.142   4.573   2.902  0.3666 -0.1353 -0.2642
 2537SOL    HW119244   0.164   4.656   2.860 -0.4634 -0.0819 -0.5911
 2537SOL    HW219245   0.207   4.519   2.859 -0.6485 -0.0982 -1.8393
 2538SOL     OW19246   0.742   3.964  15.832  0.5709 -0.3180 -0.1490
 2538SOL    HW119247   0.670   3.925  15.782 -0.1740 -0.6099  1.1597
 2538SOL    HW219248   0.695   4.042  15.863  0.4913 -0.7434  0.7967
 2539SOL     OW19249   3.222   2.647  11.790 -0.3944  0.0242  0.6331
 2539SOL    HW119250   3.156   2.603  11.736  0.2739  1.0421 -1.0358
 2539SOL    HW219251   3.300   2.618  11.742  0.0387  2.7035 -0.2929
 2540SOL     OW19252   2.661   2.761   0.855 -0.3956  0.2047 -0.4814
 2540SOL    HW119253   2.586   2.741   0.910 -1.2632  0.7413 -1.4815
 2540SOL    HW219254   2.622   2.735   0.771 -0.9375 -1.0473  0.1567
 2541SOL     OW19255   0.077   1.393   4.369 -0.0427  0.0167  0.5225
 2541SOL    HW119256   0.125   1.434   4.297 -1.1094  2.3489  1.1290
 2541SOL    HW219257   0.155   1.357   4.410 -0.7944  0.3329  2.2209
 2542SOL     OW19258   2.664   3.798  15.560 -0.4541 -0.1099 -0.4357
 2542SOL    HW119259   2.686   3.848  15.638  0.5123 -0.3567 -0.5531
 2542SOL    HW219260   2.751   3.759  15.554 -1.6564 -2.4703 -2.8401
 2543SOL     OW19261   1.876   0.448  13.078 -0.3199 -0.2589  0.2718
 2543SOL    HW119262   1.831   0.529  13.106 -2.1707 -0.9998 -0.5353
 2543SOL    HW219263   1.869   0.405  13.163 -0.2823 -0.0362  0.3882
 2544SOL     OW19264   2.181   3.221   2.531  0.1579 -0.4383  0.2139
 2544SOL    HW119265   2.124   3.251   2.460  0.2908  0.4786  0.5005
 2544SOL    HW219266   2.267   3.255   2.506 -1.1287  1.6357 -1.4074
 2545SOL     OW19267   3.044   2.829   0.066  0.2355  0.0762  0.5128
 2545SOL    HW119268   3.064   2.789  17.732  0.4317 -0.5363  0.8505
 2545SOL    HW219269   3.112   2.894   0.083 -0.6161  0.8705  0.8836
 2546SOL     OW19270   4.696   2.604  13.022  0.4193  0.0106 -0.7237
 2546SOL    HW119271   4.624   2.591  12.960  0.7682  0.0460 -1.1383
 2546SOL    HW219272   4.642   2.636  13.094 -0.5460  1.5192 -2.1196
 2547SOL     OW19273   2.583   3.158  17.528 -0.2435  0.6185  0.1775
 2547SOL    HW119274   2.659   3.133  17.475 -1.8177 -1.9199 -0.8735
 2547SOL    HW219275   2.540   3.217  17.467 -2.5049 -0.0706  1.1019
 2548SOL     OW19276   1.363   2.308   2.582  0.3346 -0.5496 -0.2966
 2548SOL    HW119277   1.301   2.303   2.509  0.3547 -1.2506 -0.2664
 2548SOL    HW219278   1.371   2.214   2.597 -3.5214 -0.6516  1.1047
 2549SOL     OW19279   4.518   4.328   3.738 -0.9074  0.7619 -0.2713
 2549SOL    HW119280   4.523   4.236   3.762  1.3194  0.8796 -0.2090
 2549SOL    HW219281   4.570   4.324   3.658  0.3580  1.5402  0.4991
 2550SOL     OW19282   4.247   3.851  12.917 -0.0451 -0.5670  0.0651
 2550SOL    HW119283   4.187   3.797  12.866 -0.5370 -1.2262  1.3358
 2550SOL    HW219284   4.327   3.833  12.867 -0.3480  1.2622 -1.0873
 2551SOL     OW19285   1.912   1.973   9.566  0.2868  0.0550  0.4207
 2551SOL    HW119286   1.902   2.068   9.571  3.3289  0.3936  0.5008
 2551SOL    HW219287   1.849   1.952   9.497  2.0438 -0.7671 -0.9493
 2552SOL     OW19288   4.653   1.427   2.224 -0.1355  0.1645  0.3421
 2552SOL    HW119289   4.589   1.490   2.258 -1.3659  0.5399 -2.6361
 2552SOL    HW219290   4.589   1.370   2.181  0.6378  0.8992 -1.7554
 2553SOL     OW19291   4.710   4.462   7.260  0.2584 -0.0500  0.4010
 2553SOL    HW119292   0.022   4.391   7.219 -1.5595  0.4090 -2.6700
 2553SOL    HW219293   4.627   4.437   7.220  0.6983  1.4468 -1.5118
 2554SOL     OW19294   1.457   1.517   6.385  0.0844  0.1383 -0.3037
 2554SOL    HW119295   1.456   1.499   6.479 -3.0413 -2.4535 -0.8496
 2554SOL    HW219296   1.535   1.570   6.370 -0.0249  0.4048  0.0881
 2555SOL     OW19297   2.671   0.008   4.856  0.2439 -0.2889  0.0265
 2555SOL    HW119298   2.628   4.668   4.890 -1.8961  1.9625  2.5179
 2555SOL    HW219299   2.645   0.018   4.765  1.9613  0.7482 -0.3641
 2556SOL     OW19300   4.354   1.755   3.725  0.4293 -0.2006  0.5549
 2556SOL    HW119301   4.435   1.803   3.710  1.3137 -1.4514  1.2920
 2556SOL    HW219302   4.284   1.820   3.718 -0.1726 -1.0834 -1.5631
 2557SOL     OW19303   2.227   4.134   9.636 -0.4746  0.0407 -0.1865
 2557SOL    HW119304   2.270   4.130   9.550 -0.1980  1.1425 -0.0962
 2557SOL    HW219305   2.223   4.040   9.652 -0.8018  0.2524  0.9881
 2558SOL     OW19306   0.965   3.907   2.784  0.5504 -0.0358 -0.2234
 2558SOL    HW119307   0.944   3.832   2.840  0.9008 -0.5900 -0.8454
 2558SOL    HW219308   1.026   3.868   2.722 -0.3880 -0.7920 -0.6549
 2559SOL     OW19309   3.029   0.188   6.329  0.1694  0.2620  0.1026
 2559SOL    HW119310   3.011   0.225   6.416  1.4107 -0.3664  0.6262
 2559SOL    HW219311   2.975   0.246   6.274  1.5010  1.3791 -0.0143
 2560SOL     OW19312   3.491   2.799   7.872  0.0908  0.9792  0.3429
 2560SOL    HW119313   3.418   2.791   7.810  0.2945  0.1129  0.2120
 2560SOL    HW219314   3.543   2.720   7.856 -0.7074  0.4619  0.3188
 2561SOL     OW19315   2.916   1.894   6.153  0.1393 -0.1223 -0.2110
 2561SOL    HW119316   2.916   1.971   6.210 -3.9246 -0.1758 -0.1441
 2561SOL    HW219317   2.949   1.830   6.216  2.0333  1.9156  0.8786
 2562SOL     OW19318   0.771   3.595   8.585 -0.2080  0.0665  0.6934
 2562SOL    HW119319   0.715   3.539   8.531 -0.9609  0.8619  0.6603
 2562SOL    HW219320   0.803   3.530   8.647 -0.1086  1.0916  1.7121
 2563SOL     OW19321   4.662   4.549  17.357  0.3657  0.0479 -0.0296
 2563SOL    HW119322   4.585   4.504  17.390 -0.6012  1.6835 -0.0202
 2563SOL    HW219323   4.666   4.510  17.269 -0.7928  1.7337 -0.8431
 2564SOL     OW19324   2.010   3.512   8.672 -0.2866  0.0339  0.8117
 2564SOL    HW119325   1.926   3.468   8.657 -1.2092  1.9942  0.2710
 2564SOL    HW219326   1.998   3.606   8.660  1.7706  0.1755 -0.1901
 2565SOL     OW19327   2.004   1.050  16.283 -0.6233 -0.1382 -0.4067
 2565SOL    HW119328   1.992   1.017  16.372 -1.5740 -0.0284 -0.5022
 2565SOL    HW219329   1.924   1.008  16.252  0.3048 -1.4918 -1.0178
 2566SOL     OW19330   4.284   1.786   9.661 -0.1625 -0.2827  0.3965
 2566SOL    HW119331   4.374   1.773   9.629  0.0323  0.0702  0.7923
 2566SOL    HW219332   4.310   1.848   9.729  1.1872  0.0863 -0.4369
 2567SOL     OW19333   4.139   0.691   7.050  0.2153  0.0113 -0.5520
 2567SOL    HW119334   4.166   0.768   6.999  0.1759  0.2221 -0.2525
 2567SOL    HW219335   4.064   0.655   7.002  1.4914  2.4635 -4.3528
 2568SOL     OW19336   4.162   4.068   7.917 -0.5972  0.3679  0.4589
 2568SOL    HW119337   4.085   4.124   7.931 -1.0143  0.5777 -2.6766
 2568SOL    HW219338   4.159   4.000   7.984 -1.1125 -0.4246 -0.3717
 2569SOL     OW19339   1.560   2.482   7.289  0.0063 -0.3248 -0.0602
 2569SOL    HW119340   1.511   2.459   7.210  0.7158  0.6967 -0.8022
 2569SOL    HW219341   1.527   2.419   7.353 -0.6535 -0.6382 -0.7116
 2570SOL     OW19342   4.101   4.232  13.360  0.0277  0.7490 -0.0479
 2570SOL    HW119343   4.033   4.221  13.294 -0.6206 -0.8366  0.8909
 2570SOL    HW219344   4.118   4.327  13.364 -0.4024  0.7971  0.6713
 2571SOL     OW19345   3.199   3.174   5.821 -0.7258 -0.4882  0.2993
 2571SOL    HW119346   3.182   3.174   5.727 -2.1152  1.4066  0.5483
 2571SOL    HW219347   3.261   3.243   5.845 -0.3038 -0.5587 -0.5927
 2572SOL     OW19348   0.975   1.512   3.053 -0.3995 -0.2943  0.1965
 2572SOL    HW119349   0.909   1.580   3.067 -2.2367 -2.0072 -0.0933
 2572SOL    HW219350   1.060   1.547   3.081 -0.9859  1.2766  0.0041
 2573SOL     OW19351   2.619   1.257   7.186  0.1234 -0.1378 -0.2703
 2573SOL    HW119352   2.536   1.234   7.227  0.9025 -1.0286  0.8216
 2573SOL    HW219353   2.611   1.352   7.178  1.2877  0.1668  2.0398
 2574SOL     OW19354   4.508   2.575   2.156 -0.0113 -0.3675  0.5394
 2574SOL    HW119355   4.525   2.617   2.240 -1.3439  1.7380 -0.2573
 2574SOL    HW219356   4.566   2.498   2.164  0.8182  0.2479  0.4620
 2575SOL     OW19357   3.416   3.629   3.814  0.4188  0.3387 -0.1176
 2575SOL    HW119358   3.327   3.594   3.817  0.5785 -0.1236 -0.6860
 2575SOL    HW219359   3.416   3.688   3.889 -0.0317  0.6163 -0.3320
 2576SOL     OW19360   2.927   2.638   6.275  0.0298 -0.0296 -0.1823
 2576SOL    HW119361   2.992   2.579   6.314  0.3552  0.4351 -0.0197
 2576SOL    HW219362   2.992   2.701   6.243 -1.0954  0.3120 -1.7719
 2577SOL     OW19363   0.440   2.164   2.904  0.1718  0.4774  0.1238
 2577SOL    HW119364   0.494   2.235   2.868 -2.6281  2.0611 -0.9303
 2577SOL    HW219365   0.360   2.210   2.931 -0.0945 -0.9561  1.7211
 2578SOL     OW19366   1.784   2.198  13.271 -0.0075  0.0524 -0.0491
 2578SOL    HW119367   1.801   2.283  13.312 -0.3411 -0.5714  1.3817
 2578SOL    HW219368   1.698   2.176  13.308 -0.8865 -0.6376 -2.4381
 2579SOL     OW19369   0.277   4.332   5.295 -0.0287  0.1170  0.1346
 2579SOL    HW119370   0.343   4.337   5.365 -0.3045 -0.1124  0.4063
 2579SOL    HW219371   0.215   4.268   5.328 -3.7951  3.0866 -1.1465
 2580SOL     OW19372   2.799   0.933   0.522  0.6261 -0.5065 -0.2783
 2580SOL    HW119373   2.761   0.872   0.585 -0.1376 -2.0633 -2.2574
 2580SOL    HW219374   2.866   0.892   0.468 -0.4372  0.6260 -2.4774
 2581SOL     OW19375   2.755   2.269   3.882  0.5546 -0.1187  0.6110
 2581SOL    HW119376   2.840   2.230   3.895 -1.0502 -3.8743 -0.2331
 2581SOL    HW219377   2.778   2.353   3.840 -0.7397 -0.2651 -0.4103
 2582SOL     OW19378   3.797   3.766   8.946 -0.8724  0.4874 -0.4612
 2582SOL    HW119379   3.788   3.862   8.943 -0.6708  0.5222  0.0304
 2582SOL    HW219380   3.764   3.752   9.035 -1.0180  0.6021 -0.4968
 2583SOL     OW19381   3.313   2.172   2.930  0.0314  0.0886 -0.2711
 2583SOL    HW119382   3.258   2.226   2.987  0.0411  1.7555 -1.8153
 2583SOL    HW219383   3.396   2.218   2.946 -0.2375  0.5693 -0.2549
 2584SOL     OW19384   0.737   3.230   7.025 -0.0152  0.4688 -0.1898
 2584SOL    HW119385   0.749   3.143   6.988  0.1223  0.2435  0.3810
 2584SOL    HW219386   0.820   3.231   7.073 -1.0923 -2.5212  1.7291
 2585SOL     OW19387   1.252   1.505   5.791 -0.1038 -0.1253 -0.0351
 2585SOL    HW119388   1.249   1.493   5.885  0.0462 -1.3006 -0.1837
 2585SOL    HW219389   1.330   1.560   5.795 -1.1811  1.2721  1.7811
 2586SOL     OW19390   0.559   0.450   5.917 -0.2032  0.1271 -0.2039
 2586SOL    HW119391   0.530   0.540   5.932 -1.3898 -0.0497 -1.4298
 2586SOL    HW219392   0.653   0.468   5.927 -0.2428 -0.6080  1.3945
 2587SOL     OW19393   0.952   0.147   4.170 -0.4000  0.0527 -0.3650
 2587SOL    HW119394   0.945   0.242   4.170 -1.4187 -0.0237 -0.1632
 2587SOL    HW219395   0.860   0.124   4.158 -0.8051  0.5131  1.7830
 2588SOL     OW19396   3.677   2.631   4.482 -0.4108  0.0521  0.0365
 2588SOL    HW119397   3.747   2.572   4.456 -0.7222  0.4260 -1.6461
 2588SOL    HW219398   3.680   2.613   4.576  2.4013  2.9781  0.5037
 2589SOL     OW19399   4.482   2.708   8.433  0.6303 -0.5993  0.0365
 2589SOL    HW119400   4.486   2.785   8.489  1.8796 -0.8469  0.3033
 2589SOL    HW219401   4.563   2.667   8.464  2.0644  1.5421 -0.9267
 2590SOL     OW19402   3.086   4.029   3.344  0.4699 -0.0933 -0.4805
 2590SOL    HW119403   3.009   4.024   3.400  0.2907  2.0679 -0.5565
 2590SOL    HW219404   3.047   4.052   3.259  0.0359 -0.2400 -0.3208
 2591SOL     OW19405   4.382   3.533   4.613  0.0437  0.2487  0.3032
 2591SOL    HW119406   4.298   3.578   4.629 -0.9228 -1.5049  0.1687
 2591SOL    HW219407   4.352   3.447   4.585 -1.0292  0.2764  1.3447
 2592SOL     OW19408   0.744   3.030   5.590  0.2348  0.0947 -0.3211
 2592SOL    HW119409   0.809   3.014   5.521  0.2490  0.8536 -0.4867
 2592SOL    HW219410   0.687   3.089   5.540  0.0751  0.9925  0.9228
 2593SOL     OW19411   4.638   2.394  16.420 -0.1131 -0.0409 -0.0219
 2593SOL    HW119412   4.574   2.466  16.415 -0.0376  0.2245  2.9909
 2593SOL    HW219413   4.723   2.439  16.414 -1.2097  1.7327 -2.2380
 2594SOL     OW19414   2.804   4.637   8.577 -0.6781  0.2053 -0.7131
 2594SOL    HW119415   2.760   4.571   8.523  1.3048  0.1022 -2.1823
 2594SOL    HW219416   2.775   4.606   8.663  2.8185  0.7848  0.6888
 2595SOL     OW19417   3.908   3.312  16.514 -0.4794 -0.1183 -0.2009
 2595SOL    HW119418   3.908   3.241  16.579 -0.0367  0.7987  0.8010
 2595SOL    HW219419   3.856   3.270  16.447 -0.9476 -2.2834  1.5036
 2596SOL     OW19420   3.820   3.138   2.839 -0.3055 -0.1929 -0.0435
 2596SOL    HW119421   3.764   3.096   2.904 -0.2785  0.4475  0.4029
 2596SOL    HW219422   3.885   3.176   2.898 -1.6853  1.8449  0.1697
 2597SOL     OW19423   3.524   0.951   8.101 -0.2236 -0.6837  0.4552
 2597SOL    HW119424   3.535   0.902   8.019  1.9898  0.3665  0.1248
 2597SOL    HW219425   3.544   1.043   8.082  1.5882 -1.0505  0.5855
 2598SOL     OW19426   0.549   0.775   6.636  0.0713  0.8701  0.5225
 2598SOL    HW119427   0.625   0.828   6.613  0.8012 -0.3335  0.2246
 2598SOL    HW219428   0.583   0.687   6.648 -2.2875 -0.0459  0.4575
 2599SOL     OW19429   3.098   1.429   2.549 -0.0643 -0.0205 -0.2858
 2599SOL    HW119430   3.014   1.383   2.546  0.5637 -1.1629 -0.4170
 2599SOL    HW219431   3.073   1.501   2.606 -1.8361 -1.1705  0.3692
 2600SOL     OW19432   0.098   3.096  16.658  0.6651  0.0460 -1.0755
 2600SOL    HW119433   0.053   3.179  16.648  0.9005  0.5195  1.7295
 2600SOL    HW219434   0.030   3.043  16.699  0.0929  1.0851 -0.7056
 2601SOL     OW19435   1.093   1.281  17.326  0.0999  0.3234  0.4694
 2601SOL    HW119436   1.124   1.335  17.254 -0.1937  0.7950  0.6971
 2601SOL    HW219437   1.176   1.267  17.371  2.0886 -0.3091 -3.4095
 2602SOL     OW19438   1.543   2.295   7.539 -0.5574 -0.4458 -0.0005
 2602SOL    HW119439   1.497   2.253   7.612  0.3679  2.4210  2.2192
 2602SOL    HW219440   1.543   2.381   7.582 -0.4148 -0.1111 -0.6724
 2603SOL     OW19441   4.630   2.649  14.895  0.2322  0.0828  0.1598
 2603SOL    HW119442   4.543   2.673  14.860  0.2284 -0.1262  0.0273
 2603SOL    HW219443   4.678   2.653  14.812 -0.6142  1.5462 -0.2626
 2604SOL     OW19444   3.668   3.801   3.064  0.0087  0.2993 -0.7424
 2604SOL    HW119445   3.588   3.831   3.021 -1.4087 -0.4313  1.4145
 2604SOL    HW219446   3.672   3.862   3.138 -0.9844 -3.1153  2.1486
 2605SOL     OW19447   0.417   1.153   8.249 -0.4490 -0.5393 -0.4217
 2605SOL    HW119448   0.360   1.201   8.190  1.3323 -1.4030 -2.8398
 2605SOL    HW219449   0.369   1.081   8.291 -3.1037  1.3311 -0.2798
 2606SOL     OW19450   2.880   1.834  12.543  0.3843  0.3709 -0.0881
 2606SOL    HW119451   2.886   1.928  12.527  0.8223  0.4181  0.3453
 2606SOL    HW219452   2.822   1.802  12.474 -1.9365  1.8885  1.1574
 2607SOL     OW19453   1.975   1.958   3.484  0.3672 -0.7931 -0.1187
 2607SOL    HW119454   2.065   1.981   3.506 -0.0226 -0.1723  0.8627
 2607SOL    HW219455   1.966   1.867   3.511 -1.1398 -0.8351 -0.7600
 2608SOL     OW19456   0.958   4.408   7.965 -0.0546 -0.2350  0.4961
 2608SOL    HW119457   0.927   4.321   7.941 -0.0059 -0.3682  0.9100
 2608SOL    HW219458   0.945   4.450   7.880  1.2494 -1.8134 -0.4794
 2609SOL     OW19459   4.058   2.462   7.675  0.5105  0.0241 -0.2558
 2609SOL    HW119460   4.096   2.476   7.588  1.3306  1.7204  0.3751
 2609SOL    HW219461   4.008   2.541   7.695 -0.2375 -0.1953 -1.2307
 2610SOL     OW19462   2.781   0.533  13.586 -0.2056 -0.2093 -0.1554
 2610SOL    HW119463   2.719   0.591  13.543 -1.5753  0.2945  2.5116
 2610SOL    HW219464   2.853   0.516  13.524 -0.3266 -0.4139 -0.2401
 2611SOL     OW19465   0.451   2.513   5.264 -0.4710  0.3865  0.0232
 2611SOL    HW119466   0.473   2.498   5.172  0.0593  0.2305  0.1778
 2611SOL    HW219467   0.530   2.478   5.304 -0.1785  1.0790  0.0630
 2612SOL     OW19468   2.924   4.315  10.716 -0.6678 -0.1989  0.4451
 2612SOL    HW119469   2.957   4.322  10.626  2.6717  0.7089  1.7565
 2612SOL    HW219470   2.919   4.407  10.741  1.1199  0.2474 -0.8861
 2613SOL     OW19471   0.668   1.797   5.799  0.3330  0.1985 -0.2042
 2613SOL    HW119472   0.586   1.844   5.784  1.6027  2.5367  0.2183
 2613SOL    HW219473   0.713   1.833   5.723  1.2330 -0.5303 -0.0121
 2614SOL     OW19474   3.492   3.015   8.405 -0.8325 -0.2855  0.0154
 2614SOL    HW119475   3.574   3.042   8.365 -0.7666 -1.0986 -0.4007
 2614SOL    HW219476   3.471   2.948   8.340 -1.7111  1.2798 -1.3324
 2615SOL     OW19477   3.325   3.538   8.848  0.2248 -0.2930  0.2009
 2615SOL    HW119478   3.363   3.611   8.800 -0.4820 -0.1247 -0.0973
 2615SOL    HW219479   3.386   3.542   8.922 -0.9459 -3.2649  1.3462
 2616SOL     OW19480   0.789   3.648   9.434 -0.3762 -0.1215  0.3521
 2616SOL    HW119481   0.829   3.719   9.484 -0.4317  1.9813 -2.5840
 2616SOL    HW219482   0.856   3.618   9.373  1.1909  0.2784  1.8765
 2617SOL     OW19483   2.649   3.965   7.279  0.0542 -0.2547  0.5695
 2617SOL    HW119484   2.689   3.877   7.275 -1.9002 -1.1761  1.5036
 2617SOL    HW219485   2.560   3.940   7.304 -0.2517 -0.0593 -0.3165
 2618SOL     OW19486   3.398   4.718  10.202 -0.7981 -0.1525 -0.4078
 2618SOL    HW119487   3.366   0.048  10.144  0.4843 -1.7365 -2.9632
 2618SOL    HW219488   3.489   0.008  10.207 -0.7575 -0.6760  1.9772
 2619SOL     OW19489   2.488   2.690   5.513  0.2847  0.0992 -0.2623
 2619SOL    HW119490   2.466   2.603   5.481  1.1470  0.0123 -0.6191
 2619SOL    HW219491   2.548   2.669   5.585 -1.3771 -0.6517  0.8816
 2620SOL     OW19492   2.798   3.340   5.999 -0.0778 -0.3635  0.3764
 2620SOL    HW119493   2.859   3.268   6.009  0.4943 -0.3117 -2.7175
 2620SOL    HW219494   2.812   3.371   5.910 -0.9163 -1.5840 -0.1899
 2621SOL     OW19495   2.004   1.709  11.576 -0.3287 -0.1095 -0.5788
 2621SOL    HW119496   2.005   1.797  11.612  2.7600 -0.7387  0.8839
 2621SOL    HW219497   1.942   1.722  11.504 -0.0746 -1.7962 -1.1114
 2622SOL     OW19498   2.028   0.755  16.154 -0.4041 -0.1992 -0.0866
 2622SOL    HW119499   2.075   0.832  16.120 -0.3437 -0.8081 -1.3658
 2622SOL    HW219500   1.953   0.756  16.095  0.6725 -0.8328 -1.4485
 2623SOL     OW19501   0.169   1.463  10.706 -0.0271  0.0848  0.0891
 2623SOL    HW119502   0.214   1.530  10.655  0.6391  0.5002  1.2290
 2623SOL    HW219503   0.203   1.483  10.793  0.7069  2.4546 -0.7329
 2624SOL     OW19504   4.228   4.340   3.733  0.0291  0.2518  0.3327
 2624SOL    HW119505   4.314   4.312   3.764  0.3755  2.6354  1.5122
 2624SOL    HW219506   4.255   4.376   3.649  2.3938 -1.0562  0.5395
 2625SOL     OW19507   4.218   0.552   1.175 -0.2653  0.5161  0.2154
 2625SOL    HW119508   4.277   0.528   1.105 -0.3465 -0.8545  0.6259
 2625SOL    HW219509   4.182   0.637   1.148  1.1920  1.2305  0.4920
 2626SOL     OW19510   2.025   2.850   9.193 -0.1105 -0.3223 -0.2032
 2626SOL    HW119511   1.970   2.849   9.271 -0.8084 -0.1249 -0.7000
 2626SOL    HW219512   1.971   2.800   9.132 -0.0334 -0.4728 -0.1491
 2627SOL     OW19513   1.948   1.221   3.937  0.8067 -0.4233  0.1717
 2627SOL    HW119514   1.953   1.277   4.015  0.9675  0.6109 -0.5895
 2627SOL    HW219515   1.855   1.199   3.930  0.6812  0.2778 -0.3079
 2628SOL     OW19516   0.893   0.857  12.446  0.3157 -0.1709 -0.5449
 2628SOL    HW119517   0.801   0.857  12.472  0.5933 -1.9696  0.4935
 2628SOL    HW219518   0.947   0.885  12.520 -2.3183  2.4599  0.3903
 2629SOL     OW19519   0.933   1.615   8.984 -0.3683 -0.0447  0.4378
 2629SOL    HW119520   1.010   1.661   9.018 -1.3249  1.3654  0.7260
 2629SOL    HW219521   0.863   1.680   8.993 -1.2950 -0.5472 -3.1861
 2630SOL     OW19522   4.102   0.334  11.021  0.7209  0.1565 -0.4985
 2630SOL    HW119523   4.033   0.381  10.974 -0.6224 -1.6315 -0.3541
 2630SOL    HW219524   4.115   0.259  10.963 -0.2131 -0.3473 -0.0620
 2631SOL     OW19525   4.270   0.049   8.663 -0.3748  0.1169  0.1777
 2631SOL    HW119526   4.178   0.024   8.659 -0.9836  2.6040 -1.1440
 2631SOL    HW219527   4.301   4.701   8.693  1.3317  0.4596 -0.5949
 2632SOL     OW19528   2.497   0.102   2.883 -0.2370 -0.6521 -0.7692
 2632SOL    HW119529   2.559   0.168   2.852  0.3464  0.2914  2.3919
 2632SOL    HW219530   2.419   0.120   2.831  0.7736  2.0670 -1.3229
 2633SOL     OW19531   4.431   4.024   8.018 -0.3846 -0.1118  0.1725
 2633SOL    HW119532   4.405   4.011   7.927 -2.3296  2.3407  0.3788
 2633SOL    HW219533   4.352   4.067   8.051  0.5129  0.5501  1.4856
 2634SOL     OW19534   0.297   4.123   5.905  0.0572  0.4125  0.3939
 2634SOL    HW119535   0.242   4.087   5.835 -1.4418 -0.3006  1.9363
 2634SOL    HW219536   0.329   4.041   5.942  0.8074  1.4109  1.9455
 2635SOL     OW19537   0.061   4.454   1.928 -0.0174  0.1655 -0.1714
 2635SOL    HW119538   4.725   4.404   1.962  0.2177 -0.1048 -0.0558
 2635SOL    HW219539   0.021   4.532   1.890  2.6595  1.5230 -0.2515
 2636SOL     OW19540   0.389   3.664   4.065 -0.0302 -0.2984  0.0437
 2636SOL    HW119541   0.476   3.678   4.027  0.3831 -1.0629  0.6944
 2636SOL    HW219542   0.400   3.685   4.158 -0.0540  1.5229 -0.3688
 2637SOL     OW19543   0.937   2.698  14.904 -0.0341 -0.1398 -0.1701
 2637SOL    HW119544   0.871   2.631  14.927 -2.5106  1.6735 -1.9771
 2637SOL    HW219545   0.888   2.776  14.932 -2.0776 -0.8931 -1.6090
 2638SOL     OW19546   0.513   2.522   1.111 -0.3856  0.8625 -0.5234
 2638SOL    HW119547   0.589   2.490   1.159  0.2322  3.1145 -0.0227
 2638SOL    HW219548   0.526   2.615   1.125  0.3329  0.7641 -0.5139
 2639SOL     OW19549   2.343   1.295   5.310  0.1756  0.1470  0.3221
 2639SOL    HW119550   2.328   1.388   5.297 -4.0464 -0.7851 -1.4999
 2639SOL    HW219551   2.416   1.277   5.250  1.8754  1.3587  2.0489
 2640SOL     OW19552   1.236   2.560   8.046  0.9711  0.8086  0.1284
 2640SOL    HW119553   1.253   2.470   8.072  1.1239  0.6847 -0.4029
 2640SOL    HW219554   1.182   2.551   7.967  1.1119 -0.0651  0.1422
 2641SOL     OW19555   0.250   4.393   8.827  0.0212  0.0558  0.1815
 2641SOL    HW119556   0.315   4.453   8.790  1.2391 -0.8174  0.9180
 2641SOL    HW219557   0.221   4.345   8.748 -1.7841 -0.1759  0.9676
 2642SOL     OW19558   0.810   0.370   5.708 -0.4177  0.6214  0.1720
 2642SOL    HW119559   0.848   0.323   5.782  1.3264 -1.1311 -1.8158
 2642SOL    HW219560   0.779   0.453   5.743  0.0805  1.4051 -1.2306
 2643SOL     OW19561   4.542   1.531   4.739  0.0814  0.4126  0.0972
 2643SOL    HW119562   4.568   1.528   4.831 -2.0498 -1.5127  0.6352
 2643SOL    HW219563   4.602   1.599   4.709  0.4516  1.0576  2.3174
 2644SOL     OW19564   3.832   0.176   7.645 -0.7016 -0.9198  0.8270
 2644SOL    HW119565   3.785   0.108   7.694 -1.6158 -1.3144 -0.6002
 2644SOL    HW219566   3.793   0.150   7.562 -0.1682 -2.6459  1.1024
 2645SOL     OW19567   4.357   2.040  10.303 -0.3827 -0.2143 -0.7405
 2645SOL    HW119568   4.379   1.951  10.276  1.0105 -0.8117  2.4186
 2645SOL    HW219569   4.419   2.096  10.255 -0.7300  0.5731 -0.2660
 2646SOL     OW19570   4.258   1.056   4.856  0.5323  0.0255 -0.2423
 2646SOL    HW119571   4.251   0.993   4.927 -0.6985 -0.2622 -0.6231
 2646SOL    HW219572   4.178   1.108   4.851  0.7135  0.6904  3.6262
 2647SOL     OW19573   2.922   4.389   2.709 -0.0724 -0.7057  0.2464
 2647SOL    HW119574   2.886   4.477   2.700  0.4068 -0.3818  1.4613
 2647SOL    HW219575   2.988   4.381   2.640 -0.4017  0.0507 -0.1550
 2648SOL     OW19576   1.462   0.868   5.926 -0.1060  0.0259  0.0848
 2648SOL    HW119577   1.540   0.908   5.964  0.6164 -2.1469  0.8664
 2648SOL    HW219578   1.383   0.909   5.961 -0.2455  0.6973 -1.0059
 2649SOL     OW19579   1.713   3.893  12.148  0.1284 -0.3736 -0.1600
 2649SOL    HW119580   1.706   3.928  12.060  1.4596  0.7850  0.2120
 2649SOL    HW219581   1.798   3.928  12.174 -0.0348  0.9916 -1.5074
 2650SOL     OW19582   1.642   0.161   3.324  0.2078 -0.6073  0.1548
 2650SOL    HW119583   1.573   0.124   3.380 -1.3319 -0.2224 -1.5050
 2650SOL    HW219584   1.624   0.134   3.234  1.6582  0.3423 -0.4134
 2651SOL     OW19585   0.575   3.690  12.572 -0.9473  0.1609  0.5669
 2651SOL    HW119586   0.488   3.651  12.573 -1.9166  2.3127  0.7463
 2651SOL    HW219587   0.600   3.656  12.486  0.1157  0.0864  0.9041
 2652SOL     OW19588   4.524   0.190   2.584  0.2518  0.3948 -0.0344
 2652SOL    HW119589   4.488   0.264   2.634 -2.1450 -1.8742  1.5713
 2652SOL    HW219590   4.443   0.145   2.559  1.1782 -0.8398 -0.7717
 2653SOL     OW19591   1.263   4.402   1.636  0.1642  0.4344 -0.3426
 2653SOL    HW119592   1.347   4.417   1.592 -1.0265  2.2632 -2.0094
 2653SOL    HW219593   1.285   4.338   1.704  0.8338 -0.1304 -1.0837
 2654SOL     OW19594   1.489   1.487  13.500  0.3170  0.6342 -0.4785
 2654SOL    HW119595   1.582   1.463  13.490 -0.5144 -2.4037 -1.0471
 2654SOL    HW219596   1.452   1.408  13.460  0.1332  0.7053 -0.4485
 2655SOL     OW19597   1.642   2.725   5.070 -0.3111 -0.3697 -0.0720
 2655SOL    HW119598   1.699   2.798   5.045 -0.0795  0.3828  2.6587
 2655SOL    HW219599   1.624   2.669   4.994  1.8545  0.9566 -1.5374
 2656SOL     OW19600   2.479   1.793   8.512 -0.1375 -0.1323  0.0638
 2656SOL    HW119601   2.410   1.805   8.447  1.4278 -0.7833 -1.7095
 2656SOL    HW219602   2.537   1.741   8.456 -1.1176 -1.1015 -0.0410
 2657SOL     OW19603   2.772   4.421   8.396  0.0929  0.4426  0.4004
 2657SOL    HW119604   2.687   4.392   8.364  0.7060 -1.1261  0.2117
 2657SOL    HW219605   2.819   4.457   8.320  0.0003 -0.5595 -0.1198
 2658SOL     OW19606   4.630   2.989   5.885  0.0892  0.0930  0.9249
 2658SOL    HW119607   4.573   3.036   5.825  1.7146 -0.0339 -0.7277
 2658SOL    HW219608   4.675   2.930   5.824  0.7016  1.7141 -0.1774
 2659SOL     OW19609   0.101   3.398  14.874 -0.3280  0.3579  0.0826
 2659SOL    HW119610   0.142   3.420  14.957 -0.1308  0.5157 -0.0576
 2659SOL    HW219611   0.089   3.480  14.826  1.5895  2.2909  2.8797
 2660SOL     OW19612   4.432   3.606  17.049  0.3741  0.4415 -0.4535
 2660SOL    HW119613   4.437   3.643  17.138 -0.4157 -1.7786  0.5173
 2660SOL    HW219614   4.446   3.685  16.998 -1.4996 -0.7246 -2.7137
 2661SOL     OW19615   3.250   0.914   5.460 -0.6734 -0.2694 -0.3499
 2661SOL    HW119616   3.253   1.002   5.497  1.4173 -1.6330  2.6999
 2661SOL    HW219617   3.156   0.905   5.475 -0.5467 -0.7624  0.1337
 2662SOL     OW19618   2.169   0.345   6.184 -0.2087 -0.6406 -0.6437
 2662SOL    HW119619   2.158   0.302   6.099  0.0901 -0.4851 -0.7619
 2662SOL    HW219620   2.226   0.283   6.230  0.8267  1.9341  1.5264
 2663SOL     OW19621   0.209   4.243   6.148 -0.1257  0.0728 -0.3951
 2663SOL    HW119622   0.204   4.202   6.062  0.9950  0.5093 -0.6727
 2663SOL    HW219623   0.117   4.265   6.164 -0.5122 -1.7483 -0.1126
 2664SOL     OW19624   3.978   0.446   6.339 -0.0337 -0.0657  0.2943
 2664SOL    HW119625   3.991   0.487   6.424 -2.2037 -2.8203  1.9183
 2664SOL    HW219626   4.023   0.362   6.351 -0.9898 -0.4195  1.3478
 2665SOL     OW19627   3.340   4.653  16.323  0.2344 -0.1110 -0.0842
 2665SOL    HW119628   3.370   4.582  16.380 -0.3788 -0.5258 -0.2818
 2665SOL    HW219629   3.339   4.615  16.235 -0.4176 -0.0844 -0.0868
 2666SOL     OW19630   1.819   1.372   3.047  0.0915 -0.1160 -0.1686
 2666SOL    HW119631   1.808   1.392   3.140 -1.2086  1.8954 -0.7539
 2666SOL    HW219632   1.810   1.277   3.045  0.7910 -0.1711 -0.6902
 2667SOL     OW19633   3.287   3.704  14.063  0.2948  0.2298 -0.1568
 2667SOL    HW119634   3.324   3.645  14.129  1.0251  0.7621 -0.0847
 2667SOL    HW219635   3.193   3.698  14.077  0.4356 -1.0611  0.1948
 2668SOL     OW19636   3.330   3.225  12.489 -0.1914  0.1820 -0.3446
 2668SOL    HW119637   3.265   3.245  12.556  0.9072  3.3936 -0.2336
 2668SOL    HW219638   3.275   3.156  12.451  1.0638 -1.0566  0.0895
 2669SOL     OW19639   3.271   0.967   2.319  0.4259 -0.3656 -0.2656
 2669SOL    HW119640   3.176   0.953   2.323  0.2532  0.6634 -0.7296
 2669SOL    HW219641   3.312   0.881   2.318  0.7557 -0.2257  1.4976
 2670SOL     OW19642   0.539   1.032  17.010  0.2720 -0.7443  0.3163
 2670SOL    HW119643   0.479   0.957  17.011 -0.8729  0.1807  2.1452
 2670SOL    HW219644   0.625   0.992  17.009  1.4014  1.6661  0.3955
 2671SOL     OW19645   4.456   0.606   4.744  0.0358  0.4039 -0.3022
 2671SOL    HW119646   4.494   0.651   4.819  1.4540 -1.6693  0.2100
 2671SOL    HW219647   4.532   0.555   4.717 -1.4044 -1.9643  0.1125
 2672SOL     OW19648   0.483   2.154   5.301  0.5967 -0.1114  0.0965
 2672SOL    HW119649   0.527   2.071   5.321 -0.4819 -1.2091 -2.1616
 2672SOL    HW219650   0.549   2.221   5.317  1.4694 -1.3811  1.8395
 2673SOL     OW19651   4.570   4.488   4.487  0.6193 -0.1865 -0.3747
 2673SOL    HW119652   4.571   4.540   4.406  2.2886 -1.4119 -1.1469
 2673SOL    HW219653   4.485   4.443   4.490  0.6366 -0.2450 -0.7545
 2674SOL     OW19654   2.617   2.983   7.858 -0.2775 -0.3815  0.1814
 2674SOL    HW119655   2.552   2.920   7.890  1.6487 -2.1787  0.5747
 2674SOL    HW219656   2.688   2.919   7.845 -0.1933 -0.4915  1.1890
 2675SOL     OW19657   4.345   0.082   4.691 -0.3127 -0.1183  0.7516
 2675SOL    HW119658   4.399   0.106   4.616 -0.1397  1.1221  1.2679
 2675SOL    HW219659   4.397   0.019   4.740 -1.3537 -0.3233  1.5897
 2676SOL     OW19660   3.178   2.409  15.185 -0.5062  0.2595  0.2098
 2676SOL    HW119661   3.155   2.501  15.200  1.9415  1.2415 -2.0201
 2676SOL    HW219662   3.274   2.413  15.183 -0.4362 -1.3201  0.6665
 2677SOL     OW19663   0.842   4.102   8.486 -0.3175 -0.0779  0.2200
 2677SOL    HW119664   0.778   4.105   8.557 -0.0173  1.3382  0.4342
 2677SOL    HW219665   0.834   4.009   8.464 -0.2184 -0.5542  2.1815
 2678SOL     OW19666   1.353   0.794   1.639 -0.3717 -0.2066 -0.3640
 2678SOL    HW119667   1.269   0.773   1.679  0.7178  0.6166  2.4024
 2678SOL    HW219668   1.344   0.847   1.560 -0.1677  0.9506  0.3787
 2679SOL     OW19669   2.945   4.401   9.053 -0.3476 -0.1677  0.5355
 2679SOL    HW119670   2.905   4.466   9.111 -0.5018  1.8445 -1.8519
 2679SOL    HW219671   2.949   4.449   8.971  0.7690 -2.1397 -0.5730
 2680SOL     OW19672   4.704   1.711   5.871 -0.5051 -0.0312 -0.1844
 2680SOL    HW119673   0.035   1.645   5.881  1.3258  2.1321  1.6349
 2680SOL    HW219674   0.024   1.787   5.871 -0.1584 -0.2941 -0.2710
 2681SOL     OW19675   2.886   4.469  11.468  0.1624 -0.3286 -0.1375
 2681SOL    HW119676   2.857   4.508  11.386  0.7069  0.3331 -0.0107
 2681SOL    HW219677   2.930   4.392  11.432  1.3174  0.6824 -0.8636
 2682SOL     OW19678   1.020   2.029  11.496 -0.0174  0.1421  0.0090
 2682SOL    HW119679   1.099   1.982  11.523  0.4995  2.0645  1.8437
 2682SOL    HW219680   1.003   2.082  11.574 -0.2088  0.9604 -0.5814
 2683SOL     OW19681   1.932   4.545   1.180 -0.3941  0.4511  0.0306
 2683SOL    HW119682   1.886   4.524   1.099  0.2025  1.8325 -0.6457
 2683SOL    HW219683   1.923   4.638   1.201 -0.3371 -0.0509  2.2897
 2684SOL     OW19684   3.742   2.455  12.220 -0.1165  0.4211 -1.0531
 2684SOL    HW119685   3.753   2.366  12.254  0.9181  0.8357 -0.2890
 2684SOL    HW219686   3.692   2.443  12.139 -0.7923  0.0313 -0.5756
 2685SOL     OW19687   1.990   2.935   5.188  0.0833 -0.7047  0.0560
 2685SOL    HW119688   1.901   2.906   5.204  0.1372 -0.2291  1.2041
 2685SOL    HW219689   2.023   2.934   5.278  0.4185  1.7761 -0.0483
 2686SOL     OW19690   2.228   0.257   2.977  0.4225  0.3760 -0.1167
 2686SOL    HW119691   2.197   0.203   3.050  2.6057 -1.4876 -0.5806
 2686SOL    HW219692   2.319   0.252   3.006  0.0818  1.0412  1.0466
 2687SOL     OW19693   1.665   4.469   3.392  0.4697  0.0156 -0.1545
 2687SOL    HW119694   1.722   4.462   3.469 -0.8854 -1.6410  0.6996
 2687SOL    HW219695   1.619   4.552   3.401 -0.5951 -0.6095  0.0869
 2688SOL     OW19696   3.140   1.784   8.206 -0.1121 -0.0891  0.1347
 2688SOL    HW119697   3.078   1.711   8.200  0.3058 -0.3073 -1.5201
 2688SOL    HW219698   3.208   1.746   8.150 -1.6793 -0.3677 -1.6035
 2689SOL     OW19699   3.615   3.192  13.050  0.2936  0.0576  0.2677
 2689SOL    HW119700   3.679   3.212  12.982  0.2667  1.0039  0.5122
 2689SOL    HW219701   3.578   3.115  13.008  2.0651 -0.8013  0.2980
 2690SOL     OW19702   4.607   0.525   4.343 -0.3952  0.0658 -0.1440
 2690SOL    HW119703   4.642   0.613   4.358 -0.6578 -0.1082  1.4865
 2690SOL    HW219704   4.560   0.530   4.259 -1.1768 -0.1915  0.2819
 2691SOL     OW19705   3.660   1.023   6.469  0.0847  0.2198  0.3561
 2691SOL    HW119706   3.687   0.933   6.449 -2.3281 -0.4362  0.0511
 2691SOL    HW219707   3.607   1.033   6.390  2.7722  0.0516 -1.4512
 2692SOL     OW19708   0.642   3.451   9.326  0.2321 -0.5084 -0.1707
 2692SOL    HW119709   0.676   3.531   9.366 -0.8620  0.1053 -0.4671
 2692SOL    HW219710   0.712   3.423   9.268  0.2408 -1.5438  0.3403
 2693SOL     OW19711   2.254   3.628   3.975  0.1858  0.3484 -0.4335
 2693SOL    HW119712   2.296   3.563   4.031 -2.5052  0.2403  1.4966
 2693SOL    HW219713   2.260   3.579   3.894 -0.6513 -1.5020  0.6209
 2694SOL     OW19714   2.640   0.743   7.884  0.0679  0.2339  0.3229
 2694SOL    HW119715   2.726   0.765   7.919 -0.5339  0.2577  1.8337
 2694SOL    HW219716   2.626   0.669   7.944  1.0784 -0.0940  0.1493
 2695SOL     OW19717   4.156   0.059  16.414 -0.1926 -0.0369 -0.5804
 2695SOL    HW119718   4.188   0.143  16.447 -1.6349  0.3068 -0.0237
 2695SOL    HW219719   4.076   0.091  16.372 -0.2177 -0.5763 -0.9502
 2696SOL     OW19720   0.087   1.942   2.661  0.2368  0.1514 -0.7507
 2696SOL    HW119721   0.079   1.857   2.706  0.2471 -0.4140 -1.8170
 2696SOL    HW219722   0.179   1.959   2.681 -0.3651  3.9356 -1.2341
 2697SOL     OW19723   3.944   1.644  10.698 -0.7597  0.2604  0.0333
 2697SOL    HW119724   4.001   1.567  10.710  0.6272  1.5816  1.9429
 2697SOL    HW219725   3.999   1.681  10.629 -0.0286  2.0611  1.5981
 2698SOL     OW19726   2.610   2.132   6.946  0.1319 -0.0590  0.7509
 2698SOL    HW119727   2.666   2.209   6.939 -0.4242  0.4008  1.3854
 2698SOL    HW219728   2.531   2.164   6.902 -0.7028 -2.0393  0.7863
 2699SOL     OW19729   3.595   4.246   5.219  0.4458  0.5053 -0.4945
 2699SOL    HW119730   3.553   4.249   5.305  0.9543 -1.3232 -0.1852
 2699SOL    HW219731   3.589   4.151   5.210  0.5563  0.2485  2.1532
 2700SOL     OW19732   3.415   0.332   8.426  0.1288 -0.8928 -0.3109
 2700SOL    HW119733   3.379   0.248   8.452 -0.0009 -0.4169  1.0097
 2700SOL    HW219734   3.341   0.377   8.386  0.0498 -0.5642  0.2216
 2701SOL     OW19735   0.570   0.814   2.399  0.3015  0.0315  0.5898
 2701SOL    HW119736   0.628   0.823   2.474 -0.3128  0.4754  1.0071
 2701SOL    HW219737   0.504   0.881   2.415  0.6998  0.2596  1.2619
 2702SOL     OW19738   1.621   0.846   7.281  0.0113  0.3541 -0.5719
 2702SOL    HW119739   1.681   0.839   7.207 -1.7684 -0.1962 -1.9683
 2702SOL    HW219740   1.592   0.755   7.287 -1.9083  1.2335  3.1417
 2703SOL     OW19741   1.013   3.680  10.822  0.3232 -0.1977 -0.0274
 2703SOL    HW119742   0.938   3.694  10.880  0.5624 -1.4869  0.5851
 2703SOL    HW219743   1.042   3.593  10.850 -0.2188 -0.5246 -0.4622
 2704SOL     OW19744   0.573   1.732   7.977 -0.1301  0.2109 -0.2568
 2704SOL    HW119745   0.609   1.650   8.011  1.5169  0.5767 -1.0908
 2704SOL    HW219746   0.620   1.787   8.040 -0.7701  2.1383 -1.4592
 2705SOL     OW19747   1.244   0.182   9.337 -0.6033 -0.0601  0.4189
 2705SOL    HW119748   1.193   0.105   9.362  0.1357  0.3030  3.0712
 2705SOL    HW219749   1.327   0.136   9.327  1.0873  2.7655  1.5145
 2706SOL     OW19750   4.044   0.921   6.682 -0.8251 -0.5359  0.1396
 2706SOL    HW119751   4.121   0.977   6.688  0.6914 -2.4812 -1.0526
 2706SOL    HW219752   4.050   0.899   6.589  0.6202 -1.3090  0.4136
 2707SOL     OW19753   0.617   3.685   6.865 -0.0829 -0.6774  0.0626
 2707SOL    HW119754   0.683   3.755   6.862 -0.7322  0.0148  1.9622
 2707SOL    HW219755   0.571   3.723   6.940  0.3308 -0.1441  0.0468
 2708SOL     OW19756   3.536   1.739   9.026 -0.5173 -0.3865 -0.2466
 2708SOL    HW119757   3.492   1.814   8.987  1.2975  0.3289 -0.9483
 2708SOL    HW219758   3.543   1.779   9.113  1.8467 -1.9971  0.2961
 2709SOL     OW19759   0.917   0.961  10.853  0.2100 -0.1712  0.6211
 2709SOL    HW119760   0.859   0.885  10.858 -0.1349 -0.0429 -1.4240
 2709SOL    HW219761   0.864   1.036  10.880 -1.2358 -1.2867  0.8935
 2710SOL     OW19762   3.399   0.349   4.120  0.0928  0.1362  0.0316
 2710SOL    HW119763   3.438   0.411   4.059 -1.0752 -1.0661 -1.9270
 2710SOL    HW219764   3.455   0.272   4.115  1.0421  0.7586  0.9110
 2711SOL     OW19765   2.987   4.313   1.914  0.0261  0.6883  0.4453
 2711SOL    HW119766   3.045   4.237   1.924 -0.8499  0.0641  0.7489
 2711SOL    HW219767   2.951   4.296   1.827  1.0294  1.0389 -0.0484
 2712SOL     OW19768   3.913   1.188   6.675 -0.1929  0.2554  0.2918
 2712SOL    HW119769   3.913   1.095   6.699  0.6321  0.1838 -0.0026
 2712SOL    HW219770   3.930   1.194   6.581  0.1154  1.5434  0.4270
 2713SOL     OW19771   0.940   1.264   7.803 -0.2043 -0.0868  1.0806
 2713SOL    HW119772   1.032   1.264   7.829  0.5874  0.5842 -1.7038
 2713SOL    HW219773   0.905   1.207   7.871  0.0969 -1.5287  0.0263
 2714SOL     OW19774   0.198   4.096  17.404 -0.0259  0.1642  0.2606
 2714SOL    HW119775   0.157   4.020  17.446  1.0400 -0.6828 -0.2369
 2714SOL    HW219776   0.124   4.127  17.351 -0.0465 -1.5263 -0.7330
 2715SOL     OW19777   0.638   1.043   8.128 -0.5863 -0.1073 -0.7801
 2715SOL    HW119778   0.576   0.992   8.076 -0.6084 -1.6074  0.7652
 2715SOL    HW219779   0.575   1.101   8.172  1.0982 -0.0172  1.4553
 2716SOL     OW19780   0.525   1.881   0.246 -0.3576 -0.2018  0.2095
 2716SOL    HW119781   0.596   1.927   0.291 -0.3734 -1.6440  1.7199
 2716SOL    HW219782   0.486   1.824   0.312 -2.3202 -1.3194 -1.9124
 2717SOL     OW19783   3.160   4.345  10.531 -0.4535  0.7024  0.0832
 2717SOL    HW119784   3.238   4.392  10.501 -1.8205  2.5382 -0.5842
 2717SOL    HW219785   3.104   4.422  10.539 -0.4881  0.5809  0.9406
 2718SOL     OW19786   1.684   4.171   3.534  0.3204 -0.6508 -0.5191
 2718SOL    HW119787   1.762   4.122   3.509 -0.5098 -1.9659 -0.5141
 2718SOL    HW219788   1.640   4.210   3.458 -1.4756  2.2849  2.0090
 2719SOL     OW19789   0.161   4.433  11.510  0.2143  0.2272  0.4908
 2719SOL    HW119790   0.236   4.442  11.569 -0.2925 -1.6292  1.4221
 2719SOL    HW219791   0.087   4.479  11.549  0.2978 -0.7494  1.8095
 2720SOL     OW19792   1.536   1.852   9.199  0.0178 -0.2596 -0.3236
 2720SOL    HW119793   1.575   1.778   9.152 -0.3421  0.1216 -1.2356
 2720SOL    HW219794   1.591   1.855   9.277  1.4011  3.5266 -1.4386
 2721SOL     OW19795   2.219   2.842   5.577 -0.3467 -0.0730  0.0342
 2721SOL    HW119796   2.291   2.793   5.537 -1.2771 -1.2062 -0.2680
 2721SOL    HW219797   2.209   2.790   5.657 -0.5398 -1.2468 -0.7537
 2722SOL     OW19798   3.334   3.008  16.589 -0.1438  0.6435  0.7983
 2722SOL    HW119799   3.412   3.033  16.638 -0.5642  1.5604  0.9925
 2722SOL    HW219800   3.328   3.089  16.539  1.4247  0.3154  0.1031
 2723SOL     OW19801   1.161   2.373   9.478 -0.2785  0.2831 -0.6699
 2723SOL    HW119802   1.159   2.436   9.549 -0.7171 -0.3998 -0.0824
 2723SOL    HW219803   1.082   2.322   9.498 -1.1767  2.5050  1.4019
 2724SOL     OW19804   0.942   3.056   8.403  0.1479  0.1169 -0.2936
 2724SOL    HW119805   0.861   3.008   8.383  1.3924 -1.3141 -1.9163
 2724SOL    HW219806   0.978   2.987   8.458  0.7279  0.7068  0.0648
 2725SOL     OW19807   3.551   2.410  17.077  0.4507 -0.0896  0.0219
 2725SOL    HW119808   3.588   2.322  17.085 -2.1176 -1.1942 -0.5949
 2725SOL    HW219809   3.458   2.391  17.072  0.7589 -1.6604  0.3505
 2726SOL     OW19810   0.711   3.480   0.670 -0.3494  0.7087  0.1082
 2726SOL    HW119811   0.649   3.500   0.740  0.8228 -2.5312  2.0347
 2726SOL    HW219812   0.755   3.564   0.653 -0.4655  1.2837  2.6286
 2727SOL     OW19813   2.930   2.884   8.689 -0.0951 -0.0577 -0.5064
 2727SOL    HW119814   3.018   2.887   8.653 -0.0984  0.4574 -0.4763
 2727SOL    HW219815   2.937   2.961   8.746  0.0460 -0.4380 -0.0119
 2728SOL     OW19816   3.517   4.359   5.885 -0.1631  0.4209 -0.0137
 2728SOL    HW119817   3.521   4.404   5.969 -1.1084  0.0642  0.2247
 2728SOL    HW219818   3.427   4.384   5.861 -0.0818  0.9586  0.2502
 2729SOL     OW19819   3.253   3.861   2.708 -0.4970 -0.7008 -0.5422
 2729SOL    HW119820   3.167   3.851   2.749 -0.5426  0.6257 -0.3296
 2729SOL    HW219821   3.289   3.772   2.711 -2.7290 -1.5442  1.1256
 2730SOL     OW19822   2.714   0.135   5.997 -0.6907  0.2577 -0.2947
 2730SOL    HW119823   2.765   0.182   5.932  1.1586 -1.3784 -0.0155
 2730SOL    HW219824   2.668   0.089   5.927 -0.9795  1.6440 -1.0114
 2731SOL     OW19825   4.256   3.516   7.610  0.6851 -0.2108 -0.6981
 2731SOL    HW119826   4.192   3.583   7.635  0.2844 -1.3451  1.2886
 2731SOL    HW219827   4.197   3.452   7.572  0.5638 -1.1504  1.0559
 2732SOL     OW19828   3.526   4.410   6.655  0.1723  0.4129  0.2999
 2732SOL    HW119829   3.609   4.458   6.661  0.4312 -0.0632  0.4961
 2732SOL    HW219830   3.494   4.443   6.739  0.9422  2.0979 -0.0546
 2733SOL     OW19831   3.931   1.676   3.273  0.3299 -0.1097 -0.0982
 2733SOL    HW119832   3.958   1.764   3.300  0.8504 -0.0010 -0.9725
 2733SOL    HW219833   3.991   1.652   3.202  0.4102  0.3234 -0.1782
 2734SOL     OW19834   1.315   2.690   5.433 -0.6769 -0.4244  0.5039
 2734SOL    HW119835   1.404   2.658   5.442  0.5998  3.2951  1.3964
 2734SOL    HW219836   1.330   2.785   5.432  0.6320 -0.6345  1.5152
 2735SOL     OW19837   1.127   4.325   7.570  0.4101  0.4712 -0.5402
 2735SOL    HW119838   1.212   4.348   7.608  1.3945 -1.5222 -1.5052
 2735SOL    HW219839   1.127   4.232   7.591  0.8740  0.6641  0.2943
 2736SOL     OW19840   1.084   4.478   4.965 -0.5813  0.4643 -0.1503
 2736SOL    HW119841   1.132   4.427   4.899 -0.3971  0.8179 -0.2908
 2736SOL    HW219842   1.154   4.485   5.030 -1.8720  0.3269  1.2334
 2737SOL     OW19843   1.250   1.662   4.732 -0.3204 -0.1977  0.2875
 2737SOL    HW119844   1.244   1.717   4.654 -2.3653  0.8441  1.1748
 2737SOL    HW219845   1.218   1.720   4.801  0.2227 -0.3979  0.7097
 2738SOL     OW19846   0.603   0.315  17.181  0.7181  0.6088 -0.0636
 2738SOL    HW119847   0.596   0.373  17.106  0.9416  1.2631  0.4195
 2738SOL    HW219848   0.549   0.358  17.247 -2.2308  2.5059 -3.7383
 2739SOL     OW19849   0.592   0.736  16.722 -0.1585 -0.6307  0.1906
 2739SOL    HW119850   0.611   0.775  16.807  0.0282 -0.4995  0.0887
 2739SOL    HW219851   0.662   0.671  16.715  0.3190  0.0617 -1.4225
 2740SOL     OW19852   1.029   2.994   5.742  0.2020  0.0421 -0.0317
 2740SOL    HW119853   1.029   3.079   5.786 -1.1183 -0.0196  0.0769
 2740SOL    HW219854   1.011   3.024   5.653 -0.5982 -0.9135 -0.1886
 2741SOL     OW19855   3.830   1.465   0.400  0.2488  0.2843 -0.5589
 2741SOL    HW119856   3.872   1.392   0.354 -0.5595 -0.2033 -0.5063
 2741SOL    HW219857   3.884   1.542   0.379 -0.0785  0.9741  1.0745
 2742SOL     OW19858   2.227   2.873  14.123  0.1300 -0.4569 -0.0396
 2742SOL    HW119859   2.168   2.801  14.102 -0.5908  0.0183  0.3509
 2742SOL    HW219860   2.214   2.855  14.217  0.5399  1.6732  0.4097
 2743SOL     OW19861   3.481   4.482   8.482 -0.4177  0.1708  0.1094
 2743SOL    HW119862   3.532   4.477   8.400 -0.7183  0.1941 -0.0787
 2743SOL    HW219863   3.400   4.525   8.456 -1.2248  0.8761  3.8569
 2744SOL     OW19864   1.293   1.236   2.034 -0.5345 -0.1216 -0.6882
 2744SOL    HW119865   1.368   1.193   2.073 -0.1500 -0.0025 -1.2985
 2744SOL    HW219866   1.233   1.235   2.109  0.3718 -0.6328  0.0194
 2745SOL     OW19867   1.673   3.732   1.288 -0.4814  0.3701  0.2176
 2745SOL    HW119868   1.687   3.674   1.213  2.1554  1.6720 -0.3150
 2745SOL    HW219869   1.637   3.807   1.239 -0.8782 -0.7962 -1.2726
 2746SOL     OW19870   2.589   3.735   9.086 -0.4230  0.3104  0.0439
 2746SOL    HW119871   2.632   3.655   9.054 -0.7429  0.7483 -1.4980
 2746SOL    HW219872   2.499   3.722   9.055 -0.4775  2.3882 -0.6290
 2747SOL     OW19873   1.232   1.235   4.458 -0.1029 -0.1681  0.6674
 2747SOL    HW119874   1.291   1.164   4.485  1.4312  0.6139 -0.6567
 2747SOL    HW219875   1.152   1.183   4.462 -0.7639  0.7889 -0.4015
 2748SOL     OW19876   2.973   1.518  12.836 -0.5249  0.0125  0.3100
 2748SOL    HW119877   2.947   1.528  12.928 -0.3610  0.5124  0.3015
 2748SOL    HW219878   3.042   1.453  12.845  3.4205  4.2117  0.5083
 2749SOL     OW19879   4.010   0.914  17.669 -0.0010 -0.5428 -0.4568
 2749SOL    HW119880   4.022   0.829  17.627 -1.9101 -1.4491  0.8179
 2749SOL    HW219881   4.003   0.968  17.591 -0.1528  1.6576  1.0814
 2750SOL     OW19882   0.858   0.427   7.852 -0.6342  0.0543  0.1777
 2750SOL    HW119883   0.773   0.383   7.844 -0.9410  1.0600 -1.9422
 2750SOL    HW219884   0.859   0.465   7.765 -0.5995  2.3062  1.1680
 2751SOL     OW19885   1.667   0.909   7.884  0.4173 -0.6776 -0.3320
 2751SOL    HW119886   1.609   0.841   7.850 -1.1461  0.9220 -0.8796
 2751SOL    HW219887   1.636   0.917   7.974 -0.1873 -2.5012 -0.3734
 2752SOL     OW19888   3.360   4.459   6.876 -0.4202  0.3464  0.1087
 2752SOL    HW119889   3.371   4.425   6.965  0.7933 -0.5645 -0.3784
 2752SOL    HW219890   3.338   4.377   6.831  1.5169 -1.5984  2.6661
 2753SOL     OW19891   3.122   2.112   5.482 -0.1265 -0.3403 -0.8269
 2753SOL    HW119892   3.041   2.106   5.533 -0.2751 -0.3124 -1.0617
 2753SOL    HW219893   3.087   2.155   5.404  0.2579 -0.2769 -0.9667
 2754SOL     OW19894   2.563   3.394  17.354 -0.4599 -0.0162  0.1649
 2754SOL    HW119895   2.653   3.386  17.324 -0.9602  0.9050 -1.5886
 2754SOL    HW219896   2.573   3.466  17.415  1.7354  2.3746 -3.0304
 2755SOL     OW19897   3.704   3.692  16.296 -0.6641  0.4861  0.1306
 2755SOL    HW119898   3.736   3.635  16.367  1.9886 -0.8927 -2.1538
 2755SOL    HW219899   3.762   3.671  16.223  0.9818  2.8400  0.7521
 2756SOL     OW19900   3.122   2.400   0.032  0.2843 -0.2141  0.4896
 2756SOL    HW119901   3.067   2.380   0.108 -0.3258 -0.2609  0.0394
 2756SOL    HW219902   3.076   2.467  17.731 -0.3504  0.7194  2.2932
 2757SOL     OW19903   3.577   3.122   9.588  0.5083 -0.0624  0.2670
 2757SOL    HW119904   3.573   3.026   9.589  1.5099 -0.0918  1.3619
 2757SOL    HW219905   3.576   3.136   9.493  0.0868 -0.7600  0.1688
 2758SOL     OW19906   3.142   4.258  16.563  0.0864  0.0281 -0.4450
 2758SOL    HW119907   3.232   4.283  16.584  0.6355  0.3915 -3.2832
 2758SOL    HW219908   3.143   4.250  16.468  1.7760 -0.8390 -0.3414
 2759SOL     OW19909   1.828   0.433   9.629 -0.0480  0.0051 -0.0299
 2759SOL    HW119910   1.743   0.471   9.609 -1.5538 -2.5672  1.5310
 2759SOL    HW219911   1.798   0.345   9.650 -1.1282  0.0063 -1.5793
 2760SOL     OW19912   3.868   2.034   4.402  0.0712 -0.1308  0.2683
 2760SOL    HW119913   3.860   2.081   4.484 -0.7859 -1.8623  1.1776
 2760SOL    HW219914   3.782   2.058   4.368 -0.1579 -1.3983 -0.0819
 2761SOL     OW19915   3.194   1.376   4.806  0.0689 -0.6820  0.0529
 2761SOL    HW119916   3.281   1.405   4.779 -1.5255  2.7093 -1.4776
 2761SOL    HW219917   3.223   1.288   4.827  1.0884 -0.2747  0.3503
 2762SOL     OW19918   0.675   2.675   9.673 -0.3803 -0.2142  0.4163
 2762SOL    HW119919   0.676   2.749   9.734  1.2179 -0.2525  0.4308
 2762SOL    HW219920   0.585   2.642   9.669 -1.4190  2.4313  1.6551
 2763SOL     OW19921   0.828   0.989   9.541 -0.1528 -0.6546 -0.2344
 2763SOL    HW119922   0.800   0.898   9.548 -1.8961 -0.2292 -1.8540
 2763SOL    HW219923   0.905   0.986   9.484 -0.4349  0.2101 -0.6662
 2764SOL     OW19924   3.049   1.192   4.522  0.4058 -0.1521 -0.3708
 2764SOL    HW119925   3.112   1.244   4.572 -2.0569  1.7690  0.7919
 2764SOL    HW219926   3.093   1.186   4.438  3.3056 -0.4786  1.1604
 2765SOL     OW19927   3.402   0.210   1.632 -0.4819  0.1900 -0.0985
 2765SOL    HW119928   3.432   0.292   1.593  1.2525 -0.4674 -0.1503
 2765SOL    HW219929   3.316   0.230   1.669  0.8323  0.2855  2.9335
 2766SOL     OW19930   3.648   3.894   1.507  0.4846  0.0776  0.5365
 2766SOL    HW119931   3.617   3.938   1.586  0.6756 -2.3773  1.9803
 2766SOL    HW219932   3.571   3.908   1.452  0.7372  0.3802  0.2573
 2767SOL     OW19933   2.111   1.076   5.665 -0.5251 -0.2553 -0.3074
 2767SOL    HW119934   2.177   1.130   5.710 -1.0454  0.2815 -0.1906
 2767SOL    HW219935   2.078   1.143   5.605  1.3025 -0.1639 -1.2167
 2768SOL     OW19936   3.633   4.456   8.896 -0.4005 -0.2197 -0.2043
 2768SOL    HW119937   3.600   4.513   8.965  1.5189  2.9105 -1.8551
 2768SOL    HW219938   3.582   4.488   8.822 -0.0488  0.2344 -0.2560
 2769SOL     OW19939   4.010   1.321   4.911 -0.3467  1.2420  0.2943
 2769SOL    HW119940   4.048   1.353   4.993 -2.2550  0.1051  1.6087
 2769SOL    HW219941   4.014   1.226   4.926  1.7584  1.1574 -0.7906
 2770SOL     OW19942   3.087   1.045   8.808 -0.1122  0.0269  0.2640
 2770SOL    HW119943   3.111   0.963   8.765 -1.8027 -1.0244  1.3295
 2770SOL    HW219944   2.997   1.031   8.837 -0.1025 -1.6875 -0.5520
 2771SOL     OW19945   4.406   1.517   3.625  0.6666  0.5510 -0.5071
 2771SOL    HW119946   4.473   1.542   3.561  0.1281  1.1731 -0.8249
 2771SOL    HW219947   4.381   1.604   3.657  1.9379  1.0925 -0.9745
 2772SOL     OW19948   2.292   1.687   9.615 -0.2186  0.6430  0.5626
 2772SOL    HW119949   2.288   1.655   9.705  0.4474  0.0179  0.3690
 2772SOL    HW219950   2.274   1.780   9.633  0.6180  1.1322 -1.2133
 2773SOL     OW19951   1.916   4.203   3.238 -0.3422 -0.0485  0.4875
 2773SOL    HW119952   1.952   4.291   3.229  4.7741 -1.9423  2.4314
 2773SOL    HW219953   1.887   4.213   3.329 -2.7994 -0.0906 -0.2748
 2774SOL     OW19954   1.100   0.631   3.072 -0.2121  0.4502 -0.1003
 2774SOL    HW119955   1.179   0.603   3.025 -1.1234 -1.1603 -0.6334
 2774SOL    HW219956   1.119   0.597   3.160  2.9693  1.5727 -0.3201
 2775SOL     OW19957   3.211   1.398   7.576 -0.1156 -0.5967 -0.3164
 2775SOL    HW119958   3.246   1.343   7.646  0.5915  0.3184  0.0428
 2775SOL    HW219959   3.201   1.475   7.632  2.0079  0.3689 -1.2697
 2776SOL     OW19960   1.681   0.140  13.383  0.3707  0.2121 -0.1297
 2776SOL    HW119961   1.707   0.214  13.328 -1.8910  0.4189 -0.9347
 2776SOL    HW219962   1.626   0.087  13.324 -1.0036  0.6262  0.7796
 2777SOL     OW19963   3.005   0.776   0.589 -0.1349  0.4762 -0.0810
 2777SOL    HW119964   2.917   0.759   0.623  0.4295  1.4716  1.8658
 2777SOL    HW219965   3.056   0.697   0.607  0.9985  0.9783 -1.1242
 2778SOL     OW19966   0.991   3.011   7.928  0.2181 -0.3284  0.6419
 2778SOL    HW119967   1.059   3.011   7.996 -0.0627 -0.7134  0.9255
 2778SOL    HW219968   1.052   3.006   7.854 -0.6942 -1.9735  0.0174
 2779SOL     OW19969   2.497   4.312   6.899 -0.5084  0.0904  0.2619
 2779SOL    HW119970   2.484   4.357   6.982  0.7168  0.5177  0.2156
 2779SOL    HW219971   2.569   4.254   6.921 -0.6619  0.0934  0.7779
 2780SOL     OW19972   1.099   0.036   1.181 -0.0709 -0.9379 -0.3811
 2780SOL    HW119973   1.156   4.736   1.248  0.0838 -0.5929 -0.3151
 2780SOL    HW219974   1.030   4.709   1.190 -0.9527  0.1907  0.9855
 2781SOL     OW19975   1.863   3.014   4.147 -0.2345 -0.1606 -0.5220
 2781SOL    HW119976   1.800   3.057   4.089  0.3451  2.9229  1.1058
 2781SOL    HW219977   1.809   2.938   4.169 -1.0560  0.2498 -1.1215
 2782SOL     OW19978   1.367   1.504   4.524 -0.0048 -1.1034 -0.0529
 2782SOL    HW119979   1.376   1.536   4.613 -1.0518  0.3491 -0.4667
 2782SOL    HW219980   1.454   1.463   4.514  0.0675 -0.7026 -1.1298
 2783SOL     OW19981   0.398   1.115   7.267 -0.6412  0.0911  0.2141
 2783SOL    HW119982   0.415   1.179   7.198 -0.4228 -1.7172 -1.3802
 2783SOL    HW219983   0.325   1.156   7.313  0.6577  0.5720  1.8575
 2784SOL     OW19984   3.839   0.846   0.360  0.2438  0.2466 -0.4459
 2784SOL    HW119985   3.885   0.841   0.276 -1.7073  0.8629 -1.5424
 2784SOL    HW219986   3.798   0.759   0.367 -2.0328  1.3778  0.1741
 2785SOL     OW19987   4.233   3.836   3.814 -0.1225 -0.5492  0.0736
 2785SOL    HW119988   4.274   3.819   3.730 -0.5056 -1.0625 -0.0070
 2785SOL    HW219989   4.242   3.754   3.862  0.4845  0.0961  1.0592
 2786SOL     OW19990   1.222   1.636  11.702  0.4760 -0.1707 -0.3509
 2786SOL    HW119991   1.148   1.604  11.650  0.7922  0.4854 -1.2035
 2786SOL    HW219992   1.289   1.572  11.680  0.1304 -0.3284 -0.9525
 2787SOL     OW19993   3.943   0.432   2.718 -0.3478  0.4632 -0.6079
 2787SOL    HW119994   3.968   0.383   2.796 -2.5050 -0.3821 -0.4783
 2787SOL    HW219995   3.848   0.441   2.718 -0.3641  0.3397 -1.2448
 2788SOL     OW19996   4.419   2.393  10.356 -0.1395  0.4714 -1.1630
 2788SOL    HW119997   4.329   2.359  10.363  0.5642 -0.8746  1.5263
 2788SOL    HW219998   4.423   2.471  10.411  1.7059  1.7073 -3.0397
 2789SOL     OW19999   2.049   3.792   7.625  0.0692 -0.1943 -0.0644
 2789SOL    HW120000   1.971   3.842   7.603 -0.5790  0.2264  3.1438
 2789SOL    HW220001   2.044   3.803   7.720 -2.1881 -1.7147 -0.0116
 2790SOL     OW20002   0.545   3.671   7.241  0.1717 -0.5314  0.0540
 2790SOL    HW120003   0.483   3.736   7.208 -0.6022 -0.6503  1.2534
 2790SOL    HW220004   0.497   3.590   7.259 -0.4151  0.0627  1.1676
 2791SOL     OW20005   0.352   1.721   2.878 -0.1220  0.7540  0.5088
 2791SOL    HW120006   0.338   1.627   2.860  0.0351  0.9903 -0.8563
 2791SOL    HW220007   0.413   1.714   2.951 -0.3813  0.6952  0.7217
 2792SOL     OW20008   0.062   4.344   3.088 -0.0824  0.0244 -0.7381
 2792SOL    HW120009   0.021   4.377   3.007  0.3905 -0.8229 -1.3154
 2792SOL    HW220010   0.148   4.387   3.086 -0.3042  0.6067  2.8117
 2793SOL     OW20011   2.991   3.026   9.973 -0.0015 -0.2994 -0.3136
 2793SOL    HW120012   2.921   3.087   9.998  1.7441  0.5873  2.4946
 2793SOL    HW220013   3.001   2.959  10.041 -0.0011  1.5744  1.5468
 2794SOL     OW20014   2.550   2.762  11.218  0.4046  0.3857  0.1035
 2794SOL    HW120015   2.626   2.743  11.273  0.6171 -0.4898 -0.5014
 2794SOL    HW220016   2.587   2.799  11.139  1.1715 -1.7969 -0.5507
 2795SOL     OW20017   1.939   4.724   7.835 -0.4607 -0.2559 -0.3347
 2795SOL    HW120018   1.964   4.636   7.806  1.3671 -0.0762  0.6723
 2795SOL    HW220019   1.845   4.712   7.846  0.0787 -2.5835  1.9368
 2796SOL     OW20020   1.423   0.274   4.434  0.0375  0.1666  0.1072
 2796SOL    HW120021   1.422   0.305   4.524 -1.9579  1.1606 -0.2676
 2796SOL    HW220022   1.398   0.182   4.449 -1.4943  0.4491 -0.6679
 2797SOL     OW20023   3.577   0.005   1.616  0.7114 -0.3072  0.2116
 2797SOL    HW120024   3.511   0.075   1.621  0.1704 -0.6904 -1.5773
 2797SOL    HW220025   3.645   0.045   1.670 -0.6777  2.0789  0.2248
 2798SOL     OW20026   4.122   1.678   1.266 -0.1882  0.0167 -0.0035
 2798SOL    HW120027   4.072   1.716   1.339 -2.5015 -2.2721 -0.3806
 2798SOL    HW220028   4.056   1.646   1.205  0.2890 -2.9367  1.0251
 2799SOL     OW20029   2.596   1.836  12.476 -0.2603  0.3901 -0.3188
 2799SOL    HW120030   2.622   1.812  12.565  0.1451  0.7818 -0.3319
 2799SOL    HW220031   2.527   1.771  12.465  1.6131 -1.4955 -0.9160
 2800SOL     OW20032   3.486   2.402   8.143  0.0851 -0.4804  0.0274
 2800SOL    HW120033   3.581   2.394   8.138  0.1998  0.6123  0.3761
 2800SOL    HW220034   3.481   2.496   8.127 -0.0511 -0.1243  2.1081
 2801SOL     OW20035   0.518   3.347  13.364  0.2742 -0.0429 -0.0360
 2801SOL    HW120036   0.445   3.402  13.395 -0.1604  0.4082 -1.8346
 2801SOL    HW220037   0.580   3.411  13.329  1.0108  0.9889  3.1384
 2802SOL     OW20038   2.649   1.719  11.356 -0.3695 -0.1401 -0.1963
 2802SOL    HW120039   2.668   1.660  11.283 -1.2625 -0.7160  0.0391
 2802SOL    HW220040   2.734   1.722  11.400 -1.6892 -1.8770  2.4485
 2803SOL     OW20041   0.422   1.403   6.581  0.4915 -0.0059 -0.3432
 2803SOL    HW120042   0.368   1.325   6.591  1.3007 -0.7136 -1.4318
 2803SOL    HW220043   0.398   1.446   6.662 -2.8045 -3.4380  0.5315
 2804SOL     OW20044   1.294   4.267   8.518 -0.0231  0.0779 -0.2119
 2804SOL    HW120045   1.266   4.347   8.473  1.7915  1.5688  1.3294
 2804SOL    HW220046   1.212   4.234   8.553 -1.1397  1.3734 -1.6067
 2805SOL     OW20047   1.784   3.568  14.210  0.7167  0.6598  0.7839
 2805SOL    HW120048   1.760   3.655  14.241 -0.7568  0.4410  0.2581
 2805SOL    HW220049   1.773   3.513  14.288 -0.3619  2.1468  1.6870
 2806SOL     OW20050   3.697   1.813   1.074 -0.5730 -0.4199  0.5056
 2806SOL    HW120051   3.612   1.835   1.113  1.0497  1.0874  3.2032
 2806SOL    HW220052   3.673   1.776   0.989 -1.2901  1.1714  0.0191
 2807SOL     OW20053   1.973   4.439   5.445  0.4645  0.2012 -0.0853
 2807SOL    HW120054   2.038   4.373   5.472 -0.3284 -1.1327 -1.3801
 2807SOL    HW220055   1.933   4.391   5.372 -1.9682 -0.8147  1.9448
 2808SOL     OW20056   0.805   0.491   6.147 -0.4584 -0.3420  0.0211
 2808SOL    HW120057   0.886   0.469   6.194 -1.6438 -0.5401  1.9987
 2808SOL    HW220058   0.804   0.586   6.153 -3.2646 -0.3296 -0.8783
 2809SOL     OW20059   2.503   2.349  17.398  0.0701  0.1109 -0.1446
 2809SOL    HW120060   2.513   2.400  17.317  2.6051 -0.2921 -0.0918
 2809SOL    HW220061   2.409   2.336  17.400  0.1137 -0.1509  0.2545
 2810SOL     OW20062   2.112   2.257  13.141  0.0873 -0.1090  0.2689
 2810SOL    HW120063   2.108   2.341  13.095 -0.9676  0.2482  1.0088
 2810SOL    HW220064   2.021   2.240  13.166 -0.5837  1.2387 -1.2092
 2811SOL     OW20065   1.504   1.972   8.779 -0.0483  0.2456  0.5205
 2811SOL    HW120066   1.527   1.886   8.815  0.3171  0.3521  0.5411
 2811SOL    HW220067   1.481   2.020   8.859  1.3427 -1.5576  2.0160
 2812SOL     OW20068   3.337   3.257  14.555  0.3002 -0.0864 -0.3392
 2812SOL    HW120069   3.257   3.237  14.603 -0.8845 -0.1918 -2.3460
 2812SOL    HW220070   3.310   3.272  14.464 -0.4399  0.5641 -0.0102
 2813SOL     OW20071   1.126   4.666   4.014  0.2452 -0.7367 -0.0214
 2813SOL    HW120072   1.173   4.729   4.069 -1.6729  0.5248  0.1957
 2813SOL    HW220073   1.042   4.649   4.057  0.1309 -0.6103 -0.1906
 2814SOL     OW20074   2.203   1.109   6.603 -0.2284  0.2640  0.0165
 2814SOL    HW120075   2.255   1.161   6.540 -0.2090 -0.4229 -0.5392
 2814SOL    HW220076   2.183   1.042   6.538  0.2448  0.5113 -0.3882
 2815SOL     OW20077   0.494   4.215  12.390 -0.0147 -0.9189 -0.3126
 2815SOL    HW120078   0.434   4.155  12.436  1.1844 -3.5289 -2.1547
 2815SOL    HW220079   0.517   4.282  12.454  4.0269 -1.6400 -1.0580
 2816SOL     OW20080   4.729   0.021   6.106  0.3116 -0.0091  0.0345
 2816SOL    HW120081   4.636   0.034   6.126  0.3704  0.0890  0.2386
 2816SOL    HW220082   4.733   4.667   6.080 -3.5213 -0.0194 -0.5585
 2817SOL     OW20083   1.722   4.482   7.471  0.1270 -0.6384  0.1211
 2817SOL    HW120084   1.649   4.487   7.533  1.6719 -1.9297  2.0570
 2817SOL    HW220085   1.764   4.568   7.474  0.0156 -0.6069  0.7736
 2818SOL     OW20086   1.463   2.360   9.468  0.3849 -0.4763 -0.5571
 2818SOL    HW120087   1.369   2.368   9.454  0.2840  0.1725  0.4445
 2818SOL    HW220088   1.460   2.365   9.564  3.5140  2.2956 -0.5764
 2819SOL     OW20089   3.252   4.291  10.838  0.0658 -0.2631 -0.3135
 2819SOL    HW120090   3.310   4.268  10.765  0.6324 -0.9810  0.3656
 2819SOL    HW220091   3.171   4.265  10.794  1.0132 -0.6510 -1.8309
 2820SOL     OW20092   4.053   1.792  15.959  0.4044 -0.3894 -0.1050
 2820SOL    HW120093   3.971   1.743  15.961  0.5417 -0.5790  1.3194
 2820SOL    HW220094   4.094   1.768  16.042  0.8290  0.7610  0.0090
 2821SOL     OW20095   1.961   3.903   1.820 -0.2067 -0.0429 -0.0302
 2821SOL    HW120096   1.886   3.962   1.829 -1.2770 -1.3117 -0.5376
 2821SOL    HW220097   1.940   3.861   1.736 -0.2793 -0.4979  0.2164
 2822SOL     OW20098   0.967   2.439   7.126 -0.0475  0.5696 -0.4429
 2822SOL    HW120099   0.878   2.439   7.162 -0.3029  0.0998 -1.0874
 2822SOL    HW220100   0.999   2.350   7.142 -0.1232  0.3452 -1.5594
 2823SOL     OW20101   1.304   3.870   8.201  0.3381 -0.0443 -0.5103
 2823SOL    HW120102   1.212   3.874   8.228  0.2517 -0.5192 -0.7439
 2823SOL    HW220103   1.335   3.945   8.252 -0.8073  1.2685 -1.7502
 2824SOL     OW20104   1.434   3.652   6.540  0.3274  0.4181  0.7620
 2824SOL    HW120105   1.434   3.729   6.483 -0.2378 -0.4497 -0.4266
 2824SOL    HW220106   1.359   3.668   6.597 -0.5434 -0.6881 -0.0626
 2825SOL     OW20107   4.689   2.999  12.456  0.4173 -0.2946  0.0689
 2825SOL    HW120108   0.014   3.070  12.444  2.6479 -1.9651  2.0353
 2825SOL    HW220109   4.653   2.986  12.368  0.4230 -0.6680  0.1201
 2826SOL     OW20110   4.092   3.259   8.946 -0.2547 -0.1307  0.1523
 2826SOL    HW120111   4.108   3.349   8.977  3.9303 -0.6644 -0.5174
 2826SOL    HW220112   4.182   3.241   8.921 -0.5318 -3.0365  1.2442
 2827SOL     OW20113   1.281   0.186   2.636  0.6979 -0.6074  0.1237
 2827SOL    HW120114   1.214   0.139   2.686  0.4198 -0.2034  0.1323
 2827SOL    HW220115   1.351   0.178   2.701  1.1808  2.6436 -0.0296
 2828SOL     OW20116   1.201   0.833  11.319 -0.1560 -0.6139  0.6125
 2828SOL    HW120117   1.260   0.908  11.325 -1.1259  0.2260 -0.2609
 2828SOL    HW220118   1.230   0.782  11.394  0.1552 -2.0547 -0.4805
 2829SOL     OW20119   1.317   0.010  10.305  0.3194  0.0465 -0.2505
 2829SOL    HW120120   1.289   4.736  10.396  1.4203 -0.3406  0.0429
 2829SOL    HW220121   1.374   4.672  10.293 -0.8423 -0.9421  0.6203
 2830SOL     OW20122   4.033   3.080   7.365  0.4389 -0.6754  0.1509
 2830SOL    HW120123   3.941   3.055   7.360  0.4487 -0.8333  0.8050
 2830SOL    HW220124   4.044   3.114   7.276 -1.5487  0.9791  0.5307
 2831SOL     OW20125   3.746   2.219   2.778 -0.1289 -0.2826  0.2695
 2831SOL    HW120126   3.797   2.300   2.774  0.1726 -0.4981 -0.3582
 2831SOL    HW220127   3.663   2.266   2.789  0.5882  0.4084  2.6103
 2832SOL     OW20128   0.498   3.975   9.294 -0.1385 -0.1556 -0.2059
 2832SOL    HW120129   0.540   3.977   9.380  0.7281 -2.1752 -0.5958
 2832SOL    HW220130   0.552   3.915   9.242 -0.7350  0.3567 -1.4155
 2833SOL     OW20131   3.690   1.676   1.558  0.7749 -0.0527  0.4527
 2833SOL    HW120132   3.618   1.616   1.577  3.6757 -3.2573  1.3374
 2833SOL    HW220133   3.665   1.753   1.609  1.3781  0.9076 -0.6986
 2834SOL     OW20134   0.966   1.543  14.372  0.0871 -0.2788  1.0334
 2834SOL    HW120135   1.027   1.484  14.329 -0.0105  0.9688 -0.8453
 2834SOL    HW220136   0.986   1.623  14.323 -0.5673 -0.7492 -0.0196
 2835SOL     OW20137   2.933   4.665  16.412  0.6523 -0.2350 -0.1812
 2835SOL    HW120138   2.926   4.592  16.475  0.2780  0.4370  0.5579
 2835SOL    HW220139   2.841   4.683  16.392  0.9063  2.3005  0.9073
 2836SOL     OW20140   2.517   0.457   6.048 -0.5031  0.4312  0.2042
 2836SOL    HW120141   2.460   0.381   6.060 -0.5240  0.7584  2.0768
 2836SOL    HW220142   2.564   0.438   5.967 -0.3885 -0.0840  0.3895
 2837SOL     OW20143   2.327   0.302   7.776  0.0309  0.1418 -0.1599
 2837SOL    HW120144   2.422   0.303   7.786 -0.0941  0.6489  0.9261
 2837SOL    HW220145   2.293   0.329   7.861  1.0603  1.7001 -0.2361
 2838SOL     OW20146   3.246   2.771  12.848  0.2243  0.1261 -0.4710
 2838SOL    HW120147   3.263   2.838  12.915  0.0753  0.7640 -1.0659
 2838SOL    HW220148   3.333   2.772  12.810  0.7085  0.1937  0.6568
 2839SOL     OW20149   1.022   3.994  15.864 -0.8906 -0.3309 -0.3334
 2839SOL    HW120150   1.012   4.075  15.814  0.1427  0.3340  0.5484
 2839SOL    HW220151   0.929   3.971  15.868 -0.5588 -1.1791  2.5110
 2840SOL     OW20152   2.546   2.034   8.876 -0.3799  0.4865  0.3698
 2840SOL    HW120153   2.475   2.021   8.813 -1.2471 -1.1094  1.6956
 2840SOL    HW220154   2.618   2.021   8.814 -1.6288 -1.3114 -0.6808
 2841SOL     OW20155   1.094   3.281   1.565  0.0982 -0.0629  0.1553
 2841SOL    HW120156   1.188   3.289   1.580 -0.1000  3.1038 -0.2721
 2841SOL    HW220157   1.095   3.225   1.487  0.3846  0.8106 -0.4621
 2842SOL     OW20158   4.018   0.093   7.950 -0.0501 -0.7063  0.4091
 2842SOL    HW120159   4.072   0.110   7.873 -2.2489  0.5709 -0.8597
 2842SOL    HW220160   4.094   0.086   8.008  1.1450  0.3155 -1.0179
 2843SOL     OW20161   4.598   1.491   8.843  0.7960 -0.3540  0.9068
 2843SOL    HW120162   4.553   1.439   8.776 -1.1098  2.7988 -0.2770
 2843SOL    HW220163   4.522   1.502   8.900  0.3911  0.3641  0.2275
 2844SOL     OW20164   4.706   0.763  12.629  0.1302 -0.2857  0.2850
 2844SOL    HW120165   0.024   0.707  12.683  2.5724  0.0796 -1.8449
 2844SOL    HW220166   4.628   0.768  12.684 -1.6586  0.7741 -2.3756
 2845SOL     OW20167   0.086   3.759   5.306  0.1955 -0.2805 -0.6848
 2845SOL    HW120168   0.007   3.764   5.361 -0.4151 -0.2881 -1.5553
 2845SOL    HW220169   0.031   3.763   5.228 -2.1316  0.0017  0.9647
 2846SOL     OW20170   0.544   0.177   1.216  0.2098 -0.5449 -0.2260
 2846SOL    HW120171   0.620   0.221   1.178  0.7797 -0.6884  0.7523
 2846SOL    HW220172   0.477   0.190   1.149 -1.9025  0.3005  2.0562
 2847SOL     OW20173   3.063   2.286   8.627  0.0831 -0.4174 -0.5678
 2847SOL    HW120174   3.138   2.247   8.584 -0.4747  0.9298 -2.7715
 2847SOL    HW220175   3.105   2.361   8.669 -0.9019  0.7890 -1.7100
 2848SOL     OW20176   2.332   4.612  13.912  0.0621 -0.3554  1.1796
 2848SOL    HW120177   2.328   4.688  13.970 -0.1921  0.8178 -0.3570
 2848SOL    HW220178   2.247   4.569  13.921 -0.7077  1.2066  1.4218
 2849SOL     OW20179   3.109   4.507   4.930 -0.0026  0.4610 -0.8235
 2849SOL    HW120180   3.090   4.601   4.921 -0.2335  0.5510  0.7146
 2849SOL    HW220181   3.132   4.483   4.840  0.9003 -1.4138 -0.0867
 2850SOL     OW20182   0.561   3.684  10.618 -0.2754 -0.4846  0.4142
 2850SOL    HW120183   0.640   3.733  10.642 -1.4783  1.3806  0.5668
 2850SOL    HW220184   0.547   3.704  10.525 -0.3629 -0.1910  0.4924
 2851SOL     OW20185   0.618   0.839   4.578  0.6250 -0.2934  0.0668
 2851SOL    HW120186   0.693   0.805   4.627 -0.4936 -0.7131  1.5207
 2851SOL    HW220187   0.553   0.776   4.608 -0.9223  1.4650  0.3915
 2852SOL     OW20188   2.630   3.413   9.263 -0.8839  0.3688  0.4405
 2852SOL    HW120189   2.642   3.322   9.293  2.1429  1.3324  2.1532
 2852SOL    HW220190   2.563   3.445   9.323 -1.2309 -0.2204  0.3684
 2853SOL     OW20191   0.678   2.383   4.779  0.6736  0.4054 -0.4559
 2853SOL    HW120192   0.740   2.427   4.837 -0.2421  1.6692 -0.4335
 2853SOL    HW220193   0.718   2.415   4.697 -0.4663 -1.6991 -1.8271
 2854SOL     OW20194   0.659   0.774  13.036 -0.1436 -0.5083  0.0745
 2854SOL    HW120195   0.692   0.858  13.004 -0.4932 -0.9572 -1.4803
 2854SOL    HW220196   0.715   0.771  13.113  0.6692 -0.4621 -0.5135
 2855SOL     OW20197   4.635   2.265   6.002  0.1227  0.1687  0.5485
 2855SOL    HW120198   4.730   2.277   6.010  0.0854  0.5951  0.3217
 2855SOL    HW220199   4.619   2.263   5.908 -0.3759 -0.5259  0.6504
 2856SOL     OW20200   3.199   1.904   6.273  0.4153 -0.2879  0.2975
 2856SOL    HW120201   3.196   1.999   6.261 -1.0686 -0.3780 -0.0254
 2856SOL    HW220202   3.293   1.904   6.255  0.4746  1.3785  0.6007
 2857SOL     OW20203   1.502   0.381   8.283  0.1389 -0.1989  0.1963
 2857SOL    HW120204   1.540   0.469   8.274 -1.3981  0.4086 -0.4405
 2857SOL    HW220205   1.414   0.412   8.304 -0.1525 -1.0005  0.1237
 2858SOL     OW20206   2.293   4.222   4.052 -0.3980  0.1857 -0.3417
 2858SOL    HW120207   2.255   4.258   4.132 -1.7785 -5.3687  1.4813
 2858SOL    HW220208   2.230   4.152   4.036  1.8929 -1.8603 -0.3736
 2859SOL     OW20209   1.424   4.470   9.331  0.1959 -0.5013  0.1499
 2859SOL    HW120210   1.387   4.512   9.253 -1.4261  0.4646  1.4316
 2859SOL    HW220211   1.413   4.544   9.391  1.1507  1.3524 -1.9722
 2860SOL     OW20212   1.671   2.122  10.006  0.2971  0.4027  0.2853
 2860SOL    HW120213   1.662   2.033   9.970 -0.5323  0.2018  0.9809
 2860SOL    HW220214   1.644   2.180   9.935  0.4901  0.7837  0.5227
 2861SOL     OW20215   4.082   3.336  15.529  0.0573 -0.2043 -0.2089
 2861SOL    HW120216   4.167   3.320  15.570 -0.0297 -1.8749 -0.7084
 2861SOL    HW220217   4.041   3.250  15.530 -2.1277  0.8436  0.7908
 2862SOL     OW20218   2.642   2.895   6.120 -0.0849 -0.2247 -0.3224
 2862SOL    HW120219   2.642   2.803   6.148 -0.5985  0.1015  0.7710
 2862SOL    HW220220   2.736   2.906   6.109  0.1483  1.0103  2.7538
 2863SOL     OW20221   1.379   4.415   6.590 -0.1926  0.0845 -0.2881
 2863SOL    HW120222   1.434   4.367   6.653  0.1693 -0.2481 -0.8639
 2863SOL    HW220223   1.309   4.444   6.648 -1.1533  1.6605 -2.2512
 2864SOL     OW20224   3.624   4.712   4.151  0.5757  0.1867  0.0536
 2864SOL    HW120225   3.706   0.018   4.130  1.2901 -1.7568 -1.1404
 2864SOL    HW220226   3.569   0.004   4.079  0.3595 -1.3067 -0.3969
 2865SOL     OW20227   3.097   4.349   2.505  0.1012 -0.0603 -0.0193
 2865SOL    HW120228   3.045   4.389   2.436 -0.4222 -1.0724 -0.2065
 2865SOL    HW220229   3.186   4.372   2.480  0.1797 -0.2345  0.1008
 2866SOL     OW20230   4.308   3.712   2.859  0.0317  0.2858  0.0625
 2866SOL    HW120231   4.227   3.763   2.869 -1.4710 -1.8933 -0.9884
 2866SOL    HW220232   4.301   3.665   2.943  0.9045 -0.0228 -0.0403
 2867SOL     OW20233   4.167   1.241   5.736  0.3343  0.0005 -0.4080
 2867SOL    HW120234   4.157   1.189   5.816 -0.8017  0.6277 -0.1430
 2867SOL    HW220235   4.228   1.306   5.770 -0.0690  1.1258 -1.8457
 2868SOL     OW20236   2.947   3.450   7.313 -0.0010 -0.6070 -0.4977
 2868SOL    HW120237   2.958   3.538   7.276  1.2391 -1.0082 -1.0667
 2868SOL    HW220238   2.857   3.428   7.289 -1.2852  2.7325  1.1802
 2869SOL     OW20239   1.352   2.729   9.878 -0.3855 -1.0019 -0.1172
 2869SOL    HW120240   1.390   2.734   9.966 -1.5505  4.2296  0.1154
 2869SOL    HW220241   1.316   2.816   9.861  1.5434 -0.6468 -2.3258
 2870SOL     OW20242   0.903   3.452   3.258  0.4660 -0.4426 -0.0272
 2870SOL    HW120243   0.931   3.362   3.271  0.8483 -0.4406 -0.8001
 2870SOL    HW220244   0.951   3.488   3.332  2.4093 -2.7650 -0.1484
 2871SOL     OW20245   0.403   4.005   4.360 -0.0201  0.0112 -0.1231
 2871SOL    HW120246   0.470   3.990   4.427 -1.6703 -2.6416  0.9470
 2871SOL    HW220247   0.339   4.055   4.411 -1.9756  0.2624 -2.8164
 2872SOL     OW20248   0.657   2.621   6.045 -0.5671  0.7695  0.2452
 2872SOL    HW120249   0.605   2.611   5.965 -2.8627  0.7071  1.7308
 2872SOL    HW220250   0.740   2.662   6.021 -0.1763  0.5016  1.1407
 2873SOL     OW20251   3.942   2.621   8.225 -0.2277  0.0037  0.4924
 2873SOL    HW120252   3.923   2.676   8.301 -4.6755  1.6380 -1.8410
 2873SOL    HW220253   3.948   2.533   8.264 -3.2047  0.6388  2.3651
 2874SOL     OW20254   2.143   3.464  10.114 -0.0121  0.0643  0.4291
 2874SOL    HW120255   2.222   3.447  10.062  0.2664  0.1543  0.8257
 2874SOL    HW220256   2.067   3.414  10.085  0.4703 -0.4460  0.0159
 2875SOL     OW20257   0.145   0.037   5.681  0.1353  0.0864  0.6388
 2875SOL    HW120258   0.172   0.109   5.625 -4.6338  1.5396  0.1599
 2875SOL    HW220259   0.088   0.081   5.745 -0.9491 -0.2029 -0.1216
 2876SOL     OW20260   4.629   1.427   7.889  0.1670 -0.3151 -0.3222
 2876SOL    HW120261   4.712   1.442   7.933 -0.0526 -2.1206  0.7055
 2876SOL    HW220262   4.575   1.497   7.925  0.5183  0.6877 -1.7138
 2877SOL     OW20263   0.264   0.540   2.410 -0.1711  0.2474  0.7753
 2877SOL    HW120264   0.173   0.521   2.432  0.0801  1.2567  2.6769
 2877SOL    HW220265   0.269   0.532   2.315 -3.6363  0.5856  0.5805
 2878SOL     OW20266   0.226   3.877   4.667  0.2933 -0.3219  0.6061
 2878SOL    HW120267   0.206   3.919   4.583 -0.7241 -2.1538 -0.0617
 2878SOL    HW220268   0.138   3.858   4.698  1.0990 -3.0008  1.3000
 2879SOL     OW20269   3.742   4.268  12.196 -0.2104  0.3156  0.4581
 2879SOL    HW120270   3.780   4.353  12.171  1.3462 -0.1512  1.2344
 2879SOL    HW220271   3.813   4.241  12.255  1.1742  0.4154 -1.1836
 2880SOL     OW20272   3.129   1.726  12.680 -0.2357  0.0744 -0.2919
 2880SOL    HW120273   3.068   1.659  12.711  1.3063 -1.0852  0.2472
 2880SOL    HW220274   3.062   1.771  12.629 -1.5588 -0.0439  1.3257
 2881SOL     OW20275   0.821   0.222   6.023  0.0094 -0.0742  0.2610
 2881SOL    HW120276   0.814   0.296   6.083  1.2208  1.9150 -2.0529
 2881SOL    HW220277   0.731   0.190   6.031  0.7057 -1.2305  3.4271
 2882SOL     OW20278   3.543   1.244   3.375 -0.2226 -0.5324  0.2295
 2882SOL    HW120279   3.552   1.199   3.459 -2.1623 -3.0578 -0.9008
 2882SOL    HW220280   3.575   1.180   3.312  0.1955  0.2132 -0.3124
 2883SOL     OW20281   4.332   1.143  12.808  0.2623  0.0755 -0.7580
 2883SOL    HW120282   4.331   1.138  12.712 -2.6643  2.8660 -0.8632
 2883SOL    HW220283   4.357   1.235  12.815  2.0567 -0.2406 -3.2243
 2884SOL     OW20284   3.528   4.387   4.720 -0.0161 -0.0192 -0.3124
 2884SOL    HW120285   3.476   4.461   4.751 -0.1394 -0.3470  0.2622
 2884SOL    HW220286   3.606   4.441   4.712 -0.4714  0.5918 -0.7033
 2885SOL     OW20287   0.238   2.496   8.183 -0.1081 -0.4184  0.3691
 2885SOL    HW120288   0.170   2.550   8.223  0.2145 -0.7720  1.4187
 2885SOL    HW220289   0.252   2.436   8.257 -0.7545 -0.2691  0.6089
 2886SOL     OW20290   4.298   0.276   2.777 -0.0941 -0.2801 -0.4029
 2886SOL    HW120291   4.226   0.290   2.839  1.7645  2.5983  1.0807
 2886SOL    HW220292   4.258   0.294   2.692 -1.5546  0.6566  0.4870
 2887SOL     OW20293   1.390   0.485   1.931  0.1595  0.2703  0.2694
 2887SOL    HW120294   1.463   0.477   1.993 -1.6732  0.0295  2.3776
 2887SOL    HW220295   1.364   0.393   1.930  0.8710  0.0742 -0.2964
 2888SOL     OW20296   0.476   1.461   6.305 -0.1124  0.2055 -0.3608
 2888SOL    HW120297   0.463   1.554   6.319 -1.1226 -0.3445  2.3793
 2888SOL    HW220298   0.475   1.433   6.397  0.4967  0.5194 -0.2580
 2889SOL     OW20299   3.510   2.666   8.096  0.1788  0.1621  0.1014
 2889SOL    HW120300   3.486   2.711   8.014 -2.1416 -3.1590 -1.0455
 2889SOL    HW220301   3.561   2.735   8.138  1.9842 -2.6107  2.5255
 2890SOL     OW20302   1.335   3.043   7.706  0.3681  0.3090 -0.0200
 2890SOL    HW120303   1.263   3.033   7.642  0.2509  0.0604  0.1531
 2890SOL    HW220304   1.362   3.129   7.672  1.6559 -0.2685 -0.4293
 2891SOL     OW20305   2.543   3.452   7.029 -0.0054  0.1715  0.3368
 2891SOL    HW120306   2.525   3.359   7.014  2.1161 -0.2893  0.5683
 2891SOL    HW220307   2.459   3.495   7.037 -0.0264  0.1970 -0.0046
 2892SOL     OW20308   4.555   2.494   1.781  0.5470 -0.2437  0.2424
 2892SOL    HW120309   4.617   2.444   1.729  1.1511  1.2258 -0.4438
 2892SOL    HW220310   4.479   2.492   1.723  0.3449  0.3041  0.4804
 2893SOL     OW20311   1.185   3.088  14.384  0.0253  0.7304 -0.7740
 2893SOL    HW120312   1.276   3.117  14.394  0.6279 -0.7411 -2.0250
 2893SOL    HW220313   1.191   3.058  14.294  1.9335 -0.1805 -0.3495
 2894SOL     OW20314   3.227   4.555   4.674  0.7771  0.5535  0.6833
 2894SOL    HW120315   3.279   4.564   4.594 -1.6571 -1.2637 -1.0578
 2894SOL    HW220316   3.172   4.632   4.660 -1.9680 -1.5861 -0.2110
 2895SOL     OW20317   3.808   0.900   2.892 -0.3189  0.5471 -0.2273
 2895SOL    HW120318   3.886   0.859   2.854  1.7687  1.1694  3.4177
 2895SOL    HW220319   3.848   0.944   2.967 -0.2248 -0.7344  0.4889
 2896SOL     OW20320   0.369   1.337  12.682  0.1730  0.1177  0.1768
 2896SOL    HW120321   0.297   1.322  12.742 -1.0961  1.5024 -0.9891
 2896SOL    HW220322   0.331   1.328  12.595  0.6081  0.4113 -0.0451
 2897SOL     OW20323   0.209   3.379   3.440 -0.6335  0.0905 -0.1199
 2897SOL    HW120324   0.119   3.372   3.408 -0.5841 -1.2968  0.0251
 2897SOL    HW220325   0.219   3.471   3.463 -0.1086 -0.4670  1.8775
 2898SOL     OW20326   3.160   3.348   9.644  0.3942  0.1313  0.0658
 2898SOL    HW120327   3.157   3.299   9.726  1.5473  0.6057  0.3871
 2898SOL    HW220328   3.252   3.345   9.618  0.1175 -0.3567 -0.9034
 2899SOL     OW20329   4.301   3.935   9.609 -0.1287 -0.1948  0.7627
 2899SOL    HW120330   4.249   4.015   9.599  0.9116  0.3120 -0.4530
 2899SOL    HW220331   4.379   3.962   9.560 -1.0722 -1.1921 -1.2635
 2900SOL     OW20332   3.933   2.553   2.123 -0.7388  0.1331 -0.1813
 2900SOL    HW120333   3.977   2.517   2.200 -0.9805  2.2680  0.9606
 2900SOL    HW220334   3.987   2.532   2.046 -0.3552 -0.8526  0.3578
 2901SOL     OW20335   2.846   0.028   8.073 -0.7553  0.1361 -0.1543
 2901SOL    HW120336   2.771   0.088   8.064  0.1641  1.0617 -1.4737
 2901SOL    HW220337   2.821   4.710   8.000  0.3458  0.5550 -0.8509
 2902SOL     OW20338   0.694   1.335   2.615 -0.2951  0.0366 -0.2783
 2902SOL    HW120339   0.753   1.392   2.665 -1.5082 -0.7780  2.0692
 2902SOL    HW220340   0.686   1.282   2.695 -1.9378  0.8989  0.1363
 2903SOL     OW20341   3.831   3.269   4.904 -0.5730 -0.4420  0.5362
 2903SOL    HW120342   3.771   3.199   4.929 -1.3983  0.0860  0.0620
 2903SOL    HW220343   3.773   3.344   4.921  0.1252 -0.1642  1.7172
 2904SOL     OW20344   0.604   4.018   1.680  0.3468 -0.0063  0.0576
 2904SOL    HW120345   0.549   4.009   1.758 -0.6981 -1.0996 -0.8091
 2904SOL    HW220346   0.686   4.045   1.722  1.6470 -1.0416 -1.8231
 2905SOL     OW20347   0.224   3.218   3.821  0.2878 -0.6529 -0.0021
 2905SOL    HW120348   0.281   3.277   3.870  1.2180 -0.1705 -1.6595
 2905SOL    HW220349   0.278   3.197   3.744  1.0532  1.9654 -0.1763
 2906SOL     OW20350   2.697   3.668   7.435 -0.1478  0.0428 -0.1309
 2906SOL    HW120351   2.655   3.739   7.484 -0.0373  0.1882 -0.2485
 2906SOL    HW220352   2.781   3.666   7.481  0.0834  0.4386 -0.5372
 2907SOL     OW20353   1.563   4.643   1.378  0.6277 -0.0971  0.1721
 2907SOL    HW120354   1.540   4.620   1.288 -0.9999  1.9712  0.0507
 2907SOL    HW220355   1.624   4.715   1.363 -0.8230  0.8365 -1.3069
 2908SOL     OW20356   0.541   3.549  13.647 -0.4805 -0.2561  0.5407
 2908SOL    HW120357   0.477   3.482  13.620 -0.0297 -0.0422 -1.0262
 2908SOL    HW220358   0.490   3.624  13.678 -1.4384 -1.2630  1.4191
 2909SOL     OW20359   0.318   1.784  17.069 -0.3962 -0.0415  0.5413
 2909SOL    HW120360   0.381   1.852  17.047 -0.5675  0.4890  1.6812
 2909SOL    HW220361   0.343   1.760  17.158  2.2772 -2.4082 -0.8548
 2910SOL     OW20362   0.526   4.002  12.097  0.4593  0.2194  0.1416
 2910SOL    HW120363   0.606   4.041  12.061 -0.7855  0.9430 -1.8365
 2910SOL    HW220364   0.476   4.080  12.122 -0.1187  0.5105 -1.8725
 2911SOL     OW20365   1.088   4.348  12.798 -0.0361 -0.0430  0.0010
 2911SOL    HW120366   1.043   4.370  12.717 -0.0715  0.2926  0.1144
 2911SOL    HW220367   1.115   4.258  12.778  0.4095  0.3766 -1.2981
 2912SOL     OW20368   1.286   4.049   1.662  0.0060 -0.3133 -0.4567
 2912SOL    HW120369   1.291   4.112   1.734  0.8281 -0.8091 -0.0840
 2912SOL    HW220370   1.323   4.098   1.589 -1.7604  0.2742 -0.9719
 2913SOL     OW20371   3.846   0.425  17.490 -0.1147 -0.2963 -0.0388
 2913SOL    HW120372   3.865   0.345  17.539 -0.8400  0.0145  0.7481
 2913SOL    HW220373   3.827   0.391  17.402 -4.2726  2.4138 -0.2299
 2914SOL     OW20374   3.054   0.605   9.277 -0.2905 -0.1907  0.4753
 2914SOL    HW120375   3.106   0.668   9.327  1.0951 -0.7296 -0.2860
 2914SOL    HW220376   3.129   0.546   9.268  0.0656  0.4909 -1.0824
 2915SOL     OW20377   1.246   1.847   4.512  0.0957  0.0957 -0.4639
 2915SOL    HW120378   1.273   1.937   4.491  2.2435 -0.1014  1.4074
 2915SOL    HW220379   1.169   1.839   4.456 -1.6844  3.1697  1.5525
 2916SOL     OW20380   4.728   3.473   2.518  0.1320  0.1497 -0.1909
 2916SOL    HW120381   4.679   3.429   2.587  0.1126  0.4432 -0.0173
 2916SOL    HW220382   0.039   3.402   2.476  0.0988  1.1478 -1.9066
 2917SOL     OW20383   1.077   3.886   6.135  0.3019  0.2047 -0.2159
 2917SOL    HW120384   1.085   3.823   6.063  0.7261  0.7641 -0.6565
 2917SOL    HW220385   1.152   3.849   6.183  0.1452  1.3446  0.8967
 2918SOL     OW20386   1.839   3.119   9.224 -0.6714 -0.2312  0.3807
 2918SOL    HW120387   1.934   3.127   9.234 -0.6030 -0.2587 -0.2103
 2918SOL    HW220388   1.816   3.042   9.276  0.3562 -0.3645  0.6322
 2919SOL     OW20389   1.497   4.673   5.215  0.3978 -0.5998  0.5778
 2919SOL    HW120390   1.545   0.017   5.214  3.2605 -2.2684  0.1979
 2919SOL    HW220391   1.504   4.656   5.309  0.2207 -0.8365  0.5502
 2920SOL     OW20392   2.623   2.579   4.275 -0.6898  0.6319 -0.1640
 2920SOL    HW120393   2.658   2.623   4.352  0.4954  1.4550 -1.1821
 2920SOL    HW220394   2.659   2.494   4.299  2.2912  1.4616 -1.6494
 2921SOL     OW20395   3.748   1.332   0.607  0.3022 -0.0712 -0.5540
 2921SOL    HW120396   3.805   1.372   0.541  0.3974 -1.4946 -1.3373
 2921SOL    HW220397   3.742   1.242   0.577  3.1016  0.2263 -1.9464
 2922SOL     OW20398   1.492   3.761   1.998 -0.2165  0.1022 -0.2075
 2922SOL    HW120399   1.446   3.793   1.921 -1.4289  1.0806  0.9270
 2922SOL    HW220400   1.423   3.763   2.064  0.4288 -2.6121  0.5524
 2923SOL     OW20401   3.208   0.548   3.920  0.2270 -0.4962  0.5018
 2923SOL    HW120402   3.223   0.639   3.948 -0.2695  0.2515 -1.6389
 2923SOL    HW220403   3.272   0.552   3.850  0.8688 -0.6597  1.0772
 2924SOL     OW20404   4.209   2.824   9.871 -0.0006  0.6006 -0.5714
 2924SOL    HW120405   4.222   2.783   9.785  1.3919 -2.1582  0.9533
 2924SOL    HW220406   4.301   2.845   9.890  0.0755 -1.0954  0.9411
 2925SOL     OW20407   4.515   4.608  11.384  0.2031 -0.0911  0.2563
 2925SOL    HW120408   4.514   4.513  11.368  2.0721 -0.1112  0.2630
 2925SOL    HW220409   4.545   4.632  11.296  0.4003  0.9495  0.6070
 2926SOL     OW20410   4.375   3.965  15.425  0.3237 -0.1644  0.3196
 2926SOL    HW120411   4.410   3.877  15.439 -1.0752 -0.1356  3.8635
 2926SOL    HW220412   4.283   3.951  15.447  0.8235 -1.7933  1.3752
 2927SOL     OW20413   2.301   0.541  12.293 -0.3204 -0.0878 -0.1543
 2927SOL    HW120414   2.355   0.466  12.269  1.4985  0.6818  1.6145
 2927SOL    HW220415   2.334   0.552  12.382 -1.4362 -0.2047  0.2715
 2928SOL     OW20416   4.269   4.133   4.213  0.1909 -0.3540  0.5993
 2928SOL    HW120417   4.176   4.151   4.198  0.1472 -1.0789 -0.0020
 2928SOL    HW220418   4.270   4.152   4.307  0.6733 -1.3196  0.7833
 2929SOL     OW20419   3.046   1.179  16.604 -0.6894 -0.0741  0.0886
 2929SOL    HW120420   3.028   1.271  16.621 -0.6160 -0.0542  0.0576
 2929SOL    HW220421   3.026   1.185  16.510 -2.8654  0.5975  0.5852
 2930SOL     OW20422   1.717   2.486  12.075 -0.7659 -0.3360 -0.5043
 2930SOL    HW120423   1.695   2.578  12.088 -0.3646  0.0022 -2.1294
 2930SOL    HW220424   1.711   2.492  11.979  0.3289 -0.6311 -0.6032
 2931SOL     OW20425   2.677   0.796  10.367 -0.1558 -0.2266 -0.1213
 2931SOL    HW120426   2.650   0.711  10.403 -0.6859 -0.9414 -2.2540
 2931SOL    HW220427   2.679   0.773  10.274 -0.3862  0.0354 -0.1916
 2932SOL     OW20428   4.494   3.098  13.850  0.8830 -0.4978 -0.1871
 2932SOL    HW120429   4.432   3.030  13.824 -2.1228  1.3905  2.0715
 2932SOL    HW220430   4.479   3.173  13.793  1.6826  2.7213  3.8343
 2933SOL     OW20431   2.565   2.628  10.858  0.3621  0.3271  0.1465
 2933SOL    HW120432   2.486   2.580  10.884  0.9936 -1.6058 -1.4660
 2933SOL    HW220433   2.621   2.609  10.933 -0.9506 -1.3378  0.7167
 2934SOL     OW20434   4.161   3.050   3.649  0.5229 -0.1506  0.4840
 2934SOL    HW120435   4.114   3.021   3.727  1.5314 -0.5792  0.9378
 2934SOL    HW220436   4.153   2.968   3.599  1.3764  0.5909 -0.8730
 2935SOL     OW20437   2.559   0.012   9.886  0.0857  0.3371  0.4867
 2935SOL    HW120438   2.570   0.079   9.818 -1.6176  1.5162  1.3624
 2935SOL    HW220439   2.586   4.667   9.848 -1.5728  1.1187 -2.3767
 2936SOL     OW20440   2.786   0.028   7.246  0.2639 -0.2884  0.4267
 2936SOL    HW120441   2.795   4.699   7.313 -0.1419  0.9537  1.7360
 2936SOL    HW220442   2.876   0.060   7.245  0.0089  0.5729  3.2660
 2937SOL     OW20443   3.776   2.897   3.624 -0.8735  0.1876 -0.3115
 2937SOL    HW120444   3.691   2.876   3.663 -1.2517  2.0201 -0.1696
 2937SOL    HW220445   3.772   2.993   3.622  1.2103  0.2682 -1.2551
 2938SOL     OW20446   0.809   2.561  11.510 -0.0291  0.0442 -0.6707
 2938SOL    HW120447   0.820   2.487  11.570 -0.2507 -1.9210 -3.0420
 2938SOL    HW220448   0.716   2.577  11.528  0.1266  3.0935 -2.5533
 2939SOL     OW20449   1.275   0.011   0.187 -0.3700 -0.3928  0.3606
 2939SOL    HW120450   1.232   0.092   0.159  0.6655  0.0969  0.1945
 2939SOL    HW220451   1.220   4.687   0.140  1.0659  0.4043 -2.3673
 2940SOL     OW20452   0.319   1.141   8.955  0.6552  0.2154 -0.1094
 2940SOL    HW120453   0.249   1.132   9.019  1.2726 -1.4910  0.3307
 2940SOL    HW220454   0.363   1.056   8.959  0.4735  0.1934  1.4013
 2941SOL     OW20455   3.834   4.478   3.573  0.1880  0.5988  0.0486
 2941SOL    HW120456   3.752   4.432   3.555  0.9420 -0.3966 -0.8775
 2941SOL    HW220457   3.864   4.484   3.483  1.0102  1.9340  0.4151
 2942SOL     OW20458   3.667   2.840   5.197 -0.3677 -0.4060  0.2635
 2942SOL    HW120459   3.680   2.877   5.284 -0.7496 -0.3945  0.3151
 2942SOL    HW220460   3.655   2.751   5.230 -1.2748  0.1078  1.3041
 2943SOL     OW20461   0.728   0.870   2.618  0.7473 -0.4625  0.3554
 2943SOL    HW120462   0.777   0.911   2.689 -1.3239 -1.5141  2.4089
 2943SOL    HW220463   0.654   0.846   2.673  0.4386  0.2998  0.2729
 2944SOL     OW20464   0.763   1.347   5.537 -0.0597 -0.2840  0.2941
 2944SOL    HW120465   0.779   1.433   5.576 -0.1181  0.6857 -1.7830
 2944SOL    HW220466   0.823   1.290   5.585 -2.0923 -1.5720  1.3262
 2945SOL     OW20467   3.320   4.261   7.404 -0.6407  0.2627  0.2253
 2945SOL    HW120468   3.335   4.355   7.415 -2.3574  0.3681  1.6295
 2945SOL    HW220469   3.232   4.250   7.440 -0.1317  0.8269  1.6490
 2946SOL     OW20470   1.561   4.214   7.255 -0.4843 -0.5449  0.3353
 2946SOL    HW120471   1.639   4.244   7.207 -0.3704 -0.8877  0.3100
 2946SOL    HW220472   1.581   4.240   7.346 -1.1986  0.6805  0.1396
 2947SOL     OW20473   4.012   1.950  13.585 -0.4087  0.1723  0.0488
 2947SOL    HW120474   3.932   1.901  13.602 -0.7323  0.2420 -1.3349
 2947SOL    HW220475   4.075   1.898  13.635 -0.3624  1.4048  1.2719
 2948SOL     OW20476   3.736   1.292   1.128  0.0269  0.2162  0.3275
 2948SOL    HW120477   3.825   1.308   1.159  0.2702  1.5667 -1.0104
 2948SOL    HW220478   3.746   1.331   1.040 -0.5467  1.2554  0.7195
 2949SOL     OW20479   1.171   4.484  16.472  0.1214 -0.2492  0.3036
 2949SOL    HW120480   1.122   4.566  16.483 -2.4132 -1.2342 -3.3782
 2949SOL    HW220481   1.140   4.436  16.549 -1.1013 -0.2304 -0.1613
 2950SOL     OW20482   0.086   0.194   9.069  0.0413 -0.3976 -0.2648
 2950SOL    HW120483   0.153   0.141   9.025 -0.0430 -1.0491  0.3943
 2950SOL    HW220484   0.050   0.244   8.996 -1.4211 -0.0194  0.7127
 2951SOL     OW20485   3.538   1.939   7.564  0.2905 -0.1716  0.5811
 2951SOL    HW120486   3.625   1.931   7.602  0.1678 -0.2275  0.8521
 2951SOL    HW220487   3.545   2.011   7.501 -1.7877  0.4553  1.0600
 2952SOL     OW20488   1.747   3.989   2.183  0.4716 -0.6068 -0.0484
 2952SOL    HW120489   1.776   3.947   2.102 -1.3739 -0.4222 -0.8232
 2952SOL    HW220490   1.669   3.934   2.194  0.7286 -0.8208  0.6968
 2953SOL     OW20491   1.031   1.002   7.581  0.9773  0.3387  0.3522
 2953SOL    HW120492   0.990   1.015   7.666 -0.7772  1.2931 -0.6414
 2953SOL    HW220493   0.974   0.934   7.546 -0.6818  0.3652  3.0508
 2954SOL     OW20494   0.633   4.132  12.697 -0.2384 -0.2367 -0.1820
 2954SOL    HW120495   0.653   4.190  12.623  1.6641 -0.1701  0.3686
 2954SOL    HW220496   0.605   4.195  12.763  2.6902  1.1598 -0.2890
 2955SOL     OW20497   3.112   3.509   7.543 -0.1428 -0.7248  0.0661
 2955SOL    HW120498   3.107   3.604   7.534  0.3614 -0.5935  1.1824
 2955SOL    HW220499   3.101   3.465   7.458  2.2327 -1.8590  0.3474
 2956SOL     OW20500   0.085   3.366   4.494  0.3257  0.2025  0.0742
 2956SOL    HW120501   0.083   3.429   4.566  3.6120  1.6241 -1.0692
 2956SOL    HW220502   0.030   3.300   4.536 -0.5445 -1.1293 -3.1665
 2957SOL     OW20503   2.724   1.625   9.006  0.1237  0.1566 -0.4156
 2957SOL    HW120504   2.690   1.569   8.936 -1.8195 -0.0288  0.6824
 2957SOL    HW220505   2.645   1.628   9.060  1.6230  0.4793  1.7607
 2958SOL     OW20506   2.526   3.061   8.738  0.2409  0.7650 -1.3719
 2958SOL    HW120507   2.500   3.055   8.646  3.0162 -0.1190 -2.0930
 2958SOL    HW220508   2.548   3.154   8.741 -1.1475  1.0663 -0.4488
 2959SOL     OW20509   3.917   0.264   6.878 -0.1299  0.1996  0.1933
 2959SOL    HW120510   3.832   0.272   6.922 -1.4669  1.4680 -2.6323
 2959SOL    HW220511   3.975   0.236   6.949 -0.2057  0.9484  0.5512
 2960SOL     OW20512   0.383   2.278   9.645 -0.0484 -0.4060  0.4959
 2960SOL    HW120513   0.432   2.240   9.718 -2.0490 -0.1190  1.9946
 2960SOL    HW220514   0.389   2.216   9.572  1.0011  0.5780 -0.2580
 2961SOL     OW20515   3.277   2.270   7.462 -0.2963 -0.3439  0.3766
 2961SOL    HW120516   3.279   2.226   7.546 -2.8267 -0.5459  0.3466
 2961SOL    HW220517   3.188   2.258   7.426 -0.6520 -2.4636  1.9991
 2962SOL     OW20518   3.577   4.484  16.431 -0.0250  0.0952 -0.3587
 2962SOL    HW120519   3.640   4.554  16.444  1.9477 -1.6049 -0.7964
 2962SOL    HW220520   3.636   4.420  16.392  0.4137 -0.6160  1.4673
 2963SOL     OW20521   2.972   1.301   8.264  0.2788 -0.1210  0.0077
 2963SOL    HW120522   3.038   1.257   8.317  0.7387  0.9915  0.3550
 2963SOL    HW220523   3.020   1.292   8.182  1.4943  1.3678  0.5687
 2964SOL     OW20524   4.406   2.079   3.669 -0.5835 -0.2525 -0.0997
 2964SOL    HW120525   4.499   2.061   3.683  0.2295  1.4307 -3.0620
 2964SOL    HW220526   4.370   2.100   3.755 -0.3076 -0.0522 -0.0303
 2965SOL     OW20527   2.157   3.730  15.249  0.6990 -0.2456  0.1048
 2965SOL    HW120528   2.135   3.814  15.209  1.4332 -0.7462 -1.3537
 2965SOL    HW220529   2.142   3.742  15.343  1.7150  1.3484  0.0650
 2966SOL     OW20530   0.141   3.213   7.942  0.7021  0.1235 -0.5941
 2966SOL    HW120531   0.057   3.212   7.895  0.2626  0.4652  0.1947
 2966SOL    HW220532   0.208   3.211   7.873  0.8534 -1.5959 -0.3905
 2967SOL     OW20533   4.435   3.070   6.788  0.5040  0.4805 -0.9246
 2967SOL    HW120534   4.478   3.148   6.751  0.7829  0.6846 -0.1852
 2967SOL    HW220535   4.344   3.096   6.799  0.6797  0.3137  1.0788
 2968SOL     OW20536   1.984   0.823   9.996  0.5393 -0.4200  0.3410
 2968SOL    HW120537   1.928   0.887   9.953  2.6245  1.4994  0.4405
 2968SOL    HW220538   2.040   0.814   9.918 -2.7206 -1.0154 -1.9392
 2969SOL     OW20539   3.203   1.530   2.242 -0.0098  0.1408  0.9330
 2969SOL    HW120540   3.296   1.531   2.217  0.4438 -0.3638  2.6107
 2969SOL    HW220541   3.211   1.464   2.311  1.8735 -0.1578  0.4465
 2970SOL     OW20542   3.938   2.530  15.924 -0.3865  0.7455  0.1780
 2970SOL    HW120543   3.979   2.616  15.932 -0.5001  0.7388  0.7725
 2970SOL    HW220544   3.991   2.467  15.973  2.2071  0.9086 -2.3680
 2971SOL     OW20545   2.791   2.370   0.063  0.1824 -0.8207 -0.5899
 2971SOL    HW120546   2.775   2.317  17.735 -0.6500 -1.4739  0.0261
 2971SOL    HW220547   2.787   2.291   0.116 -5.1641 -0.5172 -0.5768
 2972SOL     OW20548   0.229   3.142   7.340 -0.2412 -1.3950 -0.1965
 2972SOL    HW120549   0.226   3.216   7.279  1.5562 -1.9456 -0.9355
 2972SOL    HW220550   0.140   3.140   7.377 -0.2630 -2.0293 -0.2869
 2973SOL     OW20551   2.129   1.842   4.311  0.0058 -0.2097  0.2045
 2973SOL    HW120552   2.134   1.864   4.218 -1.3033 -0.9607 -0.0411
 2973SOL    HW220553   2.065   1.771   4.305 -1.0628  0.9377 -2.0036
 2974SOL     OW20554   2.153   2.016   2.317  0.3639 -0.1084  0.4212
 2974SOL    HW120555   2.195   2.042   2.235 -1.8745  2.0213 -0.0774
 2974SOL    HW220556   2.061   2.021   2.292  0.5128  0.9609  0.0664
 2975SOL     OW20557   0.093   0.183   1.296 -0.3581 -0.5143 -0.2420
 2975SOL    HW120558   0.155   0.204   1.365 -0.0697 -1.6777 -0.1489
 2975SOL    HW220559   0.146   0.154   1.221  0.0253  1.6164 -0.7733
 2976SOL     OW20560   2.640   4.243   7.316 -0.0527  0.6526  0.3499
 2976SOL    HW120561   2.555   4.251   7.359  0.2362  0.6653  0.9259
 2976SOL    HW220562   2.640   4.151   7.291 -1.3759  0.5475  0.7577
 2977SOL     OW20563   2.477   1.712   2.973 -0.3199  0.3082 -0.4151
 2977SOL    HW120564   2.562   1.753   2.956 -0.5823  0.0334 -2.4073
 2977SOL    HW220565   2.465   1.735   3.065 -1.7893 -0.1609 -0.4885
 2978SOL     OW20566   3.045   1.750   7.776  1.0202 -0.9550  0.1173
 2978SOL    HW120567   3.123   1.730   7.725  2.2027  2.1724  0.7438
 2978SOL    HW220568   3.072   1.820   7.835  0.2532 -1.2369  0.8086
 2979SOL     OW20569   1.881   3.935   4.471  0.2218  0.0565  0.1946
 2979SOL    HW120570   1.934   3.899   4.400 -1.3426  1.1730 -1.5607
 2979SOL    HW220571   1.882   4.026   4.443  1.4740 -0.5533 -1.7247
 2980SOL     OW20572   0.934   2.210  13.139  0.0292 -0.0546  0.6888
 2980SOL    HW120573   0.956   2.182  13.228 -0.9710 -0.1022  0.9182
 2980SOL    HW220574   0.893   2.294  13.161  1.5018  0.9175 -0.2505
 2981SOL     OW20575   4.260   2.482   4.640 -0.5634  0.0895  0.0024
 2981SOL    HW120576   4.304   2.431   4.709  1.3138  0.8404 -0.6412
 2981SOL    HW220577   4.321   2.555   4.633 -1.2475  0.5668 -0.9626
 2982SOL     OW20578   0.353   1.414  17.611  0.1137  0.4861  0.3532
 2982SOL    HW120579   0.342   1.459  17.527 -1.2214 -0.3299  0.0996
 2982SOL    HW220580   0.373   1.332  17.566 -1.4223  0.3849 -0.1420
 2983SOL     OW20581   0.954   0.267   4.949  0.2678  0.4170  0.2885
 2983SOL    HW120582   0.988   0.196   5.003  3.2600  0.7753 -1.1214
 2983SOL    HW220583   0.970   0.227   4.864  1.8228  0.3533  0.6068
 2984SOL     OW20584   3.985   3.004  10.869  0.2843 -0.7053  0.3649
 2984SOL    HW120585   3.971   2.927  10.814  0.4310  1.3661 -2.5673
 2984SOL    HW220586   4.066   2.977  10.912 -0.3369 -1.3228  1.1524
 2985SOL     OW20587   1.085   3.950   8.609  0.2493 -0.0666 -0.0992
 2985SOL    HW120588   1.171   3.932   8.647 -1.3527 -2.0377  2.6100
 2985SOL    HW220589   1.069   4.040   8.638 -3.2056 -0.3090 -1.2825
 2986SOL     OW20590   4.253   4.154   5.219  0.5537 -0.7301 -0.1832
 2986SOL    HW120591   4.346   4.151   5.196  0.8781  1.1380  0.8997
 2986SOL    HW220592   4.264   4.188   5.307  0.6251  1.2894 -0.9709
 2987SOL     OW20593   1.751   3.026   6.322  0.4287  0.2768 -0.2880
 2987SOL    HW120594   1.745   3.117   6.349  0.6433  0.0267  0.6060
 2987SOL    HW220595   1.844   3.006   6.334  0.3097 -0.3797 -0.4564
 2988SOL     OW20596   2.635   4.011   5.072 -0.0487 -1.0113 -0.1582
 2988SOL    HW120597   2.618   3.917   5.064 -3.5303 -0.1452 -2.8658
 2988SOL    HW220598   2.665   4.032   4.984  0.7520  0.9209  0.5661
 2989SOL     OW20599   3.346   4.375   7.134 -0.3130  0.3784 -0.5190
 2989SOL    HW120600   3.331   4.435   7.207  0.0520  1.4766 -1.3451
 2989SOL    HW220601   3.350   4.295   7.186  0.8775 -0.4469 -1.8684
 2990SOL     OW20602   3.467   2.394   3.273 -0.2739  0.2476 -0.0738
 2990SOL    HW120603   3.555   2.360   3.286 -0.4213 -0.2390 -0.3367
 2990SOL    HW220604   3.454   2.430   3.361 -0.5754  0.7043 -0.3060
 2991SOL     OW20605   2.079   4.370   9.641  0.2730  0.3660  0.3976
 2991SOL    HW120606   2.137   4.294   9.635 -0.4795 -0.2790  1.3119
 2991SOL    HW220607   2.015   4.360   9.571  0.2002 -2.5633  0.8703
 2992SOL     OW20608   2.597   2.388  12.275 -0.0680  0.1403 -0.3895
 2992SOL    HW120609   2.548   2.467  12.299 -0.4848  0.1420 -1.2403
 2992SOL    HW220610   2.669   2.431  12.228 -0.1607 -0.1508 -0.7849
 2993SOL     OW20611   0.059   3.152  11.678  0.5590  0.3289  0.7171
 2993SOL    HW120612   0.011   3.079  11.638  0.1964  1.4846 -0.9850
 2993SOL    HW220613   0.052   3.213  11.605 -0.9741  0.9168  1.3481
 2994SOL     OW20614   4.378   0.230   0.879 -0.0534  0.1966 -0.4323
 2994SOL    HW120615   4.343   0.313   0.913 -2.1637 -1.2508  0.9347
 2994SOL    HW220616   4.467   0.237   0.915 -0.2769 -3.9716  0.9046
 2995SOL     OW20617   0.807   3.093   9.329  0.2216  0.2064 -0.6181
 2995SOL    HW120618   0.783   3.046   9.408  0.0820 -1.5364 -1.6921
 2995SOL    HW220619   0.861   3.164   9.362  0.8358 -0.5512  0.0047
 2996SOL     OW20620   0.424   3.469   7.988 -0.2012  0.9192 -0.0984
 2996SOL    HW120621   0.518   3.468   8.006  0.0173 -0.1788 -1.2579
 2996SOL    HW220622   0.416   3.563   7.973  4.2683  1.3868  0.3562
 2997SOL     OW20623   4.667   1.595  16.060 -0.2623 -0.3417  0.1501
 2997SOL    HW120624   4.657   1.626  16.149  2.9713  1.0944 -0.0064
 2997SOL    HW220625   4.583   1.627  16.026 -0.9739 -0.4877  1.8095
 2998SOL     OW20626   0.220   2.978   4.358 -0.2744 -0.4294  0.2855
 2998SOL    HW120627   0.282   3.044   4.325  0.1084 -0.0469  1.7794
 2998SOL    HW220628   0.263   2.895   4.380  1.6311  0.3886 -0.3560
 2999SOL     OW20629   1.858   0.684   4.656 -0.1824 -0.3622  0.1643
 2999SOL    HW120630   1.815   0.712   4.575 -2.4037  0.0193  1.4874
 2999SOL    HW220631   1.792   0.627   4.697 -0.0236 -0.9074 -0.3378
 3000SOL     OW20632   3.498   3.643   5.262  0.3353  0.2449  0.3200
 3000SOL    HW120633   3.470   3.556   5.289  0.9302  0.3857  1.4065
 3000SOL    HW220634   3.526   3.624   5.172  2.4334  2.1209  0.5689
 3001SOL     OW20635   3.038   3.667   2.991  0.0166  0.0608 -0.5087
 3001SOL    HW120636   3.051   3.575   2.969 -0.2160  0.1506 -1.0136
 3001SOL    HW220637   2.968   3.654   3.055  1.7831  2.7131  2.0048
 3002SOL     OW20638   4.223   2.610   8.415  0.3502 -0.0649  0.5191
 3002SOL    HW120639   4.317   2.621   8.432  0.1195  1.1448  0.9834
 3002SOL    HW220640   4.228   2.626   8.321  0.6681 -2.4867  0.1265
 3003SOL     OW20641   0.538   0.769  14.750 -0.0809 -0.4553 -0.1714
 3003SOL    HW120642   0.573   0.752  14.662 -2.1918 -0.4373 -1.0158
 3003SOL    HW220643   0.474   0.838  14.731  1.0130  0.5376 -0.3276
 3004SOL     OW20644   0.629   3.953  16.122  0.0857  0.0464  0.2382
 3004SOL    HW120645   0.662   3.922  16.038 -0.2866 -3.2541  1.3219
 3004SOL    HW220646   0.568   4.023  16.096 -0.1597 -0.3783 -0.3201
 3005SOL     OW20647   1.444   3.551   8.796 -0.3873  0.1700  0.1711
 3005SOL    HW120648   1.479   3.550   8.885  1.7667 -1.0124 -0.6921
 3005SOL    HW220649   1.493   3.482   8.750  0.0015  0.6027 -0.0635
 3006SOL     OW20650   1.320   0.725  11.529  0.1205 -0.5571 -0.2284
 3006SOL    HW120651   1.249   0.743  11.591 -0.6762 -0.8147 -1.0812
 3006SOL    HW220652   1.328   0.630  11.543 -2.8012 -0.9224 -1.0809
 3007SOL     OW20653   3.949   4.372   0.174 -0.0559  0.1057  0.1883
 3007SOL    HW120654   3.905   4.433   0.115  0.0505  0.5397  0.5594
 3007SOL    HW220655   3.897   4.294   0.153  1.2538 -0.5082 -0.8034
 3008SOL     OW20656   0.929   2.585   3.541 -0.3997 -0.4276  0.9663
 3008SOL    HW120657   0.880   2.633   3.474  0.6452 -1.2367 -0.3490
 3008SOL    HW220658   1.012   2.559   3.502  0.4599  2.4586  0.8813
 3009SOL     OW20659   0.508   0.293  12.074 -0.8881 -0.0159  0.4194
 3009SOL    HW120660   0.542   0.214  12.116 -1.4018 -0.3409  0.2161
 3009SOL    HW220661   0.526   0.367  12.133  2.6951 -1.0027  0.5286
 3010SOL     OW20662   2.242   2.283  17.391  0.3324  0.5589 -0.0418
 3010SOL    HW120663   2.191   2.296  17.311  0.8331 -2.5565 -0.8475
 3010SOL    HW220664   2.187   2.222  17.440  1.3014  0.9114  1.4688
 3011SOL     OW20665   2.045   1.642   7.611 -0.8640  0.0017 -0.0919
 3011SOL    HW120666   1.953   1.615   7.607 -1.2532  1.2696  0.3758
 3011SOL    HW220667   2.040   1.736   7.597 -0.3215  0.3518  1.9818
 3012SOL     OW20668   2.230   0.913   9.310  0.4491 -0.4427  0.2705
 3012SOL    HW120669   2.206   0.843   9.371 -1.0526 -2.5607 -2.7299
 3012SOL    HW220670   2.159   0.977   9.321 -1.5558 -2.4888 -0.7254
 3013SOL     OW20671   3.460   0.318   2.891  0.0337  0.3220  0.1792
 3013SOL    HW120672   3.420   0.271   2.965 -0.5687  0.3871 -0.1035
 3013SOL    HW220673   3.384   0.345   2.839 -1.8410 -0.8882  2.2561
 3014SOL     OW20674   0.395   2.245   5.814  0.2631 -0.8124  0.3305
 3014SOL    HW120675   0.383   2.339   5.802 -0.4928 -1.1391 -1.5483
 3014SOL    HW220676   0.331   2.234   5.885  0.9930  0.9761  1.2736
 3015SOL     OW20677   1.637   2.528   4.884 -0.4433 -0.0662  0.1850
 3015SOL    HW120678   1.706   2.506   4.821  0.4313  3.6990 -0.1493
 3015SOL    HW220679   1.636   2.444   4.929  1.3113  0.1111  0.5677
 3016SOL     OW20680   1.578   3.390   4.878 -0.1656  0.1533  0.2064
 3016SOL    HW120681   1.565   3.482   4.858 -1.8404 -0.1655 -0.1047
 3016SOL    HW220682   1.669   3.373   4.853  0.1806  2.3821 -0.0631
 3017SOL     OW20683   3.629   0.452   8.252 -0.0258  0.5747 -0.0234
 3017SOL    HW120684   3.651   0.370   8.209 -1.1222  0.3108 -0.0638
 3017SOL    HW220685   3.552   0.431   8.304  0.6406  1.2394  1.2521
 3018SOL     OW20686   2.787   3.929   4.114  0.0053  0.3073 -0.4957
 3018SOL    HW120687   2.841   3.854   4.139 -1.1433 -0.1316  0.6766
 3018SOL    HW220688   2.733   3.881   4.052 -1.0020  1.6488 -0.6634
 3019SOL     OW20689   0.207   1.872   6.151  0.1072  0.5288  0.0404
 3019SOL    HW120690   0.293   1.895   6.115 -0.2772  1.6131 -0.1947
 3019SOL    HW220691   0.169   1.825   6.077  0.7489  1.2174 -0.7282
 3020SOL     OW20692   1.801   1.984   3.818  0.2287 -0.3475  0.7791
 3020SOL    HW120693   1.747   1.927   3.763  1.2459 -0.2833 -0.2934
 3020SOL    HW220694   1.750   1.984   3.899 -1.6096  1.0103 -0.3740
 3021SOL     OW20695   3.555   3.503  14.661  0.4147 -0.5390 -0.2905
 3021SOL    HW120696   3.464   3.515  14.633  0.3826  1.5955  0.6890
 3021SOL    HW220697   3.573   3.432  14.600  1.4245 -1.1110  0.6729
 3022SOL     OW20698   1.156   3.524  16.849 -0.6526 -0.0674 -0.1598
 3022SOL    HW120699   1.112   3.446  16.816 -1.1893  0.5505 -0.9258
 3022SOL    HW220700   1.200   3.480  16.922 -0.7530  1.3052  0.7347
 3023SOL     OW20701   3.198   3.957  11.045  0.4370 -0.7071  0.0817
 3023SOL    HW120702   3.273   4.012  11.067  0.3129  0.0112 -1.2571
 3023SOL    HW220703   3.189   3.907  11.126 -0.9702  1.6369  1.3829
 3024SOL     OW20704   2.847   3.222   2.815  0.4830  0.1058  0.5715
 3024SOL    HW120705   2.881   3.153   2.758  1.9243  0.6759  0.7369
 3024SOL    HW220706   2.754   3.213   2.795  0.4728 -1.2371  1.1579
 3025SOL     OW20707   1.242   3.426   4.953  0.5109 -0.3740 -0.2452
 3025SOL    HW120708   1.204   3.472   5.028  1.1133 -0.4841  0.1288
 3025SOL    HW220709   1.248   3.493   4.886 -1.6593 -0.0757 -0.1369
 3026SOL     OW20710   3.864   1.974   5.334  0.3947  0.8662 -0.0329
 3026SOL    HW120711   3.848   1.978   5.429  1.3467  0.1351  0.1652
 3026SOL    HW220712   3.943   1.920   5.339 -0.6108 -0.6771 -0.5733
 3027SOL     OW20713   2.095   4.314   6.020 -0.2326  0.5328 -0.0992
 3027SOL    HW120714   2.176   4.275   6.053  0.0249  0.4334 -0.8484
 3027SOL    HW220715   2.128   4.351   5.938 -0.5159  1.7418  0.3438
 3028SOL     OW20716   3.779   4.199   5.606 -0.3411  0.0377  0.3366
 3028SOL    HW120717   3.715   4.197   5.677  0.6630 -1.6338  1.2155
 3028SOL    HW220718   3.863   4.209   5.652  0.5992 -1.2711 -1.0608
 3029SOL     OW20719   3.053   4.560   9.993  0.4288 -0.6751 -0.1936
 3029SOL    HW120720   3.144   4.578   9.968  0.3156 -1.1461 -0.9481
 3029SOL    HW220721   3.068   4.471  10.024  1.5595  0.2628  1.9003
 3030SOL     OW20722   2.235   3.095   6.860 -0.3617  0.6519 -0.2196
 3030SOL    HW120723   2.142   3.072   6.870  0.0420 -0.2915  1.3301
 3030SOL    HW220724   2.221   3.174   6.807  1.8606  1.3136  0.1938
 3031SOL     OW20725   0.286   2.124  15.281 -0.5373 -0.6605 -0.0124
 3031SOL    HW120726   0.267   2.074  15.360 -0.4117  0.8615  0.9817
 3031SOL    HW220727   0.330   2.055  15.233 -0.7666 -0.5799 -0.3425
 3032SOL     OW20728   3.930   0.614   3.088 -0.0787  0.2084 -0.2424
 3032SOL    HW120729   3.855   0.581   3.039  0.1464 -0.2878 -0.2523
 3032SOL    HW220730   3.983   0.645   3.015 -0.3649  2.4645  0.5120
 3033SOL     OW20731   3.323   2.137  14.193 -0.1746  0.0104  0.1162
 3033SOL    HW120732   3.356   2.050  14.174 -0.6981  0.3571 -2.3336
 3033SOL    HW220733   3.360   2.150  14.280 -0.3691  2.3791 -0.1484
 3034SOL     OW20734   2.702   2.478   8.440  0.0368  0.2713  0.2017
 3034SOL    HW120735   2.701   2.564   8.398  0.5163  0.6282  0.9296
 3034SOL    HW220736   2.792   2.451   8.423  0.1492 -0.1313  1.4257
 3035SOL     OW20737   3.796   0.067   8.272  0.1725 -0.7212  0.2610
 3035SOL    HW120738   3.753   0.091   8.354 -0.6648 -1.3262  0.0022
 3035SOL    HW220739   3.798   4.711   8.291 -0.0749 -0.9461 -0.7997
 3036SOL     OW20740   1.862   1.602  11.817 -0.5289  0.0258  0.4909
 3036SOL    HW120741   1.802   1.663  11.774  0.0965 -0.0177 -0.4413
 3036SOL    HW220742   1.945   1.630  11.779 -1.3083  2.9954  0.9481
 3037SOL     OW20743   1.601   1.352   7.415 -0.2157  0.1128 -0.4057
 3037SOL    HW120744   1.587   1.445   7.434  0.8823  0.2205 -0.1377
 3037SOL    HW220745   1.573   1.306   7.494  0.6085 -0.0218 -0.1949
 3038SOL     OW20746   2.577   4.323  14.580 -0.1268  0.3027  0.6228
 3038SOL    HW120747   2.574   4.372  14.662  0.3389  0.8737  0.2996
 3038SOL    HW220748   2.485   4.301  14.568  0.2469 -0.0817 -1.4290
 3039SOL     OW20749   2.427   4.382   5.492  0.1213 -0.0463 -0.6726
 3039SOL    HW120750   2.503   4.434   5.467  0.8131 -1.7816 -2.2299
 3039SOL    HW220751   2.371   4.414   5.421  0.5582  0.7302 -0.6597
 3040SOL     OW20752   1.244   4.696   1.717 -0.1708 -0.2947 -0.4905
 3040SOL    HW120753   1.185   4.718   1.790 -0.7638 -1.6743 -0.5542
 3040SOL    HW220754   1.242   4.601   1.723  1.8464 -0.2722  0.5979
 3041SOL     OW20755   3.962   2.070   6.917 -0.2554  0.1088  0.1521
 3041SOL    HW120756   3.903   2.007   6.958  0.9397 -0.6857  0.6512
 3041SOL    HW220757   4.052   2.063   6.947  0.1563 -1.6757 -1.5366
 3042SOL     OW20758   2.398   3.156   7.708 -0.3566  0.3806 -0.2186
 3042SOL    HW120759   2.392   3.214   7.783 -3.0796  1.1334 -1.0434
 3042SOL    HW220760   2.456   3.092   7.749 -1.3231  0.4528  1.2484
 3043SOL     OW20761   1.045   4.239   6.948 -0.3425  0.0744  0.0560
 3043SOL    HW120762   1.101   4.307   6.987 -0.4822  0.2302 -0.0180
 3043SOL    HW220763   1.089   4.212   6.867 -0.3831  1.4501 -0.4418
 3044SOL     OW20764   4.710   0.632   4.859 -0.1654 -0.1300 -0.2898
 3044SOL    HW120765   4.696   0.648   4.953 -3.5734 -1.1153 -0.6284
 3044SOL    HW220766   0.064   0.606   4.852 -0.3200 -0.6997 -0.1527
 3045SOL     OW20767   1.861   1.035  14.217 -0.3536  0.0412  0.0723
 3045SOL    HW120768   1.810   0.993  14.148  0.0024  1.3065 -0.9532
 3045SOL    HW220769   1.950   1.013  14.190 -0.2929 -0.0128  0.3101
 3046SOL     OW20770   0.375   4.489   8.244 -0.3427  0.1545  0.3842
 3046SOL    HW120771   0.368   4.554   8.315 -0.3862  0.5717 -0.0024
 3046SOL    HW220772   0.405   4.537   8.167  2.1308 -1.9889  0.0234
 3047SOL     OW20773   0.370   3.112  15.627 -0.2931  0.0183  0.4744
 3047SOL    HW120774   0.367   3.199  15.666 -1.9498  0.3020 -0.2807
 3047SOL    HW220775   0.356   3.053  15.701  1.6478 -2.3791 -1.0786
 3048SOL     OW20776   4.101   3.588  15.869  0.1485  0.1962  0.4923
 3048SOL    HW120777   4.180   3.615  15.823 -0.3650 -0.6685 -0.9168
 3048SOL    HW220778   4.036   3.650  15.835  1.7358  0.4096 -2.1005
 3049SOL     OW20779   0.434   4.182  15.377 -0.1027  0.0916 -0.9886
 3049SOL    HW120780   0.474   4.222  15.300 -0.4532  0.5767 -0.9174
 3049SOL    HW220781   0.470   4.251  15.434 -2.7174  1.4678 -1.0162
 3050SOL     OW20782   1.220   1.252   6.079  0.2799  0.6453  0.7036
 3050SOL    HW120783   1.220   1.283   6.170 -2.1194  0.3802  0.8038
 3050SOL    HW220784   1.303   1.290   6.052  1.8920 -2.4074  1.3948
 3051SOL     OW20785   4.672   2.834   8.983  0.4083 -0.9977  0.5442
 3051SOL    HW120786   4.587   2.878   8.993  0.5893 -0.5833  0.2662
 3051SOL    HW220787   4.732   2.894   9.027 -0.3023 -0.5514  0.9045
 3052SOL     OW20788   3.881   3.041  13.193 -0.1794  0.1018 -0.0441
 3052SOL    HW120789   3.887   3.136  13.201  1.2962  0.0221 -0.1138
 3052SOL    HW220790   3.971   3.014  13.213  0.9442  1.7527 -2.7709
 3053SOL     OW20791   4.158   4.501   7.886 -0.4143 -0.1426  0.2162
 3053SOL    HW120792   4.213   4.432   7.850  0.4019  1.8440 -2.2962
 3053SOL    HW220793   4.165   4.560   7.811 -0.6101 -1.3718 -0.7651
 3054SOL     OW20794   4.735   3.332   3.315 -0.3742  0.0913 -0.2403
 3054SOL    HW120795   4.658   3.289   3.352 -1.6708  0.5344 -2.4471
 3054SOL    HW220796   4.684   3.394   3.263 -0.8743  0.6255  0.8807
 3055SOL     OW20797   3.188   3.590   8.467 -0.3738 -0.0662 -0.2388
 3055SOL    HW120798   3.200   3.680   8.437 -4.1565  0.7720  0.7651
 3055SOL    HW220799   3.118   3.596   8.533  0.9239 -2.2180  1.3526
 3056SOL     OW20800   4.553   3.295   2.673 -0.5030  0.5149 -0.3285
 3056SOL    HW120801   4.497   3.248   2.611  0.9994 -0.6726 -0.7970
 3056SOL    HW220802   4.492   3.366   2.693 -0.1202  0.9635 -0.7626
 3057SOL     OW20803   1.834   1.487   8.964 -0.5260  0.6559 -0.7877
 3057SOL    HW120804   1.857   1.580   8.972 -3.0611  1.3328 -1.4305
 3057SOL    HW220805   1.851   1.464   9.055  1.8460  0.2523 -1.3312
 3058SOL     OW20806   4.509   0.981  17.434 -0.3061 -0.5244 -0.0549
 3058SOL    HW120807   4.479   1.070  17.453 -1.8453 -0.9600 -0.4878
 3058SOL    HW220808   4.434   0.923  17.428  0.5721 -1.6761  0.0432
 3059SOL     OW20809   2.486   3.800   1.942  0.1649  0.4535  0.2290
 3059SOL    HW120810   2.511   3.838   2.026  1.1099  1.7243 -0.6274
 3059SOL    HW220811   2.399   3.770   1.967 -0.2207  0.5358 -1.0484
 3060SOL     OW20812   3.019   4.573   1.967 -0.2483 -0.1040  0.6560
 3060SOL    HW120813   3.024   4.598   2.060  0.7054 -0.5287  0.7233
 3060SOL    HW220814   3.020   4.478   1.963 -3.5295 -0.1002 -0.3153
 3061SOL     OW20815   4.664   0.836   5.374 -0.2215  0.1028  0.2791
 3061SOL    HW120816   4.695   0.811   5.287 -2.3671 -1.9847  0.1106
 3061SOL    HW220817   4.599   0.902   5.348  2.2456  1.8703 -1.3377
 3062SOL     OW20818   0.500   0.198  13.399 -0.1468 -0.0252 -0.4391
 3062SOL    HW120819   0.484   0.165  13.488  0.1441 -0.2445 -0.4692
 3062SOL    HW220820   0.583   0.243  13.412 -0.7326  1.3242 -1.3597
 3063SOL     OW20821   0.612   2.805   5.363 -0.7034 -0.4272 -0.2096
 3063SOL    HW120822   0.666   2.874   5.323  0.6299 -1.0078  0.5902
 3063SOL    HW220823   0.642   2.740   5.299 -1.3816  0.2403 -1.2142
 3064SOL     OW20824   0.949   1.651   6.497 -0.0731 -0.1873 -0.7747
 3064SOL    HW120825   0.865   1.693   6.475  0.4010  0.1053 -1.9969
 3064SOL    HW220826   1.002   1.701   6.436  2.3627  0.6679  2.0718
 3065SOL     OW20827   4.171   3.247   9.278 -0.4822  0.4330 -0.8815
 3065SOL    HW120828   4.229   3.191   9.226 -1.1321 -1.9911  0.9897
 3065SOL    HW220829   4.235   3.289   9.336  0.5067 -0.2188 -1.4972
 3066SOL     OW20830   2.007   3.406   3.793 -0.0796  0.8582 -1.0679
 3066SOL    HW120831   2.017   3.344   3.720 -2.2721 -1.4478  0.6008
 3066SOL    HW220832   2.092   3.448   3.783  0.8404 -1.3008 -2.3865
 3067SOL     OW20833   3.297   2.275  13.948  0.2239  0.1366  0.1226
 3067SOL    HW120834   3.230   2.218  13.911 -0.3067  0.5594  0.4309
 3067SOL    HW220835   3.312   2.239  14.036  0.1243 -1.5844 -0.5612
 3068SOL     OW20836   0.703   4.068   5.518  0.3232 -0.9300  0.0025
 3068SOL    HW120837   0.774   4.099   5.575  0.8803 -3.4648  0.6693
 3068SOL    HW220838   0.761   4.035   5.450 -1.8476 -0.5278 -2.0426
 3069SOL     OW20839   4.123   2.341   9.124  0.7644 -0.4343 -0.7875
 3069SOL    HW120840   4.031   2.319   9.108  0.0733  0.9714  1.2311
 3069SOL    HW220841   4.113   2.420   9.071  0.4416 -1.2290 -1.9294
 3070SOL     OW20842   2.350   3.848   6.959  0.6015  0.7662 -0.0307
 3070SOL    HW120843   2.279   3.866   6.897 -0.9560 -0.0348  1.5454
 3070SOL    HW220844   2.378   3.932   6.994  0.7180  0.3476  0.8774
 3071SOL     OW20845   2.442   0.454   4.046  0.3146  0.0619  0.1939
 3071SOL    HW120846   2.487   0.500   4.117  0.5904 -0.1121  0.1303
 3071SOL    HW220847   2.352   0.487   4.037 -0.9228 -3.4098  0.0263
 3072SOL     OW20848   1.826   3.094   6.892 -0.6620 -0.1583  0.0363
 3072SOL    HW120849   1.750   3.138   6.853  0.8234 -0.5343 -3.2391
 3072SOL    HW220850   1.893   3.095   6.824  1.8068 -1.0975  2.4791
 3073SOL     OW20851   1.920   4.134   5.754  0.4860 -0.4824 -0.3093
 3073SOL    HW120852   1.937   4.212   5.806 -0.5252 -0.8710  0.6083
 3073SOL    HW220853   1.873   4.076   5.814 -0.5781  0.1809 -0.4890
 3074SOL     OW20854   4.332   0.783   5.618  0.8302 -0.1661 -0.3996
 3074SOL    HW120855   4.402   0.827   5.666  0.2548 -1.0899  1.2971
 3074SOL    HW220856   4.317   0.712   5.681  1.3587  0.2467  0.2062
 3075SOL     OW20857   2.452   1.391   3.726 -0.5164  0.1579 -0.3816
 3075SOL    HW120858   2.419   1.421   3.810 -1.1371 -1.9821  0.1280
 3075SOL    HW220859   2.474   1.299   3.740 -0.7040  0.0248 -0.9748
 3076SOL     OW20860   4.177   1.305  13.217 -0.1464  0.1803  0.4913
 3076SOL    HW120861   4.164   1.278  13.126  0.7620  0.4084  0.2894
 3076SOL    HW220862   4.141   1.229  13.263  1.1181 -0.4517  0.4267
 3077SOL     OW20863   3.958   3.802   6.516  0.2239  0.0566  0.4017
 3077SOL    HW120864   3.916   3.736   6.572  0.3326  0.6854  1.2187
 3077SOL    HW220865   3.885   3.819   6.457  1.1814  0.2925 -0.7018
 3078SOL     OW20866   1.223   1.856   3.673  0.2643 -0.2422  0.3884
 3078SOL    HW120867   1.209   1.800   3.596  0.8179 -0.7174  0.6321
 3078SOL    HW220868   1.217   1.943   3.633 -0.5438 -0.9753 -1.0909
 3079SOL     OW20869   3.600   3.991   4.345 -0.4814  0.5305  0.8136
 3079SOL    HW120870   3.640   4.038   4.272  1.1296 -0.7020  0.8993
 3079SOL    HW220871   3.548   4.064   4.377 -1.0667  0.8869 -0.9800
 3080SOL     OW20872   1.959   3.454   9.600  0.8352 -0.1246 -0.3043
 3080SOL    HW120873   2.045   3.472   9.639  0.6939 -2.6241  1.1595
 3080SOL    HW220874   1.944   3.523   9.536  0.7399 -0.3795 -0.5564
 3081SOL     OW20875   1.600   2.546   5.859 -0.1681  0.0810  0.0130
 3081SOL    HW120876   1.639   2.463   5.885  1.3279  0.3253 -1.4506
 3081SOL    HW220877   1.546   2.563   5.936 -1.3337 -1.5617 -0.4377
 3082SOL     OW20878   2.572   3.788  13.575 -0.3808 -0.1003  0.1153
 3082SOL    HW120879   2.586   3.873  13.532 -1.6712 -0.0793 -0.2692
 3082SOL    HW220880   2.568   3.817  13.667 -2.3045 -0.8070  0.2385
 3083SOL     OW20881   3.709   2.388   2.364  0.1357 -0.6664 -0.2658
 3083SOL    HW120882   3.801   2.398   2.387 -0.5941  0.1195  2.2589
 3083SOL    HW220883   3.677   2.478   2.363  0.2263 -0.6120  2.5685
 3084SOL     OW20884   4.123   1.213   7.437  0.1919 -0.2240 -0.2987
 3084SOL    HW120885   4.085   1.125   7.433 -0.9349  0.3863 -2.9348
 3084SOL    HW220886   4.122   1.257   7.353  0.6106  0.1696 -0.0987
 3085SOL     OW20887   3.954   4.341   4.869 -0.5581  0.0037 -0.3844
 3085SOL    HW120888   4.038   4.307   4.900 -1.1471  0.2912  1.4993
 3085SOL    HW220889   3.926   4.358   4.959  0.9231  0.2197  0.0414
 3086SOL     OW20890   3.138   2.060   8.231  0.8174  0.0713 -0.0681
 3086SOL    HW120891   3.073   2.074   8.299  0.4993  2.9303 -0.9639
 3086SOL    HW220892   3.134   1.965   8.225 -2.9162  0.0240  3.2424
 3087SOL     OW20893   2.683   3.461   7.253 -0.1639 -0.2580 -0.2175
 3087SOL    HW120894   2.634   3.473   7.171 -1.9250 -0.7122  0.7768
 3087SOL    HW220895   2.673   3.545   7.297 -0.0595 -0.5043  0.2758
 3088SOL     OW20896   2.091   2.470   7.580 -0.1798 -0.1602 -0.0184
 3088SOL    HW120897   2.033   2.482   7.505  0.2554  0.4201 -0.2698
 3088SOL    HW220898   2.171   2.455   7.530  0.4824 -0.8486  1.2304
 3089SOL     OW20899   2.583   0.221   6.871 -0.2470  0.2297 -0.4251
 3089SOL    HW120900   2.636   0.300   6.865  0.8345 -0.4312  0.3218
 3089SOL    HW220901   2.627   0.188   6.949  0.0491 -2.0425 -1.5353
 3090SOL     OW20902   1.570   0.485   1.733 -0.0131 -0.5347 -0.0047
 3090SOL    HW120903   1.622   0.566   1.735  2.1357 -1.9325  0.9442
 3090SOL    HW220904   1.500   0.505   1.795 -2.1220  0.4659 -2.7276
 3091SOL     OW20905   1.749   1.420  13.474  0.6780  0.4563 -0.0052
 3091SOL    HW120906   1.825   1.370  13.445  0.2618 -0.2635  0.1608
 3091SOL    HW220907   1.786   1.483  13.537  0.1919  0.1747  0.5635
 3092SOL     OW20908   1.844   1.896   9.205 -0.2535  0.2140  0.4521
 3092SOL    HW120909   1.817   1.978   9.165  1.2306 -0.3265 -1.6739
 3092SOL    HW220910   1.786   1.889   9.281 -0.5516  1.6249  0.3552
 3093SOL     OW20911   0.465   0.993   6.452  0.1677 -0.3984  0.0845
 3093SOL    HW120912   0.516   0.924   6.493  0.1171 -0.2312  0.4268
 3093SOL    HW220913   0.524   1.017   6.381 -0.6876  1.0840 -0.1277
 3094SOL     OW20914   1.372   0.397   2.313 -0.3348 -0.8765 -0.9730
 3094SOL    HW120915   1.315   0.398   2.236 -1.0138 -0.9821 -0.4712
 3094SOL    HW220916   1.397   0.306   2.326 -2.4018 -1.3175 -0.0316
 3095SOL     OW20917   3.298   1.819   3.814 -0.5674  0.3641 -0.2631
 3095SOL    HW120918   3.273   1.889   3.754 -0.0828  0.6827 -0.0981
 3095SOL    HW220919   3.344   1.872   3.880  0.2943  1.4462 -1.7300
 3096SOL     OW20920   4.329   1.067   0.208  0.1606  0.0727  0.5787
 3096SOL    HW120921   4.384   1.144   0.223 -1.0145  0.7846  1.2769
 3096SOL    HW220922   4.292   1.046   0.294  1.2784 -1.3865  0.6959
 3097SOL     OW20923   4.540   2.386   6.622 -0.6904 -0.5307 -0.0935
 3097SOL    HW120924   4.594   2.307   6.629  0.6997  0.2652 -1.8840
 3097SOL    HW220925   4.602   2.457   6.635  1.4179 -2.5641  1.1182
 3098SOL     OW20926   1.955   2.016   1.885 -1.1668  0.1372 -0.5686
 3098SOL    HW120927   1.867   2.052   1.873 -1.2583 -0.0241 -0.3797
 3098SOL    HW220928   1.950   1.962   1.806 -0.9968  1.4347 -1.4607
 3099SOL     OW20929   3.596   3.296  10.792 -0.5650 -0.0571  0.1455
 3099SOL    HW120930   3.664   3.301  10.859 -2.7981  0.6278  2.3716
 3099SOL    HW220931   3.652   3.271  10.718 -0.3969 -2.7603  1.2206
 3100SOL     OW20932   4.553   2.022   4.113 -0.5459 -0.4394  0.0841
 3100SOL    HW120933   4.585   1.995   4.199  1.4915  3.0608  0.4362
 3100SOL    HW220934   4.527   1.935   4.083  1.0526 -0.0792 -2.3491
 3101SOL     OW20935   4.580   1.833   3.305 -0.0340  0.0432  0.0591
 3101SOL    HW120936   4.608   1.895   3.238  2.6867  1.8642  2.8902
 3101SOL    HW220937   4.510   1.891   3.336 -0.1134  0.0646 -0.1636
 3102SOL     OW20938   2.104   0.269   5.490  0.0620 -0.1404 -0.4206
 3102SOL    HW120939   2.128   0.210   5.561  0.9283 -0.2244 -0.7777
 3102SOL    HW220940   2.073   0.348   5.535  1.6960  0.6972 -0.7534
 3103SOL     OW20941   1.376   1.224   6.734 -0.4776 -0.0355  0.4102
 3103SOL    HW120942   1.318   1.263   6.800  1.7748 -0.8899  2.8828
 3103SOL    HW220943   1.303   1.204   6.675 -1.4206 -0.3588  1.6858
 3104SOL     OW20944   1.452   3.195   1.831  0.2668 -0.3289 -0.3149
 3104SOL    HW120945   1.503   3.270   1.863  2.2847 -0.8755 -2.2416
 3104SOL    HW220946   1.390   3.237   1.773  1.6590 -1.5014 -2.6361
 3105SOL     OW20947   3.815   4.449  17.706  0.5263  0.4702  0.0318
 3105SOL    HW120948   3.793   4.520  17.645 -1.5180 -0.4546 -0.3108
 3105SOL    HW220949   3.779   4.376  17.655  0.3290  0.0218  0.8229
 3106SOL     OW20950   2.677   2.492   5.111  0.3995  0.2536 -0.1401
 3106SOL    HW120951   2.708   2.545   5.183 -1.4149  0.3560  0.5662
 3106SOL    HW220952   2.685   2.562   5.046  2.8102  0.2901  0.1924
 3107SOL     OW20953   0.731   4.146   2.065  0.0392  0.1788 -0.3713
 3107SOL    HW120954   0.655   4.088   2.079  1.4548 -1.3611  0.9434
 3107SOL    HW220955   0.811   4.096   2.076 -1.1585 -2.1975 -2.3232
 3108SOL     OW20956   0.734   2.322   3.280 -0.3095  0.0750 -0.0506
 3108SOL    HW120957   0.822   2.338   3.314  0.0538  0.0868 -1.0077
 3108SOL    HW220958   0.694   2.409   3.287 -0.1461  0.0950  0.6002
 3109SOL     OW20959   4.074   1.705   8.970  0.3142  0.1741 -0.1728
 3109SOL    HW120960   4.020   1.784   8.965 -0.4021 -0.5381 -3.8113
 3109SOL    HW220961   4.041   1.644   8.904 -2.3845 -0.2183  1.5290
 3110SOL     OW20962   1.229   3.083  11.194  0.5238 -0.2464 -1.0986
 3110SOL    HW120963   1.227   3.054  11.285  0.7733 -1.1287 -1.3818
 3110SOL    HW220964   1.198   3.173  11.204  0.1545 -0.4740 -0.2323
 3111SOL     OW20965   4.077   4.263   8.526  0.7747  0.2870  0.0009
 3111SOL    HW120966   4.041   4.217   8.602  0.2503  0.9094  0.1347
 3111SOL    HW220967   4.171   4.266   8.543  0.8641 -1.3461 -0.1695
 3112SOL     OW20968   0.089   4.203   7.156 -0.0237 -0.3349 -0.5450
 3112SOL    HW120969   0.081   4.194   7.251 -2.2840  4.5201 -0.2871
 3112SOL    HW220970   0.009   4.162   7.122 -2.3077  1.7640  2.3100
 3113SOL     OW20971   3.760   3.808  15.614 -0.5756  0.0197 -0.1863
 3113SOL    HW120972   3.823   3.754  15.568 -1.0565 -0.6839 -0.0193
 3113SOL    HW220973   3.815   3.818  15.692  0.0624 -3.0678 -0.2661
 3114SOL     OW20974   0.630   2.841   4.332  0.2089  0.4027 -0.0051
 3114SOL    HW120975   0.541   2.836   4.298  0.7056  1.7509 -1.5043
 3114SOL    HW220976   0.621   2.763   4.387  0.3221  1.1589  1.0925
 3115SOL     OW20977   0.327   4.189  14.107 -0.3471 -0.0535  0.0045
 3115SOL    HW120978   0.376   4.179  14.188 -0.1160 -1.3862 -0.2875
 3115SOL    HW220979   0.249   4.144  14.140  0.7031 -1.1829  0.9542
 3116SOL     OW20980   0.633   1.459   7.987 -0.1621 -0.5589 -0.0345
 3116SOL    HW120981   0.539   1.439   7.979 -0.7063  1.7828  0.4263
 3116SOL    HW220982   0.663   1.402   8.058  1.3398 -0.2404 -0.4189
 3117SOL     OW20983   1.913   0.105   3.534  0.2803  0.1265  0.1099
 3117SOL    HW120984   1.960   0.028   3.504 -2.2881 -1.0421 -0.8507
 3117SOL    HW220985   1.874   0.063   3.610 -0.8079 -0.0631 -0.5515
 3118SOL     OW20986   0.865   1.029  16.499 -0.6407 -0.0711  0.0463
 3118SOL    HW120987   0.844   1.118  16.526 -0.0138  0.3187 -0.7503
 3118SOL    HW220988   0.783   0.982  16.515  0.5271 -1.9927  0.4692
 3119SOL     OW20989   2.168   4.026   8.588  0.4017 -0.3812 -0.2648
 3119SOL    HW120990   2.254   4.065   8.599  0.1476 -0.2318  1.2729
 3119SOL    HW220991   2.110   4.091   8.627 -0.0980 -1.6174  1.0677
 3120SOL     OW20992   0.257   3.045   2.437 -0.1902  0.1300  0.6312
 3120SOL    HW120993   0.327   3.066   2.375 -0.2727  2.5195  1.3479
 3120SOL    HW220994   0.186   3.033   2.373  1.1260 -1.0443 -0.6026
 3121SOL     OW20995   2.870   3.810   0.069 -1.0383  0.0513  0.1106
 3121SOL    HW120996   2.905   3.859   0.143  4.2450 -2.6128 -0.6276
 3121SOL    HW220997   2.805   3.872   0.036 -0.4397  0.4315 -0.3442
 3122SOL     OW20998   0.646   4.326   7.997 -0.6166  0.2677 -0.5941
 3122SOL    HW120999   0.731   4.301   7.961  1.1781  1.8009  2.6378
 3122SOL    HW221000   0.660   4.318   8.091  0.6065 -0.7000 -0.8674
 3123SOL     OW21001   3.366   0.763  11.640 -0.4494  0.3459 -0.4083
 3123SOL    HW121002   3.317   0.689  11.604  0.4084 -1.0975  1.3996
 3123SOL    HW221003   3.408   0.723  11.716  1.7441 -0.8140 -2.2023
 3124SOL     OW21004   0.623   1.364   8.252 -0.6830 -0.2479 -0.2382
 3124SOL    HW121005   0.534   1.328   8.246  0.2680 -2.4409 -0.9356
 3124SOL    HW221006   0.661   1.329   8.333 -0.0648 -2.6815 -1.5885
 3125SOL     OW21007   3.598   0.474   8.609  0.3762 -0.1382  0.3146
 3125SOL    HW121008   3.547   0.410   8.559  1.6091 -1.5959  0.9226
 3125SOL    HW221009   3.539   0.467   8.684 -2.5576 -0.2347 -2.0165
 3126SOL     OW21010   1.441   4.665   8.583  0.3426  0.6394 -0.4181
 3126SOL    HW121011   1.364   4.670   8.527  1.1775  1.4600 -1.4973
 3126SOL    HW221012   1.439   0.016   8.619 -2.4687  0.3908  0.0005
 3127SOL     OW21013   4.397   2.290   2.335  0.2993  0.5091  0.5851
 3127SOL    HW121014   4.490   2.269   2.350  0.2609  0.1501  0.3236
 3127SOL    HW221015   4.398   2.358   2.269  2.2458 -1.1231 -1.0791
 3128SOL     OW21016   3.540   0.276   2.582 -0.3917 -0.3046  0.3357
 3128SOL    HW121017   3.563   0.368   2.573 -2.9481  0.2352 -0.7112
 3128SOL    HW221018   3.537   0.264   2.677  1.6197  0.4713  0.4937
 3129SOL     OW21019   2.265   3.830   3.667 -0.1655 -0.2620  0.9521
 3129SOL    HW121020   2.345   3.847   3.717 -0.3705  2.7077  0.2781
 3129SOL    HW221021   2.299   3.856   3.582 -0.5818 -0.5145  0.7116
 3130SOL     OW21022   3.557   1.750   7.346 -0.3335 -0.3061 -0.3652
 3130SOL    HW121023   3.567   1.663   7.307  0.0002  0.7920 -2.6980
 3130SOL    HW221024   3.645   1.782   7.327 -0.2643  0.5196  1.3418
 3131SOL     OW21025   0.865   4.120   7.511 -0.0065  0.3518 -0.7996
 3131SOL    HW121026   0.956   4.094   7.522  0.0972  1.6741  1.5276
 3131SOL    HW221027   0.867   4.199   7.458 -0.6001 -0.3590 -1.8816
 3132SOL     OW21028   1.760   1.989   1.613  0.2133  0.1380  0.1510
 3132SOL    HW121029   1.712   2.033   1.543 -0.2147 -2.4974 -1.2309
 3132SOL    HW221030   1.691   1.968   1.675  1.4563  2.7140  2.3899
 3133SOL     OW21031   0.365   0.415   2.930 -0.1066 -0.7029 -0.4700
 3133SOL    HW121032   0.426   0.475   2.888 -0.0327 -0.8181 -0.5273
 3133SOL    HW221033   0.371   0.334   2.879 -1.8364 -1.8169  1.0744
 3134SOL     OW21034   2.865   3.691  13.147  0.2079 -0.1656  0.1200
 3134SOL    HW121035   2.899   3.736  13.070 -3.0173  0.2496 -1.0620
 3134SOL    HW221036   2.816   3.620  13.105  0.6391 -0.0764 -0.5312
 3135SOL     OW21037   3.532   3.823   8.109  0.4089  0.3144  0.1248
 3135SOL    HW121038   3.503   3.910   8.080 -1.0687 -0.4959 -0.8503
 3135SOL    HW221039   3.449   3.787   8.140  1.2686 -0.7333  1.2123
 3136SOL     OW21040   2.993   2.105   2.040 -0.4993  0.0427 -0.1629
 3136SOL    HW121041   2.908   2.129   2.076 -1.0298 -0.4456 -1.1097
 3136SOL    HW221042   3.015   2.031   2.097  2.8516  0.4528 -0.9321
 3137SOL     OW21043   4.379   3.824   3.171 -0.6765 -0.0082 -0.1123
 3137SOL    HW121044   4.389   3.843   3.077 -1.0608  1.6115  0.1650
 3137SOL    HW221045   4.302   3.878   3.188 -2.4192 -3.0469  1.5585
 3138SOL     OW21046   1.879   4.447   3.585 -0.5188 -0.8442  0.2540
 3138SOL    HW121047   1.935   4.398   3.644  0.2209  0.8575  0.9744
 3138SOL    HW221048   1.945   4.498   3.539 -1.0972 -0.6444 -0.3572
 3139SOL     OW21049   0.640   2.887  12.640  1.0030  0.1040 -0.0758
 3139SOL    HW121050   0.600   2.800  12.639  2.2090 -0.4713  1.4123
 3139SOL    HW221051   0.670   2.894  12.550 -0.4101 -0.1372 -0.5669
 3140SOL     OW21052   1.174   3.594   5.156  1.0794  0.7026 -0.3293
 3140SOL    HW121053   1.124   3.619   5.234  0.8483 -0.6109 -0.0610
 3140SOL    HW221054   1.183   3.678   5.111 -1.2033  0.4219 -1.2815
 3141SOL     OW21055   0.947   0.639   8.046  0.1359  0.5481  0.2334
 3141SOL    HW121056   0.888   0.676   7.980 -1.3903  0.5936  1.6402
 3141SOL    HW221057   0.917   0.549   8.028 -2.0001  1.3074 -0.0042
 3142SOL     OW21058   2.305   3.932  10.139  0.1933  0.0874 -0.1253
 3142SOL    HW121059   2.284   3.872  10.211  2.1009 -0.9796 -0.4752
 3142SOL    HW221060   2.395   3.954  10.164 -0.1252  0.5238  0.6350
 3143SOL     OW21061   0.623   0.281  12.824  0.1680  0.4406  0.6168
 3143SOL    HW121062   0.663   0.226  12.892 -1.3734  1.8068  2.6084
 3143SOL    HW221063   0.605   0.360  12.874 -0.9221  0.1827  0.6247
 3144SOL     OW21064   4.336   0.949  17.123 -0.2380  0.0820 -0.5320
 3144SOL    HW121065   4.410   0.981  17.071  0.4101  0.1896  0.4679
 3144SOL    HW221066   4.262   0.937  17.064 -1.6254  2.9894  0.6522
 3145SOL     OW21067   4.048   1.386  12.495  0.5080 -0.0379 -0.2251
 3145SOL    HW121068   4.024   1.415  12.583  0.6746  0.3583 -0.3099
 3145SOL    HW221069   3.962   1.387  12.454 -0.2686  0.6179  1.4165
 3146SOL     OW21070   2.187   0.527  16.115 -0.6711  0.7407  0.3200
 3146SOL    HW121071   2.131   0.582  16.170  0.6265  2.6005 -0.2431
 3146SOL    HW221072   2.206   0.463  16.184 -1.0769 -0.9100 -1.1081
 3147SOL     OW21073   1.178   3.365   6.459 -0.1751  0.0618 -0.7091
 3147SOL    HW121074   1.177   3.299   6.389  0.5326 -1.8261  1.0407
 3147SOL    HW221075   1.266   3.353   6.496  0.7100  0.5239 -2.6638
 3148SOL     OW21076   1.443   1.905   6.757  0.7515 -0.1900  0.6658
 3148SOL    HW121077   1.439   1.917   6.852 -5.8505  0.1165  0.3879
 3148SOL    HW221078   1.422   1.994   6.731  0.3652 -0.8290 -1.2217
 3149SOL     OW21079   4.240   2.733   9.255  0.2962  0.2653  0.7931
 3149SOL    HW121080   4.197   2.697   9.177  0.3879  1.2946  0.2642
 3149SOL    HW221081   4.168   2.766   9.308  0.2359  1.9117 -0.3043
 3150SOL     OW21082   0.818   1.035   2.824 -0.5548 -0.3307  0.1602
 3150SOL    HW121083   0.835   0.975   2.897  0.5008 -1.0396 -0.6630
 3150SOL    HW221084   0.894   1.094   2.825 -0.4972 -0.4084  0.3216
 3151SOL     OW21085   3.213   3.117   5.102  0.0742 -0.0346 -0.3440
 3151SOL    HW121086   3.142   3.177   5.079 -0.9443  0.3462  3.6677
 3151SOL    HW221087   3.214   3.051   5.033 -0.4594 -1.3481  0.9144
 3152SOL     OW21088   2.873   2.900   5.218 -0.2318 -0.1100 -0.1612
 3152SOL    HW121089   2.867   2.954   5.139 -0.4312 -0.0642 -0.1151
 3152SOL    HW221090   2.784   2.902   5.254 -0.2221 -0.3695 -0.1242
 3153SOL     OW21091   2.201   0.215  10.778 -0.1559  0.4671 -0.0572
 3153SOL    HW121092   2.210   0.141  10.718 -2.7401 -0.6397  0.9086
 3153SOL    HW221093   2.105   0.222  10.783 -0.1713  0.0587  0.2115
 3154SOL     OW21094   4.724   3.910  17.105 -0.1073  0.2944 -0.5156
 3154SOL    HW121095   4.729   3.890  17.199 -1.3286  0.7656 -0.3401
 3154SOL    HW221096   4.671   3.838  17.071 -0.3796 -0.1195  0.7729
 3155SOL     OW21097   1.670   1.805  11.740 -0.5273 -0.0152 -0.9267
 3155SOL    HW121098   1.648   1.836  11.828  0.4955  2.1327 -1.4371
 3155SOL    HW221099   1.690   1.889  11.698  1.4661 -0.5520 -1.0399
 3156SOL     OW21100   2.615   4.452   4.014  0.6206  0.5015 -0.3211
 3156SOL    HW121101   2.650   4.365   4.030 -0.9332 -0.3692 -1.5772
 3156SOL    HW221102   2.653   4.507   4.082  1.6608 -0.2692 -0.2832
 3157SOL     OW21103   2.445   0.085   1.065 -0.4363 -0.1268  0.3191
 3157SOL    HW121104   2.396   0.018   1.112 -1.0945 -1.4030 -2.1854
 3157SOL    HW221105   2.373   0.148   1.077  1.4065  1.6944  1.8437
 3158SOL     OW21106   3.597   1.091   1.775  0.1919 -0.0048  0.6058
 3158SOL    HW121107   3.579   1.050   1.860  2.6347  2.2684  2.2426
 3158SOL    HW221108   3.672   1.144   1.803 -0.1828  1.2369 -0.7651
 3159SOL     OW21109   0.567   0.410   0.446 -0.3781  0.5044  0.1200
 3159SOL    HW121110   0.632   0.340   0.441  0.7632  1.4382  1.7407
 3159SOL    HW221111   0.485   0.361   0.454 -0.6223  0.5490 -2.0234
 3160SOL     OW21112   4.486   2.246   5.742 -0.2833  0.2700  0.1630
 3160SOL    HW121113   4.556   2.186   5.716  0.4387  0.9739  0.4403
 3160SOL    HW221114   4.529   2.331   5.730  0.1041  0.0200 -0.2364
 3161SOL     OW21115   1.186   2.346   5.107  0.1402  0.4192  0.0948
 3161SOL    HW121116   1.132   2.368   5.031  1.0105  0.9080 -0.3798
 3161SOL    HW221117   1.160   2.414   5.170 -0.0851 -1.1269  1.6716
 3162SOL     OW21118   2.323   2.622   1.691  0.7530 -0.2521 -0.1136
 3162SOL    HW121119   2.301   2.543   1.740 -0.1750 -0.0031 -0.1352
 3162SOL    HW221120   2.379   2.675   1.749 -1.0685  0.6293  0.8260
 3163SOL     OW21121   2.717   1.849   6.508 -0.1396  0.1831 -0.2602
 3163SOL    HW121122   2.665   1.880   6.582 -4.8856  2.8005 -4.6579
 3163SOL    HW221123   2.762   1.923   6.467 -1.6381  0.7896 -0.7917
 3164SOL     OW21124   1.322   4.153   1.199 -0.1388  0.5308 -0.0518
 3164SOL    HW121125   1.368   4.200   1.268 -0.0368  0.3417  0.0090
 3164SOL    HW221126   1.315   4.222   1.133 -0.4786  0.5197 -0.0251
 3165SOL     OW21127   1.071   1.075   7.228  0.3369 -0.2691 -0.0306
 3165SOL    HW121128   1.021   1.115   7.157  1.2418 -1.0996 -1.1154
 3165SOL    HW221129   1.032   0.988   7.238  1.6507 -0.6950  1.3717
 3166SOL     OW21130   0.630   2.936   9.143 -0.6366  0.0143 -0.3050
 3166SOL    HW121131   0.633   2.854   9.192 -2.8200  0.2943  0.2882
 3166SOL    HW221132   0.666   2.990   9.214 -0.7035  1.4797 -1.3924
 3167SOL     OW21133   2.497   2.947   2.606  0.0504  0.6093 -0.0344
 3167SOL    HW121134   2.525   3.010   2.673  2.4652  0.2561 -0.7132
 3167SOL    HW221135   2.483   2.866   2.654 -0.1037  1.1407  0.8128
 3168SOL     OW21136   2.594   0.988   0.766 -0.0997 -0.4426  0.3946
 3168SOL    HW121137   2.543   1.036   0.831  0.5112  0.4152  0.2350
 3168SOL    HW221138   2.675   1.039   0.759  0.7621 -1.6178  1.7708
 3169SOL     OW21139   3.420   1.619   3.669 -0.2160 -0.5188 -0.0158
 3169SOL    HW121140   3.396   1.691   3.728 -1.4618  0.2553 -1.4613
 3169SOL    HW221141   3.434   1.551   3.734  0.6475  0.2946  0.6552
 3170SOL     OW21142   3.193   3.470   3.394  0.1867  0.0391  0.6101
 3170SOL    HW121143   3.222   3.493   3.306 -0.0057 -4.9578 -0.7558
 3170SOL    HW221144   3.277   3.473   3.440 -0.5433 -2.5179  2.0740
 3171SOL     OW21145   0.651   4.641  12.084  0.1269 -0.3723  0.2714
 3171SOL    HW121146   0.660   4.704  12.155 -1.1302  1.7132 -1.4409
 3171SOL    HW221147   0.739   4.604  12.074  0.4562  0.7996 -1.0676
 3172SOL     OW21148   4.410   1.200  17.581  0.4120  0.0333 -0.2585
 3172SOL    HW121149   4.409   1.292  17.606 -0.1713 -0.5166  1.7249
 3172SOL    HW221150   4.368   1.159  17.656  0.7211  0.9710  0.4214
 3173SOL     OW21151   2.086   1.427   1.806 -0.5375 -0.1758  0.0802
 3173SOL    HW121152   2.065   1.417   1.899 -0.7424 -0.5271 -0.0040
 3173SOL    HW221153   2.114   1.518   1.807  0.0598 -0.3670  0.4910
 3174SOL     OW21154   2.027   1.483  13.199 -0.5957 -0.1970  0.0123
 3174SOL    HW121155   1.974   1.553  13.237 -0.3343  0.1898 -0.3368
 3174SOL    HW221156   2.093   1.479  13.269  1.2441  1.1143 -1.6434
 3175SOL     OW21157   4.265   1.177   8.411  0.4415 -0.3097  0.5224
 3175SOL    HW121158   4.195   1.112   8.398 -0.7415  1.1727 -0.5691
 3175SOL    HW221159   4.338   1.118   8.393 -0.8674 -1.4549 -1.0999
 3176SOL     OW21160   3.773   1.583  12.700 -0.0886  0.2866 -0.7681
 3176SOL    HW121161   3.726   1.527  12.638  1.3141 -1.8429  0.0874
 3176SOL    HW221162   3.708   1.649  12.723  1.0914  0.8264  0.9857
 3177SOL     OW21163   3.134   1.223   0.442 -0.5584  0.4727  0.1179
 3177SOL    HW121164   3.227   1.232   0.466 -0.5039  0.7322 -0.1850
 3177SOL    HW221165   3.089   1.243   0.524 -2.3990 -1.0730 -0.5343
 3178SOL     OW21166   2.766   2.699   8.281  0.1215 -0.1552 -0.1526
 3178SOL    HW121167   2.790   2.775   8.336 -1.8486  0.8620 -0.7109
 3178SOL    HW221168   2.772   2.737   8.193 -1.7564  0.5028  0.0038
 3179SOL     OW21169   2.832   0.349   8.352 -0.0112 -0.2898  0.7115
 3179SOL    HW121170   2.791   0.263   8.340  1.8859 -1.0794 -0.0724
 3179SOL    HW221171   2.810   0.374   8.442  0.1683  0.6908  0.4800
 3180SOL     OW21172   4.185   0.060   9.662  0.6246  0.2653  0.2473
 3180SOL    HW121173   4.151   0.079   9.749  1.0498  2.2309 -0.0229
 3180SOL    HW221174   4.244   4.726   9.685  0.9733  0.2816 -0.5808
 3181SOL     OW21175   2.407   0.999   7.248  0.3627 -0.2158 -0.2450
 3181SOL    HW121176   2.363   1.005   7.333 -0.0750  0.8688 -0.5429
 3181SOL    HW221177   2.345   0.943   7.202 -0.9014  1.7816 -1.0003
 3182SOL     OW21178   2.946   3.681  15.541  0.1260  0.3913 -0.1966
 3182SOL    HW121179   3.025   3.628  15.547 -0.8578 -0.9309  0.8450
 3182SOL    HW221180   2.988   3.751  15.491 -0.8205  1.0138 -0.1405
 3183SOL     OW21181   1.867   3.694   5.278 -0.3608  1.2666  0.5135
 3183SOL    HW121182   1.934   3.633   5.305 -1.2421 -0.2505 -0.7230
 3183SOL    HW221183   1.916   3.776   5.266  0.6893  0.7678  1.4599
 3184SOL     OW21184   4.676   1.414   0.621  0.0930 -0.0979 -0.0688
 3184SOL    HW121185   4.662   1.322   0.596  2.4672 -0.9769  1.8735
 3184SOL    HW221186   4.601   1.455   0.579 -0.0070 -1.2536 -1.0311
 3185SOL     OW21187   2.572   0.483   7.079 -0.2195  0.5099  0.0913
 3185SOL    HW121188   2.573   0.522   6.991 -1.4182 -2.0781 -1.0538
 3185SOL    HW221189   2.651   0.432   7.068 -0.3691 -0.0236  1.5500
 3186SOL     OW21190   3.355   2.786  10.457 -0.6325 -0.1147  0.1552
 3186SOL    HW121191   3.364   2.796  10.362 -0.2311  1.9064  0.4153
 3186SOL    HW221192   3.444   2.804  10.487  0.1530 -1.1010 -1.5636
 3187SOL     OW21193   1.470   3.540   8.513  0.1347  0.2249  0.2914
 3187SOL    HW121194   1.474   3.591   8.432 -0.6401 -1.2812 -0.6874
 3187SOL    HW221195   1.477   3.608   8.580 -0.1217  0.5325  0.0030
 3188SOL     OW21196   3.447   1.684   0.065  0.1398  0.1051 -0.2958
 3188SOL    HW121197   3.532   1.642   0.052 -1.0034 -2.9001  1.7830
 3188SOL    HW221198   3.474   1.760   0.117 -2.8689  0.3574  0.9627
 3189SOL     OW21199   1.277   0.996   3.832 -0.4456  0.3061  0.2806
 3189SOL    HW121200   1.220   0.968   3.761 -0.0077  0.0445  0.0295
 3189SOL    HW221201   1.357   1.007   3.779 -0.8133 -0.5744 -0.4418
 3190SOL     OW21202   1.275   2.546   6.816 -0.1508  0.1357  0.6371
 3190SOL    HW121203   1.208   2.614   6.825  0.0522  0.2759  1.0701
 3190SOL    HW221204   1.278   2.534   6.721 -1.0810 -0.9240  0.7397
 3191SOL     OW21205   4.548   2.352   9.258 -0.2853 -0.0348  0.0710
 3191SOL    HW121206   4.491   2.329   9.185  3.0070  0.9583 -2.8113
 3191SOL    HW221207   4.633   2.338   9.216 -1.1724  0.1468 -1.7987
 3192SOL     OW21208   2.319   1.233   9.030 -0.3099 -0.2482 -0.7020
 3192SOL    HW121209   2.406   1.262   9.058 -0.1435 -3.2297  1.8318
 3192SOL    HW221210   2.331   1.259   8.939 -0.8483  1.4283 -0.2967
 3193SOL     OW21211   2.764   2.725  11.380 -0.3716 -0.0053 -0.0667
 3193SOL    HW121212   2.832   2.773  11.331 -1.0009 -1.5146 -2.4372
 3193SOL    HW221213   2.742   2.776  11.458  0.1726  1.9398 -1.1765
 3194SOL     OW21214   1.180   4.505   2.839  0.5168  0.1602 -0.0300
 3194SOL    HW121215   1.208   4.489   2.930 -3.7299  0.7313  1.3879
 3194SOL    HW221216   1.116   4.433   2.837  2.1648 -1.2187 -2.6225
 3195SOL     OW21217   3.615   0.009  11.673  0.1636 -0.0452  0.1290
 3195SOL    HW121218   3.597   4.705  11.757 -0.7957 -0.0304 -0.0756
 3195SOL    HW221219   3.650   0.092  11.706  0.8601 -0.7769  1.2717
 3196SOL     OW21220   0.403   1.449   4.515  0.0033  0.5426  0.2198
 3196SOL    HW121221   0.385   1.357   4.493 -0.1065  0.2258  1.6774
 3196SOL    HW221222   0.451   1.486   4.441 -2.3798 -0.2422 -1.7373
 3197SOL     OW21223   1.039   4.287   1.185  0.0729  0.4287 -0.0426
 3197SOL    HW121224   1.022   4.378   1.160 -0.8838 -0.6169 -3.0655
 3197SOL    HW221225   1.082   4.293   1.271  0.5877  2.5789 -0.4512
 3198SOL     OW21226   1.809   1.139   5.674 -0.3177  0.0206 -0.2087
 3198SOL    HW121227   1.715   1.141   5.690 -0.1866 -0.0886  0.5501
 3198SOL    HW221228   1.820   1.224   5.631 -0.5290  0.2400  0.1703
 3199SOL     OW21229   1.487   1.709  11.497  0.7546 -0.5201  0.3746
 3199SOL    HW121230   1.498   1.701  11.591  0.4030  0.0938  0.4656
 3199SOL    HW221231   1.426   1.638  11.478  0.2655 -0.0154  0.0472
 3200SOL     OW21232   0.081   0.687   7.994 -0.5969  0.5721 -0.1177
 3200SOL    HW121233   0.101   0.768   7.948  3.1370  1.8978  3.8572
 3200SOL    HW221234   0.095   0.718   8.083 -0.7259 -0.9709  0.4430
 3201SOL     OW21235   2.543   4.322   7.883  0.1061 -0.0681 -0.2832
 3201SOL    HW121236   2.528   4.380   7.958 -0.9248  2.0467 -2.1112
 3201SOL    HW221237   2.510   4.239   7.918 -0.3759 -0.0812 -0.7748
 3202SOL     OW21238   2.617   0.964   2.480 -0.3753  0.4475 -0.3401
 3202SOL    HW121239   2.688   0.966   2.544 -2.3369  0.3620  1.8313
 3202SOL    HW221240   2.547   0.932   2.537  1.4418 -4.1829 -0.7138
 3203SOL     OW21241   2.994   1.398  15.352  0.0256 -0.0101 -0.2252
 3203SOL    HW121242   3.016   1.489  15.332  1.4610 -0.3084 -0.0071
 3203SOL    HW221243   2.899   1.404  15.341  0.4305  2.8609 -2.2550
 3204SOL     OW21244   2.783   3.129   9.081  0.4255 -0.4597 -0.0437
 3204SOL    HW121245   2.879   3.124   9.087  0.5237  0.2558 -1.0034
 3204SOL    HW221246   2.769   3.061   9.147  0.5007 -0.2473  0.1897
 3205SOL     OW21247   0.218   3.074   5.423 -0.2803 -0.1861 -0.4207
 3205SOL    HW121248   0.288   3.099   5.484 -0.2280  0.1326 -0.6074
 3205SOL    HW221249   0.261   3.005   5.373  0.1893  0.4217 -0.8723
 3206SOL     OW21250   3.947   2.459   6.952  0.0754 -0.4282  0.2777
 3206SOL    HW121251   3.857   2.438   6.979  0.1532  0.4862  1.2316
 3206SOL    HW221252   3.992   2.418   7.026 -0.7083 -1.2417  0.3018
 3207SOL     OW21253   3.855   2.767   4.942  0.3307 -0.0026  0.2837
 3207SOL    HW121254   3.877   2.789   5.032  0.0195 -1.0902  0.6175
 3207SOL    HW221255   3.926   2.802   4.888  0.9852  2.7300  2.9050
 3208SOL     OW21256   0.718   1.947   5.285 -0.3654 -0.0637 -0.2019
 3208SOL    HW121257   0.794   1.958   5.227  0.5117 -3.9245  0.1902
 3208SOL    HW221258   0.647   1.930   5.224 -0.9941  1.5214  0.1030
 3209SOL     OW21259   1.662   0.754   3.830  0.0884  0.0663 -0.6823
 3209SOL    HW121260   1.757   0.764   3.821  0.1089 -0.9096 -1.4579
 3209SOL    HW221261   1.657   0.664   3.859 -1.6276  0.7165  1.0250
 3210SOL     OW21262   4.059   0.025   9.416 -0.8091  0.0070  0.3378
 3210SOL    HW121263   3.993   4.722   9.471  1.3955 -0.9605  2.2516
 3210SOL    HW221264   4.109   0.060   9.490 -1.5325  1.7539  0.0158
 3211SOL     OW21265   3.850   2.101   3.869 -0.3862  0.0384 -0.0809
 3211SOL    HW121266   3.842   2.084   3.962 -1.1105 -4.3458 -0.9148
 3211SOL    HW221267   3.762   2.129   3.843 -0.3443 -1.0185 -1.3962
 3212SOL     OW21268   0.806   2.804   6.420 -0.6941 -0.2258  0.4496
 3212SOL    HW121269   0.749   2.740   6.463  0.4944 -1.0619  0.7754
 3212SOL    HW221270   0.813   2.879   6.479 -2.7965  0.3857 -0.0470
 3213SOL     OW21271   0.856   3.972   5.313 -0.2488 -0.1346 -0.5378
 3213SOL    HW121272   0.885   4.047   5.262 -1.3100  0.1437 -0.7445
 3213SOL    HW221273   0.843   3.909   5.243 -0.5324 -0.6624 -0.0188
 3214SOL     OW21274   3.295   2.338   2.412  0.0835 -0.2544 -0.0613
 3214SOL    HW121275   3.313   2.343   2.505  0.3963  0.4121 -0.1595
 3214SOL    HW221276   3.373   2.301   2.372  0.9346  1.9432 -0.4639
 3215SOL     OW21277   1.816   2.948   5.682  0.2440  0.2456 -0.9259
 3215SOL    HW121278   1.840   3.029   5.726  0.6860 -0.4054  0.0295
 3215SOL    HW221279   1.741   2.919   5.735  2.0162 -1.4757  0.6423
 3216SOL     OW21280   3.881   0.799   0.898  0.0704 -0.8482 -0.0950
 3216SOL    HW121281   3.796   0.841   0.915  0.2023 -1.4300  1.9821
 3216SOL    HW221282   3.881   0.790   0.802 -1.6023 -2.8372  0.1032
 3217SOL     OW21283   2.389   4.363  13.753 -0.2847 -0.3613 -0.4198
 3217SOL    HW121284   2.308   4.355  13.703  0.0902 -0.5997 -0.9936
 3217SOL    HW221285   2.371   4.448  13.794  2.8799  0.7016 -1.1865
 3218SOL     OW21286   0.796   4.385  15.258  0.4772 -0.7301  0.3321
 3218SOL    HW121287   0.770   4.297  15.230 -1.2793  0.0713 -0.5387
 3218SOL    HW221288   0.885   4.382  15.221 -0.3032 -1.0485 -1.5303
 3219SOL     OW21289   1.007   0.664  15.438 -0.3850  0.2310 -0.2576
 3219SOL    HW121290   0.916   0.692  15.450 -0.7471 -0.1018 -2.1630
 3219SOL    HW221291   1.009   0.633  15.347  0.0521 -2.1855  0.5778
 3220SOL     OW21292   0.493   0.192   9.940  0.2276 -0.4693 -0.0809
 3220SOL    HW121293   0.427   0.130   9.971  0.1152 -0.6898 -0.7630
 3220SOL    HW221294   0.538   0.218  10.021 -0.4887  1.1776 -0.2072
 3221SOL     OW21295   1.242   3.809  16.597 -0.1828 -0.5806 -0.7116
 3221SOL    HW121296   1.313   3.868  16.624  0.5565 -2.1827  0.8756
 3221SOL    HW221297   1.264   3.773  16.512  2.6065  0.9253 -0.6128
 3222SOL     OW21298   3.572   2.078   1.883 -0.1908 -0.4144 -0.3876
 3222SOL    HW121299   3.481   2.081   1.911  0.1893  0.6798  0.7717
 3222SOL    HW221300   3.610   2.045   1.965 -1.4929 -3.2298 -0.9398
 3223SOL     OW21301   3.804   3.839   4.079  0.0970 -0.2623  0.2582
 3223SOL    HW121302   3.761   3.819   3.996 -0.1326 -1.9997  0.8011
 3223SOL    HW221303   3.845   3.922   4.056 -1.3849  0.2979 -0.3647
 3224SOL     OW21304   4.181   1.988  13.371  0.2161 -0.5866 -0.1216
 3224SOL    HW121305   4.213   1.898  13.381 -0.9939 -0.9304  0.7199
 3224SOL    HW221306   4.098   1.986  13.418 -0.2893 -0.8249 -1.0375
 3225SOL     OW21307   2.343   3.826   4.433 -0.4580  0.0734  0.1038
 3225SOL    HW121308   2.397   3.885   4.380  2.5574  0.0256  3.1384
 3225SOL    HW221309   2.394   3.835   4.513 -0.2187  0.0312 -0.0420
 3226SOL     OW21310   2.374   2.224   6.808  0.6260  0.1821 -0.4779
 3226SOL    HW121311   2.383   2.311   6.847 -0.8415  0.6044 -1.0621
 3226SOL    HW221312   2.338   2.248   6.722  0.0666 -0.7509 -0.4996
 3227SOL     OW21313   0.700   2.676   4.785  0.8666  0.0583  0.4820
 3227SOL    HW121314   0.792   2.679   4.758  0.8994 -3.1896  0.2167
 3227SOL    HW221315   0.673   2.768   4.779  2.0493  0.4533  1.3153
 3228SOL     OW21316   0.303   0.038   7.130  0.2370 -0.3965  0.0694
 3228SOL    HW121317   0.312   0.127   7.095 -2.2636 -0.5339 -0.9562
 3228SOL    HW221318   0.394   0.015   7.146 -0.0722  0.2205  2.6254
 3229SOL     OW21319   1.668   0.768  13.812  0.3509  0.0747 -0.7202
 3229SOL    HW121320   1.705   0.690  13.772 -2.0217 -0.2877 -2.2144
 3229SOL    HW221321   1.717   0.834  13.762  0.1631  0.2546 -0.6682
 3230SOL     OW21322   3.076   0.195  14.787  0.6584  0.0724  0.2089
 3230SOL    HW121323   3.102   0.285  14.804  1.4312 -0.2363  0.6583
 3230SOL    HW221324   3.165   0.165  14.767  0.6879 -1.8379  3.2039
 3231SOL     OW21325   0.917   2.752   8.821  0.8194  0.1384 -0.2997
 3231SOL    HW121326   0.947   2.753   8.730 -0.2710  1.2244 -0.6492
 3231SOL    HW221327   0.832   2.794   8.812  0.9989  0.2916 -1.2706
 3232SOL     OW21328   2.068   3.593   8.006 -0.1909  0.1507 -0.0933
 3232SOL    HW121329   2.034   3.675   7.970  4.0090  1.3478 -1.4205
 3232SOL    HW221330   2.162   3.615   8.007 -0.6946  2.3131  0.1818
 3233SOL     OW21331   0.504   3.861   8.862  0.3415  0.0238 -0.1734
 3233SOL    HW121332   0.442   3.789   8.873  0.4063 -0.3036 -1.8989
 3233SOL    HW221333   0.455   3.941   8.880  1.1254  0.5496 -0.3958
 3234SOL     OW21334   2.835   1.813  10.725  0.8136 -0.0660  0.0098
 3234SOL    HW121335   2.881   1.882  10.773  2.3705 -0.7989 -0.4374
 3234SOL    HW221336   2.877   1.738  10.768 -0.0136  0.9338  2.5765
 3235SOL     OW21337   3.062   2.633   2.835  0.6085 -0.9692  0.2676
 3235SOL    HW121338   3.011   2.553   2.848  2.3347 -2.2601 -0.9946
 3235SOL    HW221339   3.128   2.627   2.904  1.3455  0.6432 -0.3117
 3236SOL     OW21340   4.461   2.687   4.630 -0.2791 -0.3238 -0.6040
 3236SOL    HW121341   4.467   2.745   4.553 -0.7293  1.7896  0.9443
 3236SOL    HW221342   4.399   2.734   4.687 -1.9882 -1.6047 -1.4140
 3237SOL     OW21343   1.238   0.400   7.525  0.3236 -0.1350 -0.0940
 3237SOL    HW121344   1.179   0.329   7.550 -1.2783  1.2944  0.1145
 3237SOL    HW221345   1.274   0.376   7.440 -0.8984 -1.4789 -0.2267
 3238SOL     OW21346   1.774   1.304  14.293  0.0094  0.1067 -0.7658
 3238SOL    HW121347   1.793   1.217  14.331 -1.5399 -0.4645 -1.2913
 3238SOL    HW221348   1.822   1.307  14.210 -0.1901  1.7505 -0.8147
 3239SOL     OW21349   1.085   1.041   4.835  0.5167 -0.3206 -0.3518
 3239SOL    HW121350   1.117   1.114   4.783 -0.7563  0.9838  0.7033
 3239SOL    HW221351   1.149   1.036   4.906 -0.1209  1.5270  0.3582
 3240SOL     OW21352   4.057   0.080   4.517 -0.4191 -0.1921  0.1944
 3240SOL    HW121353   3.982   0.022   4.532 -1.3713  0.7951 -0.7973
 3240SOL    HW221354   4.095   0.072   4.604  1.6882  0.5292 -0.6678
 3241SOL     OW21355   4.243   2.120   0.647 -0.1939 -0.0570 -0.1284
 3241SOL    HW121356   4.283   2.049   0.595  1.4749 -0.3745  1.6128
 3241SOL    HW221357   4.201   2.072   0.718 -0.0005  0.6723  0.4753
 3242SOL     OW21358   1.210   1.262   7.846 -0.1148 -0.1016 -0.5036
 3242SOL    HW121359   1.232   1.288   7.936 -0.7378 -0.2491 -0.3035
 3242SOL    HW221360   1.238   1.171   7.841 -1.4216 -0.5969  0.9747
 3243SOL     OW21361   0.602   3.754   6.383 -0.5505 -0.3004 -0.0626
 3243SOL    HW121362   0.689   3.785   6.408 -0.8413  0.3465  0.1470
 3243SOL    HW221363   0.612   3.746   6.288  2.5896  1.7303  0.0950
 3244SOL     OW21364   4.392   1.593   8.655  0.7584  0.1054 -0.4465
 3244SOL    HW121365   4.392   1.586   8.751 -0.1843 -1.6257 -0.5807
 3244SOL    HW221366   4.391   1.502   8.626 -1.1491 -0.4853  1.4306
 3245SOL     OW21367   1.276   3.262   8.904 -0.0289 -0.7480  0.3043
 3245SOL    HW121368   1.305   3.348   8.875 -0.7666 -0.6693 -0.1955
 3245SOL    HW221369   1.234   3.276   8.989 -0.0968 -0.1505  0.1664
 3246SOL     OW21370   0.407   0.715  14.001 -0.9259  0.1366  0.3775
 3246SOL    HW121371   0.482   0.740  13.947 -0.1211 -2.2524  0.3627
 3246SOL    HW221372   0.402   0.795  14.053 -1.8743  0.8275 -0.7785
 3247SOL     OW21373   4.417   1.185   2.990  0.3607  0.1868  0.2255
 3247SOL    HW121374   4.506   1.212   3.014  0.1766 -1.1672  2.3928
 3247SOL    HW221375   4.410   1.098   3.028 -2.4689  0.1393 -0.4121
 3248SOL     OW21376   3.996   2.544   3.641  0.4358  0.5170  0.7108
 3248SOL    HW121377   3.943   2.608   3.593 -0.8138 -1.6038 -0.7797
 3248SOL    HW221378   4.028   2.488   3.571  0.0564 -1.5909  2.2273
 3249SOL     OW21379   3.129   2.242   6.327  0.5716  1.2717  0.7617
 3249SOL    HW121380   3.169   2.327   6.345  1.0463  0.6873  2.4408
 3249SOL    HW221381   3.102   2.251   6.236  0.3433  0.8212  0.7829
 3250SOL     OW21382   3.639   2.159   7.132 -0.2155 -0.3009 -0.0551
 3250SOL    HW121383   3.696   2.091   7.097 -0.3840  0.5521 -2.0014
 3250SOL    HW221384   3.560   2.167   7.079 -0.5957 -0.2993  0.5132
 3251SOL     OW21385   1.297   0.355  16.258  0.2436  0.4026  0.0048
 3251SOL    HW121386   1.313   0.272  16.214 -2.4958  0.4955 -1.2025
 3251SOL    HW221387   1.204   0.366  16.280  1.0182  2.3922  2.3200
 3252SOL     OW21388   4.543   1.100   6.182  0.1233  0.1469 -0.3665
 3252SOL    HW121389   4.577   1.038   6.118  1.4787  2.1261 -1.5762
 3252SOL    HW221390   4.606   1.086   6.253 -0.7661 -0.6449  0.2708
 3253SOL     OW21391   4.291   0.644   0.695 -0.3503  0.0251  0.0187
 3253SOL    HW121392   4.230   0.708   0.660 -0.5693 -0.1236  0.1313
 3253SOL    HW221393   4.232   0.569   0.702  1.2956 -1.0639  2.0534
 3254SOL     OW21394   3.654   2.043   2.986  0.4264 -0.8300  0.0639
 3254SOL    HW121395   3.727   2.041   3.048 -1.0460  2.7866  1.8956
 3254SOL    HW221396   3.676   2.118   2.931 -0.0353 -1.0710 -0.4508
 3255SOL     OW21397   1.261   1.845   4.999  0.4148  0.9645  0.3482
 3255SOL    HW121398   1.280   1.911   5.066 -2.5664  0.2346  1.9109
 3255SOL    HW221399   1.307   1.778   5.050  0.4165  0.3705 -0.4463
 3256SOL     OW21400   0.639   0.008   4.873 -0.0067  0.3644 -0.5800
 3256SOL    HW121401   0.628   0.043   4.784  1.4653  1.9280 -0.1567
 3256SOL    HW221402   0.731   4.721   4.860  0.1756  0.9558 -0.4584
 3257SOL     OW21403   4.131   1.048   2.052  0.2954  0.0767 -0.4329
 3257SOL    HW121404   4.054   1.051   2.109 -0.3589 -0.2082 -1.2879
 3257SOL    HW221405   4.113   0.967   2.003 -0.0867  0.7871 -1.4671
 3258SOL     OW21406   0.049   2.584  17.238 -0.0283  0.2348 -0.1983
 3258SOL    HW121407   0.032   2.568  17.331  2.8138 -1.6435 -0.0128
 3258SOL    HW221408   0.145   2.594  17.237  0.1441 -1.3398  0.1528
 3259SOL     OW21409   2.557   1.043  16.203 -0.4341 -0.6033  0.1550
 3259SOL    HW121410   2.466   1.050  16.229 -0.2267  0.4094  0.5876
 3259SOL    HW221411   2.585   1.130  16.230 -0.7318 -1.4432  3.1377
 3260SOL     OW21412   4.269   1.711   3.257 -0.0472 -0.0833  0.0784
 3260SOL    HW121413   4.222   1.689   3.176 -2.1516  0.3329  1.1744
 3260SOL    HW221414   4.329   1.637   3.264 -1.4904 -1.0851  2.0735
 3261SOL     OW21415   1.069   3.837   4.257  0.2679  0.2109 -0.5753
 3261SOL    HW121416   1.119   3.811   4.179  1.6049  0.7403  0.1133
 3261SOL    HW221417   1.042   3.927   4.241 -2.3642 -0.4797 -0.0977
 3262SOL     OW21418   1.046   0.594   8.618  0.4956 -0.5305  0.0683
 3262SOL    HW121419   1.025   0.582   8.526 -3.2218 -0.0533  0.8699
 3262SOL    HW221420   1.135   0.560   8.626  1.2076  0.5852 -3.0807
 3263SOL     OW21421   1.669   2.265   4.963  0.0778  0.7172  0.1975
 3263SOL    HW121422   1.656   2.221   5.047 -0.4659 -0.0956 -0.3158
 3263SOL    HW221423   1.605   2.216   4.912  0.9730 -1.2902  1.0093
 3264SOL     OW21424   4.703   3.056  14.866  0.2943  0.1358 -0.0856
 3264SOL    HW121425   4.729   3.029  14.954 -1.2750  0.1898  0.3991
 3264SOL    HW221426   0.026   3.009  14.809 -1.2497  1.1666 -2.6073
 3265SOL     OW21427   0.852   3.570  16.876  0.0074 -0.3732 -0.4229
 3265SOL    HW121428   0.931   3.584  16.825 -1.3630  0.1516 -2.3807
 3265SOL    HW221429   0.809   3.496  16.834 -1.2548  0.3501 -0.4168
 3266SOL     OW21430   3.097   0.667   2.077 -0.2601 -0.0435  0.1724
 3266SOL    HW121431   3.028   0.656   2.012  1.2613  0.2508 -1.4917
 3266SOL    HW221432   3.100   0.587   2.129  0.3974  1.3272  2.2671
 3267SOL     OW21433   2.489   4.372  14.115 -0.2597  0.8685 -0.1054
 3267SOL    HW121434   2.406   4.421  14.118 -0.5110  0.4716 -0.6308
 3267SOL    HW221435   2.520   4.423  14.190  1.8001 -1.6874  0.7667
 3268SOL     OW21436   2.096   4.333  11.786 -0.4485  0.3560  0.4253
 3268SOL    HW121437   2.109   4.268  11.717  0.1699  2.1073 -1.1196
 3268SOL    HW221438   2.091   4.410  11.728 -0.5419 -0.0285 -0.0825
 3269SOL     OW21439   2.778   3.686   3.426  0.3980  0.0852 -0.6757
 3269SOL    HW121440   2.771   3.641   3.342  1.0392  0.9846 -1.2106
 3269SOL    HW221441   2.697   3.656   3.467  1.2905 -0.8954  0.3319
 3270SOL     OW21442   3.892   4.007   5.926 -0.0421 -0.2433 -0.3516
 3270SOL    HW121443   3.822   4.065   5.894 -2.6148 -1.7716  2.4530
 3270SOL    HW221444   3.861   3.926   5.884  0.5335 -0.1214 -1.0023
 3271SOL     OW21445   2.655   4.360   9.137  0.0635 -0.4344  0.0125
 3271SOL    HW121446   2.669   4.349   9.231  0.1165  1.2492  0.2082
 3271SOL    HW221447   2.601   4.439   9.141  0.5254 -0.2649  2.8606
 3272SOL     OW21448   1.165   3.681   6.726  0.2593  0.2051  0.0468
 3272SOL    HW121449   1.096   3.665   6.662  1.2470  0.7123 -1.1370
 3272SOL    HW221450   1.174   3.589   6.752 -1.0345  0.0209 -0.1742
 3273SOL     OW21451   2.239   2.141  10.023 -0.5428 -0.2961 -0.0772
 3273SOL    HW121452   2.185   2.173  10.095  0.3311  1.7570 -0.3332
 3273SOL    HW221453   2.172   2.117   9.959 -1.4939 -1.4038  1.3135
 3274SOL     OW21454   4.149   0.000   0.371  0.4102 -0.5329 -0.2850
 3274SOL    HW121455   4.231   0.049   0.364  0.5390 -0.8025 -0.6547
 3274SOL    HW221456   4.083   0.067   0.353 -0.7699 -1.6918 -0.2504
 3275SOL     OW21457   4.510   1.246   2.039 -0.3914  0.3074  1.1363
 3275SOL    HW121458   4.437   1.252   1.978 -2.1509  0.5890  3.2567
 3275SOL    HW221459   4.473   1.181   2.099 -0.4859 -0.7065 -0.0259
 3276SOL     OW21460   2.185   4.438  12.038 -0.4467 -0.3550  0.6923
 3276SOL    HW121461   2.142   4.394  11.965  0.6717 -0.4500  0.0885
 3276SOL    HW221462   2.197   4.369  12.103  1.2742 -0.7524 -0.0440
 3277SOL     OW21463   2.024   0.594   9.012 -0.1953  0.2873  0.3286
 3277SOL    HW121464   1.965   0.662   8.981 -0.8285 -0.2409  0.3738
 3277SOL    HW221465   1.974   0.518   8.981 -0.0340  0.3798 -0.1683
 3278SOL     OW21466   3.228   3.114  10.875  0.0726  0.0521  0.1135
 3278SOL    HW121467   3.228   3.118  10.970  2.7799  0.3826  0.1072
 3278SOL    HW221468   3.235   3.204  10.844 -0.2479 -0.3978 -1.2779
 3279SOL     OW21469   1.955   1.959   0.245 -0.1929 -0.3041  0.0754
 3279SOL    HW121470   1.933   1.869   0.218 -1.2503 -0.9789  3.1611
 3279SOL    HW221471   2.043   1.960   0.208 -0.2229  0.3732  0.0335
 3280SOL     OW21472   0.731   1.165   7.436  0.4386  0.3975  0.8330
 3280SOL    HW121473   0.711   1.131   7.349  0.0747 -0.2521  1.1684
 3280SOL    HW221474   0.824   1.178   7.417  0.2063 -2.1076 -2.0573
 3281SOL     OW21475   1.066   2.488   8.714  0.6724  0.3815 -0.4327
 3281SOL    HW121476   1.137   2.546   8.687  1.8766 -0.0840  1.6891
 3281SOL    HW221477   1.103   2.474   8.801  0.8715  3.7132  0.0036
 3282SOL     OW21478   2.634   3.163  16.977  0.2544  0.1687 -0.3158
 3282SOL    HW121479   2.669   3.075  16.988  1.1851  0.6442  0.5421
 3282SOL    HW221480   2.598   3.168  16.889 -1.3956  1.1106  0.4094
 3283SOL     OW21481   0.195   1.551   5.852 -0.2972 -0.2213  0.2836
 3283SOL    HW121482   0.267   1.498   5.816 -0.6802 -2.5436  2.9482
 3283SOL    HW221483   0.190   1.503   5.934 -0.4722  0.3813  0.6227
 3284SOL     OW21484   3.550   3.140   6.189  0.0772  0.1098  0.4393
 3284SOL    HW121485   3.627   3.190   6.161 -0.7354  1.0198 -0.2088
 3284SOL    HW221486   3.555   3.061   6.136  2.1643  0.7521 -0.3126
 3285SOL     OW21487   3.147   4.643   7.921  0.4207 -0.0628  0.6851
 3285SOL    HW121488   3.108   4.591   7.852  3.0995 -1.8053  0.4910
 3285SOL    HW221489   3.222   4.683   7.878  0.2153  1.3305  1.6193
 3286SOL     OW21490   3.561   3.349   6.499 -0.7642  0.3974  0.3724
 3286SOL    HW121491   3.487   3.323   6.445  1.1877 -0.7697 -1.7327
 3286SOL    HW221492   3.557   3.273   6.557  2.2107 -0.0254 -0.0080
 3287SOL     OW21493   2.953   3.801  10.995  0.6518  0.3126 -0.1163
 3287SOL    HW121494   3.032   3.856  10.996 -0.8083  2.4255  0.1586
 3287SOL    HW221495   2.886   3.865  11.022 -1.0644 -0.7772 -1.8090
 3288SOL     OW21496   4.519   2.399  17.749  0.2953  0.4612  0.1963
 3288SOL    HW121497   4.538   2.376   0.090  1.1865 -2.0971 -0.6489
 3288SOL    HW221498   4.470   2.478   0.024  0.2180 -0.8765  4.2406
 3289SOL     OW21499   0.268   1.393   3.978 -0.2187 -0.5681  0.0390
 3289SOL    HW121500   0.224   1.457   4.035  2.8199  1.5181  0.0491
 3289SOL    HW221501   0.357   1.419   4.001 -0.7489  1.9632 -0.7725
 3290SOL     OW21502   4.638   4.166  14.939  0.1170 -0.6428  0.3482
 3290SOL    HW121503   4.604   4.189  15.025  1.0082  0.3138  0.4390
 3290SOL    HW221504   4.619   4.243  14.886  1.0003  0.2685  1.3592
 3291SOL     OW21505   3.352   3.524   5.618 -0.5000  0.3453  0.5478
 3291SOL    HW121506   3.352   3.619   5.629  1.5836  0.3275  0.6736
 3291SOL    HW221507   3.258   3.506   5.624 -0.2104 -1.4599 -0.3166
 3292SOL     OW21508   1.182   3.747   9.977  0.4101  0.0911 -0.0293
 3292SOL    HW121509   1.186   3.842   9.990  0.8001 -0.0721  1.0193
 3292SOL    HW221510   1.092   3.728   9.949  0.3504 -0.9505  0.8708
 3293SOL     OW21511   2.642   3.028   3.423 -0.3034 -0.3265 -0.0622
 3293SOL    HW121512   2.624   3.102   3.364  1.0005 -0.8764 -1.1476
 3293SOL    HW221513   2.613   2.959   3.363  2.5987 -0.9105 -0.7877
 3294SOL     OW21514   1.300   2.940   7.017  0.3106 -0.3414  0.3015
 3294SOL    HW121515   1.245   2.998   6.964  0.6542  0.9774  1.3942
 3294SOL    HW221516   1.237   2.927   7.088  1.4598 -2.4200  0.9719
 3295SOL     OW21517   1.022   4.157   4.183 -0.1854 -0.0461  0.0622
 3295SOL    HW121518   0.950   4.209   4.218  0.2699  1.0410 -0.6284
 3295SOL    HW221519   1.001   4.164   4.090 -1.3790  0.0183  0.3384
 3296SOL     OW21520   3.337   2.123   1.999 -0.1177 -0.2813 -0.3179
 3296SOL    HW121521   3.291   2.045   2.030 -1.7443  0.8916  0.2431
 3296SOL    HW221522   3.276   2.152   1.932  0.0470  0.5692 -0.1078
 3297SOL     OW21523   1.769   4.163   4.328  0.5212 -0.0223 -0.3659
 3297SOL    HW121524   1.828   4.195   4.260  0.8116  0.3503  0.0695
 3297SOL    HW221525   1.728   4.090   4.281 -1.6612  0.6629  0.4820
 3298SOL     OW21526   2.637   4.422   1.798  0.5077 -0.4191 -0.2483
 3298SOL    HW121527   2.625   4.448   1.889  0.9327 -0.3642 -0.2046
 3298SOL    HW221528   2.696   4.494   1.774 -1.6367  1.2279 -0.5185
 3299SOL     OW21529   1.615   3.036  14.969 -0.2240 -0.0147  0.2908
 3299SOL    HW121530   1.626   3.125  15.004  1.1255 -0.6063  1.3309
 3299SOL    HW221531   1.693   2.991  15.002  1.3776  0.8755 -2.2712
 3300SOL     OW21532   3.484   1.922   3.413 -0.2353  0.4092 -0.1245
 3300SOL    HW121533   3.517   1.891   3.329 -0.4182 -0.4497  0.1159
 3300SOL    HW221534   3.543   1.997   3.423 -0.8175  0.9433 -0.7573
 3301SOL     OW21535   3.751   4.023   1.263  0.2095  0.2497 -0.1219
 3301SOL    HW121536   3.715   3.975   1.338  1.0570 -1.4986 -0.8175
 3301SOL    HW221537   3.677   4.070   1.224  0.6805 -1.2110 -2.7937
 3302SOL     OW21538   1.219   0.613   8.117  0.4461  0.9023 -0.5306
 3302SOL    HW121539   1.242   0.704   8.100 -2.4186  1.4829 -1.3463
 3302SOL    HW221540   1.145   0.605   8.057 -0.2089  0.0465  0.4071
 3303SOL     OW21541   1.660   1.933   4.038 -0.2828  0.5567 -0.0059
 3303SOL    HW121542   1.699   1.943   4.124 -0.2932  3.6709 -0.3617
 3303SOL    HW221543   1.598   1.862   4.058  1.0785  0.0743  2.4064
 3304SOL     OW21544   3.510   2.216   3.628 -0.2389 -0.0169 -0.0383
 3304SOL    HW121545   3.594   2.249   3.596  0.2638 -1.1503  0.1338
 3304SOL    HW221546   3.461   2.297   3.609  1.1566  0.8326  0.0301
 3305SOL     OW21547   1.426   3.294   5.104  0.1033 -0.0491 -0.3454
 3305SOL    HW121548   1.371   3.349   5.050  0.3747  0.8523  0.2814
 3305SOL    HW221549   1.489   3.272   5.036  0.5785 -1.9760  0.7093
 3306SOL     OW21550   2.896   0.823   3.142  0.3115  0.4612  0.0609
 3306SOL    HW121551   2.875   0.740   3.098 -3.0089 -0.0192  2.5139
 3306SOL    HW221552   2.881   0.889   3.074  0.9511  0.4912 -0.0486
 3307SOL     OW21553   4.456   4.100   1.974  0.1541 -0.1905  0.5312
 3307SOL    HW121554   4.446   4.009   2.003  0.4236  0.7089  3.3630
 3307SOL    HW221555   4.393   4.098   1.902  1.7488 -1.0036 -0.8596
 3308SOL     OW21556   2.972   3.681  14.852  0.5499  0.0587  0.4304
 3308SOL    HW121557   3.039   3.750  14.857 -0.0936  0.7641 -0.7033
 3308SOL    HW221558   2.912   3.714  14.919 -1.4949 -2.1978 -0.3211
 3309SOL     OW21559   2.057   1.124   9.416 -0.0604 -0.8202  0.1860
 3309SOL    HW121560   2.066   1.191   9.349  2.2209  0.2823  1.5845
 3309SOL    HW221561   1.978   1.077   9.388 -1.7491  0.8445  2.1525
 3310SOL     OW21562   0.075   4.563   8.980  0.9306 -0.7790 -0.4258
 3310SOL    HW121563   0.120   4.482   8.957  2.4361  0.1603 -0.8265
 3310SOL    HW221564   0.056   4.600   8.894  0.9580  0.1528 -0.0353
 3311SOL     OW21565   3.894   4.499   8.529  0.4961 -0.2505 -0.1840
 3311SOL    HW121566   3.892   4.588   8.564  1.0855 -0.0638 -0.6379
 3311SOL    HW221567   3.920   4.444   8.602  2.0779 -0.0568 -0.6096
 3312SOL     OW21568   0.181   3.809  10.243 -0.0094  0.6496  0.5929
 3312SOL    HW121569   0.098   3.856  10.238 -0.3661 -0.1181 -0.6290
 3312SOL    HW221570   0.161   3.745  10.311 -1.8294 -1.5705 -2.0427
 3313SOL     OW21571   3.015   1.080   8.457 -0.0696 -0.1229 -0.0921
 3313SOL    HW121572   3.067   1.078   8.537 -1.2314 -0.7186  0.6433
 3313SOL    HW221573   2.926   1.092   8.491 -0.2172  2.8979 -1.5952
 3314SOL     OW21574   3.783   4.332   4.474  0.3597  0.4487 -0.1634
 3314SOL    HW121575   3.840   4.297   4.405  1.0639  2.2498 -0.5164
 3314SOL    HW221576   3.708   4.366   4.424 -0.7622 -0.9789  0.5539
 3315SOL     OW21577   3.147   2.230   6.059  0.6048  0.0187 -0.2075
 3315SOL    HW121578   3.186   2.189   5.982  1.6403  4.3441 -1.9933
 3315SOL    HW221579   3.061   2.258   6.029  0.2278  0.3497  1.1712
 3316SOL     OW21580   3.581   1.666  11.201 -0.5113  0.5464 -0.2758
 3316SOL    HW121581   3.661   1.623  11.229 -1.2772  0.1874  1.3855
 3316SOL    HW221582   3.514   1.606  11.235 -0.7715  0.8805 -0.2011
 3317SOL     OW21583   1.634   4.421   4.036 -0.1974  0.1871  0.2198
 3317SOL    HW121584   1.656   4.384   3.950  0.7160  3.8423 -1.1077
 3317SOL    HW221585   1.723   4.428   4.071 -0.6104 -0.8425  1.4834
 3318SOL     OW21586   1.068   0.487  17.677  0.3657 -0.0533 -0.1120
 3318SOL    HW121587   1.116   0.567  17.698  1.8239 -0.5152 -1.7115
 3318SOL    HW221588   1.114   0.411  17.714  1.3327  0.8072  0.4866
 3319SOL     OW21589   2.151   4.205   1.565 -0.3080 -0.2890 -0.0558
 3319SOL    HW121590   2.075   4.198   1.507  0.4848 -2.0229 -0.8960
 3319SOL    HW221591   2.143   4.286   1.615 -0.1847  0.7804 -1.7989
 3320SOL     OW21592   3.290   0.022   3.303  0.2765  0.4404 -0.1151
 3320SOL    HW121593   3.235   0.089   3.344  1.4262 -0.0243  2.1890
 3320SOL    HW221594   3.351   0.024   3.377  0.6344 -0.0538 -0.3986
 3321SOL     OW21595   0.044   1.659   9.020  0.4878 -0.5019 -0.3409
 3321SOL    HW121596   0.051   1.739   8.969  2.8559 -0.7413 -0.4116
 3321SOL    HW221597   4.724   1.614   8.959 -0.6081 -0.2359  0.5039
 3322SOL     OW21598   1.790   3.590   2.552  0.6816 -0.0474 -0.0345
 3322SOL    HW121599   1.824   3.677   2.530  0.1563  0.2524  0.3344
 3322SOL    HW221600   1.808   3.544   2.470 -1.5553 -1.5414  0.3302
 3323SOL     OW21601   4.578   0.239   7.800 -0.2833  0.4988  0.1547
 3323SOL    HW121602   4.606   0.328   7.780  0.3539  0.6022  1.5119
 3323SOL    HW221603   4.517   0.247   7.873  0.4914  1.0835  0.7334
 3324SOL     OW21604   1.370   1.913  11.331 -0.1590  0.5099  0.2500
 3324SOL    HW121605   1.334   1.964  11.404 -0.8477  1.5601 -0.8306
 3324SOL    HW221606   1.408   1.841  11.381  0.5333  1.5891  1.2914
 3325SOL     OW21607   0.151   1.222   0.908  0.3315  0.5000  0.1974
 3325SOL    HW121608   0.106   1.220   0.993 -0.9147 -2.9374 -0.5193
 3325SOL    HW221609   0.241   1.229   0.940  0.5035  0.2890 -0.2389
 3326SOL     OW21610   1.788   3.191   7.643 -0.1713 -0.2721 -0.2106
 3326SOL    HW121611   1.856   3.129   7.672  0.2847  0.1766 -0.3135
 3326SOL    HW221612   1.733   3.203   7.720  0.7307  1.9728  0.1016
 3327SOL     OW21613   4.231   1.069   1.479 -0.1798  0.5168 -0.2949
 3327SOL    HW121614   4.296   1.106   1.419 -2.5980  1.4473 -2.3373
 3327SOL    HW221615   4.277   1.001   1.529 -0.5350 -0.6820 -1.6103
 3328SOL     OW21616   1.485   3.374   6.589 -0.3126  0.2563 -0.4938
 3328SOL    HW121617   1.445   3.391   6.675 -2.8512  3.7999 -2.3595
 3328SOL    HW221618   1.491   3.465   6.558 -0.4256 -0.2308 -1.9491
 3329SOL     OW21619   0.984   1.858   4.421 -0.3047  0.0538  0.7320
 3329SOL    HW121620   0.941   1.903   4.494 -0.6274 -3.6317  2.7850
 3329SOL    HW221621   0.944   1.772   4.415 -2.4484  1.2110 -1.4533
 3330SOL     OW21622   1.656   1.357   2.132  0.1332  0.2143  0.0147
 3330SOL    HW121623   1.728   1.403   2.173  1.6025 -0.7607 -1.4622
 3330SOL    HW221624   1.662   1.385   2.041 -2.8699 -1.6302 -0.7815
 3331SOL     OW21625   4.285   1.415   3.074  0.2748  0.0127  0.0006
 3331SOL    HW121626   4.357   1.462   3.032  0.0742 -2.0544 -2.6964
 3331SOL    HW221627   4.314   1.327   3.049  1.7476  1.0552 -1.9122
 3332SOL     OW21628   4.330   2.403   2.067  0.0057  0.6579 -0.5429
 3332SOL    HW121629   4.397   2.470   2.051  0.3734  0.3083 -0.4493
 3332SOL    HW221630   4.247   2.444   2.042  0.1327 -0.2364 -2.3819
 3333SOL     OW21631   0.260   0.342   1.786 -0.3782  0.6245 -0.6661
 3333SOL    HW121632   0.302   0.420   1.748  0.0574  0.5065 -0.4288
 3333SOL    HW221633   0.200   0.373   1.854  1.1545  2.5535 -0.1578
 3334SOL     OW21634   2.144   2.154   1.174 -0.3290  0.4888 -0.0516
 3334SOL    HW121635   2.166   2.061   1.177 -2.1446  0.1090  1.5290
 3334SOL    HW221636   2.208   2.175   1.106  0.3833 -1.8353 -0.1124
 3335SOL     OW21637   3.187   2.573   3.684 -0.1683  0.3405 -0.1359
 3335SOL    HW121638   3.116   2.629   3.716  0.0703  0.4394  0.2219
 3335SOL    HW221639   3.253   2.641   3.673 -1.7312  2.1861  1.8042
 3336SOL     OW21640   3.232   0.354   3.301 -0.1477  0.2837 -0.0606
 3336SOL    HW121641   3.140   0.368   3.281 -0.0264  2.1157  0.6348
 3336SOL    HW221642   3.255   0.440   3.337 -0.2222  0.3618 -0.1998
 3337SOL     OW21643   2.465   1.800   4.128 -0.3305  0.1056 -0.3240
 3337SOL    HW121644   2.401   1.728   4.131  1.0120 -1.0846 -0.0056
 3337SOL    HW221645   2.442   1.856   4.202 -0.5126  0.6650 -0.8066
 3338SOL     OW21646   4.555   4.666  16.408 -0.6770 -0.4164  0.4739
 3338SOL    HW121647   4.617   4.735  16.430 -1.8232  1.0842 -1.0116
 3338SOL    HW221648   4.604   4.594  16.449 -0.6525 -1.0238 -0.5967
 3339SOL     OW21649   1.253   2.411   6.553 -0.5556  0.5667  0.0409
 3339SOL    HW121650   1.232   2.370   6.470 -1.5469  0.6322  0.2592
 3339SOL    HW221651   1.166   2.403   6.592 -0.0941 -0.0332  0.9592
 3340SOL     OW21652   3.151   0.996   2.018 -0.2633  0.1400 -0.2265
 3340SOL    HW121653   3.222   1.046   1.977  0.3625  1.3293  2.2812
 3340SOL    HW221654   3.180   0.907   1.997 -0.6847 -0.3203  1.1595
 3341SOL     OW21655   4.053   4.602   6.208 -0.4145 -0.6264 -0.3500
 3341SOL    HW121656   4.053   4.515   6.169 -0.2714 -0.8020  0.0430
 3341SOL    HW221657   3.967   4.605   6.249 -0.4679  1.9740 -0.6201
 3342SOL     OW21658   0.968   2.373   7.485  0.2364 -0.1791 -0.9957
 3342SOL    HW121659   0.876   2.399   7.491  1.2552  3.1332  0.5254
 3342SOL    HW221660   0.967   2.286   7.445 -0.2693 -0.0055 -1.3625
 3343SOL     OW21661   1.159   0.427   9.386  0.0315  0.0944  0.1498
 3343SOL    HW121662   1.069   0.412   9.357  0.5156 -0.4670 -1.0800
 3343SOL    HW221663   1.199   0.347   9.354 -0.4289  0.7714 -2.0947
 3344SOL     OW21664   2.270   4.602   4.312 -0.1975  0.4753 -0.4541
 3344SOL    HW121665   2.296   4.654   4.236  1.2551 -1.8262 -1.5394
 3344SOL    HW221666   2.313   4.644   4.386  0.8044  0.1910 -0.8804
 3345SOL     OW21667   1.576   4.289   5.920 -0.5854  0.3006 -0.0218
 3345SOL    HW121668   1.592   4.196   5.906  0.5075  0.6107 -0.7919
 3345SOL    HW221669   1.535   4.310   5.836 -1.8106  3.0007  1.2379
 3346SOL     OW21670   2.847   3.700   5.309  0.3346 -0.2217  0.0781
 3346SOL    HW121671   2.922   3.641   5.298  0.8090  0.4780 -0.4176
 3346SOL    HW221672   2.777   3.656   5.261  0.8323  0.4064 -1.2392
 3347SOL     OW21673   1.458   1.099   8.572  0.7104  0.2735  0.2891
 3347SOL    HW121674   1.537   1.129   8.525  0.1154 -1.6007 -1.9378
 3347SOL    HW221675   1.496   1.072   8.655  0.6393 -0.0070  0.2283
 3348SOL     OW21676   1.688   3.328   9.349  0.5153 -0.7104 -0.4357
 3348SOL    HW121677   1.666   3.367   9.264  2.3930  0.6140 -0.3152
 3348SOL    HW221678   1.730   3.255   9.303  0.4541 -1.8197  1.2919
 3349SOL     OW21679   1.594   1.516   3.363 -0.0247 -0.2810 -0.3117
 3349SOL    HW121680   1.639   1.568   3.296  0.2207 -1.3932 -1.0269
 3349SOL    HW221681   1.559   1.588   3.414 -0.7182 -1.0151  0.2491
 3350SOL     OW21682   3.379   3.236   8.731 -0.9530 -0.0415 -0.0446
 3350SOL    HW121683   3.347   3.326   8.726 -0.1872  0.1805 -1.0375
 3350SOL    HW221684   3.322   3.199   8.798 -0.5576  0.2408  0.4543
 3351SOL     OW21685   0.675   0.178   7.092 -0.1325 -0.2577  0.3748
 3351SOL    HW121686   0.709   0.169   7.003 -0.7884 -1.9085  0.2917
 3351SOL    HW221687   0.618   0.102   7.103  0.5044 -0.5745  1.4081
 3352SOL     OW21688   3.222   1.770  17.271  0.0098  0.2125  0.0395
 3352SOL    HW121689   3.276   1.849  17.265 -0.1094  0.2243 -0.9026
 3352SOL    HW221690   3.264   1.739  17.351  0.8083  1.3860  0.0685
 3353SOL     OW21691   3.173   2.637   9.342 -0.4877  0.0518 -0.0618
 3353SOL    HW121692   3.163   2.560   9.286  0.7516 -0.2759  0.1771
 3353SOL    HW221693   3.128   2.706   9.292 -2.5480  0.9729  3.0486
 3354SOL     OW21694   2.433   2.195   6.465 -0.0424 -0.2622  0.2088
 3354SOL    HW121695   2.525   2.209   6.489 -0.1485 -1.8981  1.5385
 3354SOL    HW221696   2.445   2.101   6.471  0.4345 -0.1337  1.3669
 3355SOL     OW21697   0.409   2.141   1.760  0.4740 -0.3627 -0.0459
 3355SOL    HW121698   0.326   2.105   1.731  1.2361 -0.4139 -2.1492
 3355SOL    HW221699   0.424   2.107   1.848  0.2110  4.1108  1.7497
 3356SOL     OW21700   2.924   2.792   3.433 -0.4530 -0.6447  0.1643
 3356SOL    HW121701   2.924   2.825   3.343 -0.5060 -1.3827 -0.1155
 3356SOL    HW221702   2.854   2.726   3.424  1.8414 -2.6462 -2.9921
 3357SOL     OW21703   0.344   3.338   8.919  0.6924  0.1295 -0.3478
 3357SOL    HW121704   0.423   3.285   8.914 -0.2329 -1.3485  0.7114
 3357SOL    HW221705   0.364   3.394   8.994  1.2608 -0.4531 -0.0707
 3358SOL     OW21706   2.072   2.137   4.535  0.0337 -0.2917 -0.2474
 3358SOL    HW121707   2.091   2.142   4.441 -2.3132  0.7883 -0.6576
 3358SOL    HW221708   2.140   2.200   4.558  0.3263 -0.8899  0.5110
 3359SOL     OW21709   4.514   2.921   0.508 -0.4347  0.2217  0.1784
 3359SOL    HW121710   4.587   2.982   0.518  0.5594 -0.5393 -2.2090
 3359SOL    HW221711   4.465   2.950   0.585 -2.2257  2.9794 -1.9723
 3360SOL     OW21712   4.249   4.194   8.165 -0.2924 -0.1501 -0.2221
 3360SOL    HW121713   4.241   4.110   8.211 -1.3425  0.3666  0.5410
 3360SOL    HW221714   4.159   4.225   8.155  0.0584  0.3917 -1.6118
 3361SOL     OW21715   1.420   2.939   4.850  0.1387  0.7033  0.3932
 3361SOL    HW121716   1.376   3.010   4.898  0.8161  1.6824 -0.4403
 3361SOL    HW221717   1.359   2.939   4.777 -1.3151  1.3686  1.5999
 3362SOL     OW21718   4.385   0.450   8.555  0.5864  0.0934 -0.2229
 3362SOL    HW121719   4.449   0.505   8.510  2.3052 -1.3947  0.3664
 3362SOL    HW221720   4.306   0.458   8.502 -0.3333  2.6269  1.5186
 3363SOL     OW21721   1.104   1.984  11.013 -0.3230  0.7522 -0.4128
 3363SOL    HW121722   1.076   1.975  11.104  0.8520  0.7854 -0.0465
 3363SOL    HW221723   1.196   2.007  11.019 -0.4265  1.1301 -0.2842
 3364SOL     OW21724   0.571   3.183   8.881 -0.3267 -0.0850  0.2395
 3364SOL    HW121725   0.593   3.213   8.793 -0.7683  0.6433  0.3827
 3364SOL    HW221726   0.548   3.092   8.862  0.8662 -0.2678 -0.3433
 3365SOL     OW21727   2.348   3.925   5.251  0.1638 -0.6345  0.6530
 3365SOL    HW121728   2.434   3.918   5.210 -0.1543 -0.4085 -0.0666
 3365SOL    HW221729   2.365   3.921   5.345 -1.1803 -0.9254  0.8903
 3366SOL     OW21730   2.868   0.193   2.894 -0.6705  0.1519 -0.3139
 3366SOL    HW121731   2.850   0.104   2.922 -0.5201  1.2779  3.3225
 3366SOL    HW221732   2.807   0.210   2.822 -2.1987 -2.1462  0.4535
 3367SOL     OW21733   1.471   2.047   3.532 -0.1209  0.3657  0.5962
 3367SOL    HW121734   1.548   2.079   3.485 -1.1354  2.6150  0.4199
 3367SOL    HW221735   1.406   2.116   3.520 -1.7747 -0.8346  2.7392
 3368SOL     OW21736   1.464   4.062  10.428  1.0777 -0.4017  0.6612
 3368SOL    HW121737   1.427   3.986  10.473 -0.7911  0.3682  0.4054
 3368SOL    HW221738   1.556   4.063  10.456  0.9377  2.3094  1.0535
 3369SOL     OW21739   4.088   1.289  12.953  0.8271  0.3357  0.2627
 3369SOL    HW121740   4.129   1.261  12.871  0.0150 -2.2220  0.7281
 3369SOL    HW221741   4.003   1.330  12.937 -0.0284 -1.8334 -0.7159
 3370SOL     OW21742   2.756   1.561   9.595  0.9499 -0.4088 -0.7574
 3370SOL    HW121743   2.749   1.657   9.594  0.4530 -0.4454 -0.7427
 3370SOL    HW221744   2.834   1.564   9.651 -1.0604 -1.5568  2.1457
 3371SOL     OW21745   4.055   4.098   2.003 -0.0871 -0.4650 -0.2083
 3371SOL    HW121746   3.988   4.134   1.945 -1.5965 -0.6665  1.4141
 3371SOL    HW221747   4.005   4.021   2.030 -1.1607 -0.0221 -0.8968
 3372SOL     OW21748   1.639   3.278  15.076 -0.1794  0.4465 -0.5859
 3372SOL    HW121749   1.708   3.333  15.040  1.7268 -0.9981  0.8586
 3372SOL    HW221750   1.564   3.337  15.078 -2.1530 -2.0721 -0.1253
 3373SOL     OW21751   0.542   4.686  10.646  0.0668  0.6349  0.0631
 3373SOL    HW121752   0.485   4.685  10.723 -0.0406  1.0998 -0.0149
 3373SOL    HW221753   0.498   4.620  10.593  4.2538 -0.8578 -1.5992
 3374SOL     OW21754   3.929   3.247   5.252  0.8858 -0.4263 -0.7639
 3374SOL    HW121755   3.863   3.300   5.296  0.1346 -1.3617 -0.7666
 3374SOL    HW221756   3.950   3.297   5.172  2.5927  0.7385  0.4027
 3375SOL     OW21757   3.005   2.410   4.671  0.2886  0.4830 -0.2862
 3375SOL    HW121758   2.945   2.428   4.598  2.2833 -1.5102 -2.4503
 3375SOL    HW221759   3.073   2.472   4.646  0.0591  0.5086 -0.8600
 3376SOL     OW21760   4.448   1.496   0.507  0.2338 -0.4511  0.1771
 3376SOL    HW121761   4.367   1.519   0.553 -0.3394 -2.0346 -0.0296
 3376SOL    HW221762   4.420   1.413   0.468  0.2121  0.1472 -1.0932
 3377SOL     OW21763   3.041   4.424   7.361  0.2054  0.2353 -0.0588
 3377SOL    HW121764   3.085   4.430   7.276 -0.1348 -1.4207 -0.3478
 3377SOL    HW221765   3.007   4.335   7.371  1.8517 -0.6246 -2.1145
 3378SOL     OW21766   2.861   2.111   8.811 -0.0706  0.7899  0.2537
 3378SOL    HW121767   2.885   2.025   8.777 -0.4565  0.4691  0.8061
 3378SOL    HW221768   2.896   2.174   8.747  1.2686 -0.4414 -0.2191
 3379SOL     OW21769   3.066   2.049   5.815 -0.6147  0.2990 -0.4480
 3379SOL    HW121770   3.160   2.066   5.810 -0.4991 -0.8325 -2.1938
 3379SOL    HW221771   3.055   1.971   5.759 -1.6487  0.2463 -0.1715
 3380SOL     OW21772   2.381   4.195   7.431 -0.1029  0.1659 -0.1224
 3380SOL    HW121773   2.368   4.226   7.521  3.0594  1.7007 -0.1897
 3380SOL    HW221774   2.401   4.102   7.441 -2.2974 -0.4819 -1.8339
 3381SOL     OW21775   1.719   0.064   8.104 -0.0484 -0.0783  0.2622
 3381SOL    HW121776   1.667   0.144   8.097  1.1917  0.6480 -0.7310
 3381SOL    HW221777   1.667   0.015   8.167 -0.7554 -0.2480 -0.4543
 3382SOL     OW21778   3.067   2.935   7.272 -0.1587  0.4540 -0.2507
 3382SOL    HW121779   3.008   2.922   7.198 -0.1375 -0.2333 -0.1437
 3382SOL    HW221780   3.073   3.031   7.270  2.3726  0.3350  1.8502
 3383SOL     OW21781   0.572   1.695   8.793  0.3870 -0.2554 -0.2377
 3383SOL    HW121782   0.534   1.619   8.748 -0.8129  0.5519 -0.5810
 3383SOL    HW221783   0.604   1.751   8.722  0.4409 -1.3774 -1.1045
 3384SOL     OW21784   0.124   2.267  10.364 -0.1313 -0.3147  0.0521
 3384SOL    HW121785   0.072   2.224  10.432  2.6565 -2.4889  0.8544
 3384SOL    HW221786   0.050   2.258  10.305 -0.4491 -4.5103  1.0415
 3385SOL     OW21787   0.772   2.141  11.942 -0.2226 -0.4828 -0.3563
 3385SOL    HW121788   0.818   2.117  11.862  2.5044 -0.9566  1.3894
 3385SOL    HW221789   0.685   2.165  11.910  0.3024 -0.3214 -1.6561
 3386SOL     OW21790   2.945   1.743   8.877 -0.0800  0.0026 -0.3123
 3386SOL    HW121791   2.874   1.711   8.932  1.2513 -0.1773  1.3157
 3386SOL    HW221792   2.898   1.792   8.809 -1.4475  1.1139  1.4531
 3387SOL     OW21793   4.580   4.563   3.838 -0.5880 -0.1005 -0.4622
 3387SOL    HW121794   4.540   4.478   3.823 -0.8823  0.0812 -0.7231
 3387SOL    HW221795   4.611   4.591   3.752  1.0761 -0.1473  0.1347
 3388SOL     OW21796   1.149   4.150   0.710 -0.2602 -0.2684 -0.3244
 3388SOL    HW121797   1.110   4.141   0.797 -0.4126  0.4189 -0.3230
 3388SOL    HW221798   1.150   4.245   0.695 -0.0016 -0.2253 -0.0246
 3389SOL     OW21799   1.976   0.989  13.467  0.0437 -0.0178 -0.2609
 3389SOL    HW121800   2.055   0.943  13.436  1.7636  2.7563 -0.0009
 3389SOL    HW221801   1.926   1.004  13.387  0.6915  0.8898 -0.4889
 3390SOL     OW21802   0.399   1.474  15.227  0.2920 -0.3047 -0.4902
 3390SOL    HW121803   0.432   1.388  15.201  1.7413 -0.2122  0.9937
 3390SOL    HW221804   0.409   1.472  15.323  3.6661 -1.5962 -0.8612
 3391SOL     OW21805   0.052   4.308  10.269  0.1718  0.4439  0.0340
 3391SOL    HW121806   4.737   4.388  10.269  1.4461  1.2905  1.4561
 3391SOL    HW221807   4.726   4.240  10.290 -0.5784  0.9857 -0.5151
 3392SOL     OW21808   0.323   4.452  15.082 -0.5994 -0.1967 -0.3381
 3392SOL    HW121809   0.234   4.487  15.081 -0.4731  0.1300  0.3468
 3392SOL    HW221810   0.318   4.394  15.006 -3.0153 -0.1422 -0.2252
 3393SOL     OW21811   2.898   1.944   8.021  0.2811  0.1562 -0.0245
 3393SOL    HW121812   2.936   1.924   8.106 -0.8101 -0.6005  0.2848
 3393SOL    HW221813   2.979   1.971   7.977  1.3330 -0.8766  1.2550
 3394SOL     OW21814   2.594   1.121   8.932 -0.5173  0.4247  0.4461
 3394SOL    HW121815   2.549   1.048   8.974  2.0938 -1.3072  0.2216
 3394SOL    HW221816   2.609   1.180   9.006  1.1888 -0.2643  0.6637
 3395SOL     OW21817   0.919   0.421   4.239  0.0621 -0.1316  0.0076
 3395SOL    HW121818   0.854   0.440   4.307 -1.1418 -1.1380 -0.8402
 3395SOL    HW221819   0.997   0.404   4.292  0.3375  0.1279 -0.3168
 3396SOL     OW21820   3.614   1.240   8.057 -0.1066 -0.2574 -0.2448
 3396SOL    HW121821   3.640   1.255   7.966 -2.3851 -0.8237 -0.9847
 3396SOL    HW221822   3.681   1.178   8.087 -2.8729 -1.8009  2.8740
 3397SOL     OW21823   2.996   4.255  11.345 -0.5155  0.2800 -0.2794
 3397SOL    HW121824   3.024   4.265  11.254  1.6942 -0.1093  0.3600
 3397SOL    HW221825   2.954   4.170  11.331  0.4837  0.0442 -1.8346
 3398SOL     OW21826   0.163   3.858  15.034  0.3306  0.1915  0.1880
 3398SOL    HW121827   0.096   3.840  14.968  1.5892  1.6848 -1.5264
 3398SOL    HW221828   0.168   3.954  15.032 -0.2648  0.1735 -2.0844
 3399SOL     OW21829   4.133   2.118   0.941  0.8666  0.0121  0.2407
 3399SOL    HW121830   4.056   2.074   0.975  1.3965 -0.5478  0.7183
 3399SOL    HW221831   4.176   2.121   1.027 -0.0082  1.1059  0.6460
 3400SOL     OW21832   1.882   0.219  12.892 -0.3138  0.1550  0.3777
 3400SOL    HW121833   1.946   0.193  12.958 -0.1469  1.3366  0.6873
 3400SOL    HW221834   1.854   0.304  12.926 -0.6845  1.1117 -2.2564
 3401SOL     OW21835   3.520   2.703   3.373  0.2403 -0.2005 -0.1352
 3401SOL    HW121836   3.536   2.797   3.367  3.5139 -0.5540  2.5425
 3401SOL    HW221837   3.425   2.694   3.378  0.2120  0.0503 -0.2454
 3402SOL     OW21838   1.081   1.056   6.900 -0.0509  0.1978  0.1320
 3402SOL    HW121839   1.024   0.987   6.867 -0.1576  0.4599 -0.2317
 3402SOL    HW221840   1.054   1.131   6.847 -0.1794  2.2998  3.2293
 3403SOL     OW21841   2.974   3.829   5.644 -0.0737  0.4357 -0.1231
 3403SOL    HW121842   2.883   3.810   5.667  0.8460 -4.1621 -0.2498
 3403SOL    HW221843   2.966   3.920   5.616 -1.7189 -0.0715 -1.2790
 3404SOL     OW21844   2.408   2.921  12.343 -0.1537  0.5747 -0.3560
 3404SOL    HW121845   2.494   2.925  12.384  1.0462 -0.1458 -2.7746
 3404SOL    HW221846   2.386   3.014  12.329 -0.1403  0.6915  0.3800
 3405SOL     OW21847   2.201   4.596   6.750  0.4372 -0.1836 -0.0966
 3405SOL    HW121848   2.288   4.632   6.770  0.9350 -2.0481  1.1562
 3405SOL    HW221849   2.163   4.665   6.696 -2.5088 -0.9897  0.9381
 3406SOL     OW21850   0.125   2.188   6.960 -0.3305  0.0479 -0.3331
 3406SOL    HW121851   0.087   2.212   6.875 -1.0382 -0.1865 -0.0882
 3406SOL    HW221852   0.083   2.250   7.019 -0.8988 -0.2841 -0.3901
 3407SOL     OW21853   4.125   3.971  10.953 -0.3982 -0.3078  0.5254
 3407SOL    HW121854   4.220   3.984  10.954 -0.4925  0.4601 -0.9466
 3407SOL    HW221855   4.101   4.064  10.956 -0.7917 -0.3470 -1.7033
 3408SOL     OW21856   3.360   1.495   6.002 -0.2349  0.9672 -0.7318
 3408SOL    HW121857   3.421   1.459   5.938 -0.4705  0.8160 -0.8719
 3408SOL    HW221858   3.326   1.575   5.963 -1.3953  1.4605  1.3010
 3409SOL     OW21859   4.371   1.927   5.773 -0.2031  0.4575 -0.4192
 3409SOL    HW121860   4.460   1.954   5.751  1.0675 -2.3575  1.1883
 3409SOL    HW221861   4.386   1.835   5.794 -1.0480  0.9525  2.3716
 3410SOL     OW21862   3.803   1.303   6.933  0.0684  0.4686  0.3849
 3410SOL    HW121863   3.749   1.235   6.974 -1.0615  0.2744 -1.3844
 3410SOL    HW221864   3.853   1.259   6.864  1.6750 -0.0193  1.8687
 3411SOL     OW21865   0.893   0.439   9.469  0.5134 -0.3028 -0.0928
 3411SOL    HW121866   0.846   0.426   9.552 -0.0496  1.6501 -0.1079
 3411SOL    HW221867   0.970   0.488   9.500 -1.4223  2.3044  0.5840
 3412SOL     OW21868   4.578   3.260   9.336 -0.0293 -0.5984 -0.0619
 3412SOL    HW121869   4.516   3.328   9.364  0.0393 -0.6127  0.1202
 3412SOL    HW221870   4.585   3.204   9.413 -0.1734 -0.7910 -0.1877
 3413SOL     OW21871   2.144   2.619   4.064 -0.8448  0.4041  0.6497
 3413SOL    HW121872   2.158   2.671   3.985 -0.1176  0.2554  0.6862
 3413SOL    HW221873   2.222   2.634   4.116  0.4631  1.7762 -1.7487
 3414SOL     OW21874   1.581   2.163   3.187  0.6839 -0.2523  0.2782
 3414SOL    HW121875   1.617   2.208   3.111 -1.7904  1.2318  0.0049
 3414SOL    HW221876   1.523   2.098   3.146 -0.7119  1.1009  0.1043
 3415SOL     OW21877   3.006   3.167   6.028  0.6832  0.5898 -0.2281
 3415SOL    HW121878   3.060   3.149   5.951  1.9544  1.0732  0.5523
 3415SOL    HW221879   3.045   3.253   6.042  0.5382  1.1190 -3.0853
 3416SOL     OW21880   0.015   0.979   5.072  0.0573 -0.2213  0.7046
 3416SOL    HW121881   0.039   0.969   4.980  1.7904 -0.0310  1.1446
 3416SOL    HW221882   4.670   0.932   5.076  0.3517 -0.7359  0.6612
 3417SOL     OW21883   1.495   1.744   4.422  0.1400 -0.3199 -0.4584
 3417SOL    HW121884   1.477   1.838   4.430 -2.2425 -0.7780 -0.4935
 3417SOL    HW221885   1.412   1.704   4.445 -0.1246  0.7202  0.4282
 3418SOL     OW21886   4.154   2.252   4.112  0.0041 -0.6845  0.0896
 3418SOL    HW121887   4.134   2.207   4.194 -0.8062 -0.2553  0.1290
 3418SOL    HW221888   4.070   2.290   4.086  0.9077  0.8337 -0.6225
 3419SOL     OW21889   4.309   4.183   2.393  0.2994 -0.0027  0.4875
 3419SOL    HW121890   4.275   4.113   2.337 -2.3581  2.4674 -0.9616
 3419SOL    HW221891   4.287   4.260   2.340  0.2220  0.4161  1.1315
 3420SOL     OW21892   4.245   2.995   2.356  0.6871 -0.0718 -0.4539
 3420SOL    HW121893   4.286   2.981   2.271  2.0148  0.0359  0.1653
 3420SOL    HW221894   4.264   3.088   2.347 -0.1824  0.2470  0.8573
 3421SOL     OW21895   3.675   3.047   6.462  0.1751 -0.7354  0.6394
 3421SOL    HW121896   3.625   3.069   6.384 -1.9979  2.0197  2.7844
 3421SOL    HW221897   3.605   3.015   6.520  0.1382 -1.1467  0.3695
 3422SOL     OW21898   2.051   3.852   5.984  0.2250 -0.0112  0.5344
 3422SOL    HW121899   2.103   3.895   6.052  1.6491  2.0660 -1.8690
 3422SOL    HW221900   2.086   3.764   5.978 -1.4997 -0.6823  0.3650
 3423SOL     OW21901   4.580   1.564   5.490 -0.0991 -0.0965  0.4960
 3423SOL    HW121902   4.629   1.639   5.458 -0.9299  0.0675 -0.3930
 3423SOL    HW221903   4.651   1.505   5.513  3.7298  4.2112 -0.2487
 3424SOL     OW21904   1.500   1.972   8.136  0.4003  0.8121  0.3274
 3424SOL    HW121905   1.500   1.879   8.162  0.3107  0.5221 -0.7388
 3424SOL    HW221906   1.560   2.009   8.201 -1.9232  1.3638  2.1491
 3425SOL     OW21907   2.359   2.956   2.976  0.2481  0.0194 -0.2618
 3425SOL    HW121908   2.305   3.029   2.946  0.2140 -0.2562 -0.8838
 3425SOL    HW221909   2.312   2.925   3.053  0.2046  1.4018  0.2707
 3426SOL     OW21910   4.065   3.008   9.080 -0.2406 -0.0917 -0.4265
 3426SOL    HW121911   4.069   2.951   9.004 -0.5823 -1.7866  0.8310
 3426SOL    HW221912   4.059   3.098   9.048  0.5372  0.1788  0.1711
 3427SOL     OW21913   0.237   3.295  17.015  0.0753  0.2867  0.0588
 3427SOL    HW121914   0.241   3.205  16.982  1.1741 -0.0107  1.0280
 3427SOL    HW221915   0.327   3.301  17.048  0.7280 -1.6507 -1.3729
 3428SOL     OW21916   2.109   2.492   6.957  0.7101  0.1086 -0.0723
 3428SOL    HW121917   2.019   2.467   6.976  1.4947 -3.0364 -0.3704
 3428SOL    HW221918   2.163   2.443   7.019  0.1902  1.2100  1.2373
 3429SOL     OW21919   4.530   2.758  15.129  0.7653  0.5162 -0.0530
 3429SOL    HW121920   4.562   2.727  15.045  1.1149 -0.5392  0.4616
 3429SOL    HW221921   4.534   2.853  15.115 -4.4328  0.6576 -0.4654
 3430SOL     OW21922   0.664   1.137   6.942  0.4481 -0.5340 -0.2383
 3430SOL    HW121923   0.656   1.157   6.848  1.7737 -2.2067 -0.7156
 3430SOL    HW221924   0.666   1.042   6.933 -1.7857 -0.6753  0.7686
 3431SOL     OW21925   2.505   0.464   2.305 -0.0981  0.8294  0.1732
 3431SOL    HW121926   2.513   0.527   2.233 -0.1722  0.6300 -0.0081
 3431SOL    HW221927   2.410   0.456   2.300 -0.1452  1.0980  0.5857
 3432SOL     OW21928   4.063   0.172   7.088  0.2073  0.2839  0.4379
 3432SOL    HW121929   4.122   0.244   7.110  1.8691 -0.5797 -1.1624
 3432SOL    HW221930   3.988   0.214   7.131  0.0092  1.1812 -0.7847
 3433SOL     OW21931   2.415   0.910   7.849 -0.2242  0.1061 -0.4014
 3433SOL    HW121932   2.348   0.871   7.794  0.1693  0.9602 -1.4911
 3433SOL    HW221933   2.464   0.832   7.876 -0.9884 -0.2384 -0.0384
 3434SOL     OW21934   3.156   0.807  17.517 -0.4834  0.5586 -0.1080
 3434SOL    HW121935   3.237   0.856  17.519  1.5572 -2.9100  2.5967
 3434SOL    HW221936   3.157   0.773  17.427  0.7845 -0.6049  0.3457
 3435SOL     OW21937   0.760   2.992  14.192 -0.2068  0.6840 -0.1105
 3435SOL    HW121938   0.675   3.030  14.172  0.3227  0.8724 -2.0567
 3435SOL    HW221939   0.803   3.076  14.206  2.3306 -0.5850 -0.2529
 3436SOL     OW21940   3.461   1.457  11.337  0.2375  0.0821  1.0320
 3436SOL    HW121941   3.547   1.459  11.379  1.1456 -0.9725 -0.7425
 3436SOL    HW221942   3.410   1.406  11.400  0.5402 -2.0800 -0.4337
 3437SOL     OW21943   1.505   4.732   7.280 -0.8081  0.0064  0.1642
 3437SOL    HW121944   1.477   4.642   7.272 -0.8723  0.1105 -0.7179
 3437SOL    HW221945   1.596   4.732   7.250 -0.5310 -1.4388  1.0429
 3438SOL     OW21946   4.481   3.178   0.906  0.2099  0.4620  0.4132
 3438SOL    HW121947   4.536   3.153   0.979 -0.0516 -0.9869  0.1128
 3438SOL    HW221948   4.520   3.261   0.879  0.8761  0.3627  1.0901
 3439SOL     OW21949   3.381   2.768   0.415 -0.4676 -0.1728  0.2277
 3439SOL    HW121950   3.450   2.712   0.378 -0.6522 -0.9169  1.0068
 3439SOL    HW221951   3.398   2.856   0.381 -1.5296 -1.8002 -4.5309
 3440SOL     OW21952   1.217   2.727   4.284  0.3229  0.1306 -0.4973
 3440SOL    HW121953   1.150   2.737   4.217 -0.4729  3.7665  0.8860
 3440SOL    HW221954   1.250   2.816   4.275  0.8338  0.0275  0.2769
 3441SOL     OW21955   1.032   3.468   4.134 -0.7281  0.0861  0.3373
 3441SOL    HW121956   1.098   3.456   4.066 -1.1480  0.5343 -0.1537
 3441SOL    HW221957   1.001   3.556   4.111 -0.4332  0.3623  1.0257
 3442SOL     OW21958   3.803   3.808   7.633  0.0886  0.3604  0.2567
 3442SOL    HW121959   3.724   3.856   7.609 -0.0093 -0.1899 -0.5299
 3442SOL    HW221960   3.868   3.873   7.658 -0.3305 -0.0181  2.2721
 3443SOL     OW21961   0.299   3.841   5.482 -0.0001  0.3167 -0.2181
 3443SOL    HW121962   0.248   3.894   5.543  0.9891  1.1402 -0.1100
 3443SOL    HW221963   0.230   3.818   5.419 -0.4568  0.5898  0.1875
 3444SOL     OW21964   4.310   1.589   3.962  0.3832 -0.2794  0.5943
 3444SOL    HW121965   4.311   1.614   3.869 -1.3986 -2.7326 -0.0755
 3444SOL    HW221966   4.298   1.671   4.009 -1.0243 -0.9734  1.4449
 3445SOL     OW21967   3.504   1.399   8.660 -0.8607  0.0559 -0.2772
 3445SOL    HW121968   3.574   1.340   8.635  1.1855  2.5520 -0.4917
 3445SOL    HW221969   3.478   1.366   8.746 -0.3042  2.7379  0.9345
 3446SOL     OW21970   4.495   1.299   0.157 -0.0275  0.0195 -0.1757
 3446SOL    HW121971   4.469   1.351   0.081  0.3390 -1.1811 -1.1184
 3446SOL    HW221972   4.589   1.284   0.147  0.4028  2.4448  0.1310
 3447SOL     OW21973   1.324   2.984   4.265 -0.1677  0.1356 -0.7953
 3447SOL    HW121974   1.337   3.078   4.273  1.6505 -0.0113 -2.1097
 3447SOL    HW221975   1.345   2.959   4.355 -0.9471 -2.4778 -1.3399
 3448SOL     OW21976   0.839   2.187   3.055  0.2635 -0.2912  0.1369
 3448SOL    HW121977   0.782   2.248   3.101 -0.1037 -0.0996 -0.5659
 3448SOL    HW221978   0.778   2.118   3.028  1.6319 -0.9063 -1.4110
 3449SOL     OW21979   3.934   3.840   2.051 -0.2042  0.3651  0.4889
 3449SOL    HW121980   3.847   3.880   2.042  0.3650  1.4937 -0.0783
 3449SOL    HW221981   3.904   3.763   2.098  1.0336 -0.4281 -0.0413
 3450SOL     OW21982   3.938   1.574   8.788 -0.0975  0.2106 -0.3024
 3450SOL    HW121983   3.847   1.574   8.818  0.0343 -2.8027  0.1028
 3450SOL    HW221984   3.939   1.488   8.747  1.4572  0.8305 -1.5855
 3451SOL     OW21985   3.614   0.375   5.699 -0.1646 -0.5145 -0.8571
 3451SOL    HW121986   3.533   0.324   5.702  0.2368 -1.1343 -0.4557
 3451SOL    HW221987   3.677   0.317   5.741  2.1890  0.2502 -3.3057
 3452SOL     OW21988   4.530   0.277  14.867  0.1466  0.3754  0.3524
 3452SOL    HW121989   4.531   0.372  14.868  1.3652  0.3762 -1.2259
 3452SOL    HW221990   4.506   0.263  14.959 -0.4147  1.4300  0.3537
 3453SOL     OW21991   3.300   4.068  14.499  0.2261  0.3093  0.1771
 3453SOL    HW121992   3.208   4.053  14.519 -0.4101  3.1541 -0.5575
 3453SOL    HW221993   3.329   3.977  14.497  3.0188  1.2394 -2.4432
 3454SOL     OW21994   2.473   1.249   6.753  0.0848 -0.5615 -0.6973
 3454SOL    HW121995   2.393   1.199   6.738 -1.2213  0.3900  2.9583
 3454SOL    HW221996   2.537   1.177   6.752  1.2927  0.5045 -0.2098
 3455SOL     OW21997   4.672   0.105  15.228  0.2483 -0.0467  0.0184
 3455SOL    HW121998   4.643   0.193  15.203  0.5144 -0.2917 -1.1728
 3455SOL    HW221999   0.013   0.111  15.174  2.0018  1.2764  2.7262
 3456SOL     OW22000   2.008   1.394   0.692 -0.2978  0.0001  0.2617
 3456SOL    HW122001   1.936   1.438   0.737 -0.8375 -1.4281  0.8033
 3456SOL    HW222002   2.072   1.459   0.664 -2.0630  1.5186 -0.2612
 3457SOL     OW22003   3.792   2.841   7.004  0.1388 -0.2340 -0.7259
 3457SOL    HW122004   3.843   2.765   6.978 -1.4897 -1.7819  0.6250
 3457SOL    HW222005   3.866   2.899   7.024  0.6398 -1.2688  0.3946
 3458SOL     OW22006   3.298   3.023   3.874 -0.1680  0.1524 -0.7550
 3458SOL    HW122007   3.379   3.073   3.870  1.9114 -3.0540  0.6118
 3458SOL    HW222008   3.334   2.947   3.920 -0.6039 -0.2046 -1.0075
 3459SOL     OW22009   2.855   3.815   6.371 -0.9803 -0.3527 -0.2706
 3459SOL    HW122010   2.817   3.838   6.456  2.0236 -0.0134  0.9947
 3459SOL    HW222011   2.779   3.836   6.316 -1.6537  0.6381  1.0350
 3460SOL     OW22012   4.363   2.980  12.564 -0.1498 -0.3175  0.0095
 3460SOL    HW122013   4.351   3.001  12.471 -1.3782 -2.5240 -0.3171
 3460SOL    HW222014   4.318   3.055  12.603 -0.8947  0.0645 -1.5980
 3461SOL     OW22015   3.431   2.863   6.480 -0.0352 -0.8700 -0.2949
 3461SOL    HW122016   3.470   2.815   6.406  0.0716  1.1032 -1.5189
 3461SOL    HW222017   3.397   2.934   6.427 -1.2827 -1.4435 -0.2553
 3462SOL     OW22018   2.883   4.650   9.201  0.0842 -0.0332 -0.3905
 3462SOL    HW122019   2.938   4.689   9.269 -0.4834 -0.0258  0.0655
 3462SOL    HW222020   2.832   4.601   9.266  1.9207  0.2889  1.3102
 3463SOL     OW22021   0.373   2.414   2.693 -0.4320  0.0007 -0.5766
 3463SOL    HW122022   0.434   2.352   2.733  1.2082  1.7034 -0.4362
 3463SOL    HW222023   0.409   2.494   2.730  1.2519 -0.9507 -0.1334
 3464SOL     OW22024   3.046   2.324   0.288  0.2815 -0.4203  0.3876
 3464SOL    HW122025   3.070   2.247   0.340  0.2210 -0.3935  0.4550
 3464SOL    HW222026   3.109   2.389   0.318 -1.6243  1.0386  1.2125
 3465SOL     OW22027   1.514   1.698  10.016  0.0997  0.1805 -0.0829
 3465SOL    HW122028   1.421   1.678  10.001  0.3448 -0.5481 -0.6211
 3465SOL    HW222029   1.516   1.660  10.104  0.5751  0.2297 -0.0743
 3466SOL     OW22030   3.908   1.573   6.197 -0.3398 -0.1943  0.3574
 3466SOL    HW122031   3.991   1.621   6.202 -0.9220  0.9892 -1.2841
 3466SOL    HW222032   3.855   1.652   6.187  3.2063  2.1798  0.2396
 3467SOL     OW22033   0.172   2.294   5.988 -0.1071 -0.1862 -0.0909
 3467SOL    HW122034   0.181   2.347   6.066  0.5507 -2.2644  1.2417
 3467SOL    HW222035   0.178   2.362   5.921  0.9382  2.4104  2.6626
 3468SOL     OW22036   1.121   3.476   2.049  0.1276  0.0291  0.2730
 3468SOL    HW122037   1.194   3.492   1.990 -1.0389  0.4642 -1.0679
 3468SOL    HW222038   1.088   3.396   2.008 -0.1711  0.6137 -0.6353
 3469SOL     OW22039   3.589   0.499   5.452  0.1110 -0.3456  0.1030
 3469SOL    HW122040   3.625   0.457   5.530  2.6870  2.1661  0.2940
 3469SOL    HW222041   3.543   0.564   5.506 -0.0295 -0.6050  0.2947
 3470SOL     OW22042   0.694   0.021   6.387 -0.0738  0.1056 -0.8449
 3470SOL    HW122043   0.769   0.013   6.329  0.0269 -0.6880 -0.6046
 3470SOL    HW222044   0.734   0.090   6.440  0.4414 -1.5049  0.8674
 3471SOL     OW22045   1.822   4.198   2.587  0.1074  0.2709 -0.2567
 3471SOL    HW122046   1.751   4.176   2.527 -0.9164  0.6924  0.8148
 3471SOL    HW222047   1.778   4.256   2.650 -1.4213 -1.4582  0.2566
 3472SOL     OW22048   3.196   3.128  11.155  0.0781  0.1290 -0.5361
 3472SOL    HW122049   3.133   3.194  11.182  0.6839  0.8955 -0.9869
 3472SOL    HW222050   3.251   3.123  11.234 -1.0634  0.5110  0.2880
 3473SOL     OW22051   4.382   0.077   8.419 -0.0889  0.4989 -0.6147
 3473SOL    HW122052   4.346   4.728   8.407 -0.7577  0.9428 -1.8995
 3473SOL    HW222053   4.378   0.072   8.514 -0.7848 -2.3617 -0.7957
 3474SOL     OW22054   1.868   4.625   2.309  0.1743  0.1995 -0.0637
 3474SOL    HW122055   1.877   4.660   2.221  1.5863  1.1997  0.4786
 3474SOL    HW222056   1.775   4.601   2.313 -0.2204  1.8016  0.0889
 3475SOL     OW22057   3.439   1.712  10.672  0.1705 -0.1041  0.4301
 3475SOL    HW122058   3.513   1.753  10.716  1.0594 -1.4412  0.2148
 3475SOL    HW222059   3.474   1.622  10.674 -1.2481 -0.6129  2.0792
 3476SOL     OW22060   4.322   3.392   7.846  0.7171  0.1865 -0.2973
 3476SOL    HW122061   4.347   3.320   7.788  0.5366  1.5111 -2.0351
 3476SOL    HW222062   4.281   3.441   7.774  0.3253  0.1666 -0.0863
 3477SOL     OW22063   2.545   0.891  10.662 -0.7188  0.6996 -0.5787
 3477SOL    HW122064   2.466   0.845  10.637  0.2712 -0.6501 -1.2206
 3477SOL    HW222065   2.548   0.957  10.592  1.1749 -0.3612 -1.4872
 3478SOL     OW22066   0.562   3.995   2.556 -0.2266  0.3552 -0.0664
 3478SOL    HW122067   0.516   4.066   2.510  1.2430 -0.0522 -2.1712
 3478SOL    HW222068   0.598   4.031   2.636  1.1337  2.7031 -1.7267
 3479SOL     OW22069   3.861   2.939   4.141  0.2411 -0.2196  0.6119
 3479SOL    HW122070   3.919   2.952   4.066  0.9592  1.1149  1.3926
 3479SOL    HW222071   3.909   2.900   4.214  0.1723  0.3852  0.9841
 3480SOL     OW22072   2.424   4.484   7.098 -0.2692  0.6954  0.1318
 3480SOL    HW122073   2.395   4.569   7.066 -1.9946  0.9300  2.2943
 3480SOL    HW222074   2.377   4.487   7.182  0.3771  0.2519  0.5112
 3481SOL     OW22075   3.490   1.725  13.069 -0.0856  0.3076  0.8289
 3481SOL    HW122076   3.529   1.769  12.993 -2.3451 -0.6436 -0.8895
 3481SOL    HW222077   3.404   1.764  13.083 -0.5415 -0.2846 -0.2930
 3482SOL     OW22078   4.411   3.475   7.386 -0.0850 -0.3088  0.2452
 3482SOL    HW122079   4.385   3.384   7.402  1.4929 -0.5536  1.2993
 3482SOL    HW222080   4.363   3.525   7.452  1.0489 -1.3947  1.8880
 3483SOL     OW22081   2.086   3.754   5.417  0.3477 -0.0378  0.0649
 3483SOL    HW122082   2.126   3.805   5.486 -1.0051  0.9213  0.1329
 3483SOL    HW222083   2.136   3.672   5.418 -1.2858 -1.0187  0.9869
 3484SOL     OW22084   3.395   3.850   1.741  0.0574  0.1364 -0.0968
 3484SOL    HW122085   3.332   3.861   1.670  1.2798  0.7684 -1.0733
 3484SOL    HW222086   3.336   3.838   1.815 -4.8496  2.0920 -3.6959
 3485SOL     OW22087   3.128   3.954   1.616 -0.7222  0.1233 -0.0162
 3485SOL    HW122088   3.097   4.011   1.686 -0.0073 -1.5847  1.7082
 3485SOL    HW222089   3.044   3.915   1.593 -0.8315 -0.1415  0.8402
 3486SOL     OW22090   4.047   3.780   8.676  0.3581  0.4430 -0.7501
 3486SOL    HW122091   4.067   3.792   8.768 -3.7723  0.6730  0.1246
 3486SOL    HW222092   4.133   3.764   8.637  0.8493 -0.3523  0.6773
 3487SOL     OW22093   0.293   2.390   7.213  0.2631 -0.2309 -0.3574
 3487SOL    HW122094   0.218   2.344   7.250  0.3063  0.5312  0.6849
 3487SOL    HW222095   0.367   2.341   7.249  0.7635  0.0932 -0.9474
 3488SOL     OW22096   4.110   0.095  17.045 -0.2955  0.6971  0.0076
 3488SOL    HW122097   4.159   0.171  17.012 -1.1559 -0.3044 -3.6470
 3488SOL    HW222098   4.106   0.037  16.969 -0.3513 -0.2757  0.7679
 3489SOL     OW22099   4.407   2.846   9.054  0.2980  0.2971  0.3858
 3489SOL    HW122100   4.339   2.825   9.118  0.9807 -2.1363  0.2941
 3489SOL    HW222101   4.370   2.807   8.974 -1.2704  2.2452  0.1497
 3490SOL     OW22102   0.905   2.169   7.885  0.3855  0.3715 -0.5369
 3490SOL    HW122103   0.916   2.119   7.804  0.5275 -1.0010  0.3232
 3490SOL    HW222104   0.916   2.108   7.959 -2.0381  0.8862  0.2326
 3491SOL     OW22105   4.422   2.943  10.823 -0.0207 -0.1165 -0.1831
 3491SOL    HW122106   4.467   3.019  10.860 -1.0416 -0.3612  1.5915
 3491SOL    HW222107   4.358   2.934  10.894  0.8792  0.1992  0.6682
 3492SOL     OW22108   2.632   3.570   4.502  0.4268  0.1029 -0.0947
 3492SOL    HW122109   2.617   3.598   4.411 -0.9375  0.8541  0.3610
 3492SOL    HW222110   2.706   3.512   4.485 -0.3618 -1.2331  1.0260
 3493SOL     OW22111   0.331   0.939   2.222  0.4293 -0.4381  0.1791
 3493SOL    HW122112   0.358   0.961   2.311 -0.5093 -1.0326  0.6222
 3493SOL    HW222113   0.264   0.873   2.240 -0.6960  0.2220 -1.5822
 3494SOL     OW22114   1.747   1.027  12.276 -0.5182 -0.2555  0.0643
 3494SOL    HW122115   1.835   0.995  12.298 -0.9112 -1.6514 -0.3885
 3494SOL    HW222116   1.772   1.114  12.245 -0.4857 -0.0390  0.7005
 3495SOL     OW22117   2.397   4.515   8.097  0.3046  0.0813  0.1190
 3495SOL    HW122118   2.426   4.461   8.171  0.5523  0.6945  0.4664
 3495SOL    HW222119   2.472   4.574   8.096  0.9810 -0.7624  0.9243
 3496SOL     OW22120   2.722   1.506  11.888 -0.3911  0.7930 -0.1668
 3496SOL    HW122121   2.661   1.578  11.874 -1.6778 -0.2929 -0.1726
 3496SOL    HW222122   2.803   1.551  11.913 -0.8981  1.4736  0.2561
 3497SOL     OW22123   3.018   2.977   6.904  0.0911  0.1373 -0.7199
 3497SOL    HW122124   3.056   3.056   6.866 -0.6720  1.0036  0.3082
 3497SOL    HW222125   3.098   2.925   6.914  1.1235  1.7353 -0.6752
 3498SOL     OW22126   0.420   0.944  14.477 -0.9837 -0.4335  0.0790
 3498SOL    HW122127   0.476   0.873  14.443 -0.1291  0.9208 -1.3050
 3498SOL    HW222128   0.380   0.982  14.399 -1.0983 -0.1166  0.2931
 3499SOL     OW22129   1.208   2.696  17.487 -0.2165 -0.2751  0.1255
 3499SOL    HW122130   1.178   2.730  17.571  0.1417 -1.1048  0.5900
 3499SOL    HW222131   1.120   2.666  17.465 -0.2381  0.2693 -0.5369
 3500SOL     OW22132   0.768   1.854   3.969  0.0886  0.1670 -0.3445
 3500SOL    HW122133   0.790   1.934   4.016  0.9997 -1.3545  1.8093
 3500SOL    HW222134   0.709   1.808   4.029  1.2063 -0.5620  0.1891
 3501SOL     OW22135   0.753   2.434   4.472  0.6217  0.1223  0.6988
 3501SOL    HW122136   0.836   2.467   4.439 -0.3521  0.1852 -1.7116
 3501SOL    HW222137   0.774   2.343   4.452  0.4249 -0.1307  1.6453
 3502SOL     OW22138   0.687   3.409   1.895  0.3562 -0.2507  0.1170
 3502SOL    HW122139   0.641   3.362   1.826  3.0465 -3.3572  0.4345
 3502SOL    HW222140   0.769   3.434   1.852  0.9880 -2.6363 -0.0884
 3503SOL     OW22141   1.599   1.130   4.328  0.1136 -0.1522  0.7120
 3503SOL    HW122142   1.673   1.105   4.273 -0.4161  0.8186 -0.4454
 3503SOL    HW222143   1.548   1.185   4.268  0.2192 -2.6326 -1.6676
 3504SOL     OW22144   2.005   2.077   2.552  0.1095 -0.3452 -0.5201
 3504SOL    HW122145   2.077   2.023   2.521  0.8579  0.2616  0.1728
 3504SOL    HW222146   1.990   2.134   2.476  0.1001 -0.9274 -0.9479
 3505SOL     OW22147   0.436   0.428   3.962 -0.3471 -0.3989  0.7797
 3505SOL    HW122148   0.418   0.339   3.933  0.3970  0.4069 -2.1703
 3505SOL    HW222149   0.521   0.430   4.008  0.0026  0.5395  0.0875
 3506SOL     OW22150   0.072   3.316   5.942 -0.0082 -0.1785 -0.4288
 3506SOL    HW122151   0.162   3.305   5.912  0.0015 -0.0325 -0.4486
 3506SOL    HW222152   0.055   3.228   5.976  1.1209 -0.1054  0.3243
 3507SOL     OW22153   1.627   3.443   9.958  0.3416  0.0833  0.0229
 3507SOL    HW122154   1.702   3.502   9.961  1.5124 -1.4799  1.2571
 3507SOL    HW222155   1.585   3.454  10.043 -1.4287 -0.0319 -0.8355
 3508SOL     OW22156   4.261   3.367   5.529  0.2649  0.8730 -0.1174
 3508SOL    HW122157   4.208   3.389   5.605  1.8027 -0.7236  1.4150
 3508SOL    HW222158   4.213   3.409   5.458 -1.0696 -1.6971 -0.7304
 3509SOL     OW22159   4.683   3.559   5.996  0.4689  0.1586  0.5138
 3509SOL    HW122160   0.018   3.592   6.049  0.4903  0.0706  0.5397
 3509SOL    HW222161   4.726   3.482   5.958 -1.1543 -1.3787  1.8260
 3510SOL     OW22162   1.202   2.561   2.863 -0.0190  0.1143 -0.3794
 3510SOL    HW122163   1.273   2.543   2.800 -0.6755 -0.9433 -0.8090
 3510SOL    HW222164   1.151   2.624   2.812  1.2364  0.8258 -0.7705
 3511SOL     OW22165   4.402   4.406   1.321  0.6778 -0.1145 -0.2404
 3511SOL    HW122166   4.435   4.489   1.287 -1.3927  0.5540 -0.5958
 3511SOL    HW222167   4.324   4.389   1.269  1.5727  0.2481 -1.6947
 3512SOL     OW22168   4.177   2.883  15.747 -0.1640 -0.6105  0.6072
 3512SOL    HW122169   4.142   2.825  15.679 -0.7063 -1.4735  1.6303
 3512SOL    HW222170   4.248   2.825  15.774  1.7159  0.3622 -2.2070
 3513SOL     OW22171   4.503   2.474   8.798  0.0680  0.6695  0.6761
 3513SOL    HW122172   4.581   2.517   8.835 -0.3178  0.9835  1.1314
 3513SOL    HW222173   4.540   2.387   8.785  0.1338  0.5072  1.9310
 3514SOL     OW22174   1.756   0.103   9.214 -0.1089 -0.0557  0.1368
 3514SOL    HW122175   1.680   0.145   9.254  0.5678  0.0812  1.2765
 3514SOL    HW222176   1.820   0.094   9.285  0.8454  2.3888 -0.4195
 3515SOL     OW22177   0.993   0.546   8.308  0.0175 -0.3987  0.8747
 3515SOL    HW122178   0.910   0.504   8.286 -0.5069  0.6570  0.8223
 3515SOL    HW222179   1.019   0.579   8.221  1.0039 -0.5861  1.0948
 3516SOL     OW22180   0.305   1.158  17.169  0.2950 -0.4376  0.2236
 3516SOL    HW122181   0.286   1.094  17.100  1.7808 -0.0660 -0.5108
 3516SOL    HW222182   0.400   1.156  17.180  0.3759 -2.6107 -0.8133
 3517SOL     OW22183   3.517   1.113  12.706  0.0650  0.0852  0.2300
 3517SOL    HW122184   3.470   1.132  12.625 -2.3396  0.9323  1.8225
 3517SOL    HW222185   3.481   1.030  12.738  3.7751 -0.6997  2.4173
 3518SOL     OW22186   3.234   3.512  12.493  0.2720  0.8381  0.6023
 3518SOL    HW122187   3.294   3.584  12.513 -2.2695  2.4356  2.4646
 3518SOL    HW222188   3.290   3.456  12.438  0.7601  0.5642  1.3656
 3519SOL     OW22189   2.928   3.976  12.341 -0.0840 -0.2000 -0.3248
 3519SOL    HW122190   2.979   4.025  12.278  0.1388  0.9727  0.7692
 3519SOL    HW222191   2.845   4.020  12.323 -0.1186 -0.4221 -0.7048
 3520SOL     OW22192   0.968   2.483   4.039  0.0109 -0.0524 -0.3450
 3520SOL    HW122193   0.931   2.552   4.093  4.8944  2.0746  0.2344
 3520SOL    HW222194   1.011   2.525   3.965  0.5131  1.5885  0.8843
 3521SOL     OW22195   1.305   4.226  15.593  0.0245  0.2518 -0.3764
 3521SOL    HW122196   1.368   4.296  15.576  0.1611  0.3569  0.5670
 3521SOL    HW222197   1.230   4.236  15.535  0.3896  2.2847 -0.4875
 3522SOL     OW22198   2.347   4.717   4.559 -0.1592  0.3125 -0.3136
 3522SOL    HW122199   2.336   4.707   4.654 -2.0704  0.4749 -0.5035
 3522SOL    HW222200   2.405   0.055   4.551  2.7625 -2.0628 -1.5495
 3523SOL     OW22201   4.153   2.947  13.188  0.0223  0.2924 -0.1110
 3523SOL    HW122202   4.172   2.939  13.094 -2.2837 -0.5376 -0.5230
 3523SOL    HW222203   4.232   2.986  13.225  0.5784  0.6143 -1.6497
 3524SOL     OW22204   3.212   3.705  10.577  0.5006  0.2423  0.0186
 3524SOL    HW122205   3.258   3.788  10.562 -2.4015  1.9648  0.8007
 3524SOL    HW222206   3.216   3.690  10.671 -0.7446 -1.2066 -0.1629
 3525SOL     OW22207   3.433   0.491   1.894 -0.1217 -0.2410 -0.3171
 3525SOL    HW122208   3.527   0.479   1.906  0.5703  0.6190 -4.7415
 3525SOL    HW222209   3.436   0.497   1.798 -4.4152  0.8566 -0.3854
 3526SOL     OW22210   1.856   0.042   9.474 -0.3383 -0.0462  0.3916
 3526SOL    HW122211   1.805   4.703   9.500 -0.1081  1.1150  4.1345
 3526SOL    HW222212   1.949   0.022   9.471  0.1032  2.0802 -0.6447
 3527SOL     OW22213   1.323   3.935   4.460  0.1072  0.5018  0.0706
 3527SOL    HW122214   1.364   3.865   4.409  0.8565  0.5437  0.6011
 3527SOL    HW222215   1.286   3.987   4.390  1.4554  1.1357 -0.1632
 3528SOL     OW22216   1.885   1.068   7.033  0.3140 -0.4149 -0.3393
 3528SOL    HW122217   1.859   1.101   6.946  0.3258 -1.1086 -0.6079
 3528SOL    HW222218   1.952   1.130   7.060 -1.9384  1.9638 -0.2367
 3529SOL     OW22219   2.356   2.957   7.975  0.0455 -0.6297 -0.4703
 3529SOL    HW122220   2.353   3.048   8.005 -0.9869 -0.6285 -0.5751
 3529SOL    HW222221   2.416   2.917   8.037  0.9472 -0.5078 -1.2651
 3530SOL     OW22222   1.072   1.238   2.712  0.3622  0.2179 -0.4160
 3530SOL    HW122223   1.002   1.244   2.647 -1.5200  0.2295  1.6125
 3530SOL    HW222224   1.096   1.146   2.719  0.7523  0.3259 -0.3677
 3531SOL     OW22225   1.166   4.661   9.409 -0.0670 -0.7001  0.4306
 3531SOL    HW122226   1.090   4.608   9.384  0.1563 -0.9139  0.2036
 3531SOL    HW222227   1.205   4.616   9.484 -2.2970  1.0437  2.5967
 3532SOL     OW22228   3.206   3.190   3.369 -0.0981  0.3124 -0.3504
 3532SOL    HW122229   3.210   3.282   3.345 -1.4762 -0.0231 -1.8654
 3532SOL    HW222230   3.112   3.194   3.387  0.0731  0.1735  0.5761
 3533SOL     OW22231   3.663   0.071   5.734  0.1331 -0.4146 -0.1565
 3533SOL    HW122232   3.677   4.716   5.718 -0.3633 -0.5994  0.5138
 3533SOL    HW222233   3.644   0.061   5.827 -1.6513 -1.5821 -0.6476
 3534SOL     OW22234   4.734   2.929   8.381 -0.1961 -0.1706  0.1466
 3534SOL    HW122235   4.640   2.945   8.369 -0.0261 -0.4824 -1.6814
 3534SOL    HW222236   4.734   2.908   8.474 -0.0327  2.8704  0.8444
 3535SOL     OW22237   0.596   1.165  16.749 -0.1084 -0.2701 -0.5064
 3535SOL    HW122238   0.585   1.129  16.836  1.2255 -0.4684 -0.4223
 3535SOL    HW222239   0.519   1.219  16.729  0.9479  1.7274  0.7887
 3536SOL     OW22240   4.178   0.749  11.077 -0.1458 -0.3293  0.6425
 3536SOL    HW122241   4.262   0.794  11.064 -1.7496  2.4974  0.0739
 3536SOL    HW222242   4.204   0.657  11.087 -1.1757 -0.6231  0.5541
 3537SOL     OW22243   3.840   3.594   8.746  0.4399  0.1723 -0.1397
 3537SOL    HW122244   3.908   3.652   8.711 -0.6331  2.4847  1.5916
 3537SOL    HW222245   3.810   3.640   8.824  0.5886  1.7071 -0.9870
 3538SOL     OW22246   3.354   4.608   2.944 -0.0383 -0.3071  0.2088
 3538SOL    HW122247   3.378   4.608   3.036  0.9316 -0.9016 -0.0359
 3538SOL    HW222248   3.312   4.690   2.916 -0.8304  0.3461  3.3633
 3539SOL     OW22249   3.369   2.410   4.724 -0.5003 -0.0503 -0.2312
 3539SOL    HW122250   3.425   2.399   4.647  0.9350  0.3245  0.7439
 3539SOL    HW222251   3.419   2.363   4.791 -0.7465  0.3108  0.2051
 3540SOL     OW22252   0.424   4.230   7.569 -0.2677 -0.6068 -0.4416
 3540SOL    HW122253   0.433   4.213   7.662 -0.4370 -0.3384 -0.3783
 3540SOL    HW222254   0.368   4.308   7.567 -0.3636 -0.6875 -1.0771
 3541SOL     OW22255   2.267   0.350  16.295 -0.1775 -0.1466  0.5687
 3541SOL    HW122256   2.314   0.421  16.338  1.8232 -1.4581  0.5128
 3541SOL    HW222257   2.201   0.325  16.360 -1.9397 -0.9565 -1.5269
 3542SOL     OW22258   3.449   3.787   8.736 -0.3443 -0.3044  0.0976
 3542SOL    HW122259   3.541   3.812   8.744 -0.7800  1.6576 -1.0106
 3542SOL    HW222260   3.447   3.737   8.655  1.1025  0.5123 -0.4343
 3543SOL     OW22261   0.080   3.300   4.219  0.1919  0.1664 -0.7672
 3543SOL    HW122262   0.030   3.218   4.207  1.1180 -0.0619 -2.9994
 3543SOL    HW222263   0.080   3.308   4.315  0.4667 -1.8384 -0.6009
 3544SOL     OW22264   3.994   3.290   4.666 -0.0381 -0.4904  0.6880
 3544SOL    HW122265   3.922   3.282   4.729 -1.4497 -1.1892 -1.0104
 3544SOL    HW222266   3.988   3.382   4.643 -1.3617 -0.8421 -0.3690
 3545SOL     OW22267   2.654   0.744   3.857 -0.0182 -0.3873 -0.4838
 3545SOL    HW122268   2.565   0.775   3.844 -0.3352 -1.9078 -1.9587
 3545SOL    HW222269   2.702   0.762   3.776 -1.2984 -1.4569 -1.4677
 3546SOL     OW22270   0.289   1.736   5.679 -0.5680  0.3298  0.5418
 3546SOL    HW122271   0.238   1.684   5.741  0.3140 -0.1434  0.8649
 3546SOL    HW222272   0.371   1.687   5.683  0.4334  2.0770  1.2452
 3547SOL     OW22273   0.968   3.009   5.424  0.8016  0.1426  0.0344
 3547SOL    HW122274   1.050   3.005   5.374  0.1029  0.8163 -1.1676
 3547SOL    HW222275   0.949   2.917   5.405 -1.1583  0.3495  1.0082
 3548SOL     OW22276   1.495   4.258   5.646 -0.2744  0.0537 -0.9647
 3548SOL    HW122277   1.578   4.225   5.612  0.2792  1.0533 -0.5807
 3548SOL    HW222278   1.432   4.198   5.606 -0.3490 -0.3564 -0.2380
 3549SOL     OW22279   3.181   0.974   0.619  0.1163  0.1989  0.5277
 3549SOL    HW122280   3.115   0.905   0.620 -0.7191  0.9277 -2.7642
 3549SOL    HW222281   3.219   0.955   0.533 -0.1781 -1.0493  0.6713
 3550SOL     OW22282   3.266   2.495  12.492 -0.1914 -0.5544  0.1567
 3550SOL    HW122283   3.355   2.462  12.506  0.6548  1.3766 -0.6820
 3550SOL    HW222284   3.251   2.478  12.400  0.6695 -1.1404  0.1213
 3551SOL     OW22285   3.415   0.462   6.042  0.6282 -0.8137 -0.0365
 3551SOL    HW122286   3.458   0.514   5.975 -0.1154 -1.9774 -1.4020
 3551SOL    HW222287   3.371   0.394   5.991  3.5021 -1.3665 -1.7539
 3552SOL     OW22288   3.625   2.063   4.946 -0.0617 -0.1147 -0.6280
 3552SOL    HW122289   3.615   2.061   5.041  1.7279  1.6987 -0.3911
 3552SOL    HW222290   3.719   2.048   4.930 -0.2300  0.4579 -2.1515
 3553SOL     OW22291   4.713   2.115   2.865  0.1818 -0.0170 -0.0787
 3553SOL    HW122292   4.727   2.063   2.786  2.9297  3.3775 -1.8677
 3553SOL    HW222293   0.033   2.189   2.846  0.4770  0.1657  1.5483
 3554SOL     OW22294   4.178   2.222   3.598 -0.5453 -0.2282 -0.1296
 3554SOL    HW122295   4.238   2.271   3.654 -3.7662  1.6521  1.6194
 3554SOL    HW222296   4.206   2.131   3.609 -1.0967  0.0015  3.1132
 3555SOL     OW22297   3.153   0.202   7.666  0.1349  0.2511 -0.3215
 3555SOL    HW122298   3.213   0.128   7.668 -0.9691 -0.6263  0.3445
 3555SOL    HW222299   3.077   0.164   7.711 -0.8168  0.2686 -1.9127
 3556SOL     OW22300   0.779   0.439  16.751  0.2426 -0.1766 -0.8056
 3556SOL    HW122301   0.758   0.353  16.788 -3.7314 -0.0443 -2.8005
 3556SOL    HW222302   0.847   0.471  16.810 -1.0136  0.7309  0.1385
 3557SOL     OW22303   3.513   3.816  11.256  0.2468  0.1382 -0.2620
 3557SOL    HW122304   3.540   3.891  11.204 -1.5583 -0.9146 -2.7119
 3557SOL    HW222305   3.432   3.852  11.291 -1.6897 -2.2130 -2.2665
 3558SOL     OW22306   0.947   2.173   8.414 -0.0450 -0.0843  0.8553
 3558SOL    HW122307   1.035   2.188   8.449 -0.4265 -0.0014  1.7696
 3558SOL    HW222308   0.900   2.181   8.497 -1.8367  4.4766 -0.5907
 3559SOL     OW22309   1.418   4.171   6.365  0.0904 -0.4433  0.0240
 3559SOL    HW122310   1.392   4.230   6.294 -1.2041  0.9239  1.6308
 3559SOL    HW222311   1.467   4.236   6.416  2.2736 -0.7668 -1.6268
 3560SOL     OW22312   2.583   3.567   1.864  0.3397  0.1357 -0.0623
 3560SOL    HW122313   2.583   3.663   1.870  0.4133  0.0058  1.8158
 3560SOL    HW222314   2.545   3.557   1.776  0.5176 -0.4023 -0.0808
 3561SOL     OW22315   3.776   0.969  15.388  0.2855  0.2439 -0.1147
 3561SOL    HW122316   3.687   0.993  15.415  0.3311 -1.6591  1.7049
 3561SOL    HW222317   3.801   1.044  15.333  1.1448  0.0869  0.0575
 3562SOL     OW22318   2.960   0.151   0.199  0.0715 -0.4513 -0.3923
 3562SOL    HW122319   3.019   0.075   0.199  0.6428 -0.0123 -1.0622
 3562SOL    HW222320   2.997   0.203   0.127 -0.4231  3.4229  2.1501
 3563SOL     OW22321   2.549   0.551   8.280 -0.0454  0.0999  0.4620
 3563SOL    HW122322   2.619   0.494   8.314  0.0131 -1.2991 -1.9909
 3563SOL    HW222323   2.549   0.529   8.187  3.5395  0.4181  0.3856
 3564SOL     OW22324   1.818   2.071   8.716 -0.4326  0.1975 -0.1795
 3564SOL    HW122325   1.731   2.059   8.753  1.0606 -2.1541  2.5464
 3564SOL    HW222326   1.825   1.977   8.697 -2.9246  0.3445 -1.9098
 3565SOL     OW22327   1.464   1.706   2.571  0.5621 -0.4266 -0.3539
 3565SOL    HW122328   1.387   1.712   2.628  1.4722 -1.5016  1.0102
 3565SOL    HW222329   1.439   1.640   2.506  0.6476 -3.1486  2.3676
 3566SOL     OW22330   2.209   3.358   2.832 -0.2315  0.3782  0.0026
 3566SOL    HW122331   2.188   3.289   2.770 -1.1509  0.1379  0.5924
 3566SOL    HW222332   2.221   3.435   2.776  0.8241  1.5188  1.7553
 3567SOL     OW22333   0.343   4.721   3.579 -0.6213  0.4506  0.0015
 3567SOL    HW122334   0.339   4.672   3.662 -5.0111 -0.6179 -0.8679
 3567SOL    HW222335   0.357   4.646   3.521  0.4397 -0.1725  1.0446
 3568SOL     OW22336   0.931   4.170   1.569  0.2227  0.3640  0.1167
 3568SOL    HW122337   0.860   4.139   1.512  0.7691 -1.3844  0.3784
 3568SOL    HW222338   0.906   4.139   1.656  0.9083  0.2614  0.2776
 3569SOL     OW22339   4.655   0.340   2.134  0.3682  0.6900  0.6764
 3569SOL    HW122340   4.621   0.360   2.221  0.1641  2.5750  0.1613
 3569SOL    HW222341   4.577   0.346   2.078  1.4874 -0.8407 -1.0322
 3570SOL     OW22342   4.532   1.752   7.724  0.2125 -0.3374 -0.7848
 3570SOL    HW122343   4.615   1.706   7.704  2.0066  3.2892 -1.6210
 3570SOL    HW222344   4.533   1.825   7.663 -0.6934 -0.3928 -0.8550
 3571SOL     OW22345   1.119   4.024   1.320  0.0584  0.0661 -0.0085
 3571SOL    HW122346   1.195   4.072   1.289  1.2554 -1.2082  0.9456
 3571SOL    HW222347   1.050   4.065   1.267  0.4491  1.7161  0.7398
 3572SOL     OW22348   3.060   1.296   7.991 -0.3953  0.5935 -0.2217
 3572SOL    HW122349   3.124   1.239   7.950 -0.5934  0.5076 -0.4104
 3572SOL    HW222350   3.035   1.351   7.917  0.2211  0.0199 -0.8538
 3573SOL     OW22351   3.041   0.614   3.402  0.4580 -0.1608 -0.4610
 3573SOL    HW122352   2.953   0.646   3.420 -0.2955 -2.2916 -0.3923
 3573SOL    HW222353   3.064   0.650   3.316  0.9505  2.4771  0.7667
 3574SOL     OW22354   3.215   4.368   4.051  0.0053 -0.0315  0.0347
 3574SOL    HW122355   3.280   4.423   4.008 -1.4075  1.3561 -0.3128
 3574SOL    HW222356   3.208   4.420   4.131 -0.8230  1.1259 -0.7792
 3575SOL     OW22357   1.693   4.431   1.759  0.7963 -0.2306 -0.5228
 3575SOL    HW122358   1.722   4.388   1.839  3.0262  0.2257 -1.0921
 3575SOL    HW222359   1.671   4.521   1.782  1.2863  0.4093 -2.6080
 3576SOL     OW22360   3.393   1.845   5.635  0.2265 -0.2089  0.1851
 3576SOL    HW122361   3.341   1.861   5.714 -1.9684  1.9506 -1.7172
 3576SOL    HW222362   3.388   1.750   5.628  0.9219 -0.4023  2.2661
 3577SOL     OW22363   0.379   2.107   9.249 -0.1976 -0.0938  0.2460
 3577SOL    HW122364   0.418   2.035   9.200  0.4520  0.1859  0.3459
 3577SOL    HW222365   0.391   2.178   9.186  1.8563 -0.9657 -0.3415
 3578SOL     OW22366   2.655   2.605   5.713 -0.4921  0.7190 -0.3843
 3578SOL    HW122367   2.722   2.546   5.679 -1.4553  0.7436 -2.3308
 3578SOL    HW222368   2.620   2.560   5.790 -0.5815  1.5311  0.0495
 3579SOL     OW22369   4.346   3.904   7.768  0.5280 -0.2053  0.4432
 3579SOL    HW122370   4.315   3.938   7.684 -2.2396  1.0201  1.9528
 3579SOL    HW222371   4.266   3.875   7.811 -0.5880  0.2164 -1.3356
 3580SOL     OW22372   1.092   2.640   0.607  0.1669 -0.1705 -0.1282
 3580SOL    HW122373   1.073   2.730   0.580  0.4289 -0.6397 -1.9115
 3580SOL    HW222374   1.184   2.656   0.629  0.3597  1.8615 -2.4175
 3581SOL     OW22375   0.615   0.019   7.818  0.7875 -0.9555  0.8091
 3581SOL    HW122376   0.561   0.076   7.763 -1.0735 -3.4634 -0.0063
 3581SOL    HW222377   0.582   4.672   7.788 -1.7540  0.4585 -0.4189
 3582SOL     OW22378   2.456   1.123   9.334 -0.6039 -0.2164  0.3700
 3582SOL    HW122379   2.543   1.086   9.347  0.8207  3.3983  0.9081
 3582SOL    HW222380   2.403   1.043   9.328 -0.4699 -0.3526  1.0310
 3583SOL     OW22381   1.827   4.263   7.160 -0.4716 -0.2397 -0.6667
 3583SOL    HW122382   1.854   4.173   7.140  0.2155 -0.0394 -0.6239
 3583SOL    HW222383   1.904   4.306   7.197  0.0375 -0.9269 -0.9314
 3584SOL     OW22384   2.954   2.453   9.018 -0.4975 -0.5158  0.1125
 3584SOL    HW122385   2.932   2.525   9.077 -0.7901 -1.6081  1.3319
 3584SOL    HW222386   2.933   2.503   8.939 -0.2145 -0.4821  0.0583
 3585SOL     OW22387   0.739   0.364   2.739 -0.3373  0.0562  0.3097
 3585SOL    HW122388   0.731   0.437   2.800  1.7668  1.4152 -1.0494
 3585SOL    HW222389   0.834   0.364   2.729 -0.1705 -1.6142  1.9099
 3586SOL     OW22390   4.694   0.106  15.749 -0.2381 -0.8375  0.3302
 3586SOL    HW122391   4.736   0.041  15.694  3.6979  2.4357 -0.5535
 3586SOL    HW222392   4.647   0.159  15.685  1.1453  0.1642  0.1417
 3587SOL     OW22393   1.051   0.308   9.791  0.5402 -0.1456  0.5571
 3587SOL    HW122394   1.021   0.264   9.871 -2.6702  0.7433 -0.1614
 3587SOL    HW222395   1.036   0.234   9.732 -0.0638  0.6595 -0.3066
 3588SOL     OW22396   0.012   4.469   4.661 -0.0217 -0.6477  0.6998
 3588SOL    HW122397   4.727   4.376   4.655  2.0193 -0.9786 -1.8965
 3588SOL    HW222398   4.689   4.494   4.592  1.9696  0.8007 -0.5411
 3589SOL     OW22399   3.042   2.884  14.299  0.3153  0.6607  0.0239
 3589SOL    HW122400   3.068   2.811  14.243  0.7026  1.0835 -0.3550
 3589SOL    HW222401   2.950   2.863  14.315 -0.0683  1.0891 -1.5349
 3590SOL     OW22402   3.919   1.300   5.222  0.3021 -0.3976  0.0547
 3590SOL    HW122403   3.982   1.372   5.210  3.2221 -2.9584 -0.2054
 3590SOL    HW222404   3.980   1.238   5.261  3.9134  1.9319 -1.8102
 3591SOL     OW22405   1.250   1.114   2.478 -0.2193  0.1654 -0.1101
 3591SOL    HW122406   1.335   1.072   2.489  0.5852  1.6064 -0.8774
 3591SOL    HW222407   1.192   1.046   2.512  0.5031 -0.3193  0.1447
 3592SOL     OW22408   4.471   2.499   5.229  0.2865 -0.0413 -0.3848
 3592SOL    HW122409   4.418   2.496   5.309 -0.4444 -0.1468 -0.8643
 3592SOL    HW222410   4.409   2.526   5.160  0.8153 -3.5224 -2.2667
 3593SOL     OW22411   0.676   1.898   7.012  0.2154  0.2896 -0.2733
 3593SOL    HW122412   0.658   1.886   7.105  1.4225  0.0220 -0.0707
 3593SOL    HW222413   0.606   1.963   7.002  0.3545  0.1935 -1.8488
 3594SOL     OW22414   3.534   2.435  10.365  0.0318  0.1756 -0.0252
 3594SOL    HW122415   3.615   2.384  10.368  0.0409  0.0473 -2.9325
 3594SOL    HW222416   3.578   2.520  10.359  2.1408 -0.6882  2.9456
 3595SOL     OW22417   3.167   3.889   8.495  0.4269  0.3575  0.2232
 3595SOL    HW122418   3.077   3.897   8.525  0.0029 -1.3676 -0.6084
 3595SOL    HW222419   3.170   3.965   8.438  0.8077  0.7551  0.7807
 3596SOL     OW22420   0.590   4.349  10.183  0.5701 -0.1626  0.0152
 3596SOL    HW122421   0.502   4.340  10.220  1.5151 -1.7036  1.9008
 3596SOL    HW222422   0.635   4.377  10.262  1.6078 -3.2489  0.5338
 3597SOL     OW22423   4.117   2.903   0.817 -0.6463  0.8047 -0.3732
 3597SOL    HW122424   4.046   2.870   0.873 -0.7472  0.9655 -0.4061
 3597SOL    HW222425   4.096   2.996   0.817 -1.7617  0.5622  0.5793
 3598SOL     OW22426   3.152   4.303  14.726  0.0035  0.1450 -0.4354
 3598SOL    HW122427   3.056   4.306  14.731 -0.0058  0.8728 -1.1618
 3598SOL    HW222428   3.175   4.322  14.636 -0.4346  2.7924  0.0221
 3599SOL     OW22429   0.351   4.652  10.869  0.1038  0.2167 -0.3127
 3599SOL    HW122430   0.317   4.732  10.828  3.1073  0.2250 -2.7749
 3599SOL    HW222431   0.357   4.671  10.962 -0.2740  1.1873 -0.4800
 3600SOL     OW22432   2.719   2.003   3.694  0.1703 -0.3642  0.4998
 3600SOL    HW122433   2.685   1.920   3.660 -1.3611  1.1684 -1.6678
 3600SOL    HW222434   2.680   2.016   3.781 -0.5547  0.4587  0.0487
 3601SOL     OW22435   2.271   2.511   2.742  0.0926 -0.7935 -0.5579
 3601SOL    HW122436   2.274   2.419   2.715 -0.1373 -0.8125 -0.5241
 3601SOL    HW222437   2.312   2.517   2.829  0.2598  2.0115 -0.8467
 3602SOL     OW22438   1.217   2.927   4.663 -0.3453  0.3585 -0.3972
 3602SOL    HW122439   1.142   2.907   4.606  1.0143 -0.7256 -1.8269
 3602SOL    HW222440   1.188   3.006   4.708  1.4320  2.0289 -2.1772
 3603SOL     OW22441   0.864   1.390  12.784 -0.0451  0.1159  0.1935
 3603SOL    HW122442   0.871   1.362  12.875  1.5081 -0.6681 -0.1642
 3603SOL    HW222443   0.874   1.301  12.749 -0.7030 -0.0177  0.3481
 3604SOL     OW22444   1.751   4.137   5.543  0.2853 -0.3394 -0.3436
 3604SOL    HW122445   1.805   4.187   5.482 -1.9137  1.7512 -0.5324
 3604SOL    HW222446   1.802   4.125   5.623  2.8672 -1.5189 -2.1395
 3605SOL     OW22447   3.628   1.503   3.111 -0.4230 -0.4751 -0.0721
 3605SOL    HW122448   3.613   1.523   3.019  0.3473 -2.1408 -0.5630
 3605SOL    HW222449   3.601   1.585   3.151  2.1801 -0.5556  1.8647
 3606SOL     OW22450   4.086   2.403   2.294 -0.2550 -0.1612  0.2799
 3606SOL    HW122451   4.041   2.318   2.292  0.7481 -0.6602 -0.8393
 3606SOL    HW222452   4.177   2.388   2.316  0.0268  0.7981 -0.2503
 3607SOL     OW22453   4.186   1.900   4.781 -0.3137  0.0467 -0.5116
 3607SOL    HW122454   4.252   1.939   4.838 -0.9185 -0.2218  0.3691
 3607SOL    HW222455   4.123   1.877   4.849 -0.9687  1.6797 -0.5676
 3608SOL     OW22456   3.661   4.698   7.736  0.2545 -0.1705 -0.0304
 3608SOL    HW122457   3.615   0.001   7.810  2.1672  0.4862  0.8068
 3608SOL    HW222458   3.717   4.630   7.774  0.9044  0.5414  0.3061
 3609SOL     OW22459   2.472   4.592  15.879  0.5700  0.3178 -0.1393
 3609SOL    HW122460   2.466   4.594  15.974  2.0002 -0.5553 -0.0387
 3609SOL    HW222461   2.546   4.536  15.855  1.3563  0.5869  1.6857
 3610SOL     OW22462   3.861   4.669  16.815 -0.0361  0.1399 -0.5736
 3610SOL    HW122463   3.830   4.582  16.790  1.1522 -0.1579 -1.0028
 3610SOL    HW222464   3.940   4.670  16.760  0.2056  1.7353 -0.1960
 3611SOL     OW22465   0.761   3.123   5.845  0.2787  0.6575  0.5374
 3611SOL    HW122466   0.772   3.060   5.774 -1.8284 -0.0184  0.8125
 3611SOL    HW222467   0.798   3.207   5.817  0.5838  0.3863  0.1194
 3612SOL     OW22468   1.864   3.466   2.788 -0.3176  0.2770 -0.0558
 3612SOL    HW122469   1.879   3.375   2.760  0.1211  0.3315  0.0085
 3612SOL    HW222470   1.842   3.511   2.706 -0.3323 -0.6378 -0.5552
 3613SOL     OW22471   3.551   3.220   5.561 -0.2986 -0.0651 -0.5724
 3613SOL    HW122472   3.532   3.126   5.554  1.7065 -0.5539  0.3575
 3613SOL    HW222473   3.646   3.210   5.565 -0.4239 -2.1199 -2.4759
 3614SOL     OW22474   1.495   4.474  17.201 -0.7392 -0.4599 -0.3859
 3614SOL    HW122475   1.501   4.567  17.223  0.1436 -0.1159 -2.0128
 3614SOL    HW222476   1.564   4.468  17.135 -0.7378  1.3303 -0.5533
 3615SOL     OW22477   0.059   3.959   9.030  0.1656 -0.4646  0.0326
 3615SOL    HW122478   0.129   3.993   9.086  1.3986 -1.2402 -1.0361
 3615SOL    HW222479   0.010   4.039   9.011 -0.3520 -0.6646  0.5049
 3616SOL     OW22480   2.294   3.888   7.638  0.3891 -0.3663 -0.1636
 3616SOL    HW122481   2.205   3.860   7.656  0.6537 -1.7071 -0.9633
 3616SOL    HW222482   2.288   3.982   7.623 -1.7511 -0.6760 -1.1763
 3617SOL     OW22483   1.444   4.691   9.506 -0.2332 -0.2952  0.6272
 3617SOL    HW122484   1.476   0.019   9.443 -0.6574  0.9488  1.7151
 3617SOL    HW222485   1.401   0.013   9.567  2.2738  2.2406 -0.0481
 3618SOL     OW22486   3.528   4.621   5.451 -0.2440 -0.4359  0.9782
 3618SOL    HW122487   3.445   4.586   5.421 -0.5698 -0.7894  2.2946
 3618SOL    HW222488   3.555   4.550   5.509  0.7352 -0.3158  0.6793
 3619SOL     OW22489   0.404   3.850   2.761 -0.2610 -0.4151 -0.0329
 3619SOL    HW122490   0.368   3.897   2.687  1.7114  0.1274 -0.6428
 3619SOL    HW222491   0.416   3.918   2.828  2.5228 -2.0744  1.2037
 3620SOL     OW22492   3.197   3.499  16.810 -0.4461 -0.0992  0.0248
 3620SOL    HW122493   3.200   3.403  16.806  0.5861 -0.0282 -0.9982
 3620SOL    HW222494   3.113   3.516  16.768 -1.0567 -1.5816  0.6561
 3621SOL     OW22495   3.398   2.567   8.577  0.0542 -0.2746 -0.4083
 3621SOL    HW122496   3.378   2.595   8.488 -0.1866  0.6064 -0.0790
 3621SOL    HW222497   3.451   2.644   8.599 -0.1242  0.3899 -2.3093
 3622SOL     OW22498   2.083   4.162   6.476 -0.6078  0.2566 -0.2166
 3622SOL    HW122499   2.118   4.226   6.537  1.8215 -0.1708 -1.1687
 3622SOL    HW222500   2.022   4.122   6.538 -1.0337  0.4121 -0.5321
 3623SOL     OW22501   0.823   0.232   6.516 -0.4034  0.1572  0.1964
 3623SOL    HW122502   0.830   0.288   6.438  0.5953 -2.1148 -1.3157
 3623SOL    HW222503   0.898   0.266   6.564 -0.4612  1.2129 -0.4430
 3624SOL     OW22504   3.059   1.596   3.497  0.4421 -0.3803 -0.1229
 3624SOL    HW122505   3.001   1.651   3.445 -1.1714 -0.6846  1.3843
 3624SOL    HW222506   3.140   1.606   3.446  0.9354 -0.7638  0.5891
 3625SOL     OW22507   4.708   3.164   4.834 -0.1186  0.2971 -0.1779
 3625SOL    HW122508   0.026   3.144   4.759 -0.4551 -1.3921  0.0112
 3625SOL    HW222509   4.647   3.230   4.802 -1.3022 -1.2931 -1.2004
 3626SOL     OW22510   0.298   2.471   4.383 -0.5233 -0.3764 -0.0321
 3626SOL    HW122511   0.204   2.482   4.398 -0.5240 -0.1988 -0.1590
 3626SOL    HW222512   0.315   2.389   4.429  1.2475 -0.5232 -0.9899
 3627SOL     OW22513   4.273   2.120   2.093 -0.2456 -0.3809 -0.3843
 3627SOL    HW122514   4.183   2.140   2.117  0.1860 -0.0893  1.0113
 3627SOL    HW222515   4.320   2.204   2.099 -1.3759  0.5713 -4.7486
 3628SOL     OW22516   4.651   2.547   2.728 -0.2855 -0.1615  0.5546
 3628SOL    HW122517   4.702   2.531   2.808 -0.1644 -0.8948  0.3258
 3628SOL    HW222518   4.585   2.612   2.753 -0.2679  0.0906 -0.0461
 3629SOL     OW22519   0.123   0.813   9.325  0.2765 -0.4456 -0.1434
 3629SOL    HW122520   0.167   0.813   9.240  2.0732  0.6721  0.7979
 3629SOL    HW222521   0.062   0.740   9.314 -0.9746  0.3701  1.2421
 3630SOL     OW22522   0.108   0.911   4.816  0.0414  0.2928  0.4619
 3630SOL    HW122523   0.039   0.856   4.779  0.6918 -1.3426  1.6232
 3630SOL    HW222524   0.173   0.846   4.844  1.8509  1.2849 -1.4950
 3631SOL     OW22525   2.442   3.923  12.378  0.7178 -0.0596  0.2169
 3631SOL    HW122526   2.394   3.932  12.296  0.9398  0.8924  0.1933
 3631SOL    HW222527   2.372   3.898  12.437 -0.6704  0.2171 -1.3029
 3632SOL     OW22528   1.480   4.286   3.332  0.6060 -0.1361  0.0461
 3632SOL    HW122529   1.416   4.345   3.372  2.8709  1.0254  1.9489
 3632SOL    HW222530   1.546   4.353   3.314 -0.7818  1.2644  0.2386
 3633SOL     OW22531   2.345   2.225   2.779 -0.3822 -0.0053  0.8226
 3633SOL    HW122532   2.268   2.173   2.800 -1.5359  2.2834  2.1905
 3633SOL    HW222533   2.372   2.183   2.697 -0.1967 -1.1225  1.4584
 3634SOL     OW22534   2.703   3.363   6.257  0.1140  0.0993 -0.3105
 3634SOL    HW122535   2.668   3.274   6.248  2.1447 -0.6361 -0.9241
 3634SOL    HW222536   2.745   3.379   6.172  0.1275  0.4007 -0.2464
 3635SOL     OW22537   0.547   4.351  15.554 -0.1468  0.0563 -0.1128
 3635SOL    HW122538   0.566   4.427  15.609 -0.8570  0.5099 -0.4967
 3635SOL    HW222539   0.619   4.291  15.573  1.0344  1.6836  0.5400
 3636SOL     OW22540   0.387   0.410   5.128  0.4008 -0.0246 -0.5679
 3636SOL    HW122541   0.374   0.316   5.128  0.2608 -0.0058  1.6888
 3636SOL    HW222542   0.461   0.413   5.189  1.4748 -0.5592 -1.8515
 3637SOL     OW22543   0.326   1.421   8.475  0.3806  1.2636  0.0069
 3637SOL    HW122544   0.356   1.496   8.423  0.4978  1.2295  0.0253
 3637SOL    HW222545   0.232   1.439   8.484  0.1446 -0.1446  0.3528
 3638SOL     OW22546   2.439   3.680   3.281 -0.3456 -0.2899  0.1791
 3638SOL    HW122547   2.509   3.722   3.233 -1.3663  0.4631 -0.6559
 3638SOL    HW222548   2.409   3.619   3.213 -2.1259 -1.5039  2.0407
 3639SOL     OW22549   0.794   2.914   3.222 -0.0122 -0.4772  0.2321
 3639SOL    HW122550   0.809   2.928   3.315 -0.1993  0.8973  0.0559
 3639SOL    HW222551   0.717   2.970   3.215  0.0978 -0.3601 -0.0294
 3640SOL     OW22552   3.153   2.795   6.546  0.3961 -0.3099  0.5584
 3640SOL    HW122553   3.167   2.713   6.594  0.0900 -0.2932  0.6746
 3640SOL    HW222554   3.241   2.832   6.539  0.6016 -0.7141  0.9374
 3641SOL     OW22555   2.386   4.382   3.842  0.2450 -0.1856  0.0662
 3641SOL    HW122556   2.364   4.338   3.924  0.7819  0.7051  0.6850
 3641SOL    HW222557   2.464   4.426   3.874  0.4404  0.6026 -1.4972
 3642SOL     OW22558   1.502   1.313   4.008  0.2388  0.6571 -0.7626
 3642SOL    HW122559   1.440   1.372   3.965 -0.2014  0.2693 -0.6637
 3642SOL    HW222560   1.443   1.266   4.067 -1.0692  0.4398 -2.2449
 3643SOL     OW22561   1.380   3.258   5.650  0.0522  0.8923 -0.1774
 3643SOL    HW122562   1.316   3.330   5.650  0.4012  1.1920  2.2440
 3643SOL    HW222563   1.413   3.270   5.561 -0.6557 -2.0270 -0.8174
 3644SOL     OW22564   2.859   3.535   6.493  0.1323 -0.6164  0.3530
 3644SOL    HW122565   2.853   3.620   6.449  0.7557 -1.0508 -0.5832
 3644SOL    HW222566   2.779   3.488   6.469  0.2746 -0.4733 -0.4323
 3645SOL     OW22567   0.334   1.805  13.243  0.3677 -0.4467  0.2521
 3645SOL    HW122568   0.291   1.886  13.271  0.8384 -0.5924  1.4068
 3645SOL    HW222569   0.423   1.838  13.259 -0.4733  2.0196 -0.1778
 3646SOL     OW22570   0.337   4.078   8.935 -0.5435 -0.0825  0.1950
 3646SOL    HW122571   0.370   4.167   8.948  2.4524 -1.0010 -1.1596
 3646SOL    HW222572   0.260   4.095   8.881  0.0140  0.3600 -0.4677
 3647SOL     OW22573   4.037   4.476   8.134 -0.6588  0.9079 -0.2974
 3647SOL    HW122574   3.951   4.510   8.112 -1.1828  0.2904  0.7929
 3647SOL    HW222575   4.091   4.498   8.058  0.1242 -0.5364 -0.1583
 3648SOL     OW22576   1.017   2.349  10.347 -0.0303  0.0517  0.2341
 3648SOL    HW122577   0.969   2.354  10.265  0.9962 -3.5940 -0.5818
 3648SOL    HW222578   1.013   2.434  10.391 -1.5182 -0.0559  0.3195
 3649SOL     OW22579   2.564   2.520  15.052  0.2179  0.5903  0.4551
 3649SOL    HW122580   2.512   2.475  15.118 -1.8276  1.1481 -0.7558
 3649SOL    HW222581   2.645   2.469  15.044 -0.0560  0.0865  0.8789
 3650SOL     OW22582   0.821   4.411   5.029  0.4577  0.5044  0.6322
 3650SOL    HW122583   0.777   4.480   5.078  2.5636  2.8258 -0.7302
 3650SOL    HW222584   0.907   4.448   5.011  0.8436  0.9616  3.4491
 3651SOL     OW22585   3.312   1.241   1.477  0.0978 -0.6138 -0.6012
 3651SOL    HW122586   3.274   1.154   1.485  3.9459 -2.0384  1.6787
 3651SOL    HW222587   3.387   1.219   1.422  0.2333 -1.5645 -0.0319
 3652SOL     OW22588   1.519   1.596   5.900 -0.5104 -0.3401  0.0992
 3652SOL    HW122589   1.508   1.640   5.984  0.8794  0.5267 -0.1806
 3652SOL    HW222590   1.571   1.659   5.850 -0.0351 -0.9434 -0.1756
 3653SOL     OW22591   1.380   3.485   6.832 -0.0084  0.4208  0.2349
 3653SOL    HW122592   1.383   3.547   6.904  1.8829  0.1831  0.3611
 3653SOL    HW222593   1.441   3.417   6.861 -1.0011 -0.7310 -0.3588
 3654SOL     OW22594   1.797   2.450   6.569  0.3365 -0.3823  0.3031
 3654SOL    HW122595   1.877   2.457   6.622  0.1800 -1.0320  0.6278
 3654SOL    HW222596   1.757   2.372   6.607 -1.0931  0.0301 -0.3550
 3655SOL     OW22597   2.570   1.025   0.357 -0.2891 -0.0429  0.3266
 3655SOL    HW122598   2.631   0.978   0.414 -0.0429  1.1646  1.0587
 3655SOL    HW222599   2.541   0.953   0.302 -2.1848  0.4832  0.6466
 3656SOL     OW22600   4.423   3.704   4.127 -0.3199  0.0143 -0.4680
 3656SOL    HW122601   4.369   3.686   4.049  0.2061 -0.5608 -0.6997
 3656SOL    HW222602   4.375   3.763   4.184 -0.3416 -0.3160 -0.1412
 3657SOL     OW22603   2.530   0.119   1.497 -0.4594 -0.7050 -0.5829
 3657SOL    HW122604   2.577   0.182   1.551  0.5602 -0.9607 -1.1675
 3657SOL    HW222605   2.559   0.144   1.409  1.0770 -1.4601 -0.2820
 3658SOL     OW22606   2.846   2.758  10.067  0.4135 -0.0957 -0.2133
 3658SOL    HW122607   2.806   2.674  10.089 -1.0157  0.2194 -1.6418
 3658SOL    HW222608   2.771   2.794  10.020 -0.4973  0.9736  2.0774
 3659SOL     OW22609   0.214   0.507  12.481 -0.3135 -0.6095 -0.4419
 3659SOL    HW122610   0.127   0.480  12.513 -0.9560  0.1096 -1.5723
 3659SOL    HW222611   0.242   0.564  12.552 -2.5742  0.1289 -0.1184
 3660SOL     OW22612   1.657   2.945   8.978 -0.1076 -0.1490  0.2656
 3660SOL    HW122613   1.593   2.954   9.048 -1.4514  0.4498 -1.0229
 3660SOL    HW222614   1.612   3.017   8.933  1.1765  2.5525  3.3685
 3661SOL     OW22615   2.180   3.145   8.690  0.3107  0.3957 -0.0571
 3661SOL    HW122616   2.179   3.236   8.661 -0.4572 -0.5141 -2.8476
 3661SOL    HW222617   2.099   3.143   8.741 -0.4438  0.6181 -1.2458
 3662SOL     OW22618   3.220   2.301   8.186  0.3075  0.0874 -0.1863
 3662SOL    HW122619   3.189   2.211   8.183 -1.1421  0.6786 -2.3982
 3662SOL    HW222620   3.316   2.293   8.189  0.3807  1.5801  1.8080
 3663SOL     OW22621   3.500   0.871  15.909 -0.2175  0.2468 -0.0760
 3663SOL    HW122622   3.405   0.860  15.922  0.0761  0.0169  1.8943
 3663SOL    HW222623   3.500   0.955  15.863 -0.5101 -0.4619 -1.3617
 3664SOL     OW22624   4.159   0.151   0.055  0.5925  0.0135  0.4689
 3664SOL    HW122625   4.094   0.178   0.119  1.1043 -0.7549  1.3083
 3664SOL    HW222626   4.249   0.168   0.084  1.4076 -0.1475 -1.9206
 3665SOL     OW22627   3.124   1.401  10.286  0.2996  0.6060 -0.2623
 3665SOL    HW122628   3.129   1.496  10.282 -3.7425  0.8047 -0.6946
 3665SOL    HW222629   3.059   1.393  10.216 -1.3982  0.6295  1.3303
 3666SOL     OW22630   2.316   3.870   4.081  0.0470  0.2728  0.1383
 3666SOL    HW122631   2.317   3.785   4.036  1.6297  1.0817 -1.3363
 3666SOL    HW222632   2.408   3.894   4.088  0.0569 -0.0406  1.1184
 3667SOL     OW22633   2.475   4.384   2.595  0.0949  0.0699 -0.0870
 3667SOL    HW122634   2.514   4.384   2.507  2.6130  1.3514  1.0183
 3667SOL    HW222635   2.453   4.292   2.608  0.1305  0.4058  2.3559
 3668SOL     OW22636   1.280   2.102   5.180 -0.6024 -0.4173 -0.4797
 3668SOL    HW122637   1.255   2.193   5.159 -0.2216 -1.0171 -3.5076
 3668SOL    HW222638   1.203   2.074   5.229 -1.4841  3.6069  0.4890
 3669SOL     OW22639   1.733   2.830   9.646 -0.4642 -0.3912  0.4306
 3669SOL    HW122640   1.779   2.747   9.660  0.6437  0.3418  1.1287
 3669SOL    HW222641   1.644   2.796   9.639  0.3353 -2.0163 -1.7651
 3670SOL     OW22642   4.481   0.061   7.231 -0.9243  0.4419 -0.3612
 3670SOL    HW122643   4.461   0.145   7.190 -1.7453  0.3683 -0.1211
 3670SOL    HW222644   4.573   0.075   7.252 -1.2696  1.6683  0.3434
 3671SOL     OW22645   1.680   3.053   0.749  0.6471 -0.5109 -0.1940
 3671SOL    HW122646   1.711   2.983   0.806  2.3524 -0.5413 -1.1644
 3671SOL    HW222647   1.591   3.027   0.724 -0.1612  2.0337  0.0507
 3672SOL     OW22648   2.227   0.359   4.672 -0.0836 -0.0682  0.4829
 3672SOL    HW122649   2.159   0.310   4.626  1.8788 -2.4228  0.1085
 3672SOL    HW222650   2.279   0.379   4.594  0.4661  0.9796  1.1104
 3673SOL     OW22651   4.410   1.105   7.262 -0.1282  0.2689  0.5226
 3673SOL    HW122652   4.325   1.083   7.300  0.6441 -1.1011  1.4306
 3673SOL    HW222653   4.401   1.190   7.218  1.2234  0.3073  0.3092
 3674SOL     OW22654   1.398   1.906   9.576 -0.3652  0.2230  0.4591
 3674SOL    HW122655   1.400   1.852   9.655  1.6288  0.7690  0.7888
 3674SOL    HW222656   1.376   1.985   9.625  0.5480  0.7498  0.0239
 3675SOL     OW22657   1.725   4.355   0.746 -0.9429 -0.0272 -0.3378
 3675SOL    HW122658   1.729   4.315   0.658 -2.0060 -0.7195 -0.0772
 3675SOL    HW222659   1.683   4.284   0.795  0.4643 -0.2136  0.5992
 3676SOL     OW22660   0.577   4.306   1.882  0.4106 -0.0649  0.4095
 3676SOL    HW122661   0.639   4.271   1.946  0.0828 -2.8746 -0.8406
 3676SOL    HW222662   0.493   4.272   1.914 -0.3619  1.2540 -0.2133
 3677SOL     OW22663   0.617   3.690   7.778 -0.3930  0.3676  0.0665
 3677SOL    HW122664   0.574   3.709   7.695 -1.3625 -0.1730  0.4363
 3677SOL    HW222665   0.622   3.773   7.826 -0.0908  0.5188 -0.2346
 3678SOL     OW22666   3.271   3.048   1.197 -0.0675 -0.4258  0.2929
 3678SOL    HW122667   3.271   2.989   1.122 -0.7920  0.7388 -0.6257
 3678SOL    HW222668   3.188   3.087   1.168 -0.6379 -1.1812  0.9052
 3679SOL     OW22669   2.432   1.584  14.009  0.3403 -0.0478  0.3692
 3679SOL    HW122670   2.401   1.673  13.993 -0.7834 -0.3754  0.7630
 3679SOL    HW222671   2.349   1.540  14.024  1.0358 -1.5027 -0.0399
 3680SOL     OW22672   3.499   3.980   5.219  0.1759  0.7508 -0.7698
 3680SOL    HW122673   3.459   3.893   5.212  0.4212  0.5483  0.3145
 3680SOL    HW222674   3.518   3.968   5.312 -0.3985  4.4861 -0.1815
 3681SOL     OW22675   3.512   0.212  17.085  0.0108 -0.1854  0.3716
 3681SOL    HW122676   3.468   0.251  17.010 -1.9601  0.8516  2.0663
 3681SOL    HW222677   3.574   0.150  17.045 -0.6336 -0.7205  0.2086
 3682SOL     OW22678   3.799   4.327  16.358 -0.2151 -0.0403  0.1798
 3682SOL    HW122679   3.837   4.267  16.294  1.8535  2.8683 -1.3254
 3682SOL    HW222680   3.752   4.266  16.415 -1.6187  0.6890 -0.2022
 3683SOL     OW22681   1.992   2.485   7.983  0.2484  0.5146  0.3011
 3683SOL    HW122682   1.908   2.478   7.937  0.2224  1.0922  0.2631
 3683SOL    HW222683   1.977   2.564   8.034 -0.7718  0.8390 -0.5010
 3684SOL     OW22684   0.537   2.116   6.080  0.7290 -0.5620 -0.0371
 3684SOL    HW122685   0.576   2.055   6.018  0.6123 -0.7972  0.1221
 3684SOL    HW222686   0.595   2.188   6.057  0.1701  0.4348  1.7028
 3685SOL     OW22687   1.149   4.254   2.236 -0.2784  0.4084  0.2407
 3685SOL    HW122688   1.230   4.243   2.286 -0.5275  1.0717  0.7934
 3685SOL    HW222689   1.113   4.167   2.251 -0.0451  0.4156  0.8393
 3686SOL     OW22690   2.568   3.189   3.891  0.0973  0.2233  0.0623
 3686SOL    HW122691   2.604   3.125   3.829 -0.7483 -2.9892  2.8737
 3686SOL    HW222692   2.625   3.264   3.873  2.2732 -1.0530  1.5433
 3687SOL     OW22693   2.446   3.295   5.034 -0.2523  0.3473 -0.2289
 3687SOL    HW122694   2.380   3.266   4.972  0.5298 -1.1158 -0.3677
 3687SOL    HW222695   2.409   3.372   5.078  1.6016 -0.1960  2.2907
 3688SOL     OW22696   4.321   1.483   6.340 -0.6451  0.2228  0.4199
 3688SOL    HW122697   4.247   1.545   6.343  0.2848  1.1521  4.0265
 3688SOL    HW222698   4.392   1.540   6.369  0.3441  0.0205 -1.6000
 3689SOL     OW22699   3.572   1.442   2.803  0.0539  0.0867 -0.3014
 3689SOL    HW122700   3.656   1.413   2.768  0.3193  2.0452 -1.2811
 3689SOL    HW222701   3.545   1.371   2.861 -1.3520  1.1273  0.3104
 3690SOL     OW22702   1.011   4.551   9.809  0.2797 -0.2906  0.3736
 3690SOL    HW122703   0.962   4.515   9.882  0.1882 -0.9436 -0.0073
 3690SOL    HW222704   1.044   4.473   9.764 -1.2052 -0.3988 -0.5366
 3691SOL     OW22705   2.829   3.459   1.874  0.6176  0.7208  0.2699
 3691SOL    HW122706   2.738   3.473   1.848 -0.0488 -0.0810  2.1592
 3691SOL    HW222707   2.860   3.547   1.895  0.3263  0.7624  0.5247
 3692SOL     OW22708   3.307   3.527   4.526 -0.1141 -0.0021 -0.2026
 3692SOL    HW122709   3.226   3.563   4.489 -0.8805 -1.6510 -0.1432
 3692SOL    HW222710   3.357   3.507   4.447  0.6458  0.8812  0.0667
 3693SOL     OW22711   0.488   2.504   4.985 -0.3239 -0.0588  0.0684
 3693SOL    HW122712   0.533   2.488   4.902  1.0394 -0.4810  0.8776
 3693SOL    HW222713   0.443   2.421   5.002  0.4245 -0.4736  0.0311
 3694SOL     OW22714   2.452   3.828   6.393 -0.0887  0.2630  0.0904
 3694SOL    HW122715   2.396   3.778   6.453 -0.1125 -0.1272 -0.2542
 3694SOL    HW222716   2.486   3.751   6.347 -0.3418 -0.3029  0.8412
 3695SOL     OW22717   0.998   3.302   5.828  0.6560 -0.0989  0.0166
 3695SOL    HW122718   1.042   3.371   5.778  0.2737 -0.6325 -1.0645
 3695SOL    HW222719   0.935   3.355   5.877  1.6547  0.0170  1.1765
 3696SOL     OW22720   2.189   4.239  12.969 -0.3284 -0.2107  0.1557
 3696SOL    HW122721   2.245   4.309  13.003 -0.5829  0.4620 -0.8062
 3696SOL    HW222722   2.192   4.172  13.037  0.2855  1.6041  1.9580
 3697SOL     OW22723   0.823   1.899   2.851  0.2229  0.1087  0.5712
 3697SOL    HW122724   0.741   1.935   2.884  0.7777  0.3503  1.6881
 3697SOL    HW222725   0.862   1.878   2.936  2.0637  0.4751 -0.1753
 3698SOL     OW22726   2.104   0.460  14.919  0.3554 -0.1479  0.3021
 3698SOL    HW122727   2.147   0.520  14.980 -0.4776  1.2198 -0.4361
 3698SOL    HW222728   2.125   0.377  14.962  0.3079  0.2067  1.0171
 3699SOL     OW22729   2.058   0.898   2.921 -1.0426  0.0184  0.5834
 3699SOL    HW122730   2.020   0.942   2.844 -0.9178  1.5668  1.3986
 3699SOL    HW222731   1.983   0.851   2.957 -2.3758  0.9629 -0.9322
 3700SOL     OW22732   2.203   1.675   7.386  0.0565 -0.1851 -0.0865
 3700SOL    HW122733   2.225   1.768   7.398 -0.0963 -0.0005 -1.2097
 3700SOL    HW222734   2.166   1.649   7.470  1.4519 -0.3834  0.4696
 3701SOL     OW22735   3.170   1.599  13.497 -0.5273  0.0364  0.3597
 3701SOL    HW122736   3.155   1.506  13.512 -0.9210 -0.1349 -1.0641
 3701SOL    HW222737   3.209   1.627  13.580 -0.9122 -2.2684  1.3049
 3702SOL     OW22738   0.001   0.560   0.700 -0.0545 -0.2322  0.4580
 3702SOL    HW122739   4.684   0.484   0.679  0.9761 -0.8098 -0.1393
 3702SOL    HW222740   4.670   0.625   0.712 -0.1656 -0.1173 -0.7821
 3703SOL     OW22741   2.164   0.586   4.316  0.1976 -0.5872 -0.0123
 3703SOL    HW122742   2.071   0.573   4.329 -0.4047  0.6378 -2.9831
 3703SOL    HW222743   2.184   0.666   4.364  0.2872 -0.0239 -0.9917
 3704SOL     OW22744   1.133   4.728   7.260 -0.0366  0.7900  0.3422
 3704SOL    HW122745   1.068   4.709   7.328 -0.8724 -1.6415 -1.1519
 3704SOL    HW222746   1.085   0.059   7.215  0.7466  2.1000  1.5223
 3705SOL     OW22747   0.095   0.120   5.341  0.2040 -0.3639 -0.1743
 3705SOL    HW122748   0.131   0.176   5.410 -0.6662  0.5257 -0.4449
 3705SOL    HW222749   0.004   0.150   5.337  1.5896  4.0149  0.5547
 3706SOL     OW22750   0.155   3.376  12.573 -0.2087  0.4200 -0.2463
 3706SOL    HW122751   0.157   3.309  12.505  0.6485  1.6732 -1.4598
 3706SOL    HW222752   0.069   3.363  12.612  0.3767 -0.7995  0.6611
 3707SOL     OW22753   0.954   2.547  14.506 -0.5557 -0.2239  0.1507
 3707SOL    HW122754   0.997   2.610  14.563  0.7006 -1.0683  0.1437
 3707SOL    HW222755   0.960   2.465  14.556 -0.9049  0.9652  2.0995
 3708SOL     OW22756   3.666   4.139  16.517  0.4490  0.2560  0.1990
 3708SOL    HW122757   3.640   4.071  16.456 -1.6690  0.6786  0.6417
 3708SOL    HW222758   3.697   4.084  16.589 -0.4657  1.4709  1.5175
 3709SOL     OW22759   4.211   2.714   9.615  0.1347  0.3724 -0.0927
 3709SOL    HW122760   4.197   2.754   9.529  0.6958 -0.1663 -0.4357
 3709SOL    HW222761   4.129   2.664   9.620  0.1592  0.5501  2.0987
 3710SOL     OW22762   0.489   2.460  13.410  0.0857 -0.4441  0.0144
 3710SOL    HW122763   0.559   2.410  13.451 -0.0732 -0.6066  0.0891
 3710SOL    HW222764   0.463   2.393  13.347  2.4045  1.1312 -2.5952
 3711SOL     OW22765   2.432   3.256   9.072  0.0010  0.2383  0.2693
 3711SOL    HW122766   2.412   3.248   9.165  1.8850 -3.4175  0.3699
 3711SOL    HW222767   2.525   3.235   9.078 -0.3506 -1.5436 -0.3794
 3712SOL     OW22768   1.127   4.562   0.994 -0.1019  0.2315  0.1604
 3712SOL    HW122769   1.125   4.657   1.004  0.1916  0.3360 -0.8061
 3712SOL    HW222770   1.037   4.542   1.021 -0.4243  0.1254 -0.9890
 3713SOL     OW22771   3.669   1.549   1.308 -0.1697 -0.0494 -0.2368
 3713SOL    HW122772   3.674   1.608   1.383  2.5573  0.5035 -0.8416
 3713SOL    HW222773   3.752   1.547   1.259  0.3740 -0.1163  0.6755
 3714SOL     OW22774   1.534   1.531   9.129 -0.2945 -0.4879  0.1279
 3714SOL    HW122775   1.555   1.444   9.097  0.8321 -0.1658  0.0139
 3714SOL    HW222776   1.600   1.532   9.198 -0.2602  0.4704  0.0759
 3715SOL     OW22777   0.822   1.595  15.184  0.4306 -0.2230 -0.1444
 3715SOL    HW122778   0.860   1.556  15.262 -0.6604 -1.7363 -0.3755
 3715SOL    HW222779   0.832   1.520  15.124 -1.7669 -0.3852 -0.3227
 3716SOL     OW22780   0.344   3.024  16.214  0.1233 -0.9177  0.0684
 3716SOL    HW122781   0.361   3.095  16.152  0.7875 -0.1863  1.0870
 3716SOL    HW222782   0.437   3.008  16.231  0.1926  1.0038  1.4745
 3717SOL     OW22783   1.953   3.886   5.061 -0.1136  0.3827 -0.3834
 3717SOL    HW122784   2.027   3.942   5.084  0.9908 -1.2087 -0.0598
 3717SOL    HW222785   1.923   3.933   4.983  0.5030  1.5879  0.0938
 3718SOL     OW22786   3.510   3.857   5.928 -0.2822 -0.0801 -0.3374
 3718SOL    HW122787   3.422   3.883   5.903 -0.5371 -0.7696 -0.1480
 3718SOL    HW222788   3.496   3.768   5.961 -0.4142  0.4003  0.9162
 3719SOL     OW22789   3.417   2.488   7.406  0.4602 -0.0839  0.0890
 3719SOL    HW122790   3.482   2.456   7.468  0.0047 -1.1855 -0.0007
 3719SOL    HW222791   3.351   2.420   7.414  0.1277  0.2768  0.4165
 3720SOL     OW22792   2.630   3.157  12.706  0.3969  0.1618 -0.1350
 3720SOL    HW122793   2.646   3.174  12.613  1.7152  2.6941  0.5725
 3720SOL    HW222794   2.534   3.160  12.712  0.3861 -2.4363  1.3188
 3721SOL     OW22795   0.410   2.582   6.534  0.9409 -0.6106 -0.5689
 3721SOL    HW122796   0.407   2.580   6.438 -1.9056 -3.2090 -0.4233
 3721SOL    HW222797   0.335   2.639   6.550  2.0121  0.6508  0.0160
 3722SOL     OW22798   2.086   4.060   7.176 -0.2011  0.5940 -0.2878
 3722SOL    HW122799   2.081   3.964   7.169  0.9750  0.7649 -3.1535
 3722SOL    HW222800   2.109   4.069   7.269  0.5409  2.4661 -0.6709
 3723SOL     OW22801   4.602   3.878   9.200 -0.3151 -0.0373 -0.0266
 3723SOL    HW122802   4.563   3.965   9.212 -1.6793 -0.5690 -0.6256
 3723SOL    HW222803   4.676   3.903   9.145 -0.7170  1.4067  0.0868
 3724SOL     OW22804   0.891   4.490   7.712 -0.6012 -0.0493  0.3255
 3724SOL    HW122805   0.920   4.434   7.640  0.1319 -0.1225  0.6855
 3724SOL    HW222806   0.810   4.533   7.684 -1.5655 -2.1626 -0.0589
 3725SOL     OW22807   2.543   1.441   1.608  0.0911  0.1249 -0.1197
 3725SOL    HW122808   2.620   1.497   1.608  0.3965 -0.3071  1.1632
 3725SOL    HW222809   2.543   1.397   1.693  1.1584 -0.6284 -0.5116
 3726SOL     OW22810   3.747   1.516   7.079  0.7367  0.6278  0.3953
 3726SOL    HW122811   3.776   1.438   7.032  1.7284 -0.7690  3.3816
 3726SOL    HW222812   3.696   1.482   7.152  1.1037  2.2227  1.4172
 3727SOL     OW22813   0.146   3.193   1.998 -0.0362  0.2855 -0.0904
 3727SOL    HW122814   0.099   3.252   1.939 -1.7680 -0.5088  0.5118
 3727SOL    HW222815   0.107   3.110   1.972 -0.5887  1.0624 -1.7516
 3728SOL     OW22816   4.705   4.395   8.756 -0.0473  0.3700  0.4799
 3728SOL    HW122817   4.737   4.485   8.751  2.1423 -0.5762 -2.4347
 3728SOL    HW222818   4.678   4.381   8.665 -2.2194 -1.0266  1.3324
 3729SOL     OW22819   4.131   3.349  15.984  0.3186 -0.3146 -0.0299
 3729SOL    HW122820   4.142   3.431  15.937 -2.6983  0.7976  1.2305
 3729SOL    HW222821   4.137   3.381  16.074  0.9612  0.8538 -0.4955
 3730SOL     OW22822   3.602   3.308   7.379  0.0090  0.4507  0.2021
 3730SOL    HW122823   3.637   3.309   7.290  0.8309  0.6455  0.5273
 3730SOL    HW222824   3.511   3.285   7.364 -0.0602  0.7614  0.1441
 3731SOL     OW22825   3.868   3.059   2.569 -0.4206 -0.0579  0.2126
 3731SOL    HW122826   3.867   3.094   2.658  0.1779 -0.4337  0.3743
 3731SOL    HW222827   3.849   2.965   2.575 -0.9516 -0.0787 -1.8966
 3732SOL     OW22828   4.521   3.342  14.514 -0.5339  0.9909 -0.1125
 3732SOL    HW122829   4.474   3.418  14.551 -1.8677 -0.2077  0.6541
 3732SOL    HW222830   4.529   3.291  14.595  0.9373 -0.2493 -1.0473
 3733SOL     OW22831   4.549   0.571  17.272 -0.0079 -0.1463 -0.3238
 3733SOL    HW122832   4.483   0.510  17.304 -0.8016  0.0838 -1.5204
 3733SOL    HW222833   4.508   0.652  17.300 -0.8281 -0.3281 -0.9999
 3734SOL     OW22834   3.696   2.439   7.078  0.0168 -0.2989 -0.4021
 3734SOL    HW122835   3.676   2.345   7.075 -1.3352  0.0029 -0.8385
 3734SOL    HW222836   3.611   2.475   7.104  0.1208 -0.7702  0.6178
 3735SOL     OW22837   4.463   0.318   7.080  0.2918 -0.6390  0.3662
 3735SOL    HW122838   4.558   0.326   7.080  0.3272 -1.0219  2.1032
 3735SOL    HW222839   4.440   0.307   6.988  0.8187  0.1560  0.1383
 3736SOL     OW22840   1.037   1.591   7.218  0.0839  0.3510 -0.1870
 3736SOL    HW122841   0.995   1.543   7.146 -0.5862 -0.3084  0.6418
 3736SOL    HW222842   1.097   1.526   7.256  0.7762  2.0439  1.6227
 3737SOL     OW22843   3.007   2.838   9.140 -0.2063  0.6070  0.5558
 3737SOL    HW122844   2.973   2.844   9.230 -0.7106  2.1988  0.2540
 3737SOL    HW222845   2.932   2.808   9.090 -0.7421 -0.6726  2.1038
 3738SOL     OW22846   3.434   2.644   6.840  0.0146 -0.6234  0.8406
 3738SOL    HW122847   3.493   2.586   6.793  1.3809  0.3153  1.4052
 3738SOL    HW222848   3.444   2.626   6.934 -0.7059  2.2865  1.4886
 3739SOL     OW22849   3.533   0.758   0.658  0.3301  0.2385  0.1896
 3739SOL    HW122850   3.483   0.750   0.740 -0.6206  0.3269 -0.3809
 3739SOL    HW222851   3.508   0.842   0.619  0.1535  0.0367 -0.1294
 3740SOL     OW22852   3.077   1.128   7.414  0.4397  0.0960 -0.1137
 3740SOL    HW122853   3.034   1.051   7.451  0.3867 -0.3353 -1.0861
 3740SOL    HW222854   3.013   1.193   7.444  1.2984  0.5589  0.7172
 3741SOL     OW22855   0.981   4.074  17.676  0.4796  0.1275  0.7880
 3741SOL    HW122856   0.966   4.009  17.745 -2.5951 -1.6769 -1.6158
 3741SOL    HW222857   1.019   4.022  17.606 -2.5235 -1.8474  0.6442
 3742SOL     OW22858   0.490   3.949   8.423 -0.7096 -0.1481 -0.1187
 3742SOL    HW122859   0.468   3.870   8.373  0.9971 -0.0032 -1.0914
 3742SOL    HW222860   0.485   4.010   8.350 -0.7987 -1.5255 -1.2730
 3743SOL     OW22861   3.089   4.684  12.722 -0.3231  0.6296 -0.1761
 3743SOL    HW122862   3.110   0.032  12.759  1.0317  0.5602 -0.8155
 3743SOL    HW222863   3.134   4.688  12.638 -0.6241  1.3753 -0.2961
 3744SOL     OW22864   0.109   0.779   2.276 -0.0185  0.2399  0.1391
 3744SOL    HW122865   0.048   0.748   2.209 -0.9158 -2.0552  2.0647
 3744SOL    HW222866   0.051   0.807   2.347 -1.0192 -3.4094  0.7306
 3745SOL     OW22867   1.106   0.035   2.778  0.1883 -0.2806 -0.1132
 3745SOL    HW122868   1.114   4.689   2.825 -0.1073  0.3106  0.9905
 3745SOL    HW222869   1.030   0.030   2.720 -0.9157  2.1512  1.1181
 3746SOL     OW22870   1.576   2.532  11.833  0.5780 -0.0529  0.1641
 3746SOL    HW122871   1.512   2.594  11.867  2.3308  0.8903  1.7236
 3746SOL    HW222872   1.515   2.468  11.798 -0.9112  0.7725  1.2681
 3747SOL     OW22873   3.988   0.909   6.372 -0.1442 -0.2221  0.4973
 3747SOL    HW122874   4.028   0.824   6.355  0.6831 -0.2370  2.4392
 3747SOL    HW222875   3.981   0.936   6.281 -1.5087  1.2750  1.0434
 3748SOL     OW22876   0.422   2.547   9.680 -0.1961 -0.0893 -0.9419
 3748SOL    HW122877   0.418   2.590   9.594 -2.2545  1.4545 -0.0588
 3748SOL    HW222878   0.395   2.459   9.654 -0.5817 -0.2916  0.1512
 3749SOL     OW22879   3.856   3.324   4.088  0.5838  0.3263 -0.5134
 3749SOL    HW122880   3.882   3.272   4.011  0.3805  0.1220 -0.4462
 3749SOL    HW222881   3.929   3.385   4.089 -0.1362  1.1478  1.0401
 3750SOL     OW22882   2.288   1.942   4.654  0.0332 -0.4159 -0.0939
 3750SOL    HW122883   2.245   1.859   4.634 -0.3407 -0.0239 -0.9152
 3750SOL    HW222884   2.322   1.968   4.568  0.8661 -2.8997 -0.5383
 3751SOL     OW22885   2.172   2.039   6.354  0.3134 -0.4577  0.5197
 3751SOL    HW122886   2.112   2.031   6.428 -1.0221 -0.3278 -0.5447
 3751SOL    HW222887   2.102   2.030   6.290 -1.3251 -0.3902  2.2840
 3752SOL     OW22888   2.199   2.085   9.324 -0.3519  0.1013  0.5440
 3752SOL    HW122889   2.250   2.028   9.381 -1.0417  0.1093  1.1652
 3752SOL    HW222890   2.254   2.079   9.245 -1.5764  0.1626 -0.3167
 3753SOL     OW22891   4.362   4.379   6.493  0.0812 -0.2614  0.7151
 3753SOL    HW122892   4.273   4.412   6.501 -0.0128 -0.2427 -0.3041
 3753SOL    HW222893   4.395   4.348   6.577  0.1638 -1.1651  0.3507
 3754SOL     OW22894   0.101   1.699   1.123 -0.1825 -0.6636  0.1720
 3754SOL    HW122895   0.015   1.740   1.118  0.5303  0.8737  0.2638
 3754SOL    HW222896   0.116   1.695   1.218  1.6128 -0.9309 -0.1219
 3755SOL     OW22897   4.310   1.862  17.225  0.1440  0.4802  0.3476
 3755SOL    HW122898   4.390   1.873  17.277  1.4999 -0.9255 -1.4709
 3755SOL    HW222899   4.346   1.784  17.182 -0.0589  0.3069  0.4911
 3756SOL     OW22900   2.950   2.529  11.719  0.2343  0.3618 -0.5087
 3756SOL    HW122901   2.910   2.616  11.723 -0.4410  0.0557 -0.4862
 3756SOL    HW222902   2.881   2.489  11.666  0.9407 -2.7505  0.9131
 3757SOL     OW22903   4.162   1.014   2.907  1.0808 -0.0905  0.7017
 3757SOL    HW122904   4.144   0.931   2.952 -1.2790 -0.0071 -0.1117
 3757SOL    HW222905   4.237   1.042   2.961  2.5955 -0.9121 -0.9679
 3758SOL     OW22906   1.950   2.089   0.479 -0.4711  0.1026 -0.0951
 3758SOL    HW122907   1.950   2.038   0.398  0.4251 -1.1564  0.7010
 3758SOL    HW222908   2.038   2.127   0.471  0.3917 -2.2827 -1.8104
 3759SOL     OW22909   1.922   0.307  17.423 -0.0263  0.0710 -0.0339
 3759SOL    HW122910   1.935   0.265  17.338  0.5861  2.5836 -1.2106
 3759SOL    HW222911   1.877   0.386  17.392  2.7863  1.4750 -0.6061
 3760SOL     OW22912   2.209   1.807   8.842 -0.1556  0.0298 -0.2951
 3760SOL    HW122913   2.189   1.890   8.798  0.3547  0.1878 -0.2323
 3760SOL    HW222914   2.175   1.746   8.777 -0.3144 -0.0852 -0.1043
 3761SOL     OW22915   4.196   0.038   3.771  0.1195 -0.2551  0.2352
 3761SOL    HW122916   4.144   0.064   3.695 -0.3086 -2.1245 -0.1078
 3761SOL    HW222917   4.145   4.706   3.811  1.2211 -0.9875  0.3783
 3762SOL     OW22918   2.883   3.186   6.611  0.1049  0.3414  0.3658
 3762SOL    HW122919   2.875   3.280   6.594 -0.1996  0.2096 -0.1987
 3762SOL    HW222920   2.909   3.152   6.525 -0.6978 -0.4858  0.4556
 3763SOL     OW22921   1.716   2.243   5.948 -0.2160 -0.0204 -0.2487
 3763SOL    HW122922   1.724   2.153   5.981 -0.9895  0.0343  0.0879
 3763SOL    HW222923   1.790   2.280   5.997 -0.2070 -3.8459  2.6420
 3764SOL     OW22924   3.667   1.700   3.326 -0.3724 -0.1169 -0.5912
 3764SOL    HW122925   3.622   1.761   3.268 -0.0419 -0.0595 -0.7915
 3764SOL    HW222926   3.756   1.690   3.292  0.1938 -0.3425  0.9819
 3765SOL     OW22927   4.434   3.692   1.800  0.0792 -0.2130 -0.1904
 3765SOL    HW122928   4.480   3.631   1.742  0.7117  0.3746 -0.3112
 3765SOL    HW222929   4.505   3.753   1.821  0.1016  0.1355 -1.2691
 3766SOL     OW22930   1.414   2.537   6.132  0.0511  0.0653 -0.3200
 3766SOL    HW122931   1.386   2.620   6.171  0.2793 -0.4353  0.9172
 3766SOL    HW222932   1.334   2.517   6.082 -0.5397 -0.4878  0.8513
 3767SOL     OW22933   0.094   3.653   3.347 -0.5908 -0.3443  0.2792
 3767SOL    HW122934   0.125   3.662   3.437 -1.0462  3.2632  0.0621
 3767SOL    HW222935   0.172   3.661   3.291 -0.4490  1.0709  0.6924
 3768SOL     OW22936   2.396   0.975   6.165  0.1232  0.2373 -0.2372
 3768SOL    HW122937   2.446   1.038   6.217 -1.8810  1.1685  0.5852
 3768SOL    HW222938   2.460   0.948   6.099 -1.2113 -1.4923 -0.8342
 3769SOL     OW22939   4.262   1.996   3.119 -0.1634 -0.2561 -0.5081
 3769SOL    HW122940   4.325   2.053   3.163 -1.3633 -1.2181  2.4863
 3769SOL    HW222941   4.258   1.922   3.180 -3.3410 -0.0593 -0.4868
 3770SOL     OW22942   3.829   4.037   2.479  0.5212  0.6228  0.3278
 3770SOL    HW122943   3.848   4.077   2.564 -1.8299 -0.5495  1.4298
 3770SOL    HW222944   3.851   3.945   2.494 -0.3641  0.4766  0.7448
 3771SOL     OW22945   2.037   1.462   6.743  0.1464  0.4398 -0.2686
 3771SOL    HW122946   1.948   1.496   6.749 -0.2578 -0.7018  0.1322
 3771SOL    HW222947   2.078   1.480   6.828  1.2447  0.5244 -0.8114
 3772SOL     OW22948   2.627   1.453   8.840 -0.1654 -0.2706  0.0534
 3772SOL    HW122949   2.601   1.362   8.826  3.9029 -1.5556  0.7039
 3772SOL    HW222950   2.567   1.501   8.783 -0.8096  0.4527  1.3484
 3773SOL     OW22951   2.045   4.035   2.054 -0.3531 -0.0908  0.8370
 3773SOL    HW122952   2.049   3.981   1.975 -2.0536  0.9543  0.0435
 3773SOL    HW222953   2.137   4.042   2.078  0.2334 -2.8739 -0.5330
 3774SOL     OW22954   1.811   0.932  13.669 -0.0771  0.9637 -0.1554
 3774SOL    HW122955   1.868   0.973  13.734  0.3542  0.3271 -0.1337
 3774SOL    HW222956   1.863   0.952  13.591 -0.6880  0.2627 -0.7515
 3775SOL     OW22957   0.684   0.051  15.825 -0.4297  0.0515  0.3909
 3775SOL    HW122958   0.612   0.049  15.888 -1.5106  1.1615 -0.7848
 3775SOL    HW222959   0.684   0.145  15.809 -0.5497  0.0003  0.0757
 3776SOL     OW22960   2.076   2.293   9.444 -0.0843  0.0813  0.0795
 3776SOL    HW122961   2.053   2.348   9.369  0.2011 -0.4053 -0.3650
 3776SOL    HW222962   2.108   2.213   9.403 -1.3530 -0.1195 -0.5185
 3777SOL     OW22963   0.319   4.526  10.522 -0.2321  0.5923  0.0292
 3777SOL    HW122964   0.268   4.512  10.602 -0.1680 -0.4092 -0.1050
 3777SOL    HW222965   0.268   4.595  10.479 -1.3773  0.1187  0.6279
 3778SOL     OW22966   0.019   1.693   2.756 -0.2286  0.7859 -0.1974
 3778SOL    HW122967   0.009   1.719   2.848  0.2124  1.4686 -0.3423
 3778SOL    HW222968   0.040   1.600   2.765 -1.4366  0.6058  0.6852
 3779SOL     OW22969   3.873   2.618   7.942 -0.0198 -0.6938  0.5012
 3779SOL    HW122970   3.861   2.654   8.031 -1.8517 -1.2788  0.4862
 3779SOL    HW222971   3.920   2.537   7.961 -0.7141 -1.4291 -0.9564
 3780SOL     OW22972   2.256   0.362   3.818  0.4420 -0.3565 -0.1934
 3780SOL    HW122973   2.223   0.394   3.902 -3.0230  0.3525 -1.7932
 3780SOL    HW222974   2.339   0.408   3.813  2.1189 -3.3777  0.2438
 3781SOL     OW22975   1.162   3.913  15.424  0.0602 -0.0568 -0.3534
 3781SOL    HW122976   1.214   3.983  15.383 -0.7481 -0.7588 -2.5547
 3781SOL    HW222977   1.128   3.882  15.340 -1.5939 -2.2272  1.1121
 3782SOL     OW22978   3.345   0.741   2.001  0.6271  0.0216 -0.2013
 3782SOL    HW122979   3.372   0.656   1.965  0.5842  0.4643 -1.2742
 3782SOL    HW222980   3.255   0.719   2.023  0.3617  0.8657 -0.4406
 3783SOL     OW22981   0.398   1.332   3.116  0.5251 -0.0667 -0.0620
 3783SOL    HW122982   0.475   1.292   3.158  0.2693 -0.4721  0.0272
 3783SOL    HW222983   0.373   1.382   3.193 -1.6929 -1.9602  0.4219
 3784SOL     OW22984   1.394   0.299   0.704  0.4339 -0.4676  0.1508
 3784SOL    HW122985   1.394   0.300   0.608 -1.2831  0.2123  0.1589
 3784SOL    HW222986   1.344   0.378   0.724 -0.6636 -1.3627  0.9419
 3785SOL     OW22987   2.377   4.602   8.845 -0.7658  0.0681 -0.1405
 3785SOL    HW122988   2.424   4.606   8.761 -0.0847  0.2159  0.2457
 3785SOL    HW222989   2.399   4.511   8.864 -1.4264 -0.4159 -1.6397
 3786SOL     OW22990   3.887   3.561   5.432 -0.1127 -0.0487  0.3472
 3786SOL    HW122991   3.921   3.627   5.493  0.0362  0.9749 -0.8485
 3786SOL    HW222992   3.969   3.542   5.387 -0.5077  1.3150 -0.9511
 3787SOL     OW22993   4.288   2.395   6.836 -0.0120 -0.9129  0.2605
 3787SOL    HW122994   4.382   2.401   6.852  0.0281 -3.2561  0.7928
 3787SOL    HW222995   4.252   2.483   6.828  1.3202 -0.7396 -3.9946
 3788SOL     OW22996   0.992   0.788  16.588  0.1468 -0.3890  0.5464
 3788SOL    HW122997   1.086   0.796  16.574  0.1093 -1.8660 -0.6569
 3788SOL    HW222998   0.965   0.871  16.550  0.4014 -0.1013  0.9974
 3789SOL     OW22999   2.191   1.155   4.521  0.3054 -0.4469 -0.1672
 3789SOL    HW123000   2.283   1.171   4.503 -0.2538  0.2820 -2.2891
 3789SOL    HW223001   2.201   1.090   4.591  0.4561  2.0731  2.1434
 3790SOL     OW23002   2.261   3.552   6.292  0.0993 -0.0843 -0.1344
 3790SOL    HW123003   2.356   3.554   6.279 -0.1674  0.3229 -2.0344
 3790SOL    HW223004   2.259   3.522   6.383 -0.1323 -0.0477 -0.1268
 3791SOL     OW23005   1.446   0.568   8.873 -0.0132  0.3333  0.2788
 3791SOL    HW123006   1.529   0.598   8.909 -0.0756 -1.8799  2.2671
 3791SOL    HW223007   1.402   0.518   8.942 -1.6410 -0.6529 -1.4968
 3792SOL     OW23008   3.249   0.841   6.639 -0.5822  0.5033 -0.1550
 3792SOL    HW123009   3.257   0.900   6.564  0.6259  0.5358 -0.0056
 3792SOL    HW223010   3.173   0.785   6.623  0.3286 -0.7051 -0.2991
 3793SOL     OW23011   2.319   4.635   2.437 -0.6472  0.5435 -0.2384
 3793SOL    HW123012   2.301   4.562   2.496  2.3321 -0.4328 -0.5521
 3793SOL    HW223013   2.272   4.619   2.356  0.3105 -1.0094 -0.4762
 3794SOL     OW23014   0.022   3.411  16.908 -0.3883  0.6049  0.1430
 3794SOL    HW123015   0.101   3.375  16.949  0.8892  1.1478 -1.8707
 3794SOL    HW223016   0.058   3.399  16.821 -3.4333 -0.9765 -0.9305
 3795SOL     OW23017   3.641   3.060   2.002 -0.4150  0.0209  0.3526
 3795SOL    HW123018   3.621   2.972   1.969  1.2532 -0.1942 -0.0973
 3795SOL    HW223019   3.562   3.105   1.972 -1.0784  0.3818  2.6255
 3796SOL     OW23020   4.528   4.576   7.942 -0.0438  0.3764  0.8043
 3796SOL    HW123021   4.515   4.670   7.954 -1.0067  0.0493  2.3069
 3796SOL    HW223022   4.470   4.546   8.012 -2.1655  0.6280 -0.8477
 3797SOL     OW23023   1.149   4.043   7.596  0.4909  0.2449 -0.5436
 3797SOL    HW123024   1.245   4.047   7.590  0.6026  1.5683  2.0850
 3797SOL    HW223025   1.116   3.957   7.621  1.6647  0.0716  0.4343
 3798SOL     OW23026   1.417   0.072   7.684  0.1095 -0.6595 -0.2134
 3798SOL    HW123027   1.369   0.072   7.601 -0.8631  1.3236  0.3474
 3798SOL    HW223028   1.419   0.165   7.705 -2.0236 -0.1697 -2.2635
 3799SOL     OW23029   0.763   0.791   5.364  0.2355 -0.2043  0.1035
 3799SOL    HW123030   0.803   0.709   5.337  0.4461 -1.0082  2.8677
 3799SOL    HW223031   0.832   0.858   5.355  0.7556 -0.8707 -0.8555
 3800SOL     OW23032   2.187   0.193   7.067 -0.3308 -0.3057 -0.3210
 3800SOL    HW123033   2.213   0.284   7.082  1.2772 -1.2405  2.4555
 3800SOL    HW223034   2.253   0.177   6.999 -0.2366 -0.4977 -0.1823
 3801SOL     OW23035   0.726   2.055   6.291 -0.2026  0.1716 -0.1617
 3801SOL    HW123036   0.704   2.129   6.347 -2.7788 -1.6783  1.2591
 3801SOL    HW223037   0.677   2.081   6.213  1.3128  0.0564 -1.1481
 3802SOL     OW23038   2.680   4.199   8.113 -0.1648  0.3289 -0.6939
 3802SOL    HW123039   2.614   4.237   8.171  0.0516  1.4440 -1.1705
 3802SOL    HW223040   2.714   4.135   8.175 -1.9073  1.8991  1.8321
 3803SOL     OW23041   1.817   4.579   8.617  0.5328 -0.0409  0.2125
 3803SOL    HW123042   1.749   4.562   8.552 -0.0809  0.6227  0.6812
 3803SOL    HW223043   1.898   4.536   8.588  0.9119  0.7047  0.1672
 3804SOL     OW23044   3.770   0.668   5.691 -0.3462 -0.4105 -0.1795
 3804SOL    HW123045   3.756   0.743   5.633 -1.5277 -0.6511 -0.2057
 3804SOL    HW223046   3.683   0.628   5.685 -0.9619  0.9457 -0.4680
 3805SOL     OW23047   2.130   3.908   4.281  0.9611  0.5090 -1.1377
 3805SOL    HW123048   2.187   3.851   4.333  1.2486  0.8954 -1.0245
 3805SOL    HW223049   2.183   3.908   4.201  1.1448  0.7410 -1.0169
 3806SOL     OW23050   3.550   1.411   7.213  0.4285  0.7342 -0.1792
 3806SOL    HW123051   3.496   1.356   7.270  1.0086  0.9079  0.5372
 3806SOL    HW223052   3.508   1.429   7.129 -1.9975 -1.7714  0.4791
 3807SOL     OW23053   1.584   0.652   4.985 -0.0825  1.1093 -0.3027
 3807SOL    HW123054   1.544   0.729   4.944  0.5655  1.3052 -0.5593
 3807SOL    HW223055   1.591   0.583   4.919 -0.7676  1.0670 -0.3333
 3808SOL     OW23056   0.064   3.503   4.736 -0.7156  0.6428 -0.3583
 3808SOL    HW123057   0.086   3.546   4.819  2.1093  1.7565 -1.6859
 3808SOL    HW223058   4.713   3.538   4.727  0.2195  2.2058 -3.2903
 3809SOL     OW23059   2.743   2.276  16.889 -0.3390 -0.6587  0.6080
 3809SOL    HW123060   2.707   2.227  16.815 -0.1011 -3.0808  2.0954
 3809SOL    HW223061   2.751   2.360  16.843 -0.7130  0.2656  2.2512
 3810SOL     OW23062   0.641   1.177   6.686 -0.6005  0.0877  0.2483
 3810SOL    HW123063   0.575   1.127   6.638 -2.5909  0.0398  3.0469
 3810SOL    HW223064   0.638   1.270   6.663 -0.8510 -0.0741 -0.3787
 3811SOL     OW23065   0.935   4.063   8.890 -0.0240  0.7202 -0.4175
 3811SOL    HW123066   0.850   4.077   8.932 -0.0432 -0.4147 -0.0764
 3811SOL    HW223067   0.918   3.973   8.863  0.9726 -0.5502  3.3060
 3812SOL     OW23068   1.319   1.823   9.818  0.2783 -0.0757  0.6679
 3812SOL    HW123069   1.289   1.732   9.823  3.0352 -1.0530 -0.5165
 3812SOL    HW223070   1.252   1.862   9.873  1.4396  0.5657  1.6329
 3813SOL     OW23071   4.311   3.277   4.197 -0.1607 -0.6374 -0.2683
 3813SOL    HW123072   4.366   3.335   4.249 -1.5452  0.3686  0.0732
 3813SOL    HW223073   4.383   3.226   4.160  0.5221 -2.1182  3.1726
 3814SOL     OW23074   3.830   2.581   6.087  0.5635 -0.5441 -0.1805
 3814SOL    HW123075   3.850   2.488   6.089  1.5353 -0.3337  0.0122
 3814SOL    HW223076   3.917   2.622   6.087  0.2196  0.1618  1.7817
 3815SOL     OW23077   1.776   2.179   9.143 -0.2861  0.0082 -0.0423
 3815SOL    HW123078   1.735   2.179   9.229 -1.5817 -0.5412 -0.6594
 3815SOL    HW223079   1.693   2.188   9.097  0.0195 -1.0461 -0.7918
 3816SOL     OW23080   1.969   0.301   7.838  0.3981 -0.3071  0.5108
 3816SOL    HW123081   1.992   0.209   7.853  1.1411  0.1018  1.9559
 3816SOL    HW223082   1.911   0.315   7.913  0.3243  0.7903  0.2405
 3817SOL     OW23083   3.743   1.574   6.555 -0.0245  0.0570  0.1249
 3817SOL    HW123084   3.737   1.480   6.539 -0.7894 -0.2245  2.0987
 3817SOL    HW223085   3.809   1.575   6.625 -0.1631 -2.8736  0.2695
 3818SOL     OW23086   0.336   3.368   7.523  0.6441  0.4842 -0.0476
 3818SOL    HW123087   0.364   3.389   7.434 -3.4204 -1.1354 -1.6877
 3818SOL    HW223088   0.266   3.431   7.537  1.6515  0.9167  3.1047
 3819SOL     OW23089   4.315   1.872   4.235  0.2749  0.0645  0.3006
 3819SOL    HW123090   4.335   1.781   4.257 -0.0335 -0.2587 -0.7583
 3819SOL    HW223091   4.250   1.899   4.299 -2.0440 -0.5397 -1.7769
 3820SOL     OW23092   1.730   0.156   5.780 -0.5411  0.1648 -0.6788
 3820SOL    HW123093   1.781   0.135   5.858 -2.3637  1.5447  0.8811
 3820SOL    HW223094   1.672   0.225   5.811  1.8955  1.0275  1.9734
 3821SOL     OW23095   1.734   3.196   5.799  0.0603  0.1835 -0.2213
 3821SOL    HW123096   1.659   3.136   5.793 -0.0650  0.4220 -1.0735
 3821SOL    HW223097   1.736   3.212   5.893  0.8046 -1.1982 -0.0193
 3822SOL     OW23098   1.322   3.566   1.792 -0.4433  0.3407 -0.1270
 3822SOL    HW123099   1.269   3.590   1.716  0.6755  0.1073 -0.9690
 3822SOL    HW223100   1.295   3.639   1.849 -0.2790 -0.3133  0.7813
 3823SOL     OW23101   0.279   1.716  15.304 -0.2875 -0.0951  0.0407
 3823SOL    HW123102   0.265   1.686  15.394  1.1001 -1.7186 -0.2702
 3823SOL    HW223103   0.303   1.634  15.260 -0.5949 -1.0150  1.5812
 3824SOL     OW23104   4.234   3.601  11.663 -0.1485 -0.1039 -0.4431
 3824SOL    HW123105   4.259   3.589  11.755  0.5043  2.9728 -0.2210
 3824SOL    HW223106   4.312   3.590  11.608  0.3184  1.3303 -0.0915
 3825SOL     OW23107   1.048   3.772   7.900  0.4230  0.0250 -0.6998
 3825SOL    HW123108   1.141   3.757   7.912  0.8685  2.4472 -1.0040
 3825SOL    HW223109   1.011   3.756   7.987 -0.7923  2.8000 -0.6781
 3826SOL     OW23110   3.714   4.213   8.144 -0.3411 -0.6664 -0.4493
 3826SOL    HW123111   3.685   4.294   8.186  0.0170 -0.2446 -1.0185
 3826SOL    HW223112   3.774   4.184   8.213  1.0197  1.4341 -0.7439
 3827SOL     OW23113   4.073   3.522   4.034  0.6757  0.0458 -0.4100
 3827SOL    HW123114   4.144   3.585   4.023  0.4989  0.3987  0.4485
 3827SOL    HW223115   4.079   3.497   3.942  0.3042 -1.2605 -0.0775
 3828SOL     OW23116   4.086   1.513  13.388 -0.3010 -0.4164  0.2327
 3828SOL    HW123117   4.132   1.441  13.345 -1.0691 -0.5810 -0.3304
 3828SOL    HW223118   4.061   1.571  13.316 -2.0901 -0.4183  0.8339
 3829SOL     OW23119   2.448   4.069   3.325  0.2640  0.3956  0.1586
 3829SOL    HW123120   2.542   4.049   3.326 -0.2811 -2.2228 -1.4469
 3829SOL    HW223121   2.444   4.138   3.392 -2.8654  1.6186 -1.2984
 3830SOL     OW23122   4.635   0.673   1.803  0.5525 -0.2137 -0.4697
 3830SOL    HW123123   4.658   0.758   1.765 -2.6742  0.9521  0.1772
 3830SOL    HW223124   4.664   0.603   1.745  0.2650  0.8195 -1.8583
 3831SOL     OW23125   1.410   2.702   0.260  0.9504 -0.1358 -0.1421
 3831SOL    HW123126   1.345   2.754   0.212  1.6815 -0.1717 -1.1755
 3831SOL    HW223127   1.354   2.627   0.276 -0.0202  0.7294  0.5385
 3832SOL     OW23128   2.855   1.638   6.625 -0.3802  0.4914 -0.1168
 3832SOL    HW123129   2.803   1.562   6.599  1.3669 -0.1979 -1.5723
 3832SOL    HW223130   2.817   1.703   6.566 -0.4582  0.9003  0.3798
 3833SOL     OW23131   2.874   1.318   7.446 -0.7098 -0.0481 -0.0303
 3833SOL    HW123132   2.792   1.367   7.457 -1.6201 -0.8792 -3.2067
 3833SOL    HW223133   2.916   1.378   7.384 -0.7649  0.4169  0.3838
 3834SOL     OW23134   2.051   2.829   2.819  0.0701 -1.0379  0.0429
 3834SOL    HW123135   2.046   2.761   2.753 -1.0580  2.0133 -3.0306
 3834SOL    HW223136   2.108   2.882   2.763  0.0257  0.1384  1.1011
 3835SOL     OW23137   0.738   1.191  12.541 -0.5571 -0.2133  0.1335
 3835SOL    HW123138   0.753   1.099  12.564  0.5564  0.0324  0.3562
 3835SOL    HW223139   0.727   1.177  12.446 -0.4453 -1.7128  0.3345
 3836SOL     OW23140   3.480   2.725  10.196  0.3858 -0.8998  0.2579
 3836SOL    HW123141   3.453   2.799  10.141  1.4441  0.8240  2.0420
 3836SOL    HW223142   3.440   2.656  10.143 -0.6726 -0.7910  0.9094
 3837SOL     OW23143   1.959   4.178   0.873  0.4140 -0.0776  0.1671
 3837SOL    HW123144   1.912   4.256   0.904 -0.4821 -0.6168  0.1647
 3837SOL    HW223145   2.032   4.218   0.826  0.9975  0.2114  1.3467
 3838SOL     OW23146   0.690   1.891   8.169 -0.4686 -0.1008  0.1002
 3838SOL    HW123147   0.765   1.946   8.188  0.7540 -1.6174 -0.3291
 3838SOL    HW223148   0.695   1.815   8.227 -0.7708  0.6638  1.1319
 3839SOL     OW23149   1.277   4.323   4.807  0.5387  0.0314 -0.3671
 3839SOL    HW123150   1.254   4.275   4.727 -2.5506  2.4742 -0.9855
 3839SOL    HW223151   1.330   4.257   4.850  0.1320 -0.2488 -0.2971
 3840SOL     OW23152   1.855   3.623   3.037 -0.0960 -0.5079 -0.2612
 3840SOL    HW123153   1.918   3.694   3.044  0.3519 -0.8420 -0.9187
 3840SOL    HW223154   1.909   3.557   2.994  0.6359  0.2450 -0.4772
 3841SOL     OW23155   1.165   1.753  17.385  0.5073  0.0468 -0.9410
 3841SOL    HW123156   1.251   1.730  17.420  0.0935  1.0799  0.8174
 3841SOL    HW223157   1.107   1.681  17.412  0.3330  1.6875  3.1908
 3842SOL     OW23158   2.714   3.039   0.454  0.3588  0.1648 -0.3713
 3842SOL    HW123159   2.686   2.957   0.496  2.5141 -0.5977 -0.4235
 3842SOL    HW223160   2.680   3.023   0.366 -0.8360 -2.4634  0.5810
 3843SOL     OW23161   1.897   1.395   9.545 -0.0200 -0.1565 -0.2735
 3843SOL    HW123162   1.991   1.391   9.531 -0.0788  1.3272 -1.1054
 3843SOL    HW223163   1.862   1.318   9.501  1.7694 -1.0650 -0.0860
 3844SOL     OW23164   0.056   1.376   8.457  0.7764 -0.1757  0.4498
 3844SOL    HW123165   0.056   1.308   8.525  1.6290 -0.3267  0.3018
 3844SOL    HW223166   4.733   1.330   8.400 -1.5088  2.2039  0.9432
 3845SOL     OW23167   2.606   0.381   6.537 -0.3814  0.1876 -0.1248
 3845SOL    HW123168   2.558   0.434   6.601 -1.0029 -0.6237  0.0776
 3845SOL    HW223169   2.563   0.385   6.452 -0.8271 -0.9555  0.0489
 3846SOL     OW23170   0.623   2.083   8.853 -0.0300 -0.4806  0.0999
 3846SOL    HW123171   0.691   2.071   8.786  0.9966 -0.1873  1.0908
 3846SOL    HW223172   0.676   2.126   8.920  0.2160  0.4727 -0.7104
 3847SOL     OW23173   1.840   4.313   5.066 -0.3806 -0.4282 -0.3522
 3847SOL    HW123174   1.908   4.348   5.010 -0.4204  1.1947  0.6027
 3847SOL    HW223175   1.760   4.352   5.030 -0.1997  0.6470  0.4205
 3848SOL     OW23176   4.416   0.046  15.844 -0.4811 -0.2611  0.1493
 3848SOL    HW123177   4.419   0.093  15.927  0.8260  0.0414 -0.0668
 3848SOL    HW223178   4.509   0.038  15.821 -0.3131  0.2398  0.6541
 3849SOL     OW23179   3.838   3.512   5.124 -0.1084 -1.0197  0.1197
 3849SOL    HW123180   3.757   3.469   5.095 -0.2164  0.1569 -1.3495
 3849SOL    HW223181   3.802   3.585   5.175  2.4268  0.7216 -0.5725
 3850SOL     OW23182   2.689   1.583   5.408 -0.2744  0.2583 -0.2207
 3850SOL    HW123183   2.750   1.639   5.456 -0.3618 -0.0724  0.2790
 3850SOL    HW223184   2.746   1.508   5.389 -0.6084  0.2210 -1.0443
 3851SOL     OW23185   0.686   2.229   6.538 -0.1167 -0.2738 -0.1203
 3851SOL    HW123186   0.646   2.288   6.602 -0.5457  0.7314 -1.3105
 3851SOL    HW223187   0.637   2.147   6.544 -1.0320  0.2758 -0.0120
 3852SOL     OW23188   2.467   1.653   9.376  0.3961 -0.0363  0.6253
 3852SOL    HW123189   2.398   1.605   9.329  0.2718  0.4773  0.2755
 3852SOL    HW223190   2.421   1.693   9.450 -0.5225  2.2110 -1.1644
 3853SOL     OW23191   0.477   4.457   6.435 -0.1613  0.0517 -0.3223
 3853SOL    HW123192   0.481   4.395   6.363 -1.0310 -0.3150 -0.0592
 3853SOL    HW223193   0.563   4.441   6.472 -0.5043  0.9900  0.9008
 3854SOL     OW23194   3.583   3.152  12.520  0.6105 -0.2606 -0.4590
 3854SOL    HW123195   3.615   3.069  12.486 -2.4942 -1.6576  0.0951
 3854SOL    HW223196   3.491   3.133  12.539 -0.2306  1.0024 -3.2367
 3855SOL     OW23197   4.705   1.017  17.268  0.1368  0.4953 -0.2240
 3855SOL    HW123198   0.029   0.964  17.317  0.6648 -0.7151 -2.2154
 3855SOL    HW223199   4.631   1.005  17.328  0.7759  3.2378  1.1493
 3856SOL     OW23200   4.228   0.019  14.944  0.5873  0.2174  0.3389
 3856SOL    HW123201   4.253   4.673  14.981  0.2804  1.5325  3.5591
 3856SOL    HW223202   4.225   4.732  14.851 -0.0622 -3.9450  1.4729
 3857SOL     OW23203   3.316   0.243   2.434 -0.0845 -0.1782  0.2458
 3857SOL    HW123204   3.282   0.154   2.436 -1.1401  0.1901 -1.4336
 3857SOL    HW223205   3.399   0.238   2.481  0.4261 -0.9755 -0.7423
 3858SOL     OW23206   4.615   1.501   4.996  0.6770 -0.0727 -0.1445
 3858SOL    HW123207   4.681   1.548   5.046  1.7701 -1.7414 -0.0270
 3858SOL    HW223208   4.648   1.411   4.994  3.6447  1.0103  0.4993
 3859SOL     OW23209   2.183   1.073   2.627  0.1049 -0.4386 -0.4327
 3859SOL    HW123210   2.189   1.154   2.677  3.2970  0.0535 -1.6038
 3859SOL    HW223211   2.195   1.114   2.541 -1.8922  1.9502  0.4312
 3860SOL     OW23212   4.559   1.671   8.104  0.4042 -0.3644  0.5420
 3860SOL    HW123213   4.649   1.644   8.123  0.6804  0.5792  0.5586
 3860SOL    HW223214   4.573   1.760   8.072  1.1547 -0.5986  0.2225
 3861SOL     OW23215   3.925   2.420  16.794  0.0469  0.0779 -0.2963
 3861SOL    HW123216   3.981   2.390  16.866 -0.4256 -1.2050 -0.4682
 3861SOL    HW223217   3.849   2.363  16.799  0.7372 -1.0410 -2.3466
 3862SOL     OW23218   1.859   3.888   9.623 -0.1387  0.1316  0.1499
 3862SOL    HW123219   1.803   3.811   9.607  1.3229 -0.8764 -0.0714
 3862SOL    HW223220   1.797   3.961   9.613  0.7140  0.7670 -0.4762
 3863SOL     OW23221   2.819   1.819   2.329  0.1090  0.6285  0.3393
 3863SOL    HW123222   2.813   1.893   2.389 -2.3280  1.9838 -1.6089
 3863SOL    HW223223   2.911   1.826   2.304  0.7386 -1.6200  2.0041
 3864SOL     OW23224   1.970   1.149   8.743  0.2266  0.0331  0.5148
 3864SOL    HW123225   2.044   1.117   8.690 -0.1726  1.0294 -0.6555
 3864SOL    HW223226   1.903   1.083   8.731  0.8784 -0.7318  1.1158
 3865SOL     OW23227   3.779   3.801   5.237  0.4595 -0.2553  0.0118
 3865SOL    HW123228   3.776   3.787   5.331  2.2586 -0.5942  0.0075
 3865SOL    HW223229   3.810   3.891   5.236 -1.7384  0.5147  0.1339
 3866SOL     OW23230   1.170   1.333   6.547 -0.1423 -0.0939  0.2230
 3866SOL    HW123231   1.233   1.268   6.515 -1.3751 -1.5435  0.7090
 3866SOL    HW223232   1.158   1.387   6.468  0.9662  1.8313  1.3881
 3867SOL     OW23233   2.842   0.224  12.186 -0.1960 -0.4421 -0.1912
 3867SOL    HW123234   2.803   0.165  12.251 -0.7619 -0.3350 -0.4270
 3867SOL    HW223235   2.770   0.237  12.125 -0.0066  0.7748 -0.1578
 3868SOL     OW23236   1.848   1.332   3.325  0.6666 -0.1942  0.2235
 3868SOL    HW123237   1.792   1.383   3.383 -0.8448  0.2344 -1.6113
 3868SOL    HW223238   1.794   1.253   3.327  0.7558 -0.2229  1.3160
 3869SOL     OW23239   3.547   2.512   3.593 -0.2661  0.1597  0.1585
 3869SOL    HW123240   3.566   2.579   3.528  1.3838 -0.8885 -0.4197
 3869SOL    HW223241   3.570   2.563   3.671 -2.6436  1.3060  0.1255
 3870SOL     OW23242   3.004   2.528   5.248 -0.5973 -0.1885 -0.0336
 3870SOL    HW123243   3.043   2.616   5.246  0.9345 -0.8140  2.2383
 3870SOL    HW223244   2.919   2.548   5.287  0.9210  0.4139  2.9674
 3871SOL     OW23245   4.371   2.267   6.423  0.2468 -0.4260 -0.7308
 3871SOL    HW123246   4.420   2.233   6.348 -0.0693 -0.5001 -0.9064
 3871SOL    HW223247   4.444   2.305   6.472  0.5825 -1.4417 -0.4391
 3872SOL     OW23248   1.626   0.451   8.595 -0.1724  0.3301  0.2114
 3872SOL    HW123249   1.712   0.490   8.612 -0.5780  1.1141  0.4313
 3872SOL    HW223250   1.637   0.434   8.502  0.7176 -1.6914  0.6846
 3873SOL     OW23251   1.240   1.414   6.302  0.2256 -0.7090 -0.0945
 3873SOL    HW123252   1.211   1.489   6.250  0.1112 -0.7858 -0.1419
 3873SOL    HW223253   1.325   1.444   6.334 -0.8449  2.2239 -0.0198
 3874SOL     OW23254   4.215   1.433   1.276  0.1130  0.2990 -0.3653
 3874SOL    HW123255   4.288   1.435   1.338 -0.3067 -0.4232  0.1571
 3874SOL    HW223256   4.171   1.517   1.286 -0.5508 -0.1491  0.4246
 3875SOL     OW23257   2.610   1.967   3.966 -0.2849 -0.0158  0.2319
 3875SOL    HW123258   2.698   1.963   4.004 -0.1489 -2.3451 -0.2918
 3875SOL    HW223259   2.561   1.917   4.032 -1.5367  1.2896  0.2995
 3876SOL     OW23260   2.365   2.775   6.319  0.3584 -0.4469 -1.0802
 3876SOL    HW123261   2.459   2.764   6.333  0.1924  0.7351  1.0156
 3876SOL    HW223262   2.328   2.693   6.351 -0.9356  0.2492 -0.7643
 3877SOL     OW23263   4.140   2.658   0.154  0.1154  0.1986 -0.2980
 3877SOL    HW123264   4.059   2.610   0.138  0.1143  0.4996 -1.1825
 3877SOL    HW223265   4.106   2.728   0.210  1.9224  0.5405  0.3691
 3878SOL     OW23266   1.945   0.864   5.675 -0.3226  0.0747 -0.3115
 3878SOL    HW123267   2.020   0.923   5.667 -0.3359  0.1578  0.1885
 3878SOL    HW223268   1.878   0.932   5.679  1.4707  1.6634  2.0206
 3879SOL     OW23269   2.082   1.827   9.332  0.1824 -0.2691 -0.1798
 3879SOL    HW123270   2.000   1.869   9.306  1.3487  0.6853 -2.2753
 3879SOL    HW223271   2.093   1.843   9.426  1.6522  0.9964 -0.5621
 3880SOL     OW23272   0.037   1.135   5.959 -0.0550 -0.6011  0.0962
 3880SOL    HW123273   4.692   1.181   5.946 -0.2895 -2.0197 -3.5259
 3880SOL    HW223274   0.005   1.053   5.998  1.5090 -1.1316  0.2654
 3881SOL     OW23275   3.141   3.197   1.934 -0.7226 -0.6345  0.3764
 3881SOL    HW123276   3.106   3.112   1.957 -0.3563 -0.4882  1.4625
 3881SOL    HW223277   3.108   3.251   2.006  0.4043  2.1332 -1.1764
 3882SOL     OW23278   4.385   1.845   2.633 -0.5316  0.0969 -0.1085
 3882SOL    HW123279   4.409   1.931   2.598 -1.3258  0.4998  0.3494
 3882SOL    HW223280   4.400   1.844   2.727  1.2067  1.3839 -0.3639
 3883SOL     OW23281   0.068   3.946   8.201 -0.4294 -0.0070  0.2780
 3883SOL    HW123282   0.055   3.858   8.237  0.0469 -0.8040 -1.4900
 3883SOL    HW223283   0.015   3.940   8.121  1.3548 -0.4997 -0.8904
 3884SOL     OW23284   0.525   3.376  11.052 -0.3454 -0.4238  0.3371
 3884SOL    HW123285   0.473   3.401  10.975  0.3834  0.4454  0.1327
 3884SOL    HW223286   0.452   3.361  11.111 -0.0307  0.1925  0.8898
 3885SOL     OW23287   1.830   4.402   8.036 -0.5344  0.1213 -0.5860
 3885SOL    HW123288   1.912   4.436   8.070 -1.2596  0.2553  1.0430
 3885SOL    HW223289   1.811   4.470   7.971  1.3425  0.5955 -0.6239
 3886SOL     OW23290   1.711   3.203   6.075 -0.1874  0.1433  0.1908
 3886SOL    HW123291   1.669   3.124   6.040 -1.7556  1.2423 -0.3912
 3886SOL    HW223292   1.669   3.210   6.160 -0.5374 -0.8638  0.1025
 3887SOL     OW23293   4.113   1.292   0.597 -0.6133  0.2527  0.8318
 3887SOL    HW123294   4.061   1.219   0.632 -0.6992 -0.1501 -0.1480
 3887SOL    HW223295   4.169   1.312   0.672 -0.8062 -0.5355  1.1961
 3888SOL     OW23296   4.002   0.703   2.600  0.2391  0.1890  0.5205
 3888SOL    HW123297   4.068   0.714   2.531 -0.3426 -1.0320 -0.2299
 3888SOL    HW223298   3.980   0.611   2.586 -0.8134  0.6840 -1.1644
 3889SOL     OW23299   1.124   0.230  10.181  0.3358  0.4582 -0.0202
 3889SOL    HW123300   1.210   0.242  10.140 -0.6461  1.3305 -1.8087
 3889SOL    HW223301   1.135   0.284  10.259  0.4325  1.0115 -0.4209
 3890SOL     OW23302   1.636   2.465   4.509  0.1661 -0.1621 -0.2232
 3890SOL    HW123303   1.650   2.553   4.542  1.6883 -0.5669  0.2236
 3890SOL    HW223304   1.722   2.449   4.470 -0.4471  0.9267 -2.0329
 3891SOL     OW23305   0.670   3.656   4.598  0.0656 -0.3977  0.3554
 3891SOL    HW123306   0.641   3.608   4.520  1.5601  0.9249 -1.0294
 3891SOL    HW223307   0.593   3.689   4.645  0.4759  0.2750  0.5599
 3892SOL     OW23308   2.219   3.575   4.466  0.1162 -0.0513 -0.0737
 3892SOL    HW123309   2.282   3.647   4.461  1.1880 -0.9162  0.9662
 3892SOL    HW223310   2.173   3.581   4.382  0.4828 -0.0910 -0.2760
 3893SOL     OW23311   0.479   4.396   4.987 -0.5366 -0.3110 -0.1261
 3893SOL    HW123312   0.387   4.418   4.970 -0.9041 -1.6668  0.0971
 3893SOL    HW223313   0.468   4.314   5.035  1.4308 -0.3100  0.3328
 3894SOL     OW23314   2.946   4.044   5.505 -0.1627 -0.1292 -0.2257
 3894SOL    HW123315   2.912   4.041   5.416  1.2538  0.1142 -0.7596
 3894SOL    HW223316   3.037   4.037   5.478  0.3865  1.4067  1.2510
 3895SOL     OW23317   2.497   2.412   6.970 -0.2926 -0.0865  0.4304
 3895SOL    HW123318   2.583   2.449   6.988  0.1912 -0.8190 -0.4090
 3895SOL    HW223319   2.480   2.475   6.900  2.6092  0.0441 -0.1150
 3896SOL     OW23320   0.503   3.883  13.838 -0.0428 -0.0495  0.3713
 3896SOL    HW123321   0.457   3.892  13.922 -0.3949  1.7255 -0.0037
 3896SOL    HW223322   0.572   3.948  13.850 -1.5391  2.1487 -2.7318
 3897SOL     OW23323   2.858   0.681   6.985  0.4470  0.1126 -0.6200
 3897SOL    HW123324   2.938   0.652   7.027  0.7725 -0.1980 -1.4430
 3897SOL    HW223325   2.827   0.759   7.031  1.3489 -0.6882  1.3099
 3898SOL     OW23326   1.663   1.694  12.479  0.3367 -0.1265  0.3339
 3898SOL    HW123327   1.596   1.714  12.414  1.7588 -1.3828 -1.5174
 3898SOL    HW223328   1.642   1.605  12.508 -2.1427  0.3010 -0.1089
 3899SOL     OW23329   2.981   4.465   6.508  0.0425 -0.1247  0.4180
 3899SOL    HW123330   3.007   4.554   6.530 -1.5915  0.6246 -0.7083
 3899SOL    HW223331   2.984   4.413   6.589  0.7164  1.0727  1.1461
 3900SOL     OW23332   2.772   1.296   4.983  0.6623 -0.4365 -0.0308
 3900SOL    HW123333   2.792   1.250   4.901 -0.0742  0.4677 -0.7207
 3900SOL    HW223334   2.838   1.365   4.987 -0.1534  0.3841 -0.6486
 3901SOL     OW23335   3.648   3.074  13.673  0.1157  0.3821  0.1419
 3901SOL    HW123336   3.651   3.047  13.581  0.5058  0.9886 -0.0212
 3901SOL    HW223337   3.559   3.048  13.699 -0.6583  1.4774 -1.3176
 3902SOL     OW23338   1.953   4.557   5.693 -0.2967 -0.4408 -0.0221
 3902SOL    HW123339   1.966   4.527   5.603 -2.7395  0.3879 -0.6544
 3902SOL    HW223340   1.895   4.487   5.722 -0.1794 -0.3929  0.3273
 3903SOL     OW23341   0.357   0.799  17.213  0.7794 -0.2857 -0.4521
 3903SOL    HW123342   0.447   0.785  17.183  1.3411  0.5112  0.8713
 3903SOL    HW223343   0.319   0.719  17.176  0.8559  0.2386 -1.6712
 3904SOL     OW23344   1.532   2.063   9.027  0.2767  0.1340  0.2017
 3904SOL    HW123345   1.440   2.091   9.027  0.1883 -0.1356 -1.0666
 3904SOL    HW223346   1.522   1.982   9.077  1.4628  0.6134  1.2156
 3905SOL     OW23347   2.898   2.685  15.118  0.2874 -0.4275 -0.8288
 3905SOL    HW123348   2.844   2.668  15.195  0.5240 -0.2039 -0.6127
 3905SOL    HW223349   2.986   2.677  15.156 -0.4198  0.6176  1.0104
 3906SOL     OW23350   1.464   3.931   5.132  0.1669 -1.1660  0.1269
 3906SOL    HW123351   1.537   3.884   5.092  1.3148  0.7069 -0.0152
 3906SOL    HW223352   1.452   4.004   5.070  1.1529 -3.2938 -2.5789
 3907SOL     OW23353   0.950   1.328   4.894 -0.5169 -0.2846  0.2156
 3907SOL    HW123354   1.013   1.332   4.822  1.2030  2.2171  1.7980
 3907SOL    HW223355   0.896   1.257   4.861 -0.0943 -0.2962 -0.4530
 3908SOL     OW23356   4.114   1.153   3.447  0.3026  0.0297  0.6469
 3908SOL    HW123357   4.109   1.218   3.516  1.5817 -0.7037  1.4249
 3908SOL    HW223358   4.123   1.217   3.376  3.1105 -0.7171  0.3240
 3909SOL     OW23359   3.172   3.112  14.948 -0.3487 -0.1144  0.1704
 3909SOL    HW123360   3.099   3.094  15.008  0.8028 -1.4572  1.1901
 3909SOL    HW223361   3.210   3.193  14.982  0.7411  0.0365 -1.4326
 3910SOL     OW23362   2.118   3.509  14.212  0.3008  0.1013  0.2562
 3910SOL    HW123363   2.089   3.473  14.296 -0.6825 -0.3043 -0.2606
 3910SOL    HW223364   2.213   3.502  14.223  0.1290 -1.1412  1.0333
 3911SOL     OW23365   4.399   3.747   3.617  0.5217  0.0161  0.0084
 3911SOL    HW123366   4.465   3.679   3.630  0.7349  0.0932 -0.6939
 3911SOL    HW223367   4.418   3.780   3.529 -0.1821  1.4926  0.4139
 3912SOL     OW23368   0.207   0.968   4.051 -0.5772  0.1752  0.1852
 3912SOL    HW123369   0.159   1.050   4.053 -0.8991  0.0222 -1.0381
 3912SOL    HW223370   0.174   0.929   4.131  0.8053 -0.7635  0.2984
 3913SOL     OW23371   4.539   1.238   5.901  0.1967 -0.0639 -0.5843
 3913SOL    HW123372   4.521   1.231   5.808  0.6828 -0.8535 -0.6130
 3913SOL    HW223373   4.485   1.314   5.925  0.6604 -0.6030  2.1985
 3914SOL     OW23374   1.863   2.839   7.440  0.2054 -0.1842  0.0915
 3914SOL    HW123375   1.929   2.790   7.390  0.4135 -0.3656  0.5373
 3914SOL    HW223376   1.883   2.818   7.532 -0.2206  3.5060  1.0412
 3915SOL     OW23377   0.149   3.955  16.901  0.3203 -0.1250  0.3168
 3915SOL    HW123378   0.172   3.864  16.917 -0.0282 -0.9195 -3.8336
 3915SOL    HW223379   0.089   3.967  16.975 -0.1893 -2.0064  0.1898
 3916SOL     OW23380   0.390   0.866   8.343 -0.3774 -0.0383 -0.4677
 3916SOL    HW123381   0.418   0.774   8.351 -2.5057 -0.4193  2.6682
 3916SOL    HW223382   0.410   0.895   8.432  0.1462 -2.5809  0.2578
 3917SOL     OW23383   0.163   4.016   9.579  0.3166 -0.1398 -0.2267
 3917SOL    HW123384   0.194   3.943   9.633 -1.4066 -0.2681  0.5734
 3917SOL    HW223385   0.197   4.089   9.629  0.8127  0.5627 -1.5835
 3918SOL     OW23386   0.889   2.210   4.991  0.3941 -0.4713 -0.5540
 3918SOL    HW123387   0.889   2.286   5.050 -0.7471 -0.4613 -0.5660
 3918SOL    HW223388   0.953   2.229   4.922  0.2646 -1.5681 -0.9770
 3919SOL     OW23389   2.524   1.662   1.914 -0.4407 -0.3558  0.3108
 3919SOL    HW123390   2.591   1.606   1.876  1.0034  0.4470  1.6723
 3919SOL    HW223391   2.575   1.713   1.977  0.0956  2.4018 -2.3386
 3920SOL     OW23392   1.194   1.412   7.325  0.8184  0.0813  0.1376
 3920SOL    HW123393   1.271   1.434   7.273  0.9804 -0.4814  0.1405
 3920SOL    HW223394   1.208   1.321   7.348  1.0263  0.0808  0.0065
 3921SOL     OW23395   1.690   0.498   4.753 -0.1667  0.3890  0.5592
 3921SOL    HW123396   1.608   0.505   4.705 -0.1829 -2.9671  0.1009
 3921SOL    HW223397   1.708   0.405   4.739  0.9544  0.8251 -1.0170
 3922SOL     OW23398   3.491   1.426   5.785  0.7792 -0.2760 -0.1107
 3922SOL    HW123399   3.563   1.374   5.821  0.3078 -0.9133 -0.0965
 3922SOL    HW223400   3.462   1.382   5.705  0.0530  1.5322 -0.8471
 3923SOL     OW23401   0.980   1.238  11.138  0.5936 -0.4325  0.2852
 3923SOL    HW123402   0.930   1.251  11.057 -0.3535  0.0267  0.9449
 3923SOL    HW223403   0.994   1.143  11.139  1.2689 -0.3393 -0.3127
 3924SOL     OW23404   3.016   3.256   3.983 -0.1273 -0.1757  0.0351
 3924SOL    HW123405   3.073   3.248   4.060 -0.6833 -0.5126  0.4078
 3924SOL    HW223406   3.003   3.165   3.956 -4.1098  0.7575 -1.1122
 3925SOL     OW23407   3.603   0.326   6.185  0.6763  0.0650  0.6369
 3925SOL    HW123408   3.546   0.376   6.126  0.0183  0.5675  1.7079
 3925SOL    HW223409   3.655   0.392   6.231  0.9524  0.7026 -0.5768
 3926SOL     OW23410   1.560   0.361   0.952  0.0290  0.4454 -0.7075
 3926SOL    HW123411   1.508   0.292   0.911 -0.4255  0.2189  0.2633
 3926SOL    HW223412   1.605   0.392   0.873  1.5846 -1.1652 -0.4480
 3927SOL     OW23413   0.199   1.259   6.318  0.4038  0.2844  0.1906
 3927SOL    HW123414   0.149   1.177   6.317 -1.5071  1.4445  0.7281
 3927SOL    HW223415   0.280   1.250   6.368 -0.5730 -1.3686  1.4930
 3928SOL     OW23416   3.831   2.901  10.274  0.4481 -0.2408  0.1218
 3928SOL    HW123417   3.827   2.907  10.179  1.6487  2.7392  0.2652
 3928SOL    HW223418   3.919   2.864  10.281  0.0385 -1.1971  0.3289
 3929SOL     OW23419   3.647   1.715   9.835 -0.0277  0.7195  0.8338
 3929SOL    HW123420   3.644   1.623   9.810  1.7318  0.4371  1.6412
 3929SOL    HW223421   3.711   1.709   9.906  2.7135  1.3949 -1.5338
 3930SOL     OW23422   4.036   0.415   1.651  0.5219  0.3932 -0.5839
 3930SOL    HW123423   4.009   0.379   1.567 -0.6110  0.1006 -0.1021
 3930SOL    HW223424   4.086   0.346   1.694 -0.1826 -0.1058 -0.5660
 3931SOL     OW23425   1.189   4.239   4.563  0.1463 -0.2623 -0.5060
 3931SOL    HW123426   1.104   4.196   4.574  0.2374  0.2970  2.5035
 3931SOL    HW223427   1.212   4.190   4.484 -0.4945 -1.9848  0.3988
 3932SOL     OW23428   1.165   2.187   2.429  0.1441 -0.5886 -0.4785
 3932SOL    HW123429   1.135   2.183   2.338  0.0119  1.3372 -0.5228
 3932SOL    HW223430   1.085   2.228   2.463  1.5554  1.3225  0.5556
 3933SOL     OW23431   1.871   2.107   1.232 -0.3076 -0.5659 -0.5322
 3933SOL    HW123432   1.953   2.156   1.240 -0.1125 -0.8595 -0.7321
 3933SOL    HW223433   1.856   2.113   1.138 -0.8659  0.7552 -0.3637
 3934SOL     OW23434   0.023   0.080  17.343  0.4381 -0.0921 -0.2668
 3934SOL    HW123435   4.681   0.032  17.366 -0.6060  2.3511  1.2595
 3934SOL    HW223436   0.072   0.010  17.300  1.9472  0.4306  0.6104
 3935SOL     OW23437   4.571   0.865   2.845 -0.1229  0.7950  0.2314
 3935SOL    HW123438   4.537   0.939   2.796 -0.1559  0.0977 -0.7981
 3935SOL    HW223439   4.617   0.907   2.917 -0.8672 -1.6410  2.1337
 3936SOL     OW23440   0.084   0.693   6.144  0.6092  0.2121  0.3179
 3936SOL    HW123441   0.049   0.609   6.173 -2.0395  1.0501 -0.4778
 3936SOL    HW223442   0.148   0.659   6.081  1.8454 -0.1174  1.7499
 3937SOL     OW23443   1.412   2.810  16.831 -0.2670 -0.2973 -0.9679
 3937SOL    HW123444   1.419   2.724  16.873 -0.4298 -0.1501 -0.6391
 3937SOL    HW223445   1.476   2.857  16.884 -0.7824  1.5162 -1.9472
 3938SOL     OW23446   0.536   1.723  16.810 -0.1342  0.7302 -0.1425
 3938SOL    HW123447   0.520   1.795  16.871 -0.4525 -0.2761  0.9657
 3938SOL    HW223448   0.452   1.677  16.818  0.3178 -0.0299  0.2393
 3939SOL     OW23449   0.914   4.399  16.367  0.1943  0.3249  0.4412
 3939SOL    HW123450   0.988   4.429  16.420 -0.6134  2.2252  0.4819
 3939SOL    HW223451   0.947   4.313  16.340 -1.6110 -0.0885 -0.4415
 3940SOL     OW23452   0.206   3.266  14.655  0.8902  0.5994 -0.4417
 3940SOL    HW123453   0.183   3.330  14.588  2.6149  1.3505 -0.3214
 3940SOL    HW223454   0.180   3.312  14.735 -1.2673 -2.5170  0.6583
 3941SOL     OW23455   2.504   3.636  13.976  0.3890  0.3628 -0.5311
 3941SOL    HW123456   2.538   3.679  14.055  1.0307 -0.7643 -0.1920
 3941SOL    HW223457   2.503   3.716  13.923  0.9221  1.1660  0.6657
 3942SOL     OW23458   1.889   2.831   6.481  0.0542 -0.0769 -0.0785
 3942SOL    HW123459   1.802   2.818   6.444  0.0788  2.6937 -1.1372
 3942SOL    HW223460   1.951   2.833   6.408 -0.6408 -1.3694 -0.6815
 3943SOL     OW23461   3.577   1.169   4.131 -0.1660 -0.0842 -0.1524
 3943SOL    HW123462   3.644   1.207   4.074 -0.1281  0.4852  0.2744
 3943SOL    HW223463   3.535   1.244   4.172  1.3175  1.5318 -1.6050
 3944SOL     OW23464   1.875   2.629   4.718  0.1373 -0.5814  0.0216
 3944SOL    HW123465   1.908   2.687   4.786  1.1374 -0.9353 -0.1563
 3944SOL    HW223466   1.959   2.597   4.685  0.3756  1.2336 -1.0679
 3945SOL     OW23467   0.850   0.887  13.515 -0.0678  0.5057 -0.2377
 3945SOL    HW123468   0.807   0.854  13.436 -0.0008  1.4452 -0.6592
 3945SOL    HW223469   0.936   0.915  13.486 -0.5449 -0.4997 -2.6105
 3946SOL     OW23470   3.484   4.603  12.617 -0.5271  0.2047 -0.8205
 3946SOL    HW123471   3.495   4.520  12.571 -1.2689 -0.6317  0.5189
 3946SOL    HW223472   3.445   4.584  12.702 -0.5978 -1.6371 -1.2808
 3947SOL     OW23473   2.711   0.592   2.542 -0.2410  0.0217  0.1954
 3947SOL    HW123474   2.636   0.533   2.553 -0.1566  0.0873  1.0744
 3947SOL    HW223475   2.777   0.530   2.512  0.0161  0.7025 -0.6473
 3948SOL     OW23476   4.378   2.603   6.583  0.3703  0.2745  0.4322
 3948SOL    HW123477   4.419   2.516   6.589  1.1182  0.6404  0.6701
 3948SOL    HW223478   4.350   2.608   6.492  1.3604 -1.5837  0.0375
 3949SOL     OW23479   3.538   1.956   7.944 -0.5753  0.6496  0.1882
 3949SOL    HW123480   3.565   2.038   7.902 -2.1538  1.4901  0.7961
 3949SOL    HW223481   3.489   1.980   8.023  0.8584  2.2343  0.5835
 3950SOL     OW23482   3.491   2.336   1.810  0.3579 -0.0229  0.0985
 3950SOL    HW123483   3.526   2.258   1.853 -1.1368 -0.9616 -0.4028
 3950SOL    HW223484   3.563   2.349   1.749  1.6805  2.3802  2.1369
 3951SOL     OW23485   1.399   2.326   8.336 -0.1739  0.4025 -0.0034
 3951SOL    HW123486   1.473   2.385   8.346  0.1638 -0.1800  1.0076
 3951SOL    HW223487   1.432   2.241   8.364  0.1519  0.3893 -0.4357
 3952SOL     OW23488   4.515   2.239   1.535  0.3494 -0.2172 -0.2224
 3952SOL    HW123489   4.448   2.243   1.603 -0.1858  2.3629 -0.8693
 3952SOL    HW223490   4.460   2.215   1.460  0.1897 -0.0056 -0.1740
 3953SOL     OW23491   3.156   2.795   4.129  0.3451 -0.0838 -0.0831
 3953SOL    HW123492   3.186   2.850   4.200  0.9550 -0.1246 -0.3131
 3953SOL    HW223493   3.230   2.739   4.105  1.4028  0.7405  1.2677
 3954SOL     OW23494   3.966   4.635   5.006 -0.3385  0.1510 -0.7200
 3954SOL    HW123495   3.908   4.643   4.930 -0.2237 -0.7272 -0.9056
 3954SOL    HW223496   4.047   4.608   4.962 -0.6243  0.0276 -1.1643
 3955SOL     OW23497   4.428   4.483   5.356 -0.2027 -0.9088  0.1315
 3955SOL    HW123498   4.490   4.544   5.394 -0.4603 -0.1532 -0.6616
 3955SOL    HW223499   4.482   4.466   5.279  0.6350  1.1509  0.2619
 3956SOL     OW23500   2.511   2.347   3.126 -0.2530 -0.2938 -0.3199
 3956SOL    HW123501   2.540   2.294   3.052 -0.7075 -0.6528 -0.2444
 3956SOL    HW223502   2.581   2.333   3.189 -1.6068 -4.3427  0.3323
 3957SOL     OW23503   0.119   4.178  12.215 -0.0369  0.2455 -0.7482
 3957SOL    HW123504   0.211   4.179  12.190 -0.0934  0.6320 -0.9469
 3957SOL    HW223505   0.107   4.085  12.230 -0.1975  0.0115 -2.4145
 3958SOL     OW23506   4.543   3.764  15.140  0.3645  0.3547 -0.2905
 3958SOL    HW123507   4.498   3.844  15.114 -1.2090 -0.0496  1.2052
 3958SOL    HW223508   4.634   3.792  15.128  0.2729  0.8129  0.0478
 3959SOL     OW23509   0.496   4.310  17.200 -0.9433  0.4888  0.4599
 3959SOL    HW123510   0.461   4.320  17.111 -0.5631 -2.3384 -0.0222
 3959SOL    HW223511   0.589   4.319  17.179 -0.8694 -1.0877  0.1458
 3960SOL     OW23512   0.321   4.422   2.762  0.0510  0.0927 -0.5051
 3960SOL    HW123513   0.292   4.442   2.673  0.5829  1.9087 -0.2754
 3960SOL    HW223514   0.391   4.486   2.775 -0.8364  0.7146  1.1933
 3961SOL     OW23515   3.932   3.227   0.156  0.3474 -0.2837  0.1812
 3961SOL    HW123516   3.938   3.219   0.061  0.7070  0.4880  0.1355
 3961SOL    HW223517   3.992   3.156   0.177 -1.3867 -2.3505 -1.9507
 3962SOL     OW23518   0.359   3.723   9.237 -0.5982 -0.3426 -0.1783
 3962SOL    HW123519   0.391   3.810   9.215  0.6762 -0.6413  0.5018
 3962SOL    HW223520   0.414   3.709   9.315  1.1198  0.4695 -1.2633
 3963SOL     OW23521   0.318   4.361   6.624  0.0529 -0.1930 -0.1443
 3963SOL    HW123522   0.296   4.276   6.587  0.0306  0.3847 -1.4599
 3963SOL    HW223523   0.380   4.406   6.566  0.1318 -0.9603 -0.6445
 3964SOL     OW23524   3.791   0.591   3.824 -0.6620  0.1607 -0.4442
 3964SOL    HW123525   3.825   0.641   3.899 -2.2085 -0.3921  0.6329
 3964SOL    HW223526   3.867   0.545   3.789 -0.8885 -1.0928  0.7213
 3965SOL     OW23527   2.325   4.475   2.046  0.4605  0.5267  0.5294
 3965SOL    HW123528   2.257   4.496   2.110 -0.8976 -1.3730 -0.2857
 3965SOL    HW223529   2.299   4.384   2.036  0.9311  0.3402  0.9894
 3966SOL     OW23530   4.170   2.131   7.792  0.4971 -0.3653  0.5952
 3966SOL    HW123531   4.195   2.138   7.700 -1.3238 -0.3460  0.1186
 3966SOL    HW223532   4.245   2.083   7.828  1.2418  0.1798 -0.2406
 3967SOL     OW23533   1.951   4.572   2.549  0.1178  0.1988 -0.1193
 3967SOL    HW123534   1.902   4.576   2.467  0.7930  1.2981 -0.4787
 3967SOL    HW223535   1.884   4.564   2.616 -1.1652 -4.6165 -2.0151
 3968SOL     OW23536   3.180   3.990   7.542  0.0847  0.3420 -0.1988
 3968SOL    HW123537   3.151   3.913   7.590  1.9992  0.1129  0.6161
 3968SOL    HW223538   3.228   3.946   7.472  0.4867  1.0779 -0.3829
 3969SOL     OW23539   0.965   4.392   3.095  0.3422 -0.5933 -0.1818
 3969SOL    HW123540   0.971   4.303   3.129  1.7887 -0.1518  0.7195
 3969SOL    HW223541   1.052   4.431   3.104 -1.0969  2.4290  0.9311
 3970SOL     OW23542   1.135   1.400  14.215 -0.5213 -0.8299 -0.0735
 3970SOL    HW123543   1.198   1.393  14.143  0.1574  0.3337  0.4004
 3970SOL    HW223544   1.178   1.344  14.280  1.6927  1.6210  0.5764
 3971SOL     OW23545   4.452   0.630   0.384 -0.5652  0.0408  0.4774
 3971SOL    HW123546   4.488   0.666   0.465  0.1664  0.1064  0.1189
 3971SOL    HW223547   4.477   0.684   0.310 -2.2723 -0.1989 -0.2688
 3972SOL     OW23548   4.634   2.816   0.274 -0.2606 -0.6635 -0.0309
 3972SOL    HW123549   4.592   2.852   0.352  0.0127 -2.3550  0.9008
 3972SOL    HW223550   4.672   2.732   0.300 -0.3555 -0.2469  1.4328
 3973SOL     OW23551   2.989   0.605   5.897  0.0582  0.3439 -0.2735
 3973SOL    HW123552   3.059   0.601   5.832 -0.0091  0.0247 -0.3279
 3973SOL    HW223553   3.042   0.622   5.975  1.1196 -1.3433 -0.6133
 3974SOL     OW23554   4.021   2.225   6.563  0.2882  0.7304 -0.3130
 3974SOL    HW123555   4.084   2.182   6.621 -2.0365  0.0976  1.7925
 3974SOL    HW223556   4.044   2.187   6.479 -0.7693  0.6987 -0.5867
 3975SOL     OW23557   0.473   2.358   3.809 -0.3530  0.3302 -0.3431
 3975SOL    HW123558   0.432   2.344   3.894  1.1910 -4.2966 -0.3574
 3975SOL    HW223559   0.568   2.364   3.818 -0.1726 -0.0078 -1.8943
 3976SOL     OW23560   2.256   2.597   9.223 -0.7788 -0.3772 -0.7605
 3976SOL    HW123561   2.263   2.506   9.194  0.6498 -0.3254 -0.5668
 3976SOL    HW223562   2.319   2.639   9.165 -1.4235  1.4774 -0.1316
 3977SOL     OW23563   2.070   2.121   2.821  0.0642  0.0690 -0.1184
 3977SOL    HW123564   2.041   2.213   2.822 -0.0607  0.0257  0.2817
 3977SOL    HW223565   2.043   2.095   2.733  0.2904  3.8399 -1.3027
 3978SOL     OW23566   2.220   2.815   9.384  0.6330  0.1089  0.5956
 3978SOL    HW123567   2.177   2.866   9.315  0.0733  0.5266  1.2650
 3978SOL    HW223568   2.217   2.731   9.337 -0.5055  0.1690  0.5573
 3979SOL     OW23569   2.191   3.561   7.499 -0.4016  0.5382 -0.0962
 3979SOL    HW123570   2.138   3.639   7.508  0.0048  0.7131  0.7963
 3979SOL    HW223571   2.127   3.502   7.538  2.3159 -0.2354  3.2094
 3980SOL     OW23572   2.512   3.927   0.990 -0.2665 -0.2821 -0.2361
 3980SOL    HW123573   2.539   3.994   0.926  1.3882 -3.0293 -2.4295
 3980SOL    HW223574   2.420   3.950   1.002 -0.3002  0.1605 -1.2860
 3981SOL     OW23575   3.781   4.489   4.718  0.0947 -0.2909 -0.0358
 3981SOL    HW123576   3.777   4.420   4.652 -0.0267  0.4603 -0.7994
 3981SOL    HW223577   3.853   4.445   4.764 -0.7020  0.3988  1.8931
 3982SOL     OW23578   0.753   2.176   0.109  0.3859  0.1331  0.0652
 3982SOL    HW123579   0.677   2.229   0.083  0.1977  0.1633  0.6837
 3982SOL    HW223580   0.828   2.236   0.111  0.8686 -0.4705  0.0838
 3983SOL     OW23581   1.900   3.493  12.122  0.0226 -0.2287 -0.3987
 3983SOL    HW123582   1.955   3.557  12.166 -1.6696 -0.2967  1.7913
 3983SOL    HW223583   1.891   3.426  12.190  1.3411  0.6072  0.5805
 3984SOL     OW23584   0.804   4.275   4.317 -0.1466 -0.0951  0.6165
 3984SOL    HW123585   0.805   4.197   4.372 -1.1589 -1.2726 -1.0264
 3984SOL    HW223586   0.736   4.327   4.358  0.3152  0.3568  0.8018
 3985SOL     OW23587   3.380   3.459   0.857 -0.0038 -0.0040  0.4762
 3985SOL    HW123588   3.322   3.515   0.908 -0.3992  0.3668 -0.3702
 3985SOL    HW223589   3.358   3.374   0.896  0.3790 -0.6475 -0.7036
 3986SOL     OW23590   1.115   1.757   3.053 -0.1747 -0.0056 -0.4202
 3986SOL    HW123591   1.122   1.853   3.051 -1.3919  0.0019 -3.9900
 3986SOL    HW223592   1.111   1.728   2.962  0.7714  0.6367 -0.6676
 3987SOL     OW23593   1.013   0.466   3.568  0.3000  0.6177 -0.4985
 3987SOL    HW123594   1.058   0.523   3.630 -2.0067  2.7135 -0.7649
 3987SOL    HW223595   0.987   0.392   3.622  1.1449  0.7223  0.0508
 3988SOL     OW23596   4.737   3.068  13.748 -0.2914  0.1253  0.0856
 3988SOL    HW123597   0.030   3.077  13.838  1.8034 -2.0236 -0.4315
 3988SOL    HW223598   4.643   3.072  13.770  0.1011  0.1416  1.7710
 3989SOL     OW23599   0.900   4.255   6.475  0.0961  0.0436  0.0147
 3989SOL    HW123600   0.899   4.226   6.384 -0.0340  0.0081  0.0274
 3989SOL    HW223601   0.994   4.241   6.492  0.1032  1.5778  1.2828
 3990SOL     OW23602   3.545   1.477  16.892  0.0322 -0.3060 -0.1236
 3990SOL    HW123603   3.516   1.568  16.886  3.6848  0.9262  0.7628
 3990SOL    HW223604   3.482   1.426  16.842  0.9268  1.8668 -3.5186
 3991SOL     OW23605   3.182   0.144   4.160  0.0334 -0.5122 -0.1175
 3991SOL    HW123606   3.137   0.151   4.076 -0.1996 -0.8773 -0.0222
 3991SOL    HW223607   3.254   0.207   4.154 -0.7725  0.3899 -0.2785
 3992SOL     OW23608   0.168   0.596   5.320 -0.1347 -0.3842 -0.0819
 3992SOL    HW123609   0.233   0.629   5.257 -0.9104  0.7027 -0.2975
 3992SOL    HW223610   0.205   0.645   5.394  0.0453 -1.0948  0.3023
 3993SOL     OW23611   3.134   0.085  16.325  0.4217  0.2336 -0.2936
 3993SOL    HW123612   3.209   0.028  16.343  0.1947 -0.2561 -0.8735
 3993SOL    HW223613   3.065   0.029  16.361  2.4179 -1.5206  0.8513
 3994SOL     OW23614   1.753   3.783   0.340 -0.6949 -0.1608 -0.1014
 3994SOL    HW123615   1.742   3.862   0.393 -0.3050 -0.3952  0.3200
 3994SOL    HW223616   1.756   3.721   0.412 -0.5697 -2.8522 -2.4494
 3995SOL     OW23617   1.756   4.422   6.946  0.0685  0.0058 -0.2416
 3995SOL    HW123618   1.749   4.350   7.008  1.9872  0.9930  1.1382
 3995SOL    HW223619   1.851   4.427   6.939  0.0434  1.1713  0.2874
 3996SOL     OW23620   3.940   3.259   4.334  0.0988  0.2584  0.0874
 3996SOL    HW123621   3.907   3.252   4.244  0.6979  3.6046 -0.4000
 3996SOL    HW223622   3.977   3.347   4.326  2.0515 -0.5278  0.5955
 3997SOL     OW23623   2.789   2.465   6.957  0.2897  0.2239  0.2492
 3997SOL    HW123624   2.833   2.542   6.994  1.5561 -0.9152  1.1401
 3997SOL    HW223625   2.830   2.462   6.870  1.5761  1.5073  0.8081
 3998SOL     OW23626   0.550   4.184  15.901 -0.3573  0.7128  0.2114
 3998SOL    HW123627   0.469   4.134  15.907  0.2759 -0.4108 -0.5177
 3998SOL    HW223628   0.523   4.275  15.918  0.2502  1.0070 -0.3563
 3999SOL     OW23629   2.429   3.564   9.418  0.4936  0.1922  0.0573
 3999SOL    HW123630   2.347   3.585   9.373 -0.2371 -2.2388  0.2154
 3999SOL    HW223631   2.425   3.607   9.503 -2.5641 -1.1226  0.6007
 4000SOL     OW23632   3.853   0.388   0.106  0.0005 -0.8765  0.2180
 4000SOL    HW123633   3.812   0.325   0.047 -0.7968 -0.5620  0.4423
 4000SOL    HW223634   3.813   0.471   0.080  0.7169  0.1489  2.4154
 4001SOL     OW23635   0.524   1.504   3.365  0.3205 -0.0876  0.7158
 4001SOL    HW123636   0.527   1.422   3.414  2.2339 -0.2232  0.3858
 4001SOL    HW223637   0.577   1.566   3.414  0.2245 -0.0511  0.7720
 4002SOL     OW23638   2.683   4.338  12.710 -0.4207  0.2979 -0.5552
 4002SOL    HW123639   2.775   4.332  12.738 -0.0642 -1.6460 -2.1560
 4002SOL    HW223640   2.644   4.266  12.760  0.1762 -0.0611 -0.6015
 4003SOL     OW23641   3.193   1.776  12.955  0.2225 -0.2998 -0.4763
 4003SOL    HW123642   3.162   1.709  13.015  2.1104 -0.5249  0.2343
 4003SOL    HW223643   3.199   1.731  12.870  0.0118  0.6018 -0.9711
 4004SOL     OW23644   2.161   0.042   1.296 -0.1198 -0.7089  0.4865
 4004SOL    HW123645   2.070   0.038   1.324 -0.5948  0.2394 -0.9578
 4004SOL    HW223646   2.162   0.124   1.248 -0.5699 -0.2930  1.1773
 4005SOL     OW23647   0.352   4.253  12.753 -0.2900  0.3279 -0.0189
 4005SOL    HW123648   0.283   4.284  12.695 -0.3326  1.6995  0.7657
 4005SOL    HW223649   0.332   4.310  12.827 -1.2995  0.3040 -0.2712
 4006SOL     OW23650   4.498   2.730  10.090 -0.5871 -0.1662 -0.5898
 4006SOL    HW123651   4.577   2.726  10.145  1.1409 -2.9305 -3.2795
 4006SOL    HW223652   4.463   2.817  10.108  1.6774  1.3500 -3.5339
 4007SOL     OW23653   4.499   4.252   4.739 -0.2562 -0.1004  0.4427
 4007SOL    HW123654   4.519   4.160   4.758  0.8789  0.0271 -0.1393
 4007SOL    HW223655   4.403   4.251   4.739 -0.2554 -0.0164  0.2006
 4008SOL     OW23656   4.258   2.959   7.450  0.2164 -0.2863  0.3162
 4008SOL    HW123657   4.171   2.996   7.435  0.1880 -0.8209 -0.7865
 4008SOL    HW223658   4.258   2.946   7.545 -0.7093 -0.7462  0.2521
 4009SOL     OW23659   1.564   1.719   8.886  0.0938  0.0283 -0.0837
 4009SOL    HW123660   1.600   1.686   8.803 -1.4298 -2.5324  0.2752
 4009SOL    HW223661   1.535   1.641   8.935 -1.6678  0.3657 -0.6199
 4010SOL     OW23662   3.313   4.566  10.432 -0.1990  0.6363 -0.3511
 4010SOL    HW123663   3.305   4.618  10.352 -0.4607  1.9280  0.5129
 4010SOL    HW223664   3.387   4.614  10.471  0.3169 -1.4031  1.1597
 4011SOL     OW23665   4.008   0.760   3.911  0.1540 -0.3552  0.3549
 4011SOL    HW123666   4.042   0.715   3.989 -1.5636  1.0777  1.9278
 4011SOL    HW223667   4.073   0.743   3.843  2.7313  0.5986  2.5624
 4012SOL     OW23668   1.464   3.972   9.472  0.1583  0.1713  0.3176
 4012SOL    HW123669   1.429   4.047   9.520  2.0100 -0.2299  2.2605
 4012SOL    HW223670   1.435   3.997   9.384 -0.9595 -0.7392  0.4241
 4013SOL     OW23671   0.695   3.242  13.121  0.0210 -0.2708 -0.0211
 4013SOL    HW123672   0.779   3.288  13.123 -1.0464  1.6876 -0.1188
 4013SOL    HW223673   0.669   3.252  13.029  0.4209 -0.6870 -0.1788
 4014SOL     OW23674   4.692   1.564   7.417 -0.4981 -0.3129  0.0584
 4014SOL    HW123675   4.719   1.600   7.501 -1.6505 -0.1768  0.3675
 4014SOL    HW223676   4.663   1.476   7.441 -2.4774  0.5500  0.8272
 4015SOL     OW23677   3.892   0.994   7.139 -0.1275  0.3354  0.3577
 4015SOL    HW123678   3.825   0.985   7.072  0.0767  0.8845  0.0822
 4015SOL    HW223679   3.970   0.970   7.089  0.5336  1.4301  0.8687
 4016SOL     OW23680   4.289   0.613   2.867  0.2357  0.1886  0.0660
 4016SOL    HW123681   4.306   0.566   2.785  2.3663  1.7176 -0.3695
 4016SOL    HW223682   4.377   0.648   2.879 -0.5136  2.3207 -0.7501
 4017SOL     OW23683   2.194   0.791   6.900  0.4566 -0.4233 -0.5243
 4017SOL    HW123684   2.163   0.841   6.976 -3.4510 -0.7070 -1.9506
 4017SOL    HW223685   2.121   0.810   6.840 -0.1680 -1.0946  0.0237
 4018SOL     OW23686   1.781   4.734   2.972  0.0716 -0.1646 -0.4182
 4018SOL    HW123687   1.827   0.048   2.907 -0.6291 -0.6368 -1.2917
 4018SOL    HW223688   1.860   4.693   3.007 -0.5600  0.4523  1.7564
 4019SOL     OW23689   2.566   2.407  11.558 -0.5846  0.3306  0.0703
 4019SOL    HW123690   2.659   2.409  11.540 -0.3769 -2.3702  0.7745
 4019SOL    HW223691   2.571   2.425  11.652  0.0473  0.0663  0.0867
 4020SOL     OW23692   1.583   1.580   4.719 -0.2033  0.1314  0.2417
 4020SOL    HW123693   1.577   1.501   4.664  0.8636  0.8511 -0.9146
 4020SOL    HW223694   1.553   1.536   4.799  1.5942 -1.2694  0.1458
 4021SOL     OW23695   3.978   4.600  16.107  0.2939 -0.0508 -0.1671
 4021SOL    HW123696   4.067   4.623  16.078 -0.4078 -1.7635 -3.5385
 4021SOL    HW223697   3.990   4.583  16.201 -3.0022  0.7126  0.3889
 4022SOL     OW23698   3.186   2.296   9.849  0.3334 -0.5449 -0.5864
 4022SOL    HW123699   3.210   2.378   9.892 -0.6809 -1.1337  1.1089
 4022SOL    HW223700   3.174   2.247   9.931 -0.2257  2.1154  0.9543
 4023SOL     OW23701   4.129   4.152   9.062 -0.0618  0.2522 -0.1163
 4023SOL    HW123702   4.216   4.114   9.045 -0.0631  0.4637 -0.5882
 4023SOL    HW223703   4.072   4.076   9.056  1.8247 -1.0912 -1.2955
 4024SOL     OW23704   0.181   2.214   5.272 -0.4818 -0.0848  0.3368
 4024SOL    HW123705   0.191   2.155   5.198  1.2925  1.4982 -0.6994
 4024SOL    HW223706   0.262   2.205   5.322 -0.0028  0.1446 -0.4052
 4025SOL     OW23707   2.494   4.366   2.286  0.5272 -0.3524  0.1476
 4025SOL    HW123708   2.407   4.328   2.299 -0.2610  0.5823 -2.3060
 4025SOL    HW223709   2.468   4.418   2.209  1.2522 -0.8287 -0.4199
 4026SOL     OW23710   0.471   4.150  10.456  0.0893 -0.3734 -0.3745
 4026SOL    HW123711   0.560   4.126  10.481  0.8846  1.6239 -1.2928
 4026SOL    HW223712   0.451   4.069  10.409 -0.7975 -1.7756  2.4450
 4027SOL     OW23713   4.191   1.530   8.263 -0.2506  0.0694  0.3926
 4027SOL    HW123714   4.148   1.504   8.344 -0.0773  0.7507  0.7023
 4027SOL    HW223715   4.153   1.616   8.247  0.9675  0.8040  1.4684
 4028SOL     OW23716   0.680   4.670   9.086  0.7659 -0.2124 -0.3128
 4028SOL    HW123717   0.687   4.650   9.179  2.2237 -1.0299 -0.5959
 4028SOL    HW223718   0.739   0.008   9.079  0.1672  0.5645  3.3852
 4029SOL     OW23719   3.588   1.678   7.870 -1.1207 -0.1931 -0.2824
 4029SOL    HW123720   3.660   1.674   7.807  0.4773  0.6801  1.4959
 4029SOL    HW223721   3.578   1.772   7.887 -1.4605 -0.0303 -1.3951
 4030SOL     OW23722   3.091   2.871  12.658 -0.3593 -0.4718  0.1856
 4030SOL    HW123723   3.053   2.784  12.645 -0.4401 -0.3893 -0.1395
 4030SOL    HW223724   3.152   2.842  12.726 -0.5746 -0.7686  0.2539
 4031SOL     OW23725   0.615   3.093   1.863 -0.2840  0.2175  0.2651
 4031SOL    HW123726   0.540   3.075   1.919  0.7124  0.5106  1.6838
 4031SOL    HW223727   0.580   3.164   1.809 -0.0106 -0.7589 -1.2055
 4032SOL     OW23728   0.079   2.675   8.287 -0.7828 -0.2268 -0.4457
 4032SOL    HW123729   0.020   2.654   8.215 -0.0826  0.3322 -1.1815
 4032SOL    HW223730   0.040   2.754   8.323  0.6005 -0.1303  0.8507
 4033SOL     OW23731   4.049   1.928  10.605  0.0223  0.4570  0.0105
 4033SOL    HW123732   4.127   1.983  10.596 -0.1645  0.8659  1.0034
 4033SOL    HW223733   4.083   1.850  10.560  3.3843  1.7977  0.2154
 4034SOL     OW23734   2.583   3.874  13.833  0.4993  0.2810  0.4233
 4034SOL    HW123735   2.546   3.958  13.858  0.1104  0.6073 -1.2570
 4034SOL    HW223736   2.663   3.877  13.886 -0.5627  2.9082  1.8667
 4035SOL     OW23737   1.853   0.150   8.597  0.0365  0.0813 -0.5063
 4035SOL    HW123738   1.802   0.083   8.643  0.1734  0.4823  0.2256
 4035SOL    HW223739   1.907   0.184   8.668  0.4915 -0.9008 -0.3711
 4036SOL     OW23740   3.118   0.270   1.681 -0.3124  0.7205 -0.4037
 4036SOL    HW123741   3.130   0.193   1.735 -3.0934  0.1890 -0.5560
 4036SOL    HW223742   3.066   0.321   1.742 -0.7391 -1.6410  1.1844
 4037SOL     OW23743   0.226   1.351  12.464 -0.2988  0.4140  0.1735
 4037SOL    HW123744   0.185   1.416  12.521  0.7479  0.0431  1.3527
 4037SOL    HW223745   0.159   1.283  12.457 -1.3702  1.1867  3.1274
 4038SOL     OW23746   4.186   0.001   0.646  0.8612 -0.0702  0.2882
 4038SOL    HW123747   4.100   0.043   0.651 -1.1331 -4.0308 -1.4042
 4038SOL    HW223748   4.168   4.703   0.560 -0.0006  1.1721 -0.0556
 4039SOL     OW23749   2.140   2.187   9.036  0.4519  0.1642 -0.2484
 4039SOL    HW123750   2.151   2.129   9.111 -1.7499  1.8757  1.3938
 4039SOL    HW223751   2.205   2.255   9.050  0.4631 -0.0035  0.4873
 4040SOL     OW23752   4.483   0.692   8.161  0.2091  1.0615  0.2652
 4040SOL    HW123753   4.504   0.639   8.084  2.0348  1.0664  0.7465
 4040SOL    HW223754   4.390   0.710   8.147 -0.2300 -0.0138  1.8687
 4041SOL     OW23755   4.306   2.134   3.913  0.7056  0.3000  0.9263
 4041SOL    HW123756   4.230   2.173   3.956 -0.6291  0.4314 -1.5684
 4041SOL    HW223757   4.339   2.075   3.981  1.2115  0.5254  0.8777
 4042SOL     OW23758   2.037   3.859   8.394  0.5875 -0.2818  0.2145
 4042SOL    HW123759   2.089   3.896   8.466  0.5295 -1.9301  1.0864
 4042SOL    HW223760   2.048   3.923   8.324  0.0317  1.0334  1.3040
 4043SOL     OW23761   0.575   0.581   1.939 -0.1216  0.3658 -0.2931
 4043SOL    HW123762   0.501   0.544   1.986 -0.5744 -0.2633 -1.4754
 4043SOL    HW223763   0.572   0.674   1.959  0.6525  0.0430  1.3528
 4044SOL     OW23764   0.049   0.937  14.603  0.4798  0.0426 -0.1804
 4044SOL    HW123765   0.059   0.980  14.518 -2.3108  0.3057 -0.3745
 4044SOL    HW223766   4.697   0.907  14.592  0.0564  1.2366  0.0878
 4045SOL     OW23767   0.265   0.288  10.529 -0.0818  0.3486 -0.3343
 4045SOL    HW123768   0.220   0.372  10.537  1.2079  0.9977  0.2051
 4045SOL    HW223769   0.245   0.282  10.435 -2.0401  1.7032 -0.0122
 4046SOL     OW23770   0.197   2.802  11.597  0.1806  0.1368  0.1435
 4046SOL    HW123771   0.102   2.810  11.596  0.0839 -0.9581  0.8730
 4046SOL    HW223772   0.217   2.729  11.539 -1.0059  0.7689 -1.0490
 4047SOL     OW23773   4.721   0.369   8.863  0.1595  0.5353 -0.0989
 4047SOL    HW123774   4.708   0.387   8.770 -0.9371 -0.2760 -0.1043
 4047SOL    HW223775   0.072   0.406   8.867 -0.0381  0.7579  1.9657
 4048SOL     OW23776   3.859   1.284   7.294  0.0535  0.2264 -0.6138
 4048SOL    HW123777   3.952   1.297   7.277  0.4230  0.5230  1.6965
 4048SOL    HW223778   3.836   1.213   7.234 -0.4075 -0.4668  0.3850
 4049SOL     OW23779   0.930   1.250   3.195  0.1395 -0.2641  0.0113
 4049SOL    HW123780   0.897   1.241   3.106 -0.9975 -0.2169  0.4274
 4049SOL    HW223781   0.930   1.345   3.208  1.0321 -0.5060  1.7354
 4050SOL     OW23782   0.886   3.973   8.083  0.3795  0.0304 -0.2847
 4050SOL    HW123783   0.850   3.885   8.091  0.5251  0.0285  0.3422
 4050SOL    HW223784   0.858   3.990   7.993 -1.1190  1.5461  0.4806
 4051SOL     OW23785   1.122   2.800   7.690 -0.3577  0.1457 -0.4736
 4051SOL    HW123786   1.215   2.795   7.711 -1.0581 -2.5671  2.0375
 4051SOL    HW223787   1.131   2.816   7.596 -0.5856 -1.2893 -0.7403
 4052SOL     OW23788   4.474   0.440   3.763 -0.4977  0.2216  0.0371
 4052SOL    HW123789   4.441   0.390   3.688 -1.3464 -0.0297  0.5769
 4052SOL    HW223790   4.531   0.376   3.806  1.0294  1.8259  0.3982
 4053SOL     OW23791   4.486   2.570   0.416  0.0344  0.1254 -0.3930
 4053SOL    HW123792   4.486   2.634   0.487  0.5460 -0.6221  0.2820
 4053SOL    HW223793   4.458   2.496   0.471 -1.8405  0.7632 -0.4790
 4054SOL     OW23794   4.703   2.483   6.956 -0.0074 -0.6755  0.4224
 4054SOL    HW123795   0.055   2.493   6.925 -0.3299 -1.8238 -0.9253
 4054SOL    HW223796   4.686   2.552   7.019 -0.2230 -1.0368  0.7592
 4055SOL     OW23797   1.217   3.655   5.490 -0.0538  0.4254 -0.4937
 4055SOL    HW123798   1.143   3.619   5.443 -0.3772  0.6769 -0.1764
 4055SOL    HW223799   1.244   3.724   5.429 -1.3216  2.1443  0.8900
 4056SOL     OW23800   2.982   4.054   3.073 -0.5469  0.1362  0.2594
 4056SOL    HW123801   2.913   4.018   3.017 -2.1799  1.5917  1.3278
 4056SOL    HW223802   2.954   4.145   3.076 -1.9506 -0.3052  0.7284
 4057SOL     OW23803   3.357   1.329  14.849 -0.1230 -0.2951  0.1416
 4057SOL    HW123804   3.424   1.349  14.784 -0.7162  2.3258  0.3599
 4057SOL    HW223805   3.404   1.350  14.930 -0.0074  1.3359 -0.3615
 4058SOL     OW23806   1.329   3.681   3.609  0.2175  0.4512 -0.4402
 4058SOL    HW123807   1.307   3.734   3.686  0.9818  0.7437 -0.4235
 4058SOL    HW223808   1.376   3.739   3.550 -0.6602  2.7123  1.0562
 4059SOL     OW23809   2.961   2.569  16.920 -0.0050  0.2675 -0.3622
 4059SOL    HW123810   2.914   2.530  16.846 -0.3627  1.1775 -0.6095
 4059SOL    HW223811   3.049   2.572  16.881 -0.1320 -1.3390 -0.7977
 4060SOL     OW23812   3.076   4.055   4.782  0.1491 -0.1083 -0.1128
 4060SOL    HW123813   3.104   4.121   4.718 -0.8872  1.9402  1.5537
 4060SOL    HW223814   2.989   4.094   4.791  0.9338  0.8506  3.1202
 4061SOL     OW23815   2.396   0.889   2.600  0.2484 -0.2337 -0.0399
 4061SOL    HW123816   2.347   0.833   2.539 -0.6768  0.5558 -0.0190
 4061SOL    HW223817   2.333   0.954   2.630 -1.1333 -1.3665 -0.4595
 4062SOL     OW23818   2.480   3.918   5.810  0.2385 -0.5047  0.3872
 4062SOL    HW123819   2.461   3.998   5.761 -1.7498 -0.6343  0.9569
 4062SOL    HW223820   2.422   3.930   5.885  1.2908 -1.7910  1.3913
 4063SOL     OW23821   1.183   0.813   5.567 -0.0220 -0.1005  0.0508
 4063SOL    HW123822   1.171   0.831   5.474  3.6898  1.3451 -0.1650
 4063SOL    HW223823   1.265   0.763   5.569 -0.0594 -0.1238  0.7986
 4064SOL     OW23824   0.865   1.194   9.205  0.6913  0.2074  0.2910
 4064SOL    HW123825   0.806   1.118   9.201 -1.5712  1.9864 -0.0992
 4064SOL    HW223826   0.854   1.224   9.115 -0.2105  1.0587  0.6857
 4065SOL     OW23827   3.605   2.407   8.682  0.1973 -0.5163  0.0258
 4065SOL    HW123828   3.518   2.422   8.645  0.6511 -0.9047 -1.2069
 4065SOL    HW223829   3.599   2.321   8.724 -0.1691 -0.6507 -0.2991
 4066SOL     OW23830   2.647   3.079   6.877  0.0261  0.1786  0.4567
 4066SOL    HW123831   2.721   3.118   6.832 -0.3464  0.3996  0.0412
 4066SOL    HW223832   2.620   3.019   6.808 -1.0882  0.9096  0.2602
 4067SOL     OW23833   1.183   2.229   8.532  0.4215 -1.0910 -0.2716
 4067SOL    HW123834   1.263   2.229   8.480 -0.3751 -0.9333 -1.5026
 4067SOL    HW223835   1.178   2.317   8.571  0.5745 -0.3571 -1.9241
 4068SOL     OW23836   4.446   0.125   2.035 -0.2677  0.7678  0.1487
 4068SOL    HW123837   4.455   0.073   2.115  0.7106  0.4945 -0.1316
 4068SOL    HW223838   4.364   0.168   2.057 -0.8873  0.9825 -2.6135
 4069SOL     OW23839   4.451   3.660  15.365  0.2633  0.3339  0.2692
 4069SOL    HW123840   4.512   3.586  15.372  1.3177  1.1273 -0.4923
 4069SOL    HW223841   4.481   3.704  15.285 -0.6925  0.9066  0.2284
 4070SOL     OW23842   4.689   0.145  10.512  0.4322 -0.4226 -0.6629
 4070SOL    HW123843   4.664   0.181  10.597  0.9858  0.6831 -0.9632
 4070SOL    HW223844   4.630   0.201  10.461 -0.8961 -2.1611 -1.0346
 4071SOL     OW23845   2.885   3.734   1.947 -0.1445  0.1443 -0.4061
 4071SOL    HW123846   2.930   3.803   1.995  0.1014 -0.8109  0.7442
 4071SOL    HW223847   2.889   3.749   1.852 -1.1893 -0.3981 -0.5299
 4072SOL     OW23848   4.672   1.174   3.065 -0.4346 -0.6566  0.1263
 4072SOL    HW123849   0.021   1.203   3.037  0.6166 -1.3843  2.6147
 4072SOL    HW223850   4.700   1.112   3.132 -2.6357  0.3143  1.9173
 4073SOL     OW23851   3.057   2.330  10.523  0.4414  0.2643 -0.2409
 4073SOL    HW123852   3.152   2.336  10.528  0.2885  1.5867  1.1490
 4073SOL    HW223853   3.032   2.326  10.616 -0.8405 -0.5226 -0.6116
 4074SOL     OW23854   2.127   4.732   9.290 -0.1683 -1.1978  0.2776
 4074SOL    HW123855   2.149   4.644   9.319 -1.0950 -1.1901  0.9931
 4074SOL    HW223856   2.155   0.049   9.363 -1.2298  0.6481 -0.7187
 4075SOL     OW23857   2.804   3.203   9.751  0.3210 -0.2962 -0.3359
 4075SOL    HW123858   2.774   3.191   9.842 -1.1017 -1.8624 -1.0020
 4075SOL    HW223859   2.797   3.112   9.721 -1.9990 -0.7312  1.4921
 4076SOL     OW23860   3.810   0.363   3.396  0.6672 -0.9568  0.2742
 4076SOL    HW123861   3.904   0.377   3.387  0.7124 -0.8353  0.9129
 4076SOL    HW223862   3.765   0.431   3.347  0.9406 -2.6891 -2.4103
 4077SOL     OW23863   2.720   0.744   2.786 -0.2117  0.1727  0.8028
 4077SOL    HW123864   2.695   0.685   2.714  1.3762  0.0631  0.3357
 4077SOL    HW223865   2.789   0.791   2.740 -1.1600 -0.3220 -1.1210
 4078SOL     OW23866   0.386   3.617  15.515  0.2727 -0.3871  0.2094
 4078SOL    HW123867   0.307   3.580  15.552 -0.2214 -0.5294 -0.9817
 4078SOL    HW223868   0.349   3.676  15.450  0.7675 -0.4933 -0.1699
 4079SOL     OW23869   0.198   1.994  13.763  0.3393 -0.4256 -0.8687
 4079SOL    HW123870   0.225   1.977  13.853  1.2705 -0.0557 -1.0733
 4079SOL    HW223871   0.284   1.972  13.725 -1.0116 -3.0349 -2.4285
 4080SOL     OW23872   1.507   3.119   8.848  0.1203 -0.1037  0.1698
 4080SOL    HW123873   1.413   3.137   8.852  0.1308 -0.6559  2.7943
 4080SOL    HW223874   1.548   3.200   8.816  0.1114  0.2652  1.0851
 4081SOL     OW23875   0.941   0.329   3.351  0.0778  0.5293 -0.3706
 4081SOL    HW123876   0.978   0.390   3.415  4.8798 -2.3422 -0.4234
 4081SOL    HW223877   0.870   0.382   3.314 -0.6636 -0.2509 -0.0525
 4082SOL     OW23878   0.923   2.120   7.341  0.2156 -0.0789 -0.2063
 4082SOL    HW123879   1.005   2.131   7.293  0.1938  0.1572 -0.1877
 4082SOL    HW223880   0.916   2.028   7.316  0.3915 -0.5412  1.4302
 4083SOL     OW23881   3.848   0.112   6.482  0.3125  0.1198 -0.0225
 4083SOL    HW123882   3.868   0.061   6.560  1.1006  0.8329  0.2355
 4083SOL    HW223883   3.932   0.127   6.439  0.8025 -0.8104  0.6064
 4084SOL     OW23884   0.815   4.514   9.979 -0.1221 -0.3949  0.0719
 4084SOL    HW123885   0.719   4.516   9.977 -0.1835 -3.3243  0.6305
 4084SOL    HW223886   0.829   4.562  10.060 -3.5222  1.4042 -0.3808
 4085SOL     OW23887   0.929   1.086  12.734  0.0452  0.5402  0.1984
 4085SOL    HW123888   0.982   1.135  12.670 -0.2892  3.8719  2.4459
 4085SOL    HW223889   0.966   1.001  12.711 -0.5467 -0.0122  1.2854
 4086SOL     OW23890   0.290   4.619   9.626  0.3530  0.3687  0.0514
 4086SOL    HW123891   0.380   4.611   9.595 -0.1867  1.7029 -1.9125
 4086SOL    HW223892   0.304   4.619   9.720  1.2057 -0.0289 -0.0734
 4087SOL     OW23893   0.616   1.104   5.900 -0.0572 -0.3510 -0.6102
 4087SOL    HW123894   0.579   1.071   5.818 -2.0476 -1.7051  0.8284
 4087SOL    HW223895   0.688   1.045   5.923  0.8822  0.5761 -1.1563
 4088SOL     OW23896   0.189   0.013   7.586 -0.1299 -0.1747  0.2534
 4088SOL    HW123897   0.210   4.733   7.495  1.6332 -0.5488  0.7390
 4088SOL    HW223898   0.096   0.033   7.577 -0.1330 -0.0060  0.6568
 4089SOL     OW23899   2.992   4.574   3.112  0.3424 -0.2395 -0.3953
 4089SOL    HW123900   2.976   4.655   3.162 -1.8327 -0.6551 -0.3847
 4089SOL    HW223901   3.023   4.615   3.032  0.1314 -0.6448 -0.6864
 4090SOL     OW23902   1.188   2.511   3.463  0.3954  0.0870 -0.1327
 4090SOL    HW123903   1.214   2.441   3.403  0.6703  1.2735 -1.3884
 4090SOL    HW223904   1.248   2.487   3.534  1.4278  1.8039 -0.4193
 4091SOL     OW23905   2.016   2.995   6.685 -0.0166 -0.1765 -0.0746
 4091SOL    HW123906   2.043   3.080   6.651 -0.0722 -0.0259  0.2634
 4091SOL    HW223907   1.976   2.954   6.608 -0.6787 -0.0606  0.2054
 4092SOL     OW23908   4.530   2.349   7.478 -0.5850 -0.0081  0.2554
 4092SOL    HW123909   4.624   2.353   7.499 -1.0531  1.3665  2.1648
 4092SOL    HW223910   4.545   2.302   7.396 -1.3765  1.9915 -1.0136
 4093SOL     OW23911   2.713   0.069  14.210  0.0898 -0.2116 -0.0485
 4093SOL    HW123912   2.773   4.738  14.184 -0.3680 -0.7320  0.2746
 4093SOL    HW223913   2.697   0.110  14.124 -0.2726  2.8433  1.4631
 4094SOL     OW23914   2.286   4.624  11.876  0.2615 -0.5170  0.5866
 4094SOL    HW123915   2.282   4.560  11.947 -1.3427 -0.9746  0.0993
 4094SOL    HW223916   2.222   4.586  11.815  0.4796  1.9334 -1.1804
 4095SOL     OW23917   3.497   2.137   7.381  0.1480 -0.0366  0.5424
 4095SOL    HW123918   3.570   2.172   7.330 -1.3330  0.2856 -1.3783
 4095SOL    HW223919   3.427   2.200   7.362  0.5491 -0.4171 -2.1528
 4096SOL     OW23920   3.835   3.188   5.600  0.4455 -0.0351  0.7373
 4096SOL    HW123921   3.915   3.233   5.629  1.0853  0.2019 -1.3307
 4096SOL    HW223922   3.843   3.108   5.650  0.3877 -1.5330 -1.6339
 4097SOL     OW23923   2.285   3.504   7.236 -0.5854  0.0430 -0.2363
 4097SOL    HW123924   2.295   3.409   7.241 -0.6145  0.0390 -0.2563
 4097SOL    HW223925   2.254   3.531   7.323 -2.4431  1.6072 -1.3749
 4098SOL     OW23926   1.437   4.507  10.249 -0.0799 -0.5728 -0.2471
 4098SOL    HW123927   1.350   4.488  10.215 -0.7483  2.1905 -0.0392
 4098SOL    HW223928   1.495   4.513  10.173  1.0865  1.1356  0.8010
 4099SOL     OW23929   0.125   3.766   3.981  0.1677  0.8680  0.6922
 4099SOL    HW123930   0.216   3.768   4.008  0.3437 -1.3927  0.2557
 4099SOL    HW223931   0.110   3.671   3.986  0.0175  0.7860 -1.3573
 4100SOL     OW23932   1.095   3.045   5.103  0.2112  0.0196 -0.9140
 4100SOL    HW123933   1.160   3.111   5.078  0.6264 -0.5597 -1.3854
 4100SOL    HW223934   1.020   3.085   5.060 -1.0275 -0.9790  0.2889
 4101SOL     OW23935   4.241   1.883  12.280 -0.2788  0.1597  0.1527
 4101SOL    HW123936   4.169   1.933  12.242 -1.4409 -0.8578  1.0364
 4101SOL    HW223937   4.307   1.899  12.211  0.8390  0.9904  1.4284
 4102SOL     OW23938   2.210   3.819   7.196 -0.6576 -0.1300 -0.5790
 4102SOL    HW123939   2.255   3.780   7.121  0.3316  0.2026 -0.1611
 4102SOL    HW223940   2.145   3.751   7.212 -1.4286  0.4469 -1.2576
 4103SOL     OW23941   4.129   3.896   8.169  0.1814  0.3152 -0.0025
 4103SOL    HW123942   4.166   3.808   8.175  2.6690  1.2945 -0.8981
 4103SOL    HW223943   4.036   3.885   8.190 -0.3303  1.3352 -1.7295
 4104SOL     OW23944   3.673   3.503   3.930  0.3815 -0.4007 -0.4647
 4104SOL    HW123945   3.579   3.506   3.948  0.5302 -1.0534  0.3871
 4104SOL    HW223946   3.705   3.449   4.002 -1.0590  1.0134  1.2243
 4105SOL     OW23947   1.724   1.571   5.016  0.3503  0.3360  0.3601
 4105SOL    HW123948   1.763   1.604   5.097 -0.7153 -0.4938  1.2143
 4105SOL    HW223949   1.803   1.573   4.961  1.6153  2.4565  2.2545
 4106SOL     OW23950   4.732   4.349   8.470 -0.4252 -0.7099  0.1883
 4106SOL    HW123951   0.090   4.359   8.476 -0.4931 -1.9727  3.4999
 4106SOL    HW223952   4.723   4.254   8.464 -0.3061 -0.6798 -0.4453
 4107SOL     OW23953   4.550   2.118   5.456 -0.6183  0.1415 -0.1137
 4107SOL    HW123954   4.569   2.209   5.434 -0.4540  0.3558  0.9225
 4107SOL    HW223955   4.458   2.113   5.433 -0.2996 -1.2994 -1.0334
 4108SOL     OW23956   4.076   4.468   9.371 -0.1160  0.2209  0.1999
 4108SOL    HW123957   4.108   4.490   9.284 -0.8718 -0.9966 -0.3914
 4108SOL    HW223958   4.079   4.372   9.367 -0.5971  0.1645  1.1039
 4109SOL     OW23959   3.067   1.549   6.735  0.1505  0.4560  0.2919
 4109SOL    HW123960   2.983   1.564   6.692  0.4128 -0.3081 -0.4736
 4109SOL    HW223961   3.044   1.591   6.818  3.1385  0.1447  1.2638
 4110SOL     OW23962   4.597   1.517   9.545 -0.0934 -0.0736  0.2762
 4110SOL    HW123963   4.505   1.498   9.529  1.0810 -3.0287 -2.9229
 4110SOL    HW223964   4.593   1.512   9.641  1.0639 -2.0626  0.2120
 4111SOL     OW23965   0.149   0.526   5.927 -0.1203 -0.3664 -0.1647
 4111SOL    HW123966   0.181   0.436   5.934 -0.1264 -0.1661  2.4713
 4111SOL    HW223967   0.061   0.511   5.891  0.6452 -0.7817 -1.8618
 4112SOL     OW23968   2.168   0.344   6.670 -0.3387 -0.6485 -0.6477
 4112SOL    HW123969   2.144   0.383   6.586  0.1407  1.8989  0.4125
 4112SOL    HW223970   2.201   0.419   6.719 -1.8592  0.9233 -2.0349
 4113SOL     OW23971   4.592   4.158   9.252 -0.0092 -0.0839  0.1175
 4113SOL    HW123972   4.653   4.231   9.240  1.8610 -1.5095  0.8218
 4113SOL    HW223973   4.556   4.176   9.338  0.3969 -1.6828  0.6346
 4114SOL     OW23974   4.250   0.540  13.561 -1.1211  0.9588 -0.0093
 4114SOL    HW123975   4.297   0.457  13.569 -1.0525  1.3081  2.9026
 4114SOL    HW223976   4.304   0.591  13.622 -0.1147  1.6840 -1.4842
 4115SOL     OW23977   2.629   4.414  10.560 -0.1093 -0.5527  0.3667
 4115SOL    HW123978   2.656   4.354  10.630  2.0025  0.0940  0.1356
 4115SOL    HW223979   2.718   4.430  10.527 -1.5711  2.5395 -2.0312
 4116SOL     OW23980   0.211   2.445   8.954 -0.7881  0.2147 -0.1382
 4116SOL    HW123981   0.163   2.377   9.002 -1.2009 -0.4610 -1.5057
 4116SOL    HW223982   0.299   2.409   8.950 -0.8022  0.3458 -1.7409
 4117SOL     OW23983   4.471   1.630   2.326 -0.1366  0.1362 -0.0110
 4117SOL    HW123984   4.435   1.718   2.319 -0.6487 -0.1189 -0.5627
 4117SOL    HW223985   4.500   1.622   2.417  0.5229  2.5061 -0.0268
 4118SOL     OW23986   0.968   1.689   8.495  0.3181 -0.2611  0.5728
 4118SOL    HW123987   0.980   1.780   8.523 -0.9514  0.0742  0.0533
 4118SOL    HW223988   0.873   1.674   8.497 -0.0659  1.6129 -2.2954
 4119SOL     OW23989   3.263   2.503   9.560  0.1640  0.0734  0.5653
 4119SOL    HW123990   3.227   2.544   9.481  0.0616 -1.3564 -0.1273
 4119SOL    HW223991   3.269   2.580   9.617  0.2652 -0.9408  1.9140
 4120SOL     OW23992   3.495   1.806   8.304  0.2012  0.2025  0.4582
 4120SOL    HW123993   3.500   1.721   8.349  1.1177  0.6217  1.1378
 4120SOL    HW223994   3.569   1.840   8.353 -0.7138  2.6163  0.1508
 4121SOL     OW23995   1.996   2.022   4.789 -0.7363 -0.5102 -0.0460
 4121SOL    HW123996   1.980   2.116   4.801  0.2557 -0.4430  0.8143
 4121SOL    HW223997   2.070   2.016   4.728 -0.1622  0.1868  0.5763
 4122SOL     OW23998   4.484   3.701  11.550 -0.1019  0.7927 -0.0314
 4122SOL    HW123999   4.519   3.786  11.578  0.4742 -0.0520  1.7825
 4122SOL    HW224000   4.513   3.695  11.459 -1.6016 -2.3333 -0.2919
 4123SOL     OW24001   0.020   3.631  14.781  0.6754  0.0104  0.1976
 4123SOL    HW124002   4.687   3.623  14.718 -0.3635 -1.5169  1.5764
 4123SOL    HW224003   4.736   3.713  14.827 -2.9866 -0.8495 -0.0112
 4124SOL     OW24004   0.512   4.429   7.308  0.3929 -0.3288  0.0236
 4124SOL    HW124005   0.479   4.384   7.386  0.9415  0.7338  0.8820
 4124SOL    HW224006   0.455   4.388   7.243 -2.7023  0.6580  2.0833
 4125SOL     OW24007   1.666   2.426  13.070 -0.3069  0.1125 -0.0515
 4125SOL    HW124008   1.610   2.445  13.145  2.8571  0.2778  2.2612
 4125SOL    HW224009   1.744   2.457  13.116 -0.7645 -0.4930  1.1341
 4126SOL     OW24010   3.898   4.130   6.837  0.5165  0.9472 -0.2402
 4126SOL    HW124011   3.955   4.195   6.797 -0.9504  1.3208 -1.7517
 4126SOL    HW224012   3.827   4.113   6.775 -0.6118  0.6649  1.1235
 4127SOL     OW24013   3.733   1.210   9.357 -0.0559  0.6019 -0.1062
 4127SOL    HW124014   3.795   1.176   9.420  0.2869  1.1128 -0.1698
 4127SOL    HW224015   3.723   1.298   9.393  0.3869  0.1335  1.1369
 4128SOL     OW24016   2.893   3.570   2.159 -0.1348  0.3755 -0.0091
 4128SOL    HW124017   2.897   3.627   2.083  2.8892  0.7618  0.4627
 4128SOL    HW224018   2.800   3.547   2.151  0.4848 -2.5317  0.9044
 4129SOL     OW24019   3.591   2.269  14.030 -0.4037  0.2493  0.3624
 4129SOL    HW124020   3.543   2.239  14.107 -0.9461 -1.3182 -0.5897
 4129SOL    HW224021   3.534   2.332  13.986  1.0185  1.0931 -0.2900
 4130SOL     OW24022   1.790   1.544  13.707 -0.4814  0.0050 -0.0661
 4130SOL    HW124023   1.787   1.618  13.768  0.8372  0.5485 -0.6795
 4130SOL    HW224024   1.715   1.501  13.750 -0.0186 -2.3217 -1.5840
 4131SOL     OW24025   0.184   2.529   6.799  0.1197 -0.0856  0.0637
 4131SOL    HW124026   0.165   2.543   6.706 -0.7496 -1.8040 -0.0360
 4131SOL    HW224027   0.269   2.569   6.813  0.5568 -1.4412  1.2392
 4132SOL     OW24028   0.219   1.937  14.061 -0.3524 -0.4060 -0.6528
 4132SOL    HW124029   0.163   1.863  14.037  0.0700 -1.5424  1.8476
 4132SOL    HW224030   0.182   1.965  14.144  2.8601 -1.4338  1.1448
 4133SOL     OW24031   2.542   2.333   0.721 -0.3825 -0.4078  0.4857
 4133SOL    HW124032   2.606   2.273   0.682 -0.1829 -0.2808  0.6215
 4133SOL    HW224033   2.583   2.355   0.805 -1.7557  0.6892  0.8675
 4134SOL     OW24034   2.116   1.300   2.473  0.0975  0.7143  0.1266
 4134SOL    HW124035   2.166   1.350   2.409 -0.3543 -0.9925 -1.5522
 4134SOL    HW224036   2.116   1.364   2.545 -0.0515  0.5770  0.2483
 4135SOL     OW24037   2.772   2.958   9.604  0.3003  0.1795  0.5666
 4135SOL    HW124038   2.720   2.878   9.605  0.2453  0.2142  0.4576
 4135SOL    HW224039   2.848   2.912   9.569 -0.3000 -0.4001  0.0251
 4136SOL     OW24040   0.402   1.840   8.493  0.4131  0.3772 -0.3829
 4136SOL    HW124041   0.406   1.936   8.496  0.9950  0.3095  1.3791
 4136SOL    HW224042   0.319   1.816   8.535  0.6252 -0.0466 -0.2046
 4137SOL     OW24043   1.519   1.108   5.742 -0.4795 -0.0570  0.1334
 4137SOL    HW124044   1.482   1.169   5.806 -0.1375  1.9788 -1.5953
 4137SOL    HW224045   1.490   1.020   5.766  2.2084 -0.6194  1.2703
 4138SOL     OW24046   1.812   1.396   1.802 -0.3218 -0.5213  0.4788
 4138SOL    HW124047   1.906   1.386   1.783 -0.3299  0.9935 -0.4040
 4138SOL    HW224048   1.798   1.485   1.770  0.9200 -0.5653 -0.2179
 4139SOL     OW24049   0.616   0.124   4.646 -0.0878  0.4123  0.0431
 4139SOL    HW124050   0.692   0.094   4.597 -0.8590 -1.2337 -0.1367
 4139SOL    HW224051   0.551   0.131   4.575  0.9214  1.9374 -0.7518
 4140SOL     OW24052   4.585   0.171   5.671 -0.5386 -0.0238 -0.0929
 4140SOL    HW124053   4.535   0.117   5.731  0.9818 -1.2897  0.0280
 4140SOL    HW224054   4.636   0.213   5.740 -0.1385  0.1305 -0.4803
 4141SOL     OW24055   2.259   3.192  16.030 -0.2999 -0.1438 -0.1844
 4141SOL    HW124056   2.235   3.285  16.034 -0.3788 -0.2897  2.7698
 4141SOL    HW224057   2.327   3.186  16.097  0.3055 -3.7888 -1.1476
 4142SOL     OW24058   1.044   0.119   3.818  0.4096 -0.2938  0.3449
 4142SOL    HW124059   1.081   0.062   3.886  3.2571  0.9763 -0.1849
 4142SOL    HW224060   1.115   0.182   3.815  1.9351 -1.9703  1.4094
 4143SOL     OW24061   2.092   0.179  11.161  0.5277  0.6608 -0.1925
 4143SOL    HW124062   2.166   0.172  11.222  0.0739  1.1482  0.4134
 4143SOL    HW224063   2.045   0.254  11.198  0.8818 -0.5876  2.8628
 4144SOL     OW24064   2.322   2.647   0.494 -0.1080  0.0437  0.4597
 4144SOL    HW124065   2.259   2.587   0.535  0.3849 -0.1385  0.9558
 4144SOL    HW224066   2.270   2.711   0.446  0.9555  0.6675  0.1407
 4145SOL     OW24067   2.905   1.016  14.594  0.6061 -0.5485 -0.4909
 4145SOL    HW124068   2.908   0.921  14.591  0.5284 -0.6951  3.4410
 4145SOL    HW224069   2.813   1.025  14.619  0.0702 -0.7490 -2.4571
 4146SOL     OW24070   0.757   0.694   9.069 -0.0757 -0.4339  0.1539
 4146SOL    HW124071   0.704   0.619   9.096 -0.2609 -0.8566 -1.4336
 4146SOL    HW224072   0.835   0.640   9.061 -0.7325 -1.1643 -1.3322
 4147SOL     OW24073   4.442   3.096   7.132 -0.7324  0.4725  0.8851
 4147SOL    HW124074   4.454   3.012   7.176 -2.6741  0.2309  0.9797
 4147SOL    HW224075   4.440   3.070   7.040  2.5307 -0.0552  0.9824
 4148SOL     OW24076   3.422   4.017  16.148  0.2575 -0.6243  0.8403
 4148SOL    HW124077   3.374   4.084  16.099 -2.5649 -1.7690  2.0080
 4148SOL    HW224078   3.396   4.025  16.240 -2.3846 -0.2507  0.0724
 4149SOL     OW24079   0.188   2.797  16.111  0.3425 -0.6281 -0.4675
 4149SOL    HW124080   0.131   2.756  16.176  3.0423 -1.0615  1.6234
 4149SOL    HW224081   0.230   2.868  16.159 -0.1581 -0.4880 -0.2299
 4150SOL     OW24082   1.410   4.055   7.923  0.0568  0.3580  1.0150
 4150SOL    HW124083   1.318   4.066   7.945 -0.4124  0.2603 -0.9217
 4150SOL    HW224084   1.407   3.960   7.907  2.1044  0.3372  0.7775
 4151SOL     OW24085   0.148   3.563   9.590  0.0098 -0.3603  0.5863
 4151SOL    HW124086   0.151   3.656   9.614  1.2548 -0.2908  0.1706
 4151SOL    HW224087   0.081   3.536   9.652  0.2716 -2.2161  0.0830
 4152SOL     OW24088   1.014   3.534   6.054 -0.0124  0.0945  0.2332
 4152SOL    HW124089   1.012   3.543   6.150  0.1429 -1.6691  0.4165
 4152SOL    HW224090   0.922   3.540   6.029 -0.0771  0.3338  0.5238
 4153SOL     OW24091   3.764   4.477   0.376  0.3477  0.3309  0.2562
 4153SOL    HW124092   3.752   4.558   0.327  1.7737  0.1132 -0.4381
 4153SOL    HW224093   3.846   4.440   0.345  1.0942  2.1971  0.0632
 4154SOL     OW24094   4.434   1.405  12.831 -0.0154  0.8012  0.0844
 4154SOL    HW124095   4.505   1.378  12.774  0.2232  0.6375  0.4584
 4154SOL    HW224096   4.472   1.472  12.888 -0.1454  0.5516  0.4645
 4155SOL     OW24097   2.227   4.206   6.826  0.9229 -0.0510 -0.0052
 4155SOL    HW124098   2.320   4.226   6.814  0.4009  0.3806 -3.2747
 4155SOL    HW224099   2.180   4.285   6.852  1.2170 -0.0334  0.4819
 4156SOL     OW24100   4.372   2.019   8.693  0.4767  0.2636  0.5085
 4156SOL    HW124101   4.351   1.974   8.611  1.6553  0.4879  0.0847
 4156SOL    HW224102   4.295   1.992   8.744 -0.0301  2.8614  1.0833
 4157SOL     OW24103   2.003   4.387   8.995  0.4179 -0.2510  0.1166
 4157SOL    HW124104   1.994   4.343   9.080 -2.0306 -0.5605 -0.3050
 4157SOL    HW224105   1.957   4.471   9.003 -1.1030 -0.9908 -0.8473
 4158SOL     OW24106   2.649   3.360   0.474 -0.3010  0.1130  0.3719
 4158SOL    HW124107   2.656   3.441   0.423 -0.0405  1.1666  2.0614
 4158SOL    HW224108   2.561   3.350   0.511 -1.8322  0.5062 -3.2120
 4159SOL     OW24109   0.764   2.980   5.233  0.0783 -0.0958  0.3696
 4159SOL    HW124110   0.844   3.033   5.243  0.0496  0.5022 -2.6583
 4159SOL    HW224111   0.769   2.946   5.144 -2.1093 -0.8026  0.5297
 4160SOL     OW24112   0.443   4.049  17.275 -0.4674  0.1295  0.1875
 4160SOL    HW124113   0.368   4.077  17.326 -0.9883  0.4613 -0.7563
 4160SOL    HW224114   0.483   4.131  17.245  1.1842  0.5787  3.6286
 4161SOL     OW24115   1.450   3.203  17.352 -0.1285 -0.1697  0.1999
 4161SOL    HW124116   1.397   3.214  17.431  0.6059 -0.4926  0.7309
 4161SOL    HW224117   1.447   3.108  17.340 -1.3572  0.1070 -1.8223
 4162SOL     OW24118   1.022   0.701   5.348  0.4750  0.4068 -0.2523
 4162SOL    HW124119   1.029   0.626   5.407  0.3374 -0.2196 -1.0169
 4162SOL    HW224120   1.047   0.664   5.263  1.8330  0.2343  0.2248
 4163SOL     OW24121   1.797   2.193   7.926  0.1576 -0.2190 -0.0849
 4163SOL    HW124122   1.752   2.108   7.924  1.6474 -0.9865 -0.6106
 4163SOL    HW224123   1.886   2.167   7.948  1.5185  2.4907 -2.5419
 4164SOL     OW24124   0.683   2.870   8.867 -0.0263 -0.7122 -0.0391
 4164SOL    HW124125   0.589   2.877   8.884 -0.4974 -1.8808 -2.2115
 4164SOL    HW224126   0.722   2.881   8.954 -0.9989 -0.9889  0.4325
 4165SOL     OW24127   3.780   0.737  17.298  0.5201  0.2509 -0.0803
 4165SOL    HW124128   3.720   0.663  17.291  0.0296  0.5488  0.9929
 4165SOL    HW224129   3.836   0.721  17.221 -1.8888 -1.5743 -1.4535
 4166SOL     OW24130   3.809   1.331   1.587  0.0820 -0.4204 -0.2445
 4166SOL    HW124131   3.885   1.385   1.608 -0.0760 -0.0221 -0.7023
 4166SOL    HW224132   3.854   1.262   1.538  0.7245 -0.2943  0.1687
 4167SOL     OW24133   4.019   1.259   0.039  0.4507  0.0411  0.0074
 4167SOL    HW124134   3.975   1.224  17.711 -1.2027  0.2264  0.8522
 4167SOL    HW224135   4.036   1.349   0.012 -0.2665 -0.3179 -1.6718
 4168SOL     OW24136   2.001   0.948  12.302 -0.5821 -0.0356 -0.1716
 4168SOL    HW124137   2.067   0.892  12.262  1.1161  0.7898  1.4492
 4168SOL    HW224138   1.996   0.910  12.390  2.8307 -1.1076 -0.4379
 4169SOL     OW24139   2.691   1.036   7.785  0.3539 -0.0826 -0.0356
 4169SOL    HW124140   2.650   1.121   7.771 -0.1316 -0.4946 -1.0411
 4169SOL    HW224141   2.612   0.983   7.784  0.5613 -0.3529 -1.0521
 4170SOL     OW24142   0.082   4.401   2.623 -0.1294 -0.4129  0.2057
 4170SOL    HW124143   0.019   4.469   2.649  1.0424  1.2370 -1.2134
 4170SOL    HW224144   0.109   4.441   2.540  2.0949 -0.8549  0.7364
 4171SOL     OW24145   2.781   4.460   2.062  0.3966  0.4287 -0.0338
 4171SOL    HW124146   2.855   4.443   2.004 -0.3839 -0.5829 -0.7396
 4171SOL    HW224147   2.812   4.457   2.153 -2.2724 -0.5203  0.8543
 4172SOL     OW24148   3.058   2.272  14.168  0.6147  0.0455  0.4103
 4172SOL    HW124149   3.144   2.307  14.143  0.9233 -0.9123  0.1368
 4172SOL    HW224150   3.037   2.204  14.103  0.6646 -0.5778  1.0521
 4173SOL     OW24151   0.155   1.399   8.156  0.8624 -0.3866 -0.0674
 4173SOL    HW124152   0.114   1.313   8.165 -0.0685  0.2138  1.2866
 4173SOL    HW224153   0.156   1.424   8.248 -1.2691 -2.6116  0.5641
 4174SOL     OW24154   2.468   1.413   4.273  0.1895  0.8566  0.6685
 4174SOL    HW124155   2.544   1.430   4.327  1.4987  1.6038 -1.4124
 4174SOL    HW224156   2.454   1.320   4.293  3.2014  0.3207  0.2314
 4175SOL     OW24157   2.151   0.103   3.807  0.1425  0.2049 -0.0737
 4175SOL    HW124158   2.221   0.037   3.806  0.5616  0.6234  1.5630
 4175SOL    HW224159   2.200   0.185   3.811  1.3300 -0.5115  0.1497
 4176SOL     OW24160   0.782   0.591   2.891 -0.1165 -0.7996  0.8567
 4176SOL    HW124161   0.767   0.684   2.905  0.2847 -0.6746  0.4676
 4176SOL    HW224162   0.875   0.588   2.868 -0.3073  1.0251 -0.1157
 4177SOL     OW24163   0.403   2.518   7.524  0.4365  0.3067  0.4565
 4177SOL    HW124164   0.325   2.526   7.470 -0.4637  0.6589  1.7999
 4177SOL    HW224165   0.382   2.592   7.581  1.1949 -0.5627  1.8554
 4178SOL     OW24166   4.000   2.852   5.246 -0.0129 -0.4154  0.1047
 4178SOL    HW124167   3.987   2.795   5.322 -1.9555 -0.3938 -0.2124
 4178SOL    HW224168   3.931   2.915   5.271 -0.0654 -0.3271 -0.2634
 4179SOL     OW24169   2.367   2.419   8.216 -0.1505 -0.4016 -0.0626
 4179SOL    HW124170   2.341   2.484   8.281  2.7855  0.8888 -0.1843
 4179SOL    HW224171   2.362   2.465   8.132  0.7038 -1.4338 -0.6832
 4180SOL     OW24172   2.327   1.870   1.836  0.5046  0.3973  0.3408
 4180SOL    HW124173   2.403   1.815   1.858  1.6217  0.7184 -2.6960
 4180SOL    HW224174   2.333   1.870   1.740  1.4064 -1.6528  0.3840
 4181SOL     OW24175   1.181   1.521   8.429  0.2326  0.1730  0.2082
 4181SOL    HW124176   1.110   1.582   8.450  0.2336 -0.3002  1.5928
 4181SOL    HW224177   1.171   1.454   8.496 -2.1916  0.7702  0.4228
 4182SOL     OW24178   2.622   3.811   6.817  0.4343  0.5130 -0.0787
 4182SOL    HW124179   2.531   3.796   6.842 -0.0401 -0.1101 -2.1585
 4182SOL    HW224180   2.651   3.884   6.872  0.6949 -0.4386  1.0471
 4183SOL     OW24181   2.723   2.955   5.736  0.5607  0.2790 -0.2468
 4183SOL    HW124182   2.649   2.980   5.791  1.6022  2.6338  0.0923
 4183SOL    HW224183   2.691   2.868   5.714  0.0137  0.7969 -1.5067
 4184SOL     OW24184   2.794   0.038  15.143  0.4056 -0.1374 -0.3480
 4184SOL    HW124185   2.783   0.095  15.219  0.7903  1.5925 -1.6012
 4184SOL    HW224186   2.840   0.097  15.084  0.3697 -0.2158 -0.4546
 4185SOL     OW24187   1.585   3.750   7.064 -0.7404  0.7917  0.2076
 4185SOL    HW124188   1.510   3.798   7.030 -0.4374  1.9685  1.2084
 4185SOL    HW224189   1.534   3.676   7.098  1.2603 -1.2523 -1.2164
 4186SOL     OW24190   3.774   0.134   4.628  0.5671 -0.7649 -0.1142
 4186SOL    HW124191   3.794   0.075   4.701 -0.2369  0.6620  1.2577
 4186SOL    HW224192   3.750   0.213   4.675 -1.1920 -0.6860 -1.1531
 4187SOL     OW24193   4.072   0.330  17.292  0.7368  0.1263  0.0046
 4187SOL    HW124194   4.091   0.251  17.242 -2.8994 -0.0435 -1.1107
 4187SOL    HW224195   4.085   0.302  17.383 -0.4212 -0.2539  0.0609
 4188SOL     OW24196   3.032   3.391   6.360  0.7241 -0.2656 -0.1138
 4188SOL    HW124197   2.973   3.445   6.412 -0.8467 -2.1508  0.0653
 4188SOL    HW224198   3.020   3.427   6.272  0.0813  0.9814  0.4877
 4189SOL     OW24199   1.274   2.608   8.603  0.0160 -0.2873  0.0157
 4189SOL    HW124200   1.238   2.606   8.514  0.5184 -0.8178 -0.1734
 4189SOL    HW224201   1.358   2.648   8.582 -0.9666  0.1739 -3.0007
 4190SOL     OW24202   2.331   2.925   4.294 -0.1396 -0.4400  0.1693
 4190SOL    HW124203   2.270   2.995   4.270 -1.2059 -1.4809 -0.1123
 4190SOL    HW224204   2.362   2.962   4.377  1.2278  0.8431 -0.9062
 4191SOL     OW24205   3.803   1.876  13.749  0.4292  0.0610  0.8248
 4191SOL    HW124206   3.836   1.789  13.774 -3.0342 -1.2139  1.0054
 4191SOL    HW224207   3.776   1.904  13.836 -2.2845  1.3822 -0.4426
 4192SOL     OW24208   1.929   3.996   6.321 -0.7611  0.3209 -0.3932
 4192SOL    HW124209   1.918   4.053   6.245  0.6743  0.9834 -0.0876
 4192SOL    HW224210   2.002   4.035   6.368 -0.5186 -0.0739 -0.4445
 4193SOL     OW24211   2.956   1.309   9.420 -0.3524 -0.3573 -0.2398
 4193SOL    HW124212   3.040   1.355   9.417  0.1111 -1.1920 -0.0957
 4193SOL    HW224213   2.907   1.354   9.350 -0.0815  2.6509  1.4751
 4194SOL     OW24214   3.261   0.091   3.891  0.6104  0.2938  0.3998
 4194SOL    HW124215   3.351   0.104   3.921  0.5800  0.6532  0.3332
 4194SOL    HW224216   3.263   0.132   3.804  2.9132  1.8691  1.1912
 4195SOL     OW24217   2.129   3.685   5.736  0.4265 -0.4012 -0.3492
 4195SOL    HW124218   2.034   3.673   5.732  0.0821  2.8908 -2.0704
 4195SOL    HW224219   2.163   3.598   5.758  2.6390  0.0074 -2.1582
 4196SOL     OW24220   0.176   3.845   7.423 -0.1102  0.2582  0.1465
 4196SOL    HW124221   0.124   3.847   7.504 -0.0981  0.7920  0.1447
 4196SOL    HW224222   0.143   3.771   7.373  2.2064 -1.0358  0.5466
 4197SOL     OW24223   0.984   3.596   5.352  0.2623  0.5270 -0.3500
 4197SOL    HW124224   0.910   3.646   5.388 -1.1193 -0.0401 -2.3806
 4197SOL    HW224225   0.937   3.547   5.284 -0.1283  0.2898  0.0974
 4198SOL     OW24226   2.556   3.829   7.629  0.7814 -0.7670  0.6108
 4198SOL    HW124227   2.577   3.786   7.712 -0.0635  1.1012  1.7798
 4198SOL    HW224228   2.463   3.834   7.652  0.3398 -0.8010 -1.1536
 4199SOL     OW24229   3.700   0.216  14.437 -0.3815 -0.1172 -0.1895
 4199SOL    HW124230   3.719   0.144  14.497  1.2169  1.6601  1.4203
 4199SOL    HW224231   3.725   0.172  14.355  3.1914  0.1921  0.7400
 4200SOL     OW24232   1.152   1.802   7.765  0.1981  0.0266 -0.0029
 4200SOL    HW124233   1.185   1.773   7.850  0.4768 -0.4305 -0.2726
 4200SOL    HW224234   1.063   1.767   7.766 -0.3524  1.3676 -1.5009
 4201SOL     OW24235   3.553   3.165   5.171 -0.4909  0.5412  0.4657
 4201SOL    HW124236   3.577   3.228   5.239  0.2543 -0.8351  1.4667
 4201SOL    HW224237   3.522   3.086   5.213 -0.4553 -1.1516 -2.7012
 4202SOL     OW24238   0.992   0.167   8.763 -0.3367 -0.4103 -0.2576
 4202SOL    HW124239   1.052   0.203   8.829 -1.7266 -0.2867  0.9526
 4202SOL    HW224240   0.978   0.083   8.808 -1.8990 -1.4864 -2.7827
 4203SOL     OW24241   2.290   2.268   8.528 -0.8620 -0.0791 -0.4183
 4203SOL    HW124242   2.294   2.182   8.571  0.7073 -0.4703 -1.3394
 4203SOL    HW224243   2.350   2.252   8.456  0.1748  1.7113  0.0473
 4204SOL     OW24244   0.403   3.455  10.218 -0.2638 -0.3278  0.2392
 4204SOL    HW124245   0.316   3.435  10.252 -0.2459 -1.4686 -0.4061
 4204SOL    HW224246   0.443   3.370  10.200  1.0003  0.3653 -0.2686
 4205SOL     OW24247   3.239   4.545   1.680 -0.0795  0.7774  0.3894
 4205SOL    HW124248   3.194   4.461   1.676 -2.4735  2.0653  0.3574
 4205SOL    HW224249   3.172   4.604   1.645  0.2546  0.9272  0.0029
 4206SOL     OW24250   0.372   0.859   7.329 -0.2838 -0.0418  0.1728
 4206SOL    HW124251   0.282   0.830   7.341  0.4666 -1.9041  1.3623
 4206SOL    HW224252   0.362   0.935   7.272 -0.7591 -2.8164 -3.4299
 4207SOL     OW24253   2.986   4.231  16.763 -0.2211  0.0327 -0.2263
 4207SOL    HW124254   3.006   4.141  16.786  0.8310  0.6667  1.3694
 4207SOL    HW224255   3.025   4.242  16.676 -1.2429  0.0425 -0.6891
 4208SOL     OW24256   0.591   0.106   6.133 -0.4990 -0.5181 -0.5962
 4208SOL    HW124257   0.609   0.088   6.226 -1.0439 -2.2802 -0.8371
 4208SOL    HW224258   0.496   0.104   6.130 -0.4651 -3.6717  0.6784
 4209SOL     OW24259   0.082   2.397   8.458 -0.2005 -0.0671  0.3296
 4209SOL    HW124260   0.106   2.313   8.497 -0.7235 -0.3418  0.0575
 4209SOL    HW224261   0.008   2.368   8.405 -2.0586  3.0421  1.2262
 4210SOL     OW24262   2.513   3.532   6.365  0.0960 -0.1217  0.1068
 4210SOL    HW124263   2.581   3.483   6.317 -0.9500 -1.2006 -0.2665
 4210SOL    HW224264   2.477   3.465   6.423  0.6308 -0.4923  0.0166
 4211SOL     OW24265   3.141   0.678   8.873  0.1219  0.2773 -0.0133
 4211SOL    HW124266   3.224   0.707   8.911  0.8040 -2.8392  0.8655
 4211SOL    HW224267   3.142   0.740   8.800 -3.2775  1.9644  1.3856
 4212SOL     OW24268   1.552   0.005   1.117 -0.8802  0.4967 -0.4804
 4212SOL    HW124269   1.581   0.083   1.164 -0.2491  0.8314 -1.4240
 4212SOL    HW224270   1.580   0.022   1.027  0.1524 -2.1524 -0.6540
 4213SOL     OW24271   4.054   3.621   9.307 -0.3337 -0.2998 -0.6770
 4213SOL    HW124272   4.090   3.622   9.396 -3.5555 -1.9323  0.6529
 4213SOL    HW224273   3.965   3.601   9.336  0.4116 -3.4465 -0.5709
 4214SOL     OW24274   4.450   3.651   9.535 -0.2956 -0.1901 -0.2881
 4214SOL    HW124275   4.501   3.731   9.520  0.5822 -0.8942 -1.0783
 4214SOL    HW224276   4.500   3.634   9.616 -0.2913  1.0310 -0.0366
 4215SOL     OW24277   4.679   3.404   7.400  0.3298 -0.4292  0.5023
 4215SOL    HW124278   4.701   3.333   7.340 -0.8903 -0.4164  0.0550
 4215SOL    HW224279   4.599   3.445   7.368  0.1554  0.6540  2.3237
 4216SOL     OW24280   0.151   2.725   4.824  0.0450  0.3598  0.5786
 4216SOL    HW124281   0.090   2.663   4.864 -0.1262  0.2553  0.1532
 4216SOL    HW224282   0.197   2.753   4.903 -0.0508 -0.3946  0.8948
 4217SOL     OW24283   0.083   0.104   3.621 -0.2972 -0.4783 -0.0761
 4217SOL    HW124284   0.173   0.093   3.591  0.3959 -1.6339  2.4189
 4217SOL    HW224285   0.043   0.025   3.584 -1.1332  0.0146 -0.2298
 4218SOL     OW24286   1.875   2.744  16.078 -0.2605  0.2466  0.4583
 4218SOL    HW124287   1.941   2.788  16.024 -0.7488  0.1034 -0.2542
 4218SOL    HW224288   1.798   2.734  16.023  1.5690 -2.5288 -1.5922
 4219SOL     OW24289   3.607   4.356   3.520 -0.0152  0.0902 -0.4562
 4219SOL    HW124290   3.591   4.300   3.596 -3.2093  0.2538 -0.9927
 4219SOL    HW224291   3.517   4.373   3.490 -1.0363 -0.1778  2.4880
 4220SOL     OW24292   0.951   2.432   1.998  0.5438 -0.0761  0.1606
 4220SOL    HW124293   0.920   2.522   1.991  1.5183  0.0794 -2.1223
 4220SOL    HW224294   0.890   2.391   2.059  0.5048  0.0916  0.2341
 4221SOL     OW24295   0.236   3.958   7.127  0.0203 -0.3723  0.0875
 4221SOL    HW124296   0.238   3.922   7.216 -2.2990  1.1323  0.7490
 4221SOL    HW224297   0.200   4.046   7.129 -2.1091 -1.2894  2.6453
 4222SOL     OW24298   1.921   1.878  15.752 -0.2121  0.1642 -0.0995
 4222SOL    HW124299   1.879   1.811  15.698 -0.2865 -0.6669  0.9940
 4222SOL    HW224300   1.958   1.831  15.826  0.4431 -0.1878 -0.6529
 4223SOL     OW24301   3.431   2.131  14.434 -0.6785  0.1462  0.1424
 4223SOL    HW124302   3.505   2.117  14.494 -1.1775 -0.9249  0.5038
 4223SOL    HW224303   3.374   2.058  14.456 -0.3694  0.4428  1.9834
 4224SOL     OW24304   3.466   3.531   8.226  0.4819  0.4540 -0.2470
 4224SOL    HW124305   3.447   3.438   8.235 -0.9044  1.0058  2.7942
 4224SOL    HW224306   3.536   3.531   8.291 -0.3849 -2.4323  0.6685
 4225SOL     OW24307   1.190   3.859  11.981 -0.0684  0.3838 -0.3178
 4225SOL    HW124308   1.230   3.865  11.894 -2.2424  0.4697 -1.2981
 4225SOL    HW224309   1.217   3.946  12.012 -0.1920  0.3021  0.0148
 4226SOL     OW24310   4.627   1.480   6.230  0.5813 -0.1398 -0.8511
 4226SOL    HW124311   4.576   1.400   6.234  2.4419 -1.3559 -1.1591
 4226SOL    HW224312   4.714   1.440   6.234  0.9451  0.6446 -0.8250
 4227SOL     OW24313   1.557   4.559   2.337  0.2781  0.4571 -0.2577
 4227SOL    HW124314   1.461   4.555   2.342  0.3533  0.5163  1.4145
 4227SOL    HW224315   1.567   4.495   2.267 -1.8213  1.3981 -1.4408
 4228SOL     OW24316   1.668   1.593  15.383  0.3465  0.3408 -0.6049
 4228SOL    HW124317   1.606   1.526  15.412  1.5592 -1.1252 -1.3936
 4228SOL    HW224318   1.640   1.598  15.291  3.6734 -1.5546 -1.7007
 4229SOL     OW24319   2.334   1.094   4.101  0.2545 -0.5461 -0.7213
 4229SOL    HW124320   2.356   1.108   4.009 -0.3089  0.3648 -0.7216
 4229SOL    HW224321   2.422   1.073   4.130 -0.3214 -1.0607  0.6835
 4230SOL     OW24322   3.062   1.530  11.306  0.2603 -0.3029  0.6286
 4230SOL    HW124323   3.008   1.601  11.338 -3.3583 -2.7012 -0.1824
 4230SOL    HW224324   3.083   1.564  11.219  1.6993 -1.6840  0.4272
 4231SOL     OW24325   1.142   0.020  13.900 -0.3467  0.5100  0.0005
 4231SOL    HW124326   1.104   4.727  13.983 -0.5605  0.9374  0.0584
 4231SOL    HW224327   1.062   0.024  13.848  0.5690  1.0863 -1.3477
 4232SOL     OW24328   1.876   4.058   4.877  0.4146 -0.4781 -0.5079
 4232SOL    HW124329   1.829   4.126   4.925 -1.0994 -1.9504  0.0806
 4232SOL    HW224330   1.801   4.018   4.832 -1.2939 -3.0176  4.6186
 4233SOL     OW24331   0.364   1.722   6.343  0.1336 -0.0942 -0.0350
 4233SOL    HW124332   0.323   1.763   6.419 -2.0707  1.0464 -1.8507
 4233SOL    HW224333   0.320   1.769   6.272  1.3846 -0.2572 -0.9241
 4234SOL     OW24334   3.335   0.310  16.239 -0.6553  0.3515 -0.7457
 4234SOL    HW124335   3.294   0.224  16.248 -1.4667  0.5687 -2.4201
 4234SOL    HW224336   3.302   0.347  16.321  1.1023 -0.5822  0.3991
 4235SOL     OW24337   4.369   3.039   3.023 -0.1627 -0.2197  0.4543
 4235SOL    HW124338   4.325   3.120   2.996 -0.6819 -0.7687 -0.3428
 4235SOL    HW224339   4.295   2.979   3.014 -0.1547 -0.2508  0.6003
 4236SOL     OW24340   0.224   3.401   1.775  0.5467  0.7722 -0.0407
 4236SOL    HW124341   0.174   3.447   1.843 -0.7182 -0.2405 -0.2732
 4236SOL    HW224342   0.279   3.356   1.838  0.6526  1.1853  0.1594
 4237SOL     OW24343   0.079   3.066  14.038 -0.6101  0.1683 -0.4800
 4237SOL    HW124344   0.085   2.972  14.052  0.9842  0.8534  3.3581
 4237SOL    HW224345   0.025   3.095  14.111  0.6045 -2.2298  1.3574
 4238SOL     OW24346   1.793   1.235   8.221  0.1027  0.0964 -0.7251
 4238SOL    HW124347   1.872   1.290   8.222  0.5536 -0.5565 -0.1156
 4238SOL    HW224348   1.773   1.264   8.132 -2.5413  1.4630  0.3159
 4239SOL     OW24349   1.188   0.897   8.981 -0.7591 -0.6902  0.2705
 4239SOL    HW124350   1.100   0.919   8.952 -0.0760  3.9839  1.7473
 4239SOL    HW224351   1.183   0.806   8.952 -1.8355  0.6231 -3.7050
 4240SOL     OW24352   3.358   4.289   3.378 -0.2037 -0.3255  0.2374
 4240SOL    HW124353   3.298   4.289   3.452 -0.3855 -1.1658  0.0887
 4240SOL    HW224354   3.321   4.356   3.320  2.0365 -1.5331 -2.5818
 4241SOL     OW24355   4.592   3.491   5.250 -0.5386 -0.2226  0.3584
 4241SOL    HW124356   4.569   3.417   5.195  0.1552  0.9315 -1.5060
 4241SOL    HW224357   4.573   3.450   5.335  0.1341  0.9258  1.0664
 4242SOL     OW24358   4.483   1.143  16.919 -0.0012  0.1020 -0.1705
 4242SOL    HW124359   4.463   1.141  16.826 -2.1263 -0.8841  0.3123
 4242SOL    HW224360   4.572   1.109  16.926 -1.3114 -3.0786  1.0221
 4243SOL     OW24361   1.298   0.142   5.954  0.0696  0.2025 -0.0787
 4243SOL    HW124362   1.220   0.089   5.967  1.6220 -1.9863  0.4556
 4243SOL    HW224363   1.356   0.078   5.912  0.1516  0.5070 -0.4299
 4244SOL     OW24364   0.711   2.274   2.581 -0.2405 -0.2978 -0.2446
 4244SOL    HW124365   0.683   2.195   2.534 -0.8778  0.7267 -1.5830
 4244SOL    HW224366   0.771   2.317   2.521 -2.0717 -0.3311 -2.0883
 4245SOL     OW24367   1.392   0.619   3.474  0.2181  0.2460  0.5873
 4245SOL    HW124368   1.423   0.692   3.527 -2.2903  1.9002 -0.2581
 4245SOL    HW224369   1.462   0.605   3.410 -0.3441  3.1746 -0.6502
 4246SOL     OW24370   0.719   2.530  15.002 -0.3072 -0.4189  0.4015
 4246SOL    HW124371   0.712   2.435  14.995 -0.2755 -0.5687  2.4915
 4246SOL    HW224372   0.632   2.561  14.978 -0.1859  0.0852  0.6192
 4247SOL     OW24373   1.802   1.967  10.226  0.0178 -0.1935 -0.2083
 4247SOL    HW124374   1.768   2.012  10.149 -1.2401  0.0402  0.4821
 4247SOL    HW224375   1.820   1.884  10.181 -1.0356 -0.9742  0.8239
 4248SOL     OW24376   1.470   0.583   1.461 -0.2911  0.6644  0.3038
 4248SOL    HW124377   1.455   0.587   1.555  1.0645 -4.0201  0.6912
 4248SOL    HW224378   1.524   0.659   1.440 -1.5863  1.0083 -1.7770
 4249SOL     OW24379   0.525   1.076   1.875  0.3295 -0.1354 -0.5414
 4249SOL    HW124380   0.511   1.125   1.794  1.6089 -0.4274 -0.9383
 4249SOL    HW224381   0.488   1.134   1.942  3.7506  3.2161 -1.5241
 4250SOL     OW24382   0.679   2.371  12.151 -0.3450 -0.0134 -0.2935
 4250SOL    HW124383   0.631   2.312  12.210 -3.0439  2.3223 -0.1330
 4250SOL    HW224384   0.693   2.320  12.071  1.0202  0.6897 -0.4956
 4251SOL     OW24385   3.359   4.529  10.981  0.6097  0.0062  0.6637
 4251SOL    HW124386   3.429   4.548  10.918 -0.0599 -2.1121 -0.7336
 4251SOL    HW224387   3.311   4.465  10.929  0.6019 -0.2938  1.0449
 4252SOL     OW24388   2.271   0.978   4.732  0.0677 -0.1203 -0.3862
 4252SOL    HW124389   2.223   0.982   4.815 -1.0130 -2.9323 -0.8994
 4252SOL    HW224390   2.324   0.899   4.748  2.2581  1.0640 -1.7271
 4253SOL     OW24391   0.716   0.396   4.923  0.2104  0.3013 -0.1499
 4253SOL    HW124392   0.804   0.358   4.924 -0.0809 -0.4143 -1.5772
 4253SOL    HW224393   0.669   0.333   4.977  2.2701 -1.5533 -0.4919
 4254SOL     OW24394   2.336   2.714   7.616 -0.2387 -0.2991 -0.3036
 4254SOL    HW124395   2.420   2.741   7.579 -0.5665 -0.0752 -0.8785
 4254SOL    HW224396   2.306   2.647   7.555 -0.2215 -1.1379  0.5989
 4255SOL     OW24397   1.936   1.996  13.136 -0.3712 -0.1250 -0.0226
 4255SOL    HW124398   1.880   2.057  13.185  1.1503  1.6733 -0.5213
 4255SOL    HW224399   1.976   1.940  13.202  1.2486  0.5052 -0.4905
 4256SOL     OW24400   4.390   2.541   2.936  0.3997 -0.3095  0.0124
 4256SOL    HW124401   4.382   2.634   2.912 -1.3616 -0.1926  1.0171
 4256SOL    HW224402   4.324   2.535   3.005 -1.6152 -2.5388 -2.1529
 4257SOL     OW24403   4.721   0.413   8.594 -0.6404 -0.2297  0.1123
 4257SOL    HW124404   4.716   0.322   8.567 -3.4394  0.1666 -0.6604
 4257SOL    HW224405   0.002   0.453   8.509  3.3847 -2.1428  0.0897
 4258SOL     OW24406   2.234   2.314   3.623  0.1359  0.4144  0.2690
 4258SOL    HW124407   2.160   2.309   3.683 -1.4119 -0.7109 -1.7484
 4258SOL    HW224408   2.300   2.318   3.692  0.6434 -3.5817  0.0242
 4259SOL     OW24409   2.125   1.315   3.270 -0.1535 -0.1739  0.3984
 4259SOL    HW124410   2.124   1.323   3.174 -1.0270 -1.0690  0.3402
 4259SOL    HW224411   2.035   1.290   3.289  0.3535 -1.0377  1.6465
 4260SOL     OW24412   3.819   4.170   7.468  0.2641 -0.0059 -0.4179
 4260SOL    HW124413   3.864   4.119   7.536 -1.1332  2.0378  2.0362
 4260SOL    HW224414   3.856   4.258   7.482  0.1073  0.0014 -0.0380
 4261SOL     OW24415   2.428   4.476   1.526 -0.0879 -0.5245 -0.2982
 4261SOL    HW124416   2.521   4.495   1.533  0.1684 -1.6089 -0.6760
 4261SOL    HW224417   2.389   4.546   1.578 -0.0395 -1.4072  0.9294
 4262SOL     OW24418   0.928   4.426   3.877  0.1796 -0.5438  0.0550
 4262SOL    HW124419   0.902   4.490   3.943 -2.5929 -0.5852 -1.0255
 4262SOL    HW224420   0.901   4.345   3.919 -0.0477 -0.7894 -0.5754
 4263SOL     OW24421   3.527   2.920   6.719 -0.5019 -0.5565  0.5263
 4263SOL    HW124422   3.486   2.866   6.787 -4.1703  2.5532  0.7941
 4263SOL    HW224423   3.488   2.878   6.643 -4.2587  0.2755  1.9842
 4264SOL     OW24424   3.322   0.091   8.543  0.1246 -0.2037 -0.0357
 4264SOL    HW124425   3.260   0.049   8.603  0.0635  0.5288  0.4109
 4264SOL    HW224426   3.279   0.067   8.461  1.4566  0.1631 -0.8404
 4265SOL     OW24427   1.501   4.606   1.978  0.3584  0.0282  0.1169
 4265SOL    HW124428   1.419   4.631   1.934 -0.5655  1.0397  2.4366
 4265SOL    HW224429   1.545   4.689   1.995 -0.8603  0.6314  0.3424
 4266SOL     OW24430   3.607   0.699   8.931  0.6488  0.0636  0.0162
 4266SOL    HW124431   3.670   0.769   8.914 -1.4814  2.0141  0.2173
 4266SOL    HW224432   3.650   0.624   8.890 -1.7324 -1.6313  0.6388
 4267SOL     OW24433   0.892   3.472   9.682  0.0359 -0.0616 -0.6316
 4267SOL    HW124434   0.877   3.513   9.597  1.2814 -0.4072 -1.0195
 4267SOL    HW224435   0.986   3.454   9.674 -0.3213 -1.1820 -2.2943
 4268SOL     OW24436   3.111   3.429  16.441  0.0840 -0.1704  0.0427
 4268SOL    HW124437   3.068   3.494  16.496 -1.6463  0.1266 -1.6830
 4268SOL    HW224438   3.048   3.423  16.369  0.3844 -1.4104 -0.1073
 4269SOL     OW24439   1.751   3.905   7.900  0.2270  0.5683  0.3753
 4269SOL    HW124440   1.733   3.999   7.908 -2.0056  0.2116 -0.6194
 4269SOL    HW224441   1.688   3.878   7.834 -0.3801 -1.1739  1.6780
 4270SOL     OW24442   3.707   2.773   5.904 -0.6652  0.1798  0.2934
 4270SOL    HW124443   3.736   2.714   5.834 -0.0106 -1.1236  1.6619
 4270SOL    HW224444   3.753   2.715   5.965 -2.3248  1.4014  2.6752
 4271SOL     OW24445   4.428   4.369  16.363  0.0824 -0.3609  0.2387
 4271SOL    HW124446   4.352   4.425  16.380  1.6891  1.3622  1.7089
 4271SOL    HW224447   4.497   4.433  16.378  2.1510 -2.9494  1.6596
 4272SOL     OW24448   4.689   4.261   6.132 -0.0790  0.1257  0.1193
 4272SOL    HW124449   4.677   4.167   6.134 -0.1202  0.1540  1.5440
 4272SOL    HW224450   4.615   4.299   6.178  0.4720 -1.0181  1.9421
 4273SOL     OW24451   1.260   4.136  14.051  0.7910 -0.7806  0.0348
 4273SOL    HW124452   1.207   4.151  14.130 -0.8778  0.0191 -1.2365
 4273SOL    HW224453   1.312   4.216  14.055 -0.0532 -0.2464  0.4775
 4274SOL     OW24454   1.774   1.506   7.683 -0.4196  0.2517 -0.0895
 4274SOL    HW124455   1.778   1.414   7.657  0.8085  0.4451 -0.5711
 4274SOL    HW224456   1.718   1.542   7.614  0.7083  2.4092  0.1084
 4275SOL     OW24457   2.516   0.599   8.910 -0.2082  0.5949 -0.1398
 4275SOL    HW124458   2.488   0.671   8.852 -2.0870 -0.2979 -0.3513
 4275SOL    HW224459   2.533   0.646   8.991  2.0078  0.7073 -0.6826
 4276SOL     OW24460   2.695   4.386   5.351 -0.1588 -0.1138 -0.6785
 4276SOL    HW124461   2.694   4.332   5.272 -0.9916 -1.4586  0.2509
 4276SOL    HW224462   2.702   4.315   5.414  1.7717 -0.0644 -0.8467
 4277SOL     OW24463   2.633   2.738  10.567  0.0231 -0.5472  0.1673
 4277SOL    HW124464   2.543   2.707  10.580 -0.5805  0.6052 -1.2818
 4277SOL    HW224465   2.662   2.736  10.658 -0.4376 -2.3768  0.2724
 4278SOL     OW24466   1.748   1.382   7.976 -0.1002 -0.2326  0.3496
 4278SOL    HW124467   1.673   1.327   7.954 -0.4210  0.8565 -1.2525
 4278SOL    HW224468   1.767   1.431   7.897 -3.2659 -0.6464 -0.6350
 4279SOL     OW24469   0.872   2.046  16.711 -0.6610 -0.4728  0.2903
 4279SOL    HW124470   0.870   2.090  16.796 -0.4214  0.6000 -0.2608
 4279SOL    HW224471   0.965   2.022  16.711  0.3279  3.3559  1.4057
 4280SOL     OW24472   2.263   0.709   7.613  0.0572 -0.0901 -0.4326
 4280SOL    HW124473   2.208   0.718   7.692  1.5032  1.3697  0.4099
 4280SOL    HW224474   2.289   0.618   7.615 -0.9722 -0.3745  0.2488
 4281SOL     OW24475   3.442   0.703   5.619 -0.0951 -0.9070  0.2349
 4281SOL    HW124476   3.474   0.767   5.683 -2.5470 -0.6564  1.2059
 4281SOL    HW224477   3.380   0.754   5.568 -0.1063  0.3610  1.5107
 4282SOL     OW24478   2.208   2.895   2.600 -0.1960  0.3722 -0.6022
 4282SOL    HW124479   2.298   2.914   2.573  0.2156 -0.4081  0.2239
 4282SOL    HW224480   2.181   2.985   2.581 -2.6621 -0.4416 -0.9913
 4283SOL     OW24481   2.655   0.965   6.028 -0.4638  0.0202  0.4770
 4283SOL    HW124482   2.667   1.059   6.018 -1.9989  0.1380 -0.3318
 4283SOL    HW224483   2.747   0.942   6.020 -0.7562 -1.1706  0.5072
 4284SOL     OW24484   4.070   1.413   5.503  0.5367  0.0066  0.2557
 4284SOL    HW124485   4.162   1.414   5.528  0.6162 -1.1720  0.0118
 4284SOL    HW224486   4.049   1.320   5.499  4.1937 -0.7646 -0.7137
 4285SOL     OW24487   4.203   3.229   6.378 -0.0253  0.7912 -0.0038
 4285SOL    HW124488   4.187   3.141   6.411  1.2839 -0.1796 -1.9438
 4285SOL    HW224489   4.116   3.268   6.379 -0.4761 -0.1794 -2.0835
 4286SOL     OW24490   2.342   4.221   9.305  0.5311  0.2693  0.7192
 4286SOL    HW124491   2.434   4.196   9.299  0.8596  2.2055 -2.4043
 4286SOL    HW224492   2.301   4.141   9.272  0.3359  0.6345  0.0878
 4287SOL     OW24493   1.677   0.278   3.611  0.1009 -0.3492  0.2782
 4287SOL    HW124494   1.694   0.189   3.578  0.7407 -0.6337  1.3947
 4287SOL    HW224495   1.764   0.319   3.605 -0.5020  0.9659  0.6237
 4288SOL     OW24496   2.773   3.451   9.849  0.2524  0.7798  0.2503
 4288SOL    HW124497   2.780   3.380   9.786 -0.3882  0.4139  0.5942
 4288SOL    HW224498   2.844   3.507   9.816 -0.5963  0.3193 -2.2786
 4289SOL     OW24499   0.105   0.822   7.344 -0.4915 -0.9035 -0.3594
 4289SOL    HW124500   0.045   0.749   7.362  0.1578 -0.9489  1.5766
 4289SOL    HW224501   0.053   0.902   7.342 -0.9984 -1.2420 -0.7210
 4290SOL     OW24502   1.689   4.452   1.014 -0.4612  0.0474  0.5876
 4290SOL    HW124503   1.596   4.449   1.038 -0.5342 -2.9208 -0.1488
 4290SOL    HW224504   1.690   4.451   0.918 -0.3902  0.8839  0.5739
 4291SOL     OW24505   1.458   1.312   5.930  0.4279  0.6509  0.1095
 4291SOL    HW124506   1.499   1.290   6.014  0.8370  1.3715  0.0923
 4291SOL    HW224507   1.475   1.404   5.910  1.9663 -0.0022 -1.6343
 4292SOL     OW24508   3.647   2.580   7.791 -0.4078  0.1707 -0.3927
 4292SOL    HW124509   3.721   2.551   7.845  0.4461  0.2304 -1.5357
 4292SOL    HW224510   3.695   2.594   7.709 -0.5318  0.3641 -0.4322
 4293SOL     OW24511   3.894   1.833   8.653 -0.6168  0.1373  0.2082
 4293SOL    HW124512   3.987   1.829   8.631 -0.8381  0.9715 -0.9208
 4293SOL    HW224513   3.894   1.751   8.702 -0.6192  0.5326  0.8669
 4294SOL     OW24514   1.856   0.143   6.344 -0.0573 -0.0755 -0.1182
 4294SOL    HW124515   1.836   0.180   6.430 -1.6043 -1.0356 -0.0642
 4294SOL    HW224516   1.807   0.203   6.289  0.9325 -0.4812 -1.4475
 4295SOL     OW24517   1.755   3.887   2.585  0.5265  0.5660  0.4135
 4295SOL    HW124518   1.719   3.975   2.591 -0.9473  0.0337 -0.4107
 4295SOL    HW224519   1.752   3.863   2.678  0.8566 -0.8257  0.0619
 4296SOL     OW24520   4.592   0.648   1.020 -0.4625 -0.8350  0.0099
 4296SOL    HW124521   4.680   0.678   0.997 -0.8353 -1.9746 -2.8532
 4296SOL    HW224522   4.580   0.674   1.111 -2.0691 -1.0096 -0.1521
 4297SOL     OW24523   2.392   3.591   7.697 -0.0249 -0.2326  0.1974
 4297SOL    HW124524   2.445   3.558   7.624  0.2175  0.8621 -0.1214
 4297SOL    HW224525   2.308   3.593   7.651 -0.8628 -0.8527  1.6855
 4298SOL     OW24526   4.088   1.548   2.125  0.3693 -0.3091 -0.1455
 4298SOL    HW124527   4.077   1.470   2.179  1.7040 -0.1157  0.3982
 4298SOL    HW224528   4.046   1.518   2.044 -1.5074  0.5455  0.4932
 4299SOL     OW24529   4.077   1.322   4.347  0.2159 -0.2080 -0.0476
 4299SOL    HW124530   4.091   1.335   4.440  0.1221  1.1922 -0.2305
 4299SOL    HW224531   4.145   1.256   4.330  1.0929  0.5908  0.3881
 4300SOL     OW24532   2.404   3.707   2.862 -0.3511  0.3601  0.4465
 4300SOL    HW124533   2.345   3.782   2.869  0.3985  1.1170 -1.2555
 4300SOL    HW224534   2.417   3.700   2.767 -0.7388 -1.3927  0.5119
 4301SOL     OW24535   2.593   2.213   2.920  0.6684 -0.1661  0.5425
 4301SOL    HW124536   2.521   2.222   2.857  0.5439  0.9580  0.8484
 4301SOL    HW224537   2.660   2.189   2.855 -0.4349 -1.7864 -0.0141
 4302SOL     OW24538   0.682   0.596   8.419 -0.2505 -0.4107  0.4140
 4302SOL    HW124539   0.731   0.649   8.356  0.6458  0.1087  1.5700
 4302SOL    HW224540   0.589   0.613   8.404 -0.5782  0.0748  2.9864
 4303SOL     OW24541   1.515   3.719   2.735 -0.3607  0.5594 -0.1477
 4303SOL    HW124542   1.553   3.633   2.756 -0.0140  0.1644 -2.3847
 4303SOL    HW224543   1.520   3.718   2.639 -1.1583  0.0770 -0.1818
 4304SOL     OW24544   1.124   4.100   3.384  0.2868 -0.1799 -0.5955
 4304SOL    HW124545   1.214   4.074   3.362  0.4188 -1.7650  1.8976
 4304SOL    HW224546   1.088   4.100   3.295 -1.7012 -0.9595  0.2026
 4305SOL     OW24547   0.304   3.848   6.009  0.0580 -0.3164 -0.0778
 4305SOL    HW124548   0.277   3.849   6.101  0.9365  1.3812  0.1577
 4305SOL    HW224549   0.320   3.756   5.986  1.4345 -0.0606 -0.1219
 4306SOL     OW24550   2.141   0.355   2.569  0.9532  0.0453  0.1566
 4306SOL    HW124551   2.122   0.442   2.602 -0.3507  0.4951 -1.7726
 4306SOL    HW224552   2.136   0.358   2.473 -0.3136 -0.2160  0.2178
 4307SOL     OW24553   2.399   2.142   9.603  0.3366  0.3239  0.3667
 4307SOL    HW124554   2.457   2.187   9.541  0.2900 -0.9848 -0.6263
 4307SOL    HW224555   2.446   2.136   9.686  0.4205  0.1482  0.3051
 4308SOL     OW24556   0.891   1.298   2.910 -0.4030  0.6804 -0.0559
 4308SOL    HW124557   0.912   1.391   2.919 -0.1476  0.8724 -2.6654
 4308SOL    HW224558   0.964   1.276   2.852  0.6826 -0.6460  1.8479
 4309SOL     OW24559   4.164   3.681   4.661 -0.6618  0.2887 -0.0233
 4309SOL    HW124560   4.080   3.719   4.635  0.7300  2.4072 -1.4614
 4309SOL    HW224561   4.136   3.624   4.732  1.4566  3.4766  3.3715
 4310SOL     OW24562   3.732   0.152   7.358 -0.3933 -0.7336 -0.0529
 4310SOL    HW124563   3.649   0.165   7.312 -1.1178  1.5836  1.8755
 4310SOL    HW224564   3.783   0.219   7.313 -0.6290 -0.8093 -0.4280
 4311SOL     OW24565   3.416   2.083   5.474 -0.2046  0.4494  0.7831
 4311SOL    HW124566   3.415   2.005   5.529 -0.6264 -0.9567 -1.2060
 4311SOL    HW224567   3.324   2.109   5.482 -1.3917 -2.9032 -1.8065
 4312SOL     OW24568   4.710   2.160   8.068  0.2626 -0.7243 -0.4331
 4312SOL    HW124569   0.050   2.206   8.037 -0.7319  1.4533  0.2915
 4312SOL    HW224570   4.650   2.174   7.995 -3.7338 -0.3849  2.9163
 4313SOL     OW24571   4.338   4.111  13.212  0.1040 -0.2982  0.1359
 4313SOL    HW124572   4.253   4.138  13.247  0.7709  0.0448  1.4658
 4313SOL    HW224573   4.388   4.193  13.201 -1.1567  0.5417  0.6766
 4314SOL     OW24574   3.477   2.317   9.401 -0.4849 -0.4079  0.6887
 4314SOL    HW124575   3.469   2.235   9.352 -0.4131 -0.3779  0.6263
 4314SOL    HW224576   3.391   2.358   9.397 -0.2137 -0.0129 -1.0346
 4315SOL     OW24577   4.384   3.198   7.391 -0.4193 -0.3139 -0.4079
 4315SOL    HW124578   4.387   3.183   7.297  1.6147  0.5837 -0.4907
 4315SOL    HW224579   4.345   3.114   7.418  0.0882 -0.0143  1.2525
 4316SOL     OW24580   1.534   0.089  17.545  0.5415 -0.0166  0.0439
 4316SOL    HW124581   1.535   0.183  17.532  2.2634  0.1705  1.5758
 4316SOL    HW224582   1.627   0.070  17.562  0.9424  0.8470 -1.1811
 4317SOL     OW24583   1.321   1.224  13.043 -0.3112 -0.0819 -0.1483
 4317SOL    HW124584   1.278   1.295  12.995 -0.0286  0.7462  0.8034
 4317SOL    HW224585   1.275   1.144  13.019 -1.7509  1.0483 -1.1855
 4318SOL     OW24586   2.254   4.594   2.780  0.3767  0.0073 -0.1671
 4318SOL    HW124587   2.247   4.535   2.705 -0.7773 -1.0089  0.7477
 4318SOL    HW224588   2.269   4.681   2.744  0.0683  0.3581  0.5459
 4319SOL     OW24589   2.039   4.021  10.184  0.2734 -0.0449  0.7130
 4319SOL    HW124590   2.086   4.077  10.245  0.2456  1.4477 -0.6511
 4319SOL    HW224591   2.104   3.951  10.178  0.9067  0.7300 -1.2322
 4320SOL     OW24592   4.401   2.703  15.828 -0.6385 -0.3203 -0.5458
 4320SOL    HW124593   4.453   2.783  15.819 -0.0656 -0.8098 -1.5398
 4320SOL    HW224594   4.447   2.644  15.769  2.0262  1.1442  0.0460
 4321SOL     OW24595   3.131   3.032  12.189 -0.2121 -0.0093 -0.4681
 4321SOL    HW124596   3.164   2.943  12.178  0.7509  0.4094 -0.9764
 4321SOL    HW224597   3.152   3.045  12.282 -4.1488  0.9295  0.3047
 4322SOL     OW24598   3.673   3.839   3.399 -0.0954  0.2437  0.0047
 4322SOL    HW124599   3.631   3.784   3.465 -1.6111  0.7192 -0.5568
 4322SOL    HW224600   3.626   3.922   3.409 -1.7885 -0.8823  1.2768
 4323SOL     OW24601   1.889   2.337   4.376 -0.3654 -0.4848  0.5333
 4323SOL    HW124602   1.957   2.281   4.338  1.2047  0.9230  1.2877
 4323SOL    HW224603   1.927   2.424   4.371 -2.1994  0.3072  0.3024
 4324SOL     OW24604   0.347   4.494   2.469 -0.1002  0.5082 -0.2846
 4324SOL    HW124605   0.265   4.541   2.455 -0.8878 -0.5636  0.6811
 4324SOL    HW224606   0.383   4.511   2.382 -0.2878  1.3853 -0.1879
 4325SOL     OW24607   1.747   2.821   3.551 -0.1564 -0.0020 -0.1208
 4325SOL    HW124608   1.801   2.798   3.476  2.9010  1.3142  1.6978
 4325SOL    HW224609   1.701   2.737   3.544  2.0133 -1.0930 -1.1712
 4326SOL     OW24610   0.845   3.136   6.112  0.1774  0.2400  0.1736
 4326SOL    HW124611   0.809   3.153   6.025  1.1038  1.4494  0.0244
 4326SOL    HW224612   0.873   3.046   6.092 -0.7711 -0.2631  1.1358
 4327SOL     OW24613   4.679   3.028  10.990 -0.7676  0.2726 -0.0076
 4327SOL    HW124614   4.693   2.939  10.959  0.1541  0.7907 -1.0934
 4327SOL    HW224615   0.003   3.045  11.061  2.0182 -0.5417 -2.2774
 4328SOL     OW24616   2.674   4.193   8.588 -0.0820 -0.2938 -0.7052
 4328SOL    HW124617   2.738   4.207   8.657 -0.9685 -0.8700  0.2436
 4328SOL    HW224618   2.722   4.205   8.506 -0.5081 -0.3920 -0.9731
 4329SOL     OW24619   3.579   2.000   5.261 -0.3152 -0.4206 -0.2577
 4329SOL    HW124620   3.522   1.999   5.339  0.7052 -0.6771  0.4868
 4329SOL    HW224621   3.662   1.980   5.305 -1.4518 -1.4986  1.4122
 4330SOL     OW24622   1.912   3.843   2.352 -0.3852 -0.2515 -0.6951
 4330SOL    HW124623   1.887   3.906   2.284  1.0445  1.2367  0.1842
 4330SOL    HW224624   1.878   3.888   2.429  0.7024 -2.1119  0.8726
 4331SOL     OW24625   1.158   4.458   6.732 -0.3956  0.1650 -0.2192
 4331SOL    HW124626   1.144   4.451   6.826 -0.1832  1.1250 -0.1181
 4331SOL    HW224627   1.069   4.469   6.698 -0.0471  0.9125 -0.8799
 4332SOL     OW24628   2.229   4.272   2.847  0.0107 -0.4153 -0.2642
 4332SOL    HW124629   2.260   4.358   2.818 -2.5858  0.7734  0.4906
 4332SOL    HW224630   2.287   4.266   2.923  1.6219 -1.4003 -1.5691
 4333SOL     OW24631   1.816   3.958   5.961 -0.2249  0.0430 -0.2358
 4333SOL    HW124632   1.878   3.885   5.963  0.2425  0.4216 -1.0919
 4333SOL    HW224633   1.852   4.013   6.031 -2.6621  1.1875  0.1371
 4334SOL     OW24634   0.024   0.454   7.489  0.2031  0.8658 -0.2750
 4334SOL    HW124635   0.052   0.517   7.556  2.0000 -2.1194  1.8028
 4334SOL    HW224636   4.693   0.506   7.449 -0.2490  0.5842  0.1444
 4335SOL     OW24637   3.168   0.784   5.213  0.4154 -0.2403  0.4898
 4335SOL    HW124638   3.175   0.872   5.174 -1.8315  0.4828  1.7311
 4335SOL    HW224639   3.227   0.799   5.287  1.5361  1.0917 -0.6572
 4336SOL     OW24640   0.358   2.310   4.089 -0.2351 -0.0765  0.3358
 4336SOL    HW124641   0.341   2.403   4.103  2.3395  0.6075 -1.2304
 4336SOL    HW224642   0.398   2.284   4.172 -1.8897 -2.8426  0.2753
 4337SOL     OW24643   2.489   0.749   2.067 -0.8995  0.5432 -0.0242
 4337SOL    HW124644   2.420   0.790   2.118 -0.8602  1.1861 -0.4975
 4337SOL    HW224645   2.535   0.828   2.039 -1.3931  0.0899 -2.0754
 4338SOL     OW24646   0.875   1.004   5.013 -0.1491  0.4251 -0.0756
 4338SOL    HW124647   0.940   1.007   4.942  0.0923  0.2758  0.1368
 4338SOL    HW224648   0.931   0.983   5.088 -0.8871 -0.3427  0.2643
 4339SOL     OW24649   4.232   3.936   7.518 -0.2346  0.2248  0.5667
 4339SOL    HW124650   4.299   3.997   7.486 -2.0993  2.7499  1.5118
 4339SOL    HW224651   4.190   3.905   7.437 -0.6477  0.1752  0.8011
 4340SOL     OW24652   2.580   0.616  11.945  0.4196  0.5953 -0.2334
 4340SOL    HW124653   2.639   0.578  12.009 -1.3156 -1.7362 -0.0150
 4340SOL    HW224654   2.641   0.632  11.873  2.3212 -0.1836  1.2028
 4341SOL     OW24655   4.010   4.728   5.777 -0.6596  0.6164  0.1305
 4341SOL    HW124656   4.082   4.722   5.714  1.5459 -0.9693  2.8140
 4341SOL    HW224657   4.055   4.724   5.861 -1.0758  1.2298  0.3815
 4342SOL     OW24658   3.857   3.314  13.228 -0.4722 -0.3101 -0.2993
 4342SOL    HW124659   3.785   3.316  13.291 -1.9041 -2.0346 -1.8740
 4342SOL    HW224660   3.867   3.408  13.213  0.0254 -0.3089  0.0484
 4343SOL     OW24661   3.497   3.533   9.083 -0.5684 -0.5523 -0.2546
 4343SOL    HW124662   3.546   3.461   9.123  0.5411  0.6098  0.4916
 4343SOL    HW224663   3.548   3.612   9.100 -2.7295  0.9908 -1.0837
 4344SOL     OW24664   2.172   2.730   1.485 -0.4725  0.3624 -0.3818
 4344SOL    HW124665   2.238   2.708   1.551 -1.2650  0.3440  0.3915
 4344SOL    HW224666   2.111   2.657   1.479 -1.5118  0.9992  2.6029
 4345SOL     OW24667   3.849   0.153   3.656  0.6044  0.1879  0.2654
 4345SOL    HW124668   3.759   0.178   3.673  0.3354  1.0334 -2.4082
 4345SOL    HW224669   3.894   0.227   3.697  1.0313 -0.0477  0.2337
 4346SOL     OW24670   4.678   2.820   3.894  0.3252 -0.0601 -0.1419
 4346SOL    HW124671   4.734   2.855   3.964 -0.1998 -0.1050  0.3008
 4346SOL    HW224672   4.663   2.726   3.906 -1.6607  0.4279  1.3422
 4347SOL     OW24673   0.079   1.407  11.500 -0.2451 -0.6325 -0.5157
 4347SOL    HW124674   0.015   1.401  11.429 -0.4895 -1.9376 -0.1877
 4347SOL    HW224675   0.111   1.317  11.500 -2.8236 -1.5368  1.7669
 4348SOL     OW24676   0.457   2.787  16.645 -0.2603 -0.6798  0.0409
 4348SOL    HW124677   0.450   2.777  16.550 -1.6037  1.1602 -0.0471
 4348SOL    HW224678   0.439   2.880  16.655 -1.4497 -0.9028 -0.1136
 4349SOL     OW24679   1.511   0.165   8.687 -0.1822 -0.2642  0.6484
 4349SOL    HW124680   1.472   0.230   8.629 -3.3803 -1.1624  1.7879
 4349SOL    HW224681   1.595   0.210   8.700 -0.0221 -0.1037 -1.0609
 4350SOL     OW24682   0.336   1.792   8.868  0.9990  0.2887 -0.1613
 4350SOL    HW124683   0.288   1.713   8.841  1.3439  0.2469 -0.6733
 4350SOL    HW224684   0.403   1.795   8.800  0.5023 -1.1849 -0.7224
 4351SOL     OW24685   4.159   0.440   4.185  0.4999  0.1051 -0.6729
 4351SOL    HW124686   4.170   0.348   4.207  0.9549 -0.0895 -1.7264
 4351SOL    HW224687   4.242   0.470   4.148  1.0409  0.7801  1.0505
 4352SOL     OW24688   3.663   3.455   0.980  0.8279 -0.4117  0.0239
 4352SOL    HW124689   3.710   3.538   0.975  0.6034 -0.3364 -0.9721
 4352SOL    HW224690   3.582   3.474   0.932  0.5880  1.9726  1.4138
 4353SOL     OW24691   0.014   3.523   7.785  0.0954  0.0912 -0.1802
 4353SOL    HW124692   0.040   3.533   7.876  0.0669 -2.4376  0.0975
 4353SOL    HW224693   4.683   3.589   7.790  0.9269  1.0298 -1.1149
 4354SOL     OW24694   3.076   0.026   5.407  0.1928  0.0076  0.2934
 4354SOL    HW124695   3.032   4.716   5.337 -0.0539 -0.7326  0.9575
 4354SOL    HW224696   3.014   0.094   5.433  1.0325  0.8903 -0.0404
 4355SOL     OW24697   3.676   1.042   2.249  0.0231 -0.6997  1.0294
 4355SOL    HW124698   3.641   1.125   2.216  0.5406 -1.1425 -0.6424
 4355SOL    HW224699   3.618   0.981   2.203  1.3701 -2.0223  1.0809
 4356SOL     OW24700   4.672   2.648   6.607  0.2828  0.0396  0.0799
 4356SOL    HW124701   4.668   2.676   6.698  1.2898  0.5195 -0.0324
 4356SOL    HW224702   4.601   2.696   6.565  0.4109 -0.3568 -0.5887
 4357SOL     OW24703   0.482   0.869  16.360 -0.3731 -0.0676  0.2972
 4357SOL    HW124704   0.531   0.903  16.285  0.4935  0.2563  1.0182
 4357SOL    HW224705   0.550   0.877  16.426  0.3695  0.5105 -0.5330
 4358SOL     OW24706   0.554   0.396  10.133 -1.1964 -0.6921 -0.2482
 4358SOL    HW124707   0.592   0.479  10.160 -0.7481 -0.2724 -2.1480
 4358SOL    HW224708   0.544   0.349  10.215  0.7893 -1.6105 -0.5215
 4359SOL     OW24709   0.077   2.790   7.996 -0.5615 -0.4491  0.0746
 4359SOL    HW124710   0.148   2.772   7.935 -0.9247  1.3656 -0.8912
 4359SOL    HW224711   0.090   2.882   8.019 -0.6456 -0.6573  0.9781
 4360SOL     OW24712   2.490   3.432  16.810 -0.0733  0.0455  0.0599
 4360SOL    HW124713   2.481   3.338  16.793 -2.1537 -0.1793  2.4029
 4360SOL    HW224714   2.399   3.446  16.784  0.4817  1.7096 -0.9709
 4361SOL     OW24715   3.996   2.802   0.313  0.1289 -0.4147 -0.2031
 4361SOL    HW124716   3.909   2.762   0.316 -0.3657  0.6523 -0.2554
 4361SOL    HW224717   3.970   2.861   0.242 -0.5799 -0.3331  0.1215
 4362SOL     OW24718   2.338   1.159   3.322  0.6668 -0.4202 -0.7430
 4362SOL    HW124719   2.301   1.122   3.242  0.3532  1.7333 -1.6102
 4362SOL    HW224720   2.280   1.234   3.337  0.6449 -0.9078  1.5476
 4363SOL     OW24721   2.543   4.720   8.190  0.3658 -0.4896  0.0084
 4363SOL    HW124722   2.525   0.073   8.165  2.5575 -0.6253 -2.0348
 4363SOL    HW224723   2.468   4.697   8.246 -0.1564  0.0567 -0.4605
 4364SOL     OW24724   1.077   4.227  11.344  0.1810 -0.0316 -0.0349
 4364SOL    HW124725   1.040   4.304  11.387  1.1452 -0.1466  0.9783
 4364SOL    HW224726   1.161   4.265  11.320  0.8438 -0.7192  1.1944
 4365SOL     OW24727   3.934   1.159   1.842 -0.1297  0.8242 -0.4015
 4365SOL    HW124728   3.982   1.136   1.763  0.7440  1.0098  0.0707
 4365SOL    HW224729   3.953   1.088   1.903  0.5347  1.4132  0.0672
 4366SOL     OW24730   2.751   4.544   6.107 -0.0785 -0.0501 -0.1561
 4366SOL    HW124731   2.783   4.544   6.197 -1.2915  1.9325  0.2695
 4366SOL    HW224732   2.821   4.499   6.060  0.2384 -2.7410  2.8728
 4367SOL     OW24733   4.268   4.287   8.834  0.0401  0.1160  0.3259
 4367SOL    HW124734   4.305   4.245   8.911 -1.7652 -1.0241  0.5709
 4367SOL    HW224735   4.199   4.222   8.828  1.6930 -1.5408 -0.5618
 4368SOL     OW24736   1.826   0.328   2.624 -0.1245  0.3270 -0.9153
 4368SOL    HW124737   1.770   0.265   2.579  0.6091 -0.4450 -0.7350
 4368SOL    HW224738   1.849   0.383   2.548 -0.5801 -0.0698 -1.3388
 4369SOL     OW24739   3.075   0.241   8.438  0.1187 -0.4190  0.6543
 4369SOL    HW124740   2.983   0.264   8.432 -0.4470 -3.2220 -1.8832
 4369SOL    HW224741   3.088   0.225   8.344 -0.6416 -2.9788  0.9751
 4370SOL     OW24742   0.324   3.089   4.932 -0.5645  0.3451  0.5100
 4370SOL    HW124743   0.384   3.157   4.901 -0.9156  0.1917 -0.5241
 4370SOL    HW224744   0.249   3.146   4.944 -0.7396  0.0635  0.7606
 4371SOL     OW24745   2.456   3.788  15.234  1.0065  0.4256  0.8410
 4371SOL    HW124746   2.364   3.768  15.219  0.8404  1.9056 -0.0671
 4371SOL    HW224747   2.485   3.697  15.231  2.5922  0.9080  1.5695
 4372SOL     OW24748   0.781   1.555   5.696 -0.5583  0.7035  0.6693
 4372SOL    HW124749   0.869   1.590   5.704 -0.2126  0.0939 -0.3426
 4372SOL    HW224750   0.732   1.635   5.711 -2.8306 -0.6266  0.3714
 4373SOL     OW24751   2.880   3.591   6.117  0.8237 -0.3231  0.1724
 4373SOL    HW124752   2.842   3.548   6.040  3.6994  1.1455 -2.0668
 4373SOL    HW224753   2.822   3.666   6.124 -0.6509 -1.5604  1.3269
 4374SOL     OW24754   1.215   0.989   5.975 -0.1178 -0.1718 -0.2963
 4374SOL    HW124755   1.226   1.071   6.024  0.0808 -0.7511  0.6173
 4374SOL    HW224756   1.139   0.957   6.023  0.0315  1.1435  0.8491
 4375SOL     OW24757   3.855   1.471  14.785 -0.4530  0.5475  0.3912
 4375SOL    HW124758   3.896   1.544  14.738 -0.8566  1.0608  0.8419
 4375SOL    HW224759   3.852   1.522  14.866 -0.2930  0.4814  0.4368
 4376SOL     OW24760   4.364   0.583   5.826  0.4306  0.0505  0.3753
 4376SOL    HW124761   4.296   0.624   5.880  0.7013  1.8131 -0.6077
 4376SOL    HW224762   4.339   0.491   5.825  0.4027  0.0327  2.5636
 4377SOL     OW24763   3.630   0.532  13.628 -0.0010  0.3557  0.0868
 4377SOL    HW124764   3.711   0.489  13.602  0.2399  1.8652 -1.6394
 4377SOL    HW224765   3.661   0.591  13.697 -2.5495  0.1350  1.4106
 4378SOL     OW24766   0.972   3.220   8.210  0.2881 -0.4431 -0.3547
 4378SOL    HW124767   0.976   3.171   8.292  0.2034 -0.9534 -0.6551
 4378SOL    HW224768   1.066   3.215   8.195  0.2961 -0.0305 -0.4341
 4379SOL     OW24769   0.640   4.417   9.586 -0.5088 -0.2209 -0.1096
 4379SOL    HW124770   0.732   4.424   9.613 -1.0060  0.7842  1.3306
 4379SOL    HW224771   0.597   4.457   9.662 -0.1117  0.4063 -0.2183
 4380SOL     OW24772   0.292   3.182  13.898  0.1686  0.0921 -0.5650
 4380SOL    HW124773   0.212   3.149  13.941  1.8556  0.2050  2.6803
 4380SOL    HW224774   0.276   3.274  13.879 -0.9843 -0.0020 -0.0519
 4381SOL     OW24775   2.290   3.080   4.545 -0.0293  0.7631 -0.2603
 4381SOL    HW124776   2.227   3.138   4.502 -1.5619  0.8068  2.0344
 4381SOL    HW224777   2.365   3.138   4.555  0.6827 -0.3517  1.0285
 4382SOL     OW24778   3.596   2.036   6.805 -0.0339 -0.2342  0.3267
 4382SOL    HW124779   3.662   1.967   6.802 -0.4026 -0.5326 -1.0982
 4382SOL    HW224780   3.651   2.114   6.808 -0.2707 -0.0014 -1.2977
 4383SOL     OW24781   2.647   0.265   2.451  0.5265  0.1695 -0.0899
 4383SOL    HW124782   2.566   0.214   2.439 -0.8893  2.3108  0.3837
 4383SOL    HW224783   2.614   0.338   2.398 -1.0058 -0.6454 -0.2823
 4384SOL     OW24784   2.490   4.646   5.118 -0.3495 -0.3590  0.2682
 4384SOL    HW124785   2.450   4.715   5.065  0.3384  1.0542  1.5972
 4384SOL    HW224786   2.547   4.704   5.168 -0.9667 -0.0269  0.5869
 4385SOL     OW24787   2.152   1.494   9.483  0.1512 -0.3752  0.4518
 4385SOL    HW124788   2.187   1.572   9.525  0.1641 -0.6966  1.0358
 4385SOL    HW224789   2.144   1.526   9.393 -2.0324  0.1163  0.8098
 4386SOL     OW24790   2.398   2.063   9.112  0.2935 -0.0432  0.4061
 4386SOL    HW124791   2.479   2.080   9.159  0.3582 -2.6997  1.2911
 4386SOL    HW224792   2.429   2.049   9.023  0.0906 -2.0019  0.6272
 4387SOL     OW24793   3.067   3.105   7.917  0.0168 -0.1791 -0.0235
 4387SOL    HW124794   3.133   3.123   7.849 -0.9660  1.4206 -0.5314
 4387SOL    HW224795   3.010   3.039   7.876  0.8229 -0.1501 -1.2174
 4388SOL     OW24796   0.191   4.019   9.300 -0.3209 -0.1122 -0.4250
 4388SOL    HW124797   0.166   4.014   9.393  1.8602 -1.8697  0.0584
 4388SOL    HW224798   0.283   3.992   9.294 -0.5165 -0.6639 -0.8862
 4389SOL     OW24799   2.449   1.624   8.717  0.2937  0.4103  0.2725
 4389SOL    HW124800   2.483   1.687   8.655  1.4794  0.6525  1.1883
 4389SOL    HW224801   2.355   1.625   8.697  0.3212 -0.0454  0.1104
 4390SOL     OW24802   4.448   1.054   4.574 -0.7406 -0.0798 -0.2061
 4390SOL    HW124803   4.419   1.140   4.604 -0.7066 -0.2369  0.2671
 4390SOL    HW224804   4.370   1.016   4.533 -1.0631  0.6300 -0.2437
 4391SOL     OW24805   4.314   3.768   5.606  0.3018 -0.5881  0.1610
 4391SOL    HW124806   4.283   3.804   5.523  2.0871  0.2382 -0.1563
 4391SOL    HW224807   4.408   3.755   5.592  0.1808  0.6129 -1.7246
 4392SOL     OW24808   2.106   0.975   1.090 -0.5661  0.7848 -0.4773
 4392SOL    HW124809   2.157   0.958   1.011 -0.3323  0.2522 -0.2165
 4392SOL    HW224810   2.112   1.070   1.089  0.2103  0.7541  0.7867
 4393SOL     OW24811   0.840   4.208   7.790 -0.4280  0.0417  0.4293
 4393SOL    HW124812   0.851   4.241   7.701 -1.3563  0.8406  0.6136
 4393SOL    HW224813   0.815   4.116   7.777 -2.4835  0.5965  0.6049
 4394SOL     OW24814   0.836   4.080   1.803 -0.0501 -0.3222  0.9925
 4394SOL    HW124815   0.804   4.128   1.880 -1.4058 -2.6550  1.8636
 4394SOL    HW224816   0.920   4.055   1.843 -0.1376  0.0931  1.4458
 4395SOL     OW24817   4.160   4.046   2.772  0.4968  0.4313 -0.4364
 4395SOL    HW124818   4.118   3.977   2.823  0.0784  1.0607  0.0670
 4395SOL    HW224819   4.248   4.044   2.810 -0.4725 -2.4854  1.6638
 4396SOL     OW24820   3.453   4.032   1.334 -0.6803 -0.0150 -0.1104
 4396SOL    HW124821   3.478   4.121   1.359 -2.4000  0.5216 -0.3052
 4396SOL    HW224822   3.359   4.022   1.351 -0.6931  0.7282  0.2656
 4397SOL     OW24823   4.345   2.182   2.561  0.3157 -0.8883 -0.5755
 4397SOL    HW124824   4.433   2.153   2.586 -0.2254  0.2024  2.7163
 4397SOL    HW224825   4.366   2.228   2.480 -1.4125 -1.9709 -1.6270
 4398SOL     OW24826   0.526   1.619   4.319  0.6074 -0.4196  0.0183
 4398SOL    HW124827   0.507   1.675   4.393 -0.7148 -0.8141 -0.0282
 4398SOL    HW224828   0.578   1.684   4.272  2.6312 -1.8797  0.2405
 4399SOL     OW24829   4.622   1.894   4.344 -0.0939  0.1243 -0.0847
 4399SOL    HW124830   4.570   1.821   4.310  1.6107 -1.3739  0.4854
 4399SOL    HW224831   4.598   1.889   4.437 -1.1847  1.7017 -0.2895
 4400SOL     OW24832   3.126   1.534   0.382 -0.1150 -0.3718  0.7075
 4400SOL    HW124833   3.145   1.518   0.474 -1.3868  1.1131  1.2172
 4400SOL    HW224834   3.052   1.476   0.366 -0.1089 -0.2034  0.0488
 4401SOL     OW24835   3.071   4.330   5.130  0.5703 -0.2630 -0.8627
 4401SOL    HW124836   3.092   4.395   5.063  1.1186  1.7681  1.2773
 4401SOL    HW224837   3.131   4.257   5.114 -0.1665 -1.2567  0.9188
 4402SOL     OW24838   2.059   1.585   3.749  0.2898 -1.1314  0.1001
 4402SOL    HW124839   1.980   1.631   3.722  0.0212 -0.4048  2.0962
 4402SOL    HW224840   2.037   1.575   3.842  1.6003 -2.6687  0.2479
 4403SOL     OW24841   0.629   1.222   2.897  0.1281 -0.3122 -0.2155
 4403SOL    HW124842   0.611   1.142   2.947 -0.6062 -0.8443 -1.3186
 4403SOL    HW224843   0.724   1.226   2.890 -0.0556  0.7918 -2.0383
 4404SOL     OW24844   1.095   2.013   0.153 -0.3735  0.1424 -0.4743
 4404SOL    HW124845   1.119   2.062   0.232  1.9493 -2.2012  0.2819
 4404SOL    HW224846   1.180   2.006   0.109  0.1839 -0.5870  0.7063
 4405SOL     OW24847   4.295   3.955  17.094 -0.2405  0.0775  1.2111
 4405SOL    HW124848   4.350   3.893  17.047 -1.3944  0.7431 -1.0192
 4405SOL    HW224849   4.222   3.894  17.109  0.7814 -1.2941  0.5692
 4406SOL     OW24850   0.249   3.594   2.783  0.1316 -0.8302  0.4322
 4406SOL    HW124851   0.308   3.659   2.743 -1.9578  2.0865  2.0762
 4406SOL    HW224852   0.164   3.637   2.775  0.7478  0.2642 -0.2014
 4407SOL     OW24853   4.550   1.423   7.632 -0.0317  0.0373 -0.0691
 4407SOL    HW124854   4.555   1.411   7.727  0.5820 -1.9315 -0.3649
 4407SOL    HW224855   4.491   1.499   7.633 -0.1398 -0.0586  1.2648
 4408SOL     OW24856   2.006   4.146  15.561 -0.1222 -0.3374  0.2405
 4408SOL    HW124857   2.084   4.130  15.508  0.2226  0.9874  0.3593
 4408SOL    HW224858   1.948   4.083  15.519 -0.6136  0.2073  0.0961
 4409SOL     OW24859   2.247   2.750   5.112  0.0333  0.2025 -0.1706
 4409SOL    HW124860   2.279   2.661   5.100 -0.0684  0.3079 -1.1976
 4409SOL    HW224861   2.159   2.738   5.075 -0.8596  2.6652  1.1019
 4410SOL     OW24862   3.375   0.475   7.375  0.2197 -0.2418  0.1134
 4410SOL    HW124863   3.465   0.480   7.405  0.7449 -3.3574 -0.9487
 4410SOL    HW224864   3.350   0.392   7.416  1.1456 -1.2576 -1.4197
 4411SOL     OW24865   0.425   3.673   6.646  0.1916  0.1197  0.1940
 4411SOL    HW124866   0.487   3.687   6.717 -0.5175  1.2767  0.5948
 4411SOL    HW224867   0.383   3.756   6.622  0.9873  0.6743  0.7299
 4412SOL     OW24868   2.148   3.843   6.756 -0.2883  0.0540 -0.0029
 4412SOL    HW124869   2.118   3.882   6.674 -0.2987 -0.2388 -0.1383
 4412SOL    HW224870   2.079   3.871   6.817  0.9575  0.2492  1.3139
 4413SOL     OW24871   3.871   4.540   7.834  0.0785 -0.1151  0.2265
 4413SOL    HW124872   3.965   4.536   7.853  0.3600 -1.3516 -1.4338
 4413SOL    HW224873   3.844   4.450   7.816 -2.1372  0.3446  1.2903
 4414SOL     OW24874   2.634   3.702   4.272  0.5321  0.0911 -0.0449
 4414SOL    HW124875   2.600   3.786   4.301  1.2252 -0.5015  2.4523
 4414SOL    HW224876   2.717   3.720   4.228 -0.0196  0.1451 -1.0853
 4415SOL     OW24877   0.295   2.826   0.329 -0.3963  0.1855 -0.3514
 4415SOL    HW124878   0.273   2.781   0.411  0.9122 -0.7768 -0.5319
 4415SOL    HW224879   0.237   2.783   0.266 -0.4073 -1.3997  0.7514
 4416SOL     OW24880   3.179   3.208   9.877  0.4851 -0.0769 -0.2449
 4416SOL    HW124881   3.132   3.145   9.932 -1.0825  1.9934  0.8107
 4416SOL    HW224882   3.227   3.257   9.944 -1.0395  0.3647  0.5407
 4417SOL     OW24883   2.660   1.908   7.072  0.4766 -0.2015  0.4134
 4417SOL    HW124884   2.637   1.999   7.053 -2.9095 -1.2786 -0.7300
 4417SOL    HW224885   2.719   1.889   7.000 -0.2413 -2.9355  0.5455
 4418SOL     OW24886   3.336   2.060  12.491  0.3327  0.1172 -0.6476
 4418SOL    HW124887   3.362   2.072  12.400 -0.6083 -1.3076 -1.1013
 4418SOL    HW224888   3.428   2.049  12.515 -0.3318 -1.1392  1.2695
 4419SOL     OW24889   0.477   3.050   8.387 -0.1019  0.0120 -0.2956
 4419SOL    HW124890   0.410   2.983   8.369  0.4986 -1.0891  1.5138
 4419SOL    HW224891   0.559   3.006   8.364  0.6875  0.6031  1.3656
 4420SOL     OW24892   3.931   0.689   6.852 -0.1469  0.1579 -0.3822
 4420SOL    HW124893   3.954   0.753   6.784 -0.8486  0.1858 -0.5846
 4420SOL    HW224894   3.848   0.657   6.818  0.3695 -2.3521  0.7477
 4421SOL     OW24895   0.159   0.223   7.865  0.2969 -0.0924  0.0921
 4421SOL    HW124896   0.069   0.209   7.835 -0.2740  0.5715  1.4968
 4421SOL    HW224897   0.201   0.138   7.856  2.2548  0.5361  3.6331
 4422SOL     OW24898   4.174   0.920   4.604  0.2032 -0.1727 -0.2066
 4422SOL    HW124899   4.176   0.938   4.698 -0.3527 -0.6297 -0.1088
 4422SOL    HW224900   4.178   0.825   4.606 -0.7599 -0.2521 -1.7587
 4423SOL     OW24901   4.038   1.709   1.772  0.0984 -0.0904  0.1630
 4423SOL    HW124902   3.973   1.735   1.837 -1.3514 -0.8184 -1.0142
 4423SOL    HW224903   4.018   1.766   1.698 -1.0084  0.6054  1.0070
 4424SOL     OW24904   3.127   4.200   6.006 -0.4027 -0.7514  0.0775
 4424SOL    HW124905   3.073   4.277   5.992 -0.3218 -0.4732  1.2811
 4424SOL    HW224906   3.109   4.173   6.096 -1.1700  0.3614  0.2517
 4425SOL     OW24907   2.107   4.101   8.262  0.2491  0.5405  0.0738
 4425SOL    HW124908   2.129   4.190   8.290 -0.3644  1.4480 -2.3326
 4425SOL    HW224909   2.041   4.128   8.198  0.7188  2.5502  0.4424
 4426SOL     OW24910   0.599   4.652   4.292  0.0390  0.0866  0.1255
 4426SOL    HW124911   0.674   4.643   4.350 -0.1596  0.2454  0.4072
 4426SOL    HW224912   0.588   4.565   4.253 -2.0493 -0.5578  2.1101
 4427SOL     OW24913   3.465   4.269   2.457  0.2777  0.1944 -0.0089
 4427SOL    HW124914   3.445   4.273   2.550  0.3684 -1.3719  0.0808
 4427SOL    HW224915   3.424   4.186   2.432 -0.1048  1.0716 -2.3042
 4428SOL     OW24916   1.166   4.070  11.598 -0.3879 -0.3713  0.2668
 4428SOL    HW124917   1.180   3.980  11.628 -2.7483  0.1583  2.9101
 4428SOL    HW224918   1.096   4.056  11.535 -0.0244 -3.0716  0.4584
 4429SOL     OW24919   3.982   3.011   7.025 -0.2541  0.1176  0.2864
 4429SOL    HW124920   3.989   3.107   7.032 -0.3110  0.0982  0.5976
 4429SOL    HW224921   4.063   2.989   6.980 -0.2096  0.9954 -0.0699
 4430SOL     OW24922   1.599   1.854   5.115 -0.3869 -0.0240 -0.0221
 4430SOL    HW124923   1.687   1.858   5.078 -0.3342  0.6709  0.1689
 4430SOL    HW224924   1.571   1.946   5.111  0.5262  0.2801  0.5918
 4431SOL     OW24925   0.818   4.634  15.096 -1.0583 -0.3872 -0.1044
 4431SOL    HW124926   0.724   4.623  15.079 -0.9038 -1.6004 -0.2128
 4431SOL    HW224927   0.834   4.574  15.169 -0.4560  2.5627  2.1850
 4432SOL     OW24928   4.152   0.451   8.421  0.0887 -0.0874 -0.4442
 4432SOL    HW124929   4.127   0.394   8.348 -1.0577 -1.1584  0.7901
 4432SOL    HW224930   4.113   0.397   8.490  0.2556 -1.9169 -1.7710
 4433SOL     OW24931   1.534   2.521   5.590 -0.5060 -0.0325  0.2478
 4433SOL    HW124932   1.618   2.476   5.601 -0.8033 -0.0605  2.3750
 4433SOL    HW224933   1.513   2.526   5.683  0.2832 -0.6361  0.4602
 4434SOL     OW24934   2.956   0.023  17.476 -0.4080 -0.3631 -0.0640
 4434SOL    HW124935   2.908   0.003  17.395 -0.7171  0.1940 -0.0161
 4434SOL    HW224936   2.876   0.051  17.519  0.5421 -1.1388  2.1977
 4435SOL     OW24937   3.485   4.615  10.732  0.8107  0.0769 -0.0452
 4435SOL    HW124938   3.464   4.705  10.757  0.0699 -0.4239  1.1513
 4435SOL    HW224939   3.552   4.636  10.667  1.1435  0.9599  0.6028
 4436SOL     OW24940   0.486   0.711   3.908  0.3480  0.1936 -0.3106
 4436SOL    HW124941   0.458   0.620   3.902  0.1572  0.4926 -3.9726
 4436SOL    HW224942   0.485   0.722   4.003  1.3699  0.2119 -0.3103
 4437SOL     OW24943   4.215   3.197  12.605 -0.0563 -0.1177 -0.0717
 4437SOL    HW124944   4.178   3.269  12.553  0.8333  1.4622  1.5125
 4437SOL    HW224945   4.198   3.208  12.698 -3.3382 -1.8912 -0.4335
 4438SOL     OW24946   1.655   4.434   9.065  0.1119 -0.0583 -0.0144
 4438SOL    HW124947   1.608   4.352   9.047 -0.8643  1.0506 -2.4305
 4438SOL    HW224948   1.622   4.482   8.989 -1.1845  0.6536  1.0191
 4439SOL     OW24949   3.941   0.986   2.562  0.6331 -0.0861  0.2795
 4439SOL    HW124950   4.032   1.013   2.580  0.6912  0.3671 -0.7368
 4439SOL    HW224951   3.954   0.897   2.594  0.1280 -0.4467 -0.5249
 4440SOL     OW24952   0.628   4.558   9.335 -0.5423  0.9639  0.5032
 4440SOL    HW124953   0.606   4.504   9.412  0.9090  2.0050  1.6580
 4440SOL    HW224954   0.541   4.580   9.303 -0.2879  2.4784  0.8334
 4441SOL     OW24955   4.207   2.749   7.285  0.4866 -0.3808  0.2666
 4441SOL    HW124956   4.218   2.768   7.192 -0.3789  3.5908  0.9696
 4441SOL    HW224957   4.197   2.835   7.326  0.2335  0.9475 -2.5959
 4442SOL     OW24958   2.453   3.749   2.584 -0.2372  0.0131  0.2011
 4442SOL    HW124959   2.511   3.712   2.518  0.7587  2.6902 -0.4228
 4442SOL    HW224960   2.367   3.742   2.542 -0.0165  0.8857 -0.3926
 4443SOL     OW24961   4.272   2.463  10.611  0.0456 -0.5068 -0.2300
 4443SOL    HW124962   4.194   2.428  10.566 -0.3886  0.4956 -0.2603
 4443SOL    HW224963   4.267   2.554  10.580  0.4479  0.2662  2.0346
 4444SOL     OW24964   4.447   2.851   1.856  0.2856  0.1461 -0.5410
 4444SOL    HW124965   4.462   2.757   1.868 -0.4657 -0.1787 -2.1766
 4444SOL    HW224966   4.536   2.874   1.832  0.2502 -0.3228 -1.1283
 4445SOL     OW24967   3.455   4.463   6.383  0.3161  0.5414 -0.2474
 4445SOL    HW124968   3.466   4.558   6.379 -0.6103  0.7112  1.3644
 4445SOL    HW224969   3.484   4.441   6.472  1.1424  0.0674 -0.6262
 4446SOL     OW24970   2.814   0.186   5.718  0.1768 -0.2178 -0.3818
 4446SOL    HW124971   2.832   0.274   5.749 -0.7623  0.5236 -1.9701
 4446SOL    HW224972   2.894   0.150   5.758 -0.7048 -0.2754  1.3551
 4447SOL     OW24973   1.827   3.996   3.096  0.1235  0.2663 -0.0478
 4447SOL    HW124974   1.848   4.044   3.016  0.2581  1.1495  0.5099
 4447SOL    HW224975   1.874   4.062   3.147 -0.1866  0.2128  0.3132
 4448SOL     OW24976   1.232   0.061   5.593  0.0254  0.1348  0.1688
 4448SOL    HW124977   1.298   0.078   5.660  0.6000  1.0882 -0.6412
 4448SOL    HW224978   1.151   0.098   5.628  0.7956  1.9624  0.0206
 4449SOL     OW24979   0.764   1.181   4.757 -0.7789  0.8114 -0.2910
 4449SOL    HW124980   0.772   1.209   4.666  0.3191 -3.2367 -1.4442
 4449SOL    HW224981   0.704   1.106   4.752 -0.0731  0.2925 -0.9458
 4450SOL     OW24982   3.000   2.993   3.978 -0.2384 -0.4515  0.1925
 4450SOL    HW124983   3.079   3.007   3.927  1.0397 -0.3530  2.1742
 4450SOL    HW224984   3.038   2.923   4.031 -1.2001  0.0068  1.5080
 4451SOL     OW24985   3.525   0.594   3.927  0.1826  0.0302 -0.3784
 4451SOL    HW124986   3.545   0.662   3.992  0.2486 -2.2334  1.9526
 4451SOL    HW224987   3.590   0.600   3.857  2.0136 -1.1264  1.2183
 4452SOL     OW24988   4.035   3.423   2.728 -0.2553 -0.0686 -0.4189
 4452SOL    HW124989   3.980   3.345   2.727 -1.6463  0.8968 -0.4545
 4452SOL    HW224990   3.964   3.486   2.740  0.4924  0.8494 -0.8073
 4453SOL     OW24991   2.542   4.016   9.289  0.1567 -0.2522  0.0065
 4453SOL    HW124992   2.487   3.952   9.334  0.2803 -1.0277 -0.9441
 4453SOL    HW224993   2.617   4.016   9.348 -0.0532  0.4754  0.2663
 4454SOL     OW24994   1.995   1.697   3.085 -0.7925  0.5429 -0.7840
 4454SOL    HW124995   2.004   1.649   3.003 -0.7217  1.3548 -1.2583
 4454SOL    HW224996   2.036   1.782   3.069 -1.6781  0.7162 -2.1074
 4455SOL     OW24997   2.430   2.432   9.996  0.4782 -0.8462  0.6001
 4455SOL    HW124998   2.340   2.423   9.963  0.0083 -0.2714  1.7147
 4455SOL    HW224999   2.413   2.407  10.087  0.2615  0.6677  0.9782
 4456SOL     OW25000   3.900   2.255   7.729  0.2010  0.5035 -0.5921
 4456SOL    HW125001   3.959   2.330   7.720  0.1648  0.5196 -0.6892
 4456SOL    HW225002   3.966   2.189   7.751  0.8937  1.9049  1.5335
 4457SOL     OW25003   0.945   3.440  13.269 -0.4147  0.3056  0.3765
 4457SOL    HW125004   0.903   3.420  13.353 -0.7865 -2.5018 -0.4885
 4457SOL    HW225005   1.032   3.470  13.295  1.0353 -1.2529 -2.7564
 4458SOL     OW25006   1.182   3.304   0.899 -0.0640 -0.0420 -0.6390
 4458SOL    HW125007   1.263   3.356   0.895  0.2255 -0.2358  2.5836
 4458SOL    HW225008   1.138   3.348   0.826 -0.0458 -0.6670 -1.0226
 4459SOL     OW25009   0.674   4.500  16.477 -0.2104  0.5917 -0.8346
 4459SOL    HW125010   0.756   4.478  16.434  0.5091  1.7691 -0.0795
 4459SOL    HW225011   0.667   4.447  16.557  0.4420  0.3077 -0.9633
 4460SOL     OW25012   2.207   1.078  15.379 -0.0752  0.2221  0.1268
 4460SOL    HW125013   2.246   1.094  15.465 -0.8008  0.0465  0.4826
 4460SOL    HW225014   2.113   1.079  15.397 -0.3373 -1.5186 -1.1601
 4461SOL     OW25015   4.241   4.191   4.739  0.1389 -0.3603 -0.0013
 4461SOL    HW125016   4.201   4.246   4.806  0.2009  1.5396 -1.5163
 4461SOL    HW225017   4.170   4.133   4.712  0.5627 -0.7321 -0.3205
 4462SOL     OW25018   0.585   1.213  14.442 -0.1871 -0.0627 -0.2584
 4462SOL    HW125019   0.530   1.249  14.512 -2.3534 -0.6929 -1.6031
 4462SOL    HW225020   0.610   1.132  14.487 -0.4006 -0.4198 -0.7842
 4463SOL     OW25021   3.839   4.178   1.860  0.1318 -0.3173  0.1542
 4463SOL    HW125022   3.795   4.206   1.940  3.8394  1.7880  1.4798
 4463SOL    HW225023   3.775   4.188   1.789  0.5281  0.7492 -0.0631
 4464SOL     OW25024   0.190   2.464   6.195  0.3427 -0.2974 -0.5623
 4464SOL    HW125025   0.169   2.448   6.287  1.3442 -0.5177 -0.3728
 4464SOL    HW225026   0.151   2.550   6.183  2.5050  0.7456 -0.2241
 4465SOL     OW25027   0.779   4.116  12.024 -0.3005  0.8052 -0.5158
 4465SOL    HW125028   0.752   4.174  12.095  1.7980 -0.5762  1.4099
 4465SOL    HW225029   0.846   4.170  11.981 -0.2616  0.8988 -0.3354
 4466SOL     OW25030   1.153   0.168   3.241 -0.1816 -1.1302  0.1207
 4466SOL    HW125031   1.185   0.217   3.165 -0.8239 -2.0605 -0.7614
 4466SOL    HW225032   1.084   0.226   3.275  2.5365  1.6741  0.7938
 4467SOL     OW25033   3.315   3.872   4.053  0.7862  0.2194 -0.0952
 4467SOL    HW125034   3.265   3.952   4.034  0.3576 -0.0650 -0.1797
 4467SOL    HW225035   3.336   3.877   4.146 -3.9723  1.1346  0.9442
 4468SOL     OW25036   2.145   1.174   3.777  0.4920 -0.1511 -0.2335
 4468SOL    HW125037   2.108   1.236   3.714 -1.0774 -0.7458  0.1068
 4468SOL    HW225038   2.077   1.188   3.843 -0.0791 -0.1464 -0.8222
 4469SOL     OW25039   0.447   3.359   3.015  0.4829  0.1192 -1.0286
 4469SOL    HW125040   0.403   3.372   2.931 -2.3021 -1.1895  0.2464
 4469SOL    HW225041   0.516   3.425   3.019  1.0944 -0.6730  1.5296
 4470SOL     OW25042   0.206   1.412   0.728  0.2795  0.0684  0.0286
 4470SOL    HW125043   0.181   1.331   0.773  1.8082 -0.7723 -0.6351
 4470SOL    HW225044   0.125   1.427   0.680  0.5705 -0.1736 -0.5404
 4471SOL     OW25045   1.925   2.475  13.115  0.4795 -0.0553 -0.5205
 4471SOL    HW125046   1.991   2.488  13.183 -2.2851  0.3451  2.0765
 4471SOL    HW225047   1.922   2.550  13.056 -1.9331  0.5927  0.4462
 4472SOL     OW25048   1.116   0.512   6.101  0.3465  0.0979 -0.3305
 4472SOL    HW125049   1.098   0.504   6.195  0.2774 -0.8493 -0.4314
 4472SOL    HW225050   1.201   0.468   6.095  0.0287 -0.5517 -0.1015
 4473SOL     OW25051   1.669   0.803   3.397 -0.2525  0.1928  0.3835
 4473SOL    HW125052   1.623   0.783   3.479  1.0090  0.2657  1.1038
 4473SOL    HW225053   1.591   0.840   3.356  0.7488  0.3616 -1.3948
 4474SOL     OW25054   4.712   0.521  11.120  0.3461 -0.4239 -0.6436
 4474SOL    HW125055   0.068   0.519  11.139  0.8434 -0.0880 -3.1095
 4474SOL    HW225056   4.690   0.436  11.157  0.4999 -0.4006 -0.4998
 4475SOL     OW25057   2.887   0.933  17.367 -0.3433  0.3390  0.4819
 4475SOL    HW125058   2.963   0.989  17.379  0.1539 -0.7459  2.3740
 4475SOL    HW225059   2.920   0.850  17.332 -1.6746 -0.3850  0.9288
 4476SOL     OW25060   2.421   1.370  15.717  0.5862 -0.1505  0.3323
 4476SOL    HW125061   2.426   1.363  15.812 -0.5152  1.0690  0.4771
 4476SOL    HW225062   2.508   1.395  15.687  0.8512  0.2112  1.3998
 4477SOL     OW25063   1.314   2.737   3.420 -0.0365 -0.5374  0.1715
 4477SOL    HW125064   1.248   2.760   3.355 -0.0127  0.3186  0.4481
 4477SOL    HW225065   1.266   2.666   3.462 -1.8321 -0.6403 -2.1074
 4478SOL     OW25066   0.877   4.101   6.220 -0.5743  0.2825 -0.2072
 4478SOL    HW125067   0.908   4.170   6.161  1.1900  1.2630  1.8917
 4478SOL    HW225068   0.944   4.036   6.199  0.2817  1.3716 -0.8443
 4479SOL     OW25069   3.900   1.994   1.037 -0.3005 -0.3772  0.2453
 4479SOL    HW125070   3.865   2.026   0.955 -1.1033  0.0479  0.7512
 4479SOL    HW225071   3.840   1.924   1.062  1.6740 -1.6458  1.4749
 4480SOL     OW25072   1.105   1.045   2.949 -0.5859 -0.2324  0.0007
 4480SOL    HW125073   1.185   0.993   2.950 -0.2855  0.2592  0.9557
 4480SOL    HW225074   1.049   1.007   3.017 -0.9514 -1.6242 -1.0726
 4481SOL     OW25075   3.032   3.411   4.881  0.0091  0.7553  0.3502
 4481SOL    HW125076   3.005   3.468   4.809 -4.5496 -0.7864  0.8753
 4481SOL    HW225077   3.070   3.340   4.829 -2.1639  0.5513 -0.9349
 4482SOL     OW25078   3.357   4.228   9.300  0.0243 -0.0958 -0.0259
 4482SOL    HW125079   3.442   4.273   9.304  1.2350 -2.3612 -0.3446
 4482SOL    HW225080   3.362   4.156   9.238  0.1976 -0.3160  0.2465
 4483SOL     OW25081   0.173   2.574   5.585 -0.0837 -0.0201 -0.1161
 4483SOL    HW125082   0.208   2.541   5.503  2.7569 -0.7952  1.3995
 4483SOL    HW225083   0.105   2.631   5.549  0.7736  2.2267  1.7728
 4484SOL     OW25084   0.792   0.001   1.562 -0.1075  0.2811 -0.1261
 4484SOL    HW125085   0.772   0.095   1.564 -2.3362 -0.2030  0.3436
 4484SOL    HW225086   0.700   4.714   1.556 -0.2393  1.0880 -1.5074
 4485SOL     OW25087   0.788   4.086   1.011  0.1985 -0.5000  0.6441
 4485SOL    HW125088   0.756   4.010   1.059 -0.6065 -1.3385 -1.2298
 4485SOL    HW225089   0.716   4.098   0.949  1.0352 -1.3642 -0.4932
 4486SOL     OW25090   3.487   4.002   6.878  0.1573  0.1669  0.3323
 4486SOL    HW125091   3.463   4.052   6.800  2.3092 -0.1613 -0.5288
 4486SOL    HW225092   3.448   4.039   6.957 -0.4083  0.6258 -0.1643
 4487SOL     OW25093   1.481   2.023  13.820 -0.5130 -0.0551 -0.7744
 4487SOL    HW125094   1.466   1.988  13.733  0.8899 -1.4275 -0.4707
 4487SOL    HW225095   1.413   1.983  13.873  1.4839 -2.3157  0.0728
 4488SOL     OW25096   2.411   0.140   5.005 -0.3691 -0.2409  0.9114
 4488SOL    HW125097   2.486   0.199   4.996 -1.0987  0.6560  0.7733
 4488SOL    HW225098   2.346   0.207   4.986  1.5770  1.9779  2.0532
 4489SOL     OW25099   3.688   0.422   5.077 -0.0546 -0.4427  0.1721
 4489SOL    HW125100   3.616   0.360   5.084 -1.9118  1.3416 -3.1053
 4489SOL    HW225101   3.748   0.352   5.050  0.3892 -0.1802  0.4710
 4490SOL     OW25102   2.384   3.505  12.623 -0.1591 -0.3649 -0.1968
 4490SOL    HW125103   2.443   3.555  12.567  0.4933  0.0468  0.8795
 4490SOL    HW225104   2.305   3.555  12.602 -0.3249 -0.1963  0.8265
 4491SOL     OW25105   3.796   4.291   6.070  0.2118 -0.3394 -0.0237
 4491SOL    HW125106   3.740   4.251   6.004 -1.0756 -1.3276  1.6619
 4491SOL    HW225107   3.749   4.373   6.089  1.7900  0.3831  0.7989
 4492SOL     OW25108   1.627   0.367   7.756 -0.3429  0.1992 -0.2765
 4492SOL    HW125109   1.558   0.418   7.714  0.0899  0.7267 -0.3477
 4492SOL    HW225110   1.691   0.358   7.685 -0.0698  0.1886 -0.0293
 4493SOL     OW25111   2.353   3.481   1.684 -0.1534  0.1183  0.5422
 4493SOL    HW125112   2.278   3.540   1.681 -0.2836 -0.1016 -0.5640
 4493SOL    HW225113   2.361   3.458   1.592 -1.5168 -0.0830  0.4774
 4494SOL     OW25114   0.841   1.364   9.399 -0.0056  0.1022  0.2132
 4494SOL    HW125115   0.835   1.298   9.330  1.5731 -1.2851  1.3899
 4494SOL    HW225116   0.910   1.417   9.360 -0.1122 -0.0415 -0.1673
 4495SOL     OW25117   3.329   4.201   1.716  0.9102 -0.5817 -0.3036
 4495SOL    HW125118   3.255   4.186   1.657 -0.4573 -0.1802  1.2931
 4495SOL    HW225119   3.407   4.158   1.682  1.0930  1.0716 -1.9223
 4496SOL     OW25120   2.066   1.169   0.067  0.2217  0.3681  0.2379
 4496SOL    HW125121   1.986   1.132   0.103  0.3171  0.4031  0.4900
 4496SOL    HW225122   2.121   1.121   0.128 -0.4006  0.3416  0.7830
 4497SOL     OW25123   1.850   3.505  12.560 -0.4935 -0.0506  0.1197
 4497SOL    HW125124   1.795   3.561  12.505 -0.5012  1.6562  1.9043
 4497SOL    HW225125   1.869   3.436  12.496  1.1850  2.0777 -1.6932
 4498SOL     OW25126   3.346   2.332  10.836 -0.2398 -0.4515 -0.0306
 4498SOL    HW125127   3.363   2.322  10.743 -1.0658 -1.3179 -0.0827
 4498SOL    HW225128   3.287   2.406  10.825  0.4755  0.3151  1.1754
 4499SOL     OW25129   1.276   0.244   3.808  0.2571 -0.9387 -0.1026
 4499SOL    HW125130   1.337   0.171   3.804 -0.3053 -1.5341  2.3056
 4499SOL    HW225131   1.308   0.303   3.739  1.1160 -0.8701  0.3540
 4500SOL     OW25132   1.185   1.490   3.378  0.6582  0.0235 -0.1100
 4500SOL    HW125133   1.255   1.527   3.324 -0.6634  0.1619 -1.7034
 4500SOL    HW225134   1.222   1.495   3.466  0.5866 -1.2829 -0.0109
 4501SOL     OW25135   2.146   4.553   2.231 -0.1325 -0.3290  0.0879
 4501SOL    HW125136   2.127   4.471   2.276 -0.6286  0.8552  1.9987
 4501SOL    HW225137   2.064   4.604   2.233  0.9519  1.4275  0.0234
 4502SOL     OW25138   0.516   2.120   7.048 -0.2498 -0.5314 -0.2942
 4502SOL    HW125139   0.528   2.190   7.111 -0.7773 -0.1363 -0.6338
 4502SOL    HW225140   0.489   2.156   6.963  0.5390  0.8913  0.0524
 4503SOL     OW25141   3.210   4.251  15.229 -0.1091 -0.2804 -0.5449
 4503SOL    HW125142   3.229   4.264  15.322 -2.2877 -1.3736  0.0452
 4503SOL    HW225143   3.275   4.299  15.178 -0.4130 -1.1129 -1.7105
 4504SOL     OW25144   4.181   3.479  16.219  0.1506  0.2991  0.5692
 4504SOL    HW125145   4.273   3.470  16.192  0.2168  0.5146  0.7257
 4504SOL    HW225146   4.162   3.571  16.198 -1.3342 -0.0334  0.4466
 4505SOL     OW25147   4.598   2.517  16.727  0.7133 -0.1551  0.1966
 4505SOL    HW125148   4.556   2.539  16.644  0.1764 -1.3088  0.1618
 4505SOL    HW225149   4.688   2.541  16.705  1.1708 -1.9684  0.0459
 4506SOL     OW25150   1.468   4.394  10.496  0.1866 -0.0197 -0.9479
 4506SOL    HW125151   1.542   4.334  10.498  0.3071  0.1240 -1.0961
 4506SOL    HW225152   1.455   4.419  10.405 -2.4026  1.7364 -0.0900
 4507SOL     OW25153   4.193   1.398   5.144  0.5321 -0.2829 -0.1071
 4507SOL    HW125154   4.262   1.372   5.205 -0.2245  3.9351  2.5614
 4507SOL    HW225155   4.239   1.476   5.113  0.4763 -0.9984 -1.9625
 4508SOL     OW25156   4.544   3.137   4.121 -0.6083  0.3826  0.0669
 4508SOL    HW125157   4.603   3.154   4.048  0.4911  1.0117  1.0927
 4508SOL    HW225158   4.601   3.067   4.153 -0.5632  2.4126  4.4476
 4509SOL     OW25159   2.058   0.509   9.739  0.2362  0.3022  0.0874
 4509SOL    HW125160   1.968   0.478   9.732 -1.0091  3.6726  1.3220
 4509SOL    HW225161   2.090   0.464   9.661  1.1496 -1.8252  1.6797
 4510SOL     OW25162   0.717   1.810   8.993 -0.1501 -0.1706  0.3375
 4510SOL    HW125163   0.657   1.874   8.955 -2.2418 -1.9306  0.6937
 4510SOL    HW225164   0.699   1.735   8.936  1.8865 -0.0154 -0.5269
 4511SOL     OW25165   3.719   2.611   4.142 -0.1550 -0.1022  0.2041
 4511SOL    HW125166   3.665   2.661   4.202  0.5200 -1.5024  1.9653
 4511SOL    HW225167   3.810   2.620   4.170 -1.2011  3.2267  2.4636
 4512SOL     OW25168   4.021   0.062   2.833  0.0287  0.2071 -0.1755
 4512SOL    HW125169   4.082   0.014   2.777 -0.8650 -0.1149 -0.8871
 4512SOL    HW225170   3.965   4.729   2.866 -0.1821  1.3506  1.8733
 4513SOL     OW25171   1.203   0.249  17.743 -0.9080 -0.6874 -0.3824
 4513SOL    HW125172   1.114   0.225  17.715 -0.5504 -1.2138 -1.0430
 4513SOL    HW225173   1.250   0.185  17.690  1.8320  0.7543  0.2956
 4514SOL     OW25174   1.642   0.146   8.383  0.0725  0.2010 -0.0138
 4514SOL    HW125175   1.697   0.184   8.451  0.9905 -1.3357  0.0980
 4514SOL    HW225176   1.589   0.221   8.356  0.9699  0.9908  0.4498
 4515SOL     OW25177   2.464   0.510   5.102 -0.4053 -0.2764  0.3002
 4515SOL    HW125178   2.411   0.499   5.181  0.0953  0.7086  0.7779
 4515SOL    HW225179   2.400   0.475   5.039  0.6929  1.1702 -1.6284
 4516SOL     OW25180   1.998   0.382  16.751 -0.5473  0.0974  0.2965
 4516SOL    HW125181   1.939   0.342  16.815  1.3798  0.5739  2.3791
 4516SOL    HW225182   1.942   0.456  16.730 -1.3076 -0.7719 -0.7483
 4517SOL     OW25183   0.111   0.051   4.869 -0.1363 -0.0998 -0.1756
 4517SOL    HW125184   0.172   0.124   4.857 -0.1595 -0.1756 -0.7263
 4517SOL    HW225185   0.032   0.105   4.864 -0.1318  0.1225  2.2421
 4518SOL     OW25186   1.053   0.981   5.258 -0.9711  0.7364 -0.4588
 4518SOL    HW125187   0.986   1.008   5.321 -1.4129  0.9463 -1.0232
 4518SOL    HW225188   1.051   0.886   5.274 -1.9451  0.5633 -1.6171
 4519SOL     OW25189   0.479   3.151   9.226 -0.4313 -0.0370  0.3857
 4519SOL    HW125190   0.494   3.087   9.157  0.8281 -0.0509  0.6780
 4519SOL    HW225191   0.556   3.207   9.219 -0.8035  0.3022 -0.9334
 4520SOL     OW25192   0.243   0.037   8.122 -0.0163  0.0817  0.8187
 4520SOL    HW125193   0.190   0.002   8.194  1.2478 -2.2231  0.6057
 4520SOL    HW225194   0.201   4.734   8.047  0.5297  1.7554 -0.4041
 4521SOL     OW25195   0.164   4.650   3.152  0.4666  0.4470  0.4878
 4521SOL    HW125196   0.141   4.630   3.061 -0.6148  0.5033  0.7463
 4521SOL    HW225197   0.231   4.584   3.169 -1.0862 -1.2682 -0.0598
 4522SOL     OW25198   2.800   2.244   9.027  0.0031 -0.8218  0.2921
 4522SOL    HW125199   2.876   2.295   9.000 -0.4927 -0.6968 -0.8627
 4522SOL    HW225200   2.802   2.189   8.949  2.3916 -0.2305 -0.0678
 4523SOL     OW25201   4.320   2.871   5.761 -0.2997 -0.0753 -0.2672
 4523SOL    HW125202   4.383   2.848   5.829 -2.3082  1.2589  2.0690
 4523SOL    HW225203   4.257   2.799   5.762 -0.1076 -0.2326  0.4018
 4524SOL     OW25204   3.634   0.078  12.524 -0.1971 -0.4612  0.2763
 4524SOL    HW125205   3.576   0.014  12.565 -1.0308 -0.9208 -1.6625
 4524SOL    HW225206   3.594   0.165  12.526  0.6408 -0.0332 -1.6578
 4525SOL     OW25207   3.346   2.381  10.202  0.3591 -0.2981 -0.0813
 4525SOL    HW125208   3.350   2.285  10.208 -4.6844 -0.5141 -0.2847
 4525SOL    HW225209   3.410   2.407  10.268 -0.7573 -1.3613  1.4344
 4526SOL     OW25210   1.847   2.949  10.680 -0.4474  0.5657 -0.3729
 4526SOL    HW125211   1.930   2.986  10.650 -1.7635  1.4545 -2.9512
 4526SOL    HW225212   1.843   2.985  10.768 -1.2076  0.3732 -0.3272
 4527SOL     OW25213   4.100   2.063   2.516  0.8448  0.3169 -0.9569
 4527SOL    HW125214   4.067   2.051   2.606  1.5476 -0.4619 -0.8051
 4527SOL    HW225215   4.186   2.100   2.533 -0.1515  3.0146 -1.7169
 4528SOL     OW25216   4.207   0.409   3.861 -0.7156  0.2732  0.1659
 4528SOL    HW125217   4.216   0.342   3.928  1.7872  1.4518  1.0030
 4528SOL    HW225218   4.297   0.431   3.835 -0.6008  1.5228  1.6475
 4529SOL     OW25219   4.176   0.660   4.367 -0.5243  0.1129  0.0377
 4529SOL    HW125220   4.132   0.618   4.294  0.6867  1.7002 -1.5990
 4529SOL    HW225221   4.211   0.737   4.322  0.1337  2.0749  3.8738
 4530SOL     OW25222   3.949   1.375   2.357  0.4372 -0.0677  0.5147
 4530SOL    HW125223   3.873   1.327   2.325  1.1132  0.1051 -1.3869
 4530SOL    HW225224   3.909   1.457   2.385 -0.1513 -0.0331 -0.4200
 4531SOL     OW25225   1.886   2.758  13.690 -0.1114  0.1933  0.3685
 4531SOL    HW125226   1.816   2.750  13.625 -0.9858 -0.8503  1.4551
 4531SOL    HW225227   1.853   2.698  13.757  0.0442 -0.0003  0.2748
 4532SOL     OW25228   1.637   4.687   3.727  0.1020  0.4364 -0.3590
 4532SOL    HW125229   1.577   4.680   3.801 -1.4852  0.1136 -1.6859
 4532SOL    HW225230   1.719   4.651   3.762 -1.0920 -1.5175  0.4577
 4533SOL     OW25231   2.899   1.686  11.483  0.7274 -0.3974 -0.4193
 4533SOL    HW125232   2.953   1.739  11.542 -1.0743  1.0743 -0.0939
 4533SOL    HW225233   2.851   1.630  11.544 -1.1011 -0.4580 -1.9445
 4534SOL     OW25234   3.223   2.063   9.650  0.5568  0.2442  0.4125
 4534SOL    HW125235   3.134   2.061   9.685  0.4680  1.0255  0.2391
 4534SOL    HW225236   3.247   2.155   9.658  0.7255  0.2054  0.3497
 4535SOL     OW25237   3.425   1.409   3.871 -0.0024  0.2063 -0.0479
 4535SOL    HW125238   3.348   1.466   3.870 -0.5980 -0.5744  1.4890
 4535SOL    HW225239   3.452   1.417   3.963  1.3945  2.0807 -0.6211
 4536SOL     OW25240   0.397   4.092  10.058  0.0726  0.1614 -0.2232
 4536SOL    HW125241   0.369   4.169  10.108 -0.2191  0.5795 -1.0143
 4536SOL    HW225242   0.477   4.070  10.106  1.6843  0.1847 -2.8880
 4537SOL     OW25243   0.170   4.189   0.562 -0.2303 -1.0770 -0.1827
 4537SOL    HW125244   0.089   4.140   0.550 -0.9404  0.0020  0.1809
 4537SOL    HW225245   0.190   4.200   0.469  0.8390 -0.9888  0.0594
 4538SOL     OW25246   3.510   1.942   3.979 -0.1227 -0.1057 -0.1341
 4538SOL    HW125247   3.573   1.872   3.961  2.5503  2.2806 -0.0638
 4538SOL    HW225248   3.563   2.019   3.956 -2.4399  1.0927 -1.4275
 4539SOL     OW25249   3.298   4.058  16.392  0.4014  0.1679 -0.1515
 4539SOL    HW125250   3.234   4.114  16.346  1.0330  1.0786  0.0868
 4539SOL    HW225251   3.344   4.123  16.444  0.6780 -0.1091 -0.0547
 4540SOL     OW25252   3.779   2.251   1.377 -0.1491  0.2493  0.3479
 4540SOL    HW125253   3.794   2.279   1.286 -1.3216  1.0356  0.4028
 4540SOL    HW225254   3.686   2.266   1.394 -0.3711  0.3020 -0.9322
 4541SOL     OW25255   0.907   4.503   9.437  0.8516  0.2233  0.2564
 4541SOL    HW125256   0.818   4.534   9.417  0.0724 -2.4238 -0.4019
 4541SOL    HW225257   0.900   4.409   9.422 -0.9113  0.2841  0.7195
 4542SOL     OW25258   4.571   4.498   9.706  0.0642  0.3475 -0.5583
 4542SOL    HW125259   4.604   4.453   9.783 -0.9222  0.5092 -0.0336
 4542SOL    HW225260   4.644   4.482   9.646  0.7325 -1.2947  0.7121
 4543SOL     OW25261   1.604   3.804   6.177 -0.2232 -0.4720  0.1682
 4543SOL    HW125262   1.563   3.740   6.119 -3.4346  1.7540  0.0183
 4543SOL    HW225263   1.697   3.801   6.155  0.1875 -0.4444  1.8606
 4544SOL     OW25264   1.510   1.044  13.641 -0.8153  0.1689  0.4298
 4544SOL    HW125265   1.586   0.989  13.660 -2.1539 -2.2441 -1.1849
 4544SOL    HW225266   1.550   1.126  13.669 -0.0145  0.0093 -0.2198
 4545SOL     OW25267   1.369   3.686   7.508 -0.1817 -0.0270  0.3031
 4545SOL    HW125268   1.286   3.731   7.492  0.0921  0.4285  0.1501
 4545SOL    HW225269   1.348   3.595   7.490 -0.1753 -0.1158  0.7430
 4546SOL     OW25270   1.635   4.310   9.350  0.3862  0.5129 -0.5289
 4546SOL    HW125271   1.553   4.265   9.332  1.3441 -0.8538 -1.4865
 4546SOL    HW225272   1.607   4.400   9.334 -0.3628  0.5291  0.9009
 4547SOL     OW25273   3.030   2.614  12.573  0.4685 -0.3935 -0.1717
 4547SOL    HW125274   3.021   2.544  12.639 -0.6429 -0.4829 -0.4219
 4547SOL    HW225275   3.112   2.588  12.532  0.6287  2.0561 -1.3530
 4548SOL     OW25276   0.416   0.602   2.637 -0.4407 -0.1516  0.1761
 4548SOL    HW125277   0.390   0.510   2.648 -1.4716 -0.0410 -1.3339
 4548SOL    HW225278   0.409   0.611   2.542  2.8681 -2.9866 -0.3293
 4549SOL     OW25279   3.973   1.275   7.671 -0.0613  0.1634 -0.0593
 4549SOL    HW125280   4.020   1.262   7.588 -1.7593 -2.0492 -0.6718
 4549SOL    HW225281   3.952   1.367   7.658  0.9018  0.3403 -0.3637
 4550SOL     OW25282   4.072   1.295  14.742  0.1260 -0.3395  0.2583
 4550SOL    HW125283   3.994   1.349  14.748  0.3268  0.2020 -2.2131
 4550SOL    HW225284   4.104   1.298  14.833  0.0082 -0.7180  0.3149
 4551SOL     OW25285   3.483   0.255   7.759  0.1975  0.3031  0.1377
 4551SOL    HW125286   3.426   0.292   7.826  0.2812  0.1479  0.2940
 4551SOL    HW225287   3.564   0.306   7.772  0.5497 -0.2180 -0.0171
 4552SOL     OW25288   0.689   0.811   8.831 -0.6351 -0.9014 -0.3080
 4552SOL    HW125289   0.760   0.860   8.790 -0.5792  0.3358  1.2773
 4552SOL    HW225290   0.734   0.771   8.906  2.4267  4.1210  0.5456
 4553SOL     OW25291   3.212   0.669   7.042 -0.4032  0.1376  0.2297
 4553SOL    HW125292   3.135   0.721   7.065 -0.1222 -1.0058  3.7476
 4553SOL    HW225293   3.226   0.632   7.130  0.6877  0.1975  0.0747
 4554SOL     OW25294   0.946   4.137   4.625  0.0783  0.3726 -0.7626
 4554SOL    HW125295   0.939   4.047   4.593  0.5912 -0.1515  0.6218
 4554SOL    HW225296   0.938   4.133   4.720  2.2429  2.7012 -0.4768
 4555SOL     OW25297   0.432   3.306  11.711 -0.6837  0.2679  0.0572
 4555SOL    HW125298   0.377   3.355  11.771 -1.8490 -3.3744  1.9449
 4555SOL    HW225299   0.516   3.289  11.755 -0.7601  0.0794  0.1277
 4556SOL     OW25300   0.679   0.423   4.050  0.0992  0.2176  0.3673
 4556SOL    HW125301   0.751   0.457   4.103 -0.0021  2.3332 -0.8451
 4556SOL    HW225302   0.695   0.329   4.055  0.5373  0.2440 -0.4822
 4557SOL     OW25303   2.603   1.900   9.827  0.3499 -0.2225 -0.0336
 4557SOL    HW125304   2.590   1.994   9.837  0.6255 -0.5499  3.5634
 4557SOL    HW225305   2.518   1.872   9.862 -0.2699 -0.2412 -1.5452
 4558SOL     OW25306   4.660   3.841   5.755 -0.1764  0.4942  0.2405
 4558SOL    HW125307   4.678   3.751   5.779  0.2999  0.7814  0.9625
 4558SOL    HW225308   4.636   3.865   5.844  1.3117 -0.3677  0.8702
 4559SOL     OW25309   4.224   0.664   7.655  0.3404  0.2804  0.2020
 4559SOL    HW125310   4.304   0.665   7.708  1.0940  1.7771 -0.9572
 4559SOL    HW225311   4.173   0.734   7.694 -0.3540 -0.1346  0.0355
 4560SOL     OW25312   4.243   2.927   5.319 -0.5115 -0.6461  0.0576
 4560SOL    HW125313   4.158   2.894   5.289  0.6533 -1.3936 -2.4401
 4560SOL    HW225314   4.210   2.996   5.376 -0.2076 -2.1278  1.9890
 4561SOL     OW25315   3.256   3.181  12.911  0.5739 -0.0849 -0.2127
 4561SOL    HW125316   3.335   3.208  12.863 -0.1734 -0.4601 -1.6769
 4561SOL    HW225317   3.184   3.220  12.861 -0.0947 -1.6669 -0.4958
 4562SOL     OW25318   4.416   1.366   7.106 -0.2630 -0.2923  0.3030
 4562SOL    HW125319   4.498   1.368   7.056  1.3618  0.5477  3.0479
 4562SOL    HW225320   4.412   1.456   7.137  0.8051 -0.3865  0.7369
 4563SOL     OW25321   1.053   3.160   3.805  0.1731 -0.2459  0.1220
 4563SOL    HW125322   0.983   3.096   3.790  0.7268 -1.2219  1.7064
 4563SOL    HW225323   1.129   3.102   3.799  1.1717  1.0018  0.7631
 4564SOL     OW25324   2.819   2.541  10.483 -0.4893 -0.0252  0.5647
 4564SOL    HW125325   2.763   2.617  10.499  1.8231  1.5023  1.3322
 4564SOL    HW225326   2.874   2.540  10.561  1.1419 -1.3865 -0.6220
 4565SOL     OW25327   1.273   4.156   4.315  0.4744  0.4525  0.2238
 4565SOL    HW125328   1.345   4.177   4.255  0.4741  3.0227  1.1178
 4565SOL    HW225329   1.199   4.182   4.261 -0.1108 -0.3363  0.6529
 4566SOL     OW25330   4.016   2.894  10.062  0.4579 -0.1901  0.2707
 4566SOL    HW125331   4.083   2.827  10.067  0.5114 -0.2172 -0.8829
 4566SOL    HW225332   4.018   2.908   9.967 -1.9575  0.3793  0.2979
 4567SOL     OW25333   2.590   3.443   5.626  0.0261  0.3799 -0.2273
 4567SOL    HW125334   2.535   3.373   5.663  1.5939 -0.1084  1.2236
 4567SOL    HW225335   2.609   3.400   5.543  1.8144  0.3908  0.1822
 4568SOL     OW25336   3.350   3.371  10.496  0.1129 -0.0291 -0.4104
 4568SOL    HW125337   3.255   3.358  10.497 -0.1451  1.7323 -2.0447
 4568SOL    HW225338   3.380   3.294  10.542 -2.3948 -0.9053 -0.2357
 4569SOL     OW25339   2.959   3.777   8.278  0.3797 -0.2481 -0.2583
 4569SOL    HW125340   3.042   3.753   8.236  0.5872 -0.3610  0.2231
 4569SOL    HW225341   2.933   3.694   8.318  1.3998  0.0274  0.9643
 4570SOL     OW25342   3.288   3.786   1.990 -0.0718 -0.2580  0.2938
 4570SOL    HW125343   3.381   3.802   2.007 -0.0339 -1.1159  0.9091
 4570SOL    HW225344   3.279   3.693   1.968  0.5166 -0.1010 -0.5911
 4571SOL     OW25345   0.948   4.307  12.302  0.4687  0.0501  0.0674
 4571SOL    HW125346   0.864   4.310  12.257 -0.0090  3.0706  1.1788
 4571SOL    HW225347   0.935   4.221  12.343  1.2135  1.0178  2.3270
 4572SOL     OW25348   2.390   3.461   8.147 -0.1026  0.4169 -0.3524
 4572SOL    HW125349   2.314   3.455   8.206 -1.0162  2.1245 -1.3595
 4572SOL    HW225350   2.412   3.553   8.159 -3.0197  0.6758  3.2122
 4573SOL     OW25351   4.586   1.054   6.591  0.3047  0.5712  0.8926
 4573SOL    HW125352   4.493   1.035   6.600  0.3359  0.5674  1.2207
 4573SOL    HW225353   4.622   0.973   6.627  0.2710  0.2152  0.1179
 4574SOL     OW25354   3.498   3.432   3.417  0.0795 -0.1547 -0.2130
 4574SOL    HW125355   3.587   3.397   3.430  0.1167 -0.2470 -0.7281
 4574SOL    HW225356   3.493   3.466   3.328  1.4228 -0.7648 -0.5281
 4575SOL     OW25357   3.426   1.226   5.229  0.0344  0.3303  0.2381
 4575SOL    HW125358   3.501   1.220   5.170 -1.3131 -2.2673 -1.2077
 4575SOL    HW225359   3.381   1.304   5.199 -0.1574  0.8573  1.9080
 4576SOL     OW25360   2.518   1.778  14.292 -0.0536  0.0725  0.3340
 4576SOL    HW125361   2.428   1.798  14.319 -0.3909 -2.5177  1.1245
 4576SOL    HW225362   2.519   1.811  14.202 -2.0975 -2.6140 -0.6873
 4577SOL     OW25363   1.455   1.513   2.925 -0.0529  0.3363  1.0005
 4577SOL    HW125364   1.531   1.458   2.942  1.0090  1.3979 -0.3427
 4577SOL    HW225365   1.387   1.449   2.904  1.2199 -0.2988 -1.1296
 4578SOL     OW25366   0.381   2.835  15.611  0.0902 -0.4426  0.3722
 4578SOL    HW125367   0.367   2.911  15.555 -1.6431  0.1432  1.6259
 4578SOL    HW225368   0.440   2.783  15.555  1.3365 -1.7325  2.8951
 4579SOL     OW25369   1.619   2.704   2.070  0.4718  0.1189  0.0155
 4579SOL    HW125370   1.528   2.727   2.092  0.5372 -0.3900  0.7958
 4579SOL    HW225371   1.651   2.712   2.159 -1.2594  1.2465  0.5394
 4580SOL     OW25372   4.176   2.271  10.318  0.5537 -0.1393  0.4658
 4580SOL    HW125373   4.220   2.188  10.337  0.3363  0.4962  3.6266
 4580SOL    HW225374   4.148   2.260  10.227 -0.6916 -0.7418  0.9215
 4581SOL     OW25375   2.376   1.669   9.010  0.3357 -0.1366  0.5691
 4581SOL    HW125376   2.336   1.741   8.962 -0.7635 -1.5478 -0.6351
 4581SOL    HW225377   2.411   1.623   8.934 -2.9145 -2.6602  0.6282
 4582SOL     OW25378   3.410   1.714   6.640  0.6843 -0.5478 -0.6322
 4582SOL    HW125379   3.454   1.712   6.555 -0.2269  0.1191 -1.1189
 4582SOL    HW225380   3.327   1.752   6.611  0.1510 -0.4984  0.9607
 4583SOL     OW25381   0.769   1.021   7.195  0.3769  0.5272 -0.6211
 4583SOL    HW125382   0.750   0.927   7.188  0.5320  0.5262 -1.0461
 4583SOL    HW225383   0.706   1.069   7.141  1.4788 -0.0229 -2.4255
 4584SOL     OW25384   3.001   2.061   5.187  0.1626  0.1270  0.0446
 4584SOL    HW125385   2.971   2.145   5.222 -1.6296 -0.6072  0.2639
 4584SOL    HW225386   2.955   2.071   5.104 -0.9436  0.2884  0.6738
 4585SOL     OW25387   1.692   1.501   3.983  0.1229  0.0625  0.4539
 4585SOL    HW125388   1.647   1.423   4.015  1.0618 -0.1538  1.2730
 4585SOL    HW225389   1.647   1.562   4.041 -0.3368  1.2714 -1.1727
 4586SOL     OW25390   4.411   3.843   2.071 -0.3870  0.6358 -0.2101
 4586SOL    HW125391   4.396   3.781   2.000  2.4736  1.1115 -1.2097
 4586SOL    HW225392   4.490   3.817   2.118  0.3911  0.0504 -1.8886
 4587SOL     OW25393   2.083   1.500   7.198  0.1295 -0.4612 -0.4722
 4587SOL    HW125394   1.992   1.495   7.226 -0.4607 -0.1006 -2.3347
 4587SOL    HW225395   2.124   1.562   7.259  1.2331 -0.4176 -1.2504
 4588SOL     OW25396   2.385   4.731  14.332  0.9915 -0.0486  0.0383
 4588SOL    HW125397   2.427   4.645  14.329  1.5000  0.1788  0.4699
 4588SOL    HW225398   2.456   0.055  14.354  0.2801  0.4812  0.8705
 4589SOL     OW25399   4.038   3.698  16.103 -0.4402 -0.2592  0.4249
 4589SOL    HW125400   4.032   3.659  16.016  1.8011 -2.1319  1.0918
 4589SOL    HW225401   4.028   3.792  16.090 -3.2808 -0.6031  0.1680
 4590SOL     OW25402   2.555   1.474   6.135 -0.1153  0.0563  0.0307
 4590SOL    HW125403   2.647   1.449   6.138 -0.0378  0.2213 -1.1557
 4590SOL    HW225404   2.564   1.545   6.199  0.2142 -1.4232  1.6452
 4591SOL     OW25405   1.749   2.794   3.883  0.8666  0.3615 -0.5806
 4591SOL    HW125406   1.828   2.845   3.902 -0.6207  1.9514  1.2977
 4591SOL    HW225407   1.776   2.703   3.896 -0.3450 -0.3094 -2.9504
 4592SOL     OW25408   4.137   1.785   7.627  0.0269  0.3648 -0.4191
 4592SOL    HW125409   4.095   1.869   7.611 -0.6624 -0.1276 -1.2306
 4592SOL    HW225410   4.094   1.763   7.710  0.1400 -2.0916 -1.0072
 4593SOL     OW25411   3.972   2.320   8.721  0.4471 -0.2172 -0.2193
 4593SOL    HW125412   4.067   2.315   8.713  0.4041  3.0007 -2.7397
 4593SOL    HW225413   3.959   2.237   8.767  1.5978  0.2392  0.9538
 4594SOL     OW25414   2.457   3.322   6.101 -0.2657 -0.4851 -0.4487
 4594SOL    HW125415   2.458   3.240   6.151 -0.7134 -0.7701 -0.9138
 4594SOL    HW225416   2.362   3.329   6.093 -0.3276  0.1630  0.7566
 4595SOL     OW25417   2.504   2.920  14.202 -0.0947 -0.0715  0.3829
 4595SOL    HW125418   2.503   2.933  14.297 -1.6359  2.1848  0.0498
 4595SOL    HW225419   2.411   2.914  14.181 -0.1981 -0.0976  0.8472
 4596SOL     OW25420   1.837   0.521  15.953  0.2939 -0.6636 -0.0935
 4596SOL    HW125421   1.783   0.507  15.875 -2.8135  0.4630  1.8700
 4596SOL    HW225422   1.799   0.462  16.018 -0.7608 -0.2873 -0.3628
 4597SOL     OW25423   4.097   4.232   4.421  0.3596  0.5869  0.0107
 4597SOL    HW125424   4.118   4.325   4.432 -0.1432  0.7578 -0.4489
 4597SOL    HW225425   4.031   4.245   4.353 -1.9013 -0.0205  2.1067
 4598SOL     OW25426   0.846   1.010   7.951  0.0552  0.5300 -0.2406
 4598SOL    HW125427   0.798   1.013   7.869 -1.0538  2.3043  0.4887
 4598SOL    HW225428   0.773   0.983   8.006 -0.8856  1.1812 -1.1838
 4599SOL     OW25429   1.430   1.752   3.434 -0.1394  0.4351 -0.3236
 4599SOL    HW125430   1.390   1.839   3.432  3.6832  2.1696 -0.6248
 4599SOL    HW225431   1.420   1.723   3.343 -0.4806  1.6230 -0.6668
 4600SOL     OW25432   2.405   0.543   5.656 -0.1724  0.7692  0.1639
 4600SOL    HW125433   2.325   0.568   5.701  0.0161 -1.0733  1.4954
 4600SOL    HW225434   2.459   0.622   5.655 -0.2928  0.8610  1.1617
 4601SOL     OW25435   1.076   1.978   5.291 -0.8487  0.2104 -0.6427
 4601SOL    HW125436   1.005   1.967   5.227  0.5956  0.4848 -2.2883
 4601SOL    HW225437   1.075   1.887   5.322  1.2519  0.7356  0.9495
 4602SOL     OW25438   1.679   1.021   5.028  0.1176  0.2602  0.2763
 4602SOL    HW125439   1.686   0.973   5.110 -1.6663  0.1486  0.3672
 4602SOL    HW225440   1.703   1.112   5.043  1.2423 -0.1312  0.8470
 4603SOL     OW25441   2.930   3.708   1.660  0.4603 -0.0391  0.4746
 4603SOL    HW125442   2.982   3.671   1.589  0.2053  0.8677 -0.1818
 4603SOL    HW225443   2.846   3.701   1.616  0.6157  0.4696  0.0934
 4604SOL     OW25444   1.229   2.085   6.463  0.3494  0.1426 -0.7278
 4604SOL    HW125445   1.184   2.066   6.545 -0.0507  0.5347 -0.8541
 4604SOL    HW225446   1.167   2.041   6.405 -2.7699  0.9145  1.9844
 4605SOL     OW25447   4.312   3.653   5.955  0.0223 -0.4098 -0.1813
 4605SOL    HW125448   4.260   3.576   5.932 -0.2620 -0.2415 -0.1012
 4605SOL    HW225449   4.251   3.724   5.934 -0.8288 -1.1015 -0.0291
 4606SOL     OW25450   0.145   2.942   7.083 -0.3027  0.0208  0.2246
 4606SOL    HW125451   0.113   3.022   7.042  0.4756  1.4928  2.5155
 4606SOL    HW225452   0.240   2.947   7.081 -0.1582 -2.8961 -0.2985
 4607SOL     OW25453   0.656   0.780   0.741  0.0837  0.4698  0.0438
 4607SOL    HW125454   0.664   0.698   0.790  0.1302  0.2910 -0.2625
 4607SOL    HW225455   0.604   0.765   0.662 -0.4421  0.4087  0.4002
 4608SOL     OW25456   2.780   1.938   4.487  0.1735  0.3915  0.5441
 4608SOL    HW125457   2.798   1.994   4.411  1.0535 -1.0681 -0.3385
 4608SOL    HW225458   2.747   1.857   4.446 -1.9532  0.7471  1.5660
 4609SOL     OW25459   0.061   3.925   6.757 -0.9891  0.3622  0.3118
 4609SOL    HW125460   0.088   3.878   6.679 -1.8628  0.4892 -0.0737
 4609SOL    HW225461   0.148   3.930   6.796  0.2532  1.3047 -2.6463
 4610SOL     OW25462   3.660   2.526  15.875  0.0879 -0.0379 -0.1294
 4610SOL    HW125463   3.637   2.434  15.874 -0.9837  0.2576 -1.2029
 4610SOL    HW225464   3.756   2.525  15.880  0.0606  0.4828  0.5029
 4611SOL     OW25465   2.857   4.082   6.052 -0.1430  0.1389 -0.0642
 4611SOL    HW125466   2.844   4.024   6.127 -0.1454 -1.0663 -0.9932
 4611SOL    HW225467   2.933   4.046   6.006 -0.2291 -1.2089  0.8580
 4612SOL     OW25468   3.073   1.541  14.333 -1.1330 -0.2433 -0.1711
 4612SOL    HW125469   3.016   1.538  14.411 -1.0587 -1.3957 -0.1567
 4612SOL    HW225470   3.068   1.454  14.294  2.4773  0.1164 -1.4450
 4613SOL     OW25471   3.346   0.058   7.299  0.1488 -0.4073 -0.4725
 4613SOL    HW125472   3.391   0.110   7.365 -1.3691  0.1371  0.1437
 4613SOL    HW225473   3.396   0.096   7.227  2.0017 -0.0568  1.0037
 4614SOL     OW25474   0.539   0.915   4.343 -0.2470  0.2063 -0.3834
 4614SOL    HW125475   0.571   0.902   4.432  1.2656  1.6741 -0.7144
 4614SOL    HW225476   0.603   0.979   4.311 -1.2031  1.2685 -0.1731
 4615SOL     OW25477   3.784   1.642   0.770  0.0107 -0.1279 -0.5022
 4615SOL    HW125478   3.753   1.554   0.749  2.3327 -0.7449 -1.2998
 4615SOL    HW225479   3.863   1.646   0.717  1.0559  1.2255  1.1666
 4616SOL     OW25480   3.249   1.214   3.991 -0.4913 -0.6676 -1.0468
 4616SOL    HW125481   3.323   1.261   3.953  0.0475 -0.2970  0.4600
 4616SOL    HW225482   3.188   1.285   4.010 -0.7865 -0.7442 -1.6925
 4617SOL     OW25483   1.365   0.138   7.002  0.3406  0.1263  0.4894
 4617SOL    HW125484   1.323   0.070   7.055  1.5681 -0.3075  0.9166
 4617SOL    HW225485   1.372   0.214   7.059 -0.0722  0.6132 -0.1212
 4618SOL     OW25486   4.092   4.677  16.676 -0.8355 -0.4202 -0.4276
 4618SOL    HW125487   4.162   4.612  16.681 -0.1371  0.4786  1.5791
 4618SOL    HW225488   4.107   4.723  16.594  1.9506 -1.2176 -0.3717
 4619SOL     OW25489   3.924   4.618   7.130  0.0253  0.3321 -0.2936
 4619SOL    HW125490   3.955   4.578   7.210 -0.6306  0.6562  0.1268
 4619SOL    HW225491   3.994   4.683   7.129  0.6952 -0.4012 -0.3467
 4620SOL     OW25492   2.582   2.731   8.024 -0.2370 -0.0730 -0.0447
 4620SOL    HW125493   2.569   2.739   8.118 -1.2381  1.5133 -0.3274
 4620SOL    HW225494   2.665   2.683   8.031  0.4577  0.6770 -2.8851
 4621SOL     OW25495   3.121   0.479   2.293 -0.3251  0.2934 -0.9222
 4621SOL    HW125496   3.058   0.424   2.339  1.9073 -1.7626 -0.3520
 4621SOL    HW225497   3.159   0.407   2.242  0.3484 -0.3926  0.5666
 4622SOL     OW25498   3.796   4.554   5.852 -0.2795  0.1288 -0.3317
 4622SOL    HW125499   3.874   4.603   5.824 -0.3571 -1.6706 -3.6699
 4622SOL    HW225500   3.803   4.548   5.947  0.9747 -0.9475 -0.4975
 4623SOL     OW25501   3.733   3.333   7.116 -0.2757 -0.0008 -0.7204
 4623SOL    HW125502   3.732   3.428   7.106 -0.1322  0.1552  0.7927
 4623SOL    HW225503   3.717   3.297   7.029 -1.2541  0.5960 -0.7849
 4624SOL     OW25504   0.374   2.305   8.357  0.3042 -0.5967  0.3897
 4624SOL    HW125505   0.442   2.328   8.421  0.7967  0.7207 -0.5860
 4624SOL    HW225506   0.409   2.240   8.297  2.3888 -1.4905  2.5902
 4625SOL     OW25507   2.241   1.915   8.415 -0.1374 -0.3583 -0.2998
 4625SOL    HW125508   2.149   1.890   8.421 -0.3967  0.4830 -0.7983
 4625SOL    HW225509   2.247   1.936   8.322  0.8244 -2.0099 -0.6094
 4626SOL     OW25510   3.803   3.019   5.360  1.0440  0.3050 -0.4642
 4626SOL    HW125511   3.809   3.024   5.455  2.4180  0.2499 -0.5560
 4626SOL    HW225512   3.853   3.097   5.338 -1.7345  1.7832 -1.5434
 4627SOL     OW25513   0.741   1.789   6.368  0.7684 -0.2370 -0.1301
 4627SOL    HW125514   0.702   1.756   6.287 -2.0437  0.0894  1.0889
 4627SOL    HW225515   0.721   1.881   6.352 -0.7665 -0.5325  0.0824
 4628SOL     OW25516   2.697   2.256   8.290  0.5207  0.3918 -0.1994
 4628SOL    HW125517   2.747   2.277   8.212  0.6597  0.7908 -0.0029
 4628SOL    HW225518   2.696   2.335   8.345  1.8071  0.1159  0.2080
 4629SOL     OW25519   3.701   1.574   5.422 -0.8060  0.0467 -0.0216
 4629SOL    HW125520   3.680   1.656   5.469  0.0094  0.2346  0.0131
 4629SOL    HW225521   3.785   1.594   5.381 -0.6151  0.2366  0.4532
 4630SOL     OW25522   2.480   4.288   8.281 -0.0536 -0.2449 -0.5879
 4630SOL    HW125523   2.433   4.204   8.290  0.5616 -0.3675  1.5637
 4630SOL    HW225524   2.501   4.312   8.371  1.1333  2.6272 -1.6371
 4631SOL     OW25525   1.022   4.495  14.561  0.1067  0.6008  0.3624
 4631SOL    HW125526   0.943   4.486  14.616 -1.6401  1.2644 -2.0489
 4631SOL    HW225527   1.000   4.559  14.494  1.2113  0.4630 -0.1189
 4632SOL     OW25528   4.656   0.821  17.599 -0.6358  0.3782  0.6329
 4632SOL    HW125529   4.613   0.858  17.522 -1.3805  0.3130  1.0184
 4632SOL    HW225530   4.581   0.770  17.630  2.1508 -2.8744  2.0731
 4633SOL     OW25531   0.620   0.722  14.501  0.1531  0.7523  0.1543
 4633SOL    HW125532   0.573   0.654  14.453  0.2600  2.8576 -2.8698
 4633SOL    HW225533   0.671   0.763  14.432  1.6773 -0.8418  0.3378
 4634SOL     OW25534   2.408   1.150  14.556  0.2830  0.2581  0.1380
 4634SOL    HW125535   2.487   1.099  14.576  1.4538  1.8926 -0.2832
 4634SOL    HW225536   2.432   1.234  14.594  3.2660 -0.8802  0.8188
 4635SOL     OW25537   4.367   0.766  17.321  0.6301 -0.4799 -0.1187
 4635SOL    HW125538   4.372   0.838  17.258  0.9322  0.8235  1.3954
 4635SOL    HW225539   4.274   0.746  17.308  0.4728  0.5138 -0.4968
 4636SOL     OW25540   2.108   0.937  14.169 -0.4707  0.4641  1.0259
 4636SOL    HW125541   2.121   0.852  14.212 -1.0387  0.2845  0.8379
 4636SOL    HW225542   2.134   1.000  14.237 -0.3328  1.0929  0.3909
 4637SOL     OW25543   4.218   3.976   2.235 -0.3663  0.5045 -0.0575
 4637SOL    HW125544   4.295   3.937   2.195 -1.6467 -2.7346  0.6174
 4637SOL    HW225545   4.145   3.987   2.174 -0.6639 -1.2020 -0.0005
 4638SOL     OW25546   3.770   0.532   8.839 -0.0081  0.3888 -0.7188
 4638SOL    HW125547   3.728   0.499   8.760 -1.9595 -0.0618  0.5144
 4638SOL    HW225548   3.842   0.475   8.866 -1.1540 -0.6781  0.0816
 4639SOL     OW25549   2.045   4.575  15.382 -0.3052  0.2416  0.0073
 4639SOL    HW125550   2.086   4.603  15.464  1.6180 -1.3696 -0.3947
 4639SOL    HW225551   1.956   4.608  15.381 -0.2952  0.2157 -1.0828
 4640SOL     OW25552   3.897   0.324  13.972  0.3986  0.1288  0.4878
 4640SOL    HW125553   3.864   0.271  14.045  2.0354 -2.8033 -0.9052
 4640SOL    HW225554   3.906   0.254  13.908  2.1976  0.2399  0.6374
 4641SOL     OW25555   1.915   2.383   2.709  0.2270 -0.6237  0.2076
 4641SOL    HW125556   1.843   2.446   2.700  0.7495 -0.1221 -0.4665
 4641SOL    HW225557   1.993   2.437   2.700  0.5697 -1.3472 -1.1349
 4642SOL     OW25558   3.486   3.054  11.599  0.5033  0.1860  0.6321
 4642SOL    HW125559   3.420   3.077  11.664 -0.1558 -0.4025  0.1708
 4642SOL    HW225560   3.468   2.960  11.591 -0.0269  0.4564 -1.4336
 4643SOL     OW25561   1.832   1.325  17.258 -0.3563 -0.1622 -0.2870
 4643SOL    HW125562   1.864   1.410  17.229 -0.5544  0.1118  0.3046
 4643SOL    HW225563   1.795   1.338  17.345  1.9405 -2.9065  1.1108
 4644SOL     OW25564   2.371   3.002  16.571  0.5327  0.0132  0.7094
 4644SOL    HW125565   2.279   2.977  16.571  0.0749  1.7327  0.8714
 4644SOL    HW225566   2.395   3.042  16.487 -0.4686 -0.7512  0.0614
 4645SOL     OW25567   1.842   2.948   8.723  0.5532  0.5215  0.0766
 4645SOL    HW125568   1.796   2.966   8.641 -0.3106 -2.3666 -0.0649
 4645SOL    HW225569   1.868   3.034   8.757  3.3017 -0.6932  1.0681
 4646SOL     OW25570   0.245   3.600   5.026 -0.1545  0.2042 -0.4074
 4646SOL    HW125571   0.188   3.603   5.103  0.7454  1.4961  0.2128
 4646SOL    HW225572   0.283   3.687   5.016  1.1119 -0.4082 -0.8298
 4647SOL     OW25573   1.979   3.247   5.383 -0.0314  1.0405  0.3830
 4647SOL    HW125574   1.921   3.249   5.459 -0.1316  2.9894  0.2478
 4647SOL    HW225575   1.916   3.216   5.318  0.5953  1.1963 -0.3129
 4648SOL     OW25576   3.745   4.093   8.727 -0.1254 -0.1346 -0.3253
 4648SOL    HW125577   3.760   4.068   8.636 -0.4058 -0.2974 -0.3270
 4648SOL    HW225578   3.667   4.148   8.716 -1.5698 -2.4877 -1.9241
 4649SOL     OW25579   1.213   1.060   5.709 -0.1403  0.2078  0.2061
 4649SOL    HW125580   1.218   0.979   5.658 -0.6476  0.9841 -1.0656
 4649SOL    HW225581   1.222   1.032   5.800  3.6980  2.2046  0.4372
 4650SOL     OW25582   0.370   4.333   7.119  0.2859 -0.0537  0.7868
 4650SOL    HW125583   0.289   4.309   7.163  0.2293  0.8225  1.1635
 4650SOL    HW225584   0.338   4.350   7.031 -1.9580  0.7050  1.7568
 4651SOL     OW25585   2.673   1.056  15.952 -0.1393 -0.1043  0.1557
 4651SOL    HW125586   2.627   1.052  16.036 -0.6580 -0.6957 -0.1474
 4651SOL    HW225587   2.617   0.989  15.912 -0.0102 -0.8836  1.2852
 4652SOL     OW25588   0.370   4.226  12.152 -0.3883 -0.2615  0.2136
 4652SOL    HW125589   0.407   4.302  12.107 -1.0617 -0.4825 -0.7027
 4652SOL    HW225590   0.405   4.243  12.239 -2.9650  1.5799  0.8979
 4653SOL     OW25591   0.357   3.765   7.942 -0.1511  0.9464 -0.3149
 4653SOL    HW125592   0.368   3.834   7.876 -2.6820  2.4812  0.8555
 4653SOL    HW225593   0.326   3.703   7.875  0.9840  0.2226 -0.1740
 4654SOL     OW25594   3.416   0.694   8.538  0.1300 -0.3980 -0.0524
 4654SOL    HW125595   3.467   0.619   8.568  0.9385 -0.3955 -1.4508
 4654SOL    HW225596   3.378   0.657   8.459  1.4668 -0.9760 -0.4203
 4655SOL     OW25597   3.504   0.039   5.953 -0.2582 -0.1732  0.0400
 4655SOL    HW125598   3.409   0.037   5.958 -0.2720  0.9269  0.1836
 4655SOL    HW225599   3.529   0.092   6.029 -0.3117 -0.1025  0.0083
 4656SOL     OW25600   3.477   4.714   6.356  0.0017 -0.1261  0.4029
 4656SOL    HW125601   3.425   0.019   6.288 -1.5226 -0.0006  1.6557
 4656SOL    HW225602   3.550   0.038   6.357 -2.5090  2.8953 -0.6249
 4657SOL     OW25603   4.555   2.926   7.579 -0.7420  0.5440 -0.0674
 4657SOL    HW125604   4.498   2.957   7.649 -0.5494 -1.4585  0.9474
 4657SOL    HW225605   4.612   2.859   7.617  0.8112  1.6805 -0.3819
 4658SOL     OW25606   3.366   0.884   3.205  0.2274  0.4258  0.0207
 4658SOL    HW125607   3.314   0.815   3.164 -0.8385  0.8123  0.7006
 4658SOL    HW225608   3.292   0.921   3.253  1.3409  0.3408  1.8123
 4659SOL     OW25609   3.312   4.047  15.500  0.2165 -0.6396 -0.5570
 4659SOL    HW125610   3.396   4.025  15.540  0.0868  0.2129  0.1899
 4659SOL    HW225611   3.329   4.133  15.462  0.8664 -0.1071  0.9330
 4660SOL     OW25612   4.142   2.311   4.414 -0.9266  0.6685  0.1865
 4660SOL    HW125613   4.168   2.373   4.482  0.6444 -0.1167  0.2985
 4660SOL    HW225614   4.191   2.235   4.445 -0.1208  0.9992 -0.2909
 4661SOL     OW25615   0.827   0.786   4.042  0.3952 -1.0525  0.3961
 4661SOL    HW125616   0.920   0.777   4.063  0.8732  1.1676 -0.8026
 4661SOL    HW225617   0.783   0.731   4.106 -0.9298 -1.3801 -0.7872
 4662SOL     OW25618   1.355   4.266   9.797 -0.5919 -0.0351  0.0278
 4662SOL    HW125619   1.271   4.309   9.785  0.7092  1.9084 -2.2016
 4662SOL    HW225620   1.379   4.226   9.713 -0.3434 -0.3983  0.2711
 4663SOL     OW25621   0.180   3.609   6.174  0.2111 -0.5447 -0.0254
 4663SOL    HW125622   0.241   3.626   6.246  0.0445 -0.5874  0.1242
 4663SOL    HW225623   0.244   3.593   6.104 -1.8992 -1.8072 -1.6829
 4664SOL     OW25624   1.418   1.463   5.307 -0.4039  0.1636  0.2982
 4664SOL    HW125625   1.408   1.392   5.370 -1.4977 -1.8178 -2.1167
 4664SOL    HW225626   1.513   1.479   5.310 -0.0022 -2.7410  2.2360
 4665SOL     OW25627   3.669   1.232   7.770  0.2928  0.2146 -0.4752
 4665SOL    HW125628   3.634   1.193   7.690 -0.3709  0.0417 -0.0922
 4665SOL    HW225629   3.760   1.231   7.740  0.1002 -2.1943 -0.9653
 4666SOL     OW25630   1.804   0.342   1.796 -0.2957 -0.2007 -0.0996
 4666SOL    HW125631   1.873   0.401   1.767  1.5517 -2.2107  0.1413
 4666SOL    HW225632   1.720   0.387   1.786  1.2780  3.2257  2.0562
 4667SOL     OW25633   3.990   1.123  17.495  1.0160  1.3200  0.6166
 4667SOL    HW125634   3.896   1.115  17.477  1.0917 -1.5154  1.5781
 4667SOL    HW225635   4.025   1.102  17.408  1.1495 -2.5857  1.6256
 4668SOL     OW25636   3.292   2.330   6.844 -0.5255 -0.1701  0.2304
 4668SOL    HW125637   3.268   2.274   6.917  0.8411 -0.4716  0.4530
 4668SOL    HW225638   3.238   2.293   6.774  1.2147  0.4239 -1.4353
 4669SOL     OW25639   2.966   0.412   4.619 -0.0654  0.0986 -0.6040
 4669SOL    HW125640   2.980   0.503   4.593  0.7284 -0.5548 -2.4374
 4669SOL    HW225641   3.000   0.352   4.552 -0.0972  2.3169 -2.6036
 4670SOL     OW25642   2.452   3.576   1.254 -0.0726 -0.3051 -0.0871
 4670SOL    HW125643   2.521   3.591   1.189  1.1365  1.4061  1.6290
 4670SOL    HW225644   2.376   3.537   1.210 -0.5362 -2.0792  2.2688
 4671SOL     OW25645   1.840   4.230   7.477  0.5690 -0.3214 -0.6453
 4671SOL    HW125646   1.826   4.206   7.385 -1.3832 -1.7028  0.0113
 4671SOL    HW225647   1.799   4.316   7.482  3.2159  0.9572 -0.9134
 4672SOL     OW25648   2.475   2.897   9.292  0.1587  0.1056  0.2402
 4672SOL    HW125649   2.392   2.867   9.329  0.2718 -0.5971 -0.0805
 4672SOL    HW225650   2.482   2.841   9.215 -0.4743  0.7328 -0.2636
 4673SOL     OW25651   0.134   0.810   8.242  0.0158 -0.1072 -0.1758
 4673SOL    HW125652   0.069   0.865   8.199  1.5346  2.3587  0.7094
 4673SOL    HW225653   0.212   0.865   8.252 -0.5596  0.8912 -1.1977
 4674SOL     OW25654   0.992   0.017   6.639  0.4572 -0.4998  0.2313
 4674SOL    HW125655   1.081   0.053   6.647  0.4879 -0.2846 -1.1575
 4674SOL    HW225656   1.007   4.668   6.603 -2.0288 -1.4417  1.5205
 4675SOL     OW25657   1.254   2.934   1.551 -0.0355 -0.4223  0.5093
 4675SOL    HW125658   1.195   2.987   1.604  0.1205  0.8667 -0.5856
 4675SOL    HW225659   1.229   2.851   1.590 -2.2505 -0.6415 -1.3338
 4676SOL     OW25660   3.717   4.401   2.458 -0.3376  0.1183  0.0217
 4676SOL    HW125661   3.711   4.454   2.537  1.7015  0.9407 -0.3640
 4676SOL    HW225662   3.624   4.398   2.437  0.2699 -2.0701 -2.3541
 4677SOL     OW25663   0.735   2.915  10.247 -0.2047 -0.6502  0.2632
 4677SOL    HW125664   0.797   2.892  10.317 -0.5050  0.8162  1.0242
 4677SOL    HW225665   0.650   2.902  10.288  0.0447  0.5692  1.1854
 4678SOL     OW25666   3.077   4.576  17.083  0.3275 -0.1859  0.0398
 4678SOL    HW125667   3.027   4.634  17.026  0.0917 -0.7416 -0.3215
 4678SOL    HW225668   3.006   4.540  17.136  1.2103 -1.2956  0.4846
 4679SOL     OW25669   4.110   4.079  16.220  0.4158  0.2238  0.3414
 4679SOL    HW125670   4.079   4.082  16.129  0.5112 -2.0673  0.2400
 4679SOL    HW225671   4.045   4.025  16.264  0.2322  0.9506  0.9579
 4680SOL     OW25672   3.584   3.995   5.478  0.1505  0.2137  0.2246
 4680SOL    HW125673   3.671   3.990   5.518  0.3074  0.3860 -0.0939
 4680SOL    HW225674   3.561   4.087   5.486  0.9977  0.2777  1.8944
 4681SOL     OW25675   3.823   2.486   5.367  0.1373 -0.1330 -0.1069
 4681SOL    HW125676   3.742   2.438   5.380 -2.3406  3.5352 -1.9415
 4681SOL    HW225677   3.882   2.413   5.350 -0.9875 -1.0297 -0.1698
 4682SOL     OW25678   1.474   3.257   6.954  0.0316  0.3669 -0.1737
 4682SOL    HW125679   1.536   3.246   7.026 -0.7541 -3.4824 -0.0667
 4682SOL    HW225680   1.421   3.177   6.956  2.0607 -0.9584  1.1679
 4683SOL     OW25681   3.556   2.939   5.560 -0.3342  0.8010  0.7620
 4683SOL    HW125682   3.632   2.881   5.561 -0.4555  0.6340  0.3605
 4683SOL    HW225683   3.525   2.932   5.650 -0.5203 -2.7657  0.4476
 4684SOL     OW25684   0.985   1.454  15.363  0.1334 -0.2053  0.7694
 4684SOL    HW125685   1.015   1.370  15.328  1.0512  0.2201  0.5578
 4684SOL    HW225686   0.999   1.451  15.458  0.6026  1.1047  0.7384
 4685SOL     OW25687   0.910   1.964   7.650  0.3173 -0.7909 -0.3432
 4685SOL    HW125688   0.846   1.968   7.579  1.7334 -0.2559 -1.6089
 4685SOL    HW225689   0.912   1.869   7.667  0.2114 -0.7050  0.1364
 4686SOL     OW25690   0.732   3.780   7.429 -0.1919  0.2131  0.4183
 4686SOL    HW125691   0.676   3.741   7.361 -1.4493 -0.6925  1.9671
 4686SOL    HW225692   0.685   3.862   7.442  0.1016  0.7322 -1.8224
 4687SOL     OW25693   1.686   3.704   8.633 -0.4380 -0.3281 -0.0839
 4687SOL    HW125694   1.769   3.739   8.666 -0.1689 -1.0921  0.0566
 4687SOL    HW225695   1.666   3.755   8.555 -2.1365  0.2257  0.7220
 4688SOL     OW25696   3.557   0.307  14.732 -0.1262  0.2535 -0.1270
 4688SOL    HW125697   3.632   0.256  14.761  1.2954 -0.6766 -5.5008
 4688SOL    HW225698   3.600   0.380  14.689  0.8731 -1.2676 -1.7106
 4689SOL     OW25699   3.999   0.357   3.730  0.3707 -0.3815  0.5868
 4689SOL    HW125700   4.084   0.368   3.774  0.5880 -1.2153  0.3882
 4689SOL    HW225701   4.003   0.427   3.665 -0.1096 -2.0807 -1.2886
 4690SOL     OW25702   0.974   3.538   6.597 -0.0255  0.1241  0.3713
 4690SOL    HW125703   0.939   3.514   6.683 -1.9698  1.1003 -0.1463
 4690SOL    HW225704   0.942   3.463   6.547 -1.2390 -1.6160  3.7244
 4691SOL     OW25705   2.623   0.895   8.555 -0.1432  0.2135 -0.3449
 4691SOL    HW125706   2.647   0.914   8.465 -0.2536  1.8081 -0.0381
 4691SOL    HW225707   2.540   0.850   8.538  0.5984 -2.1834  2.3023
 4692SOL     OW25708   0.421   0.269   3.553  0.1040  0.1291  0.6327
 4692SOL    HW125709   0.375   0.309   3.626 -0.1703  1.5833 -0.3330
 4692SOL    HW225710   0.391   0.180   3.570 -1.0550  0.2423 -0.8376
 4693SOL     OW25711   3.673   1.321   6.641 -0.3206  0.7030  0.1183
 4693SOL    HW125712   3.709   1.348   6.725 -1.8478  0.4033  0.8628
 4693SOL    HW225713   3.677   1.225   6.645 -1.3055  0.7160  1.4404
 4694SOL     OW25714   0.465   3.965   7.783 -0.4012  0.1271  0.4302
 4694SOL    HW125715   0.454   3.978   7.689  0.5643  2.9405  0.6964
 4694SOL    HW225716   0.438   4.051   7.816  0.4937  0.3309  0.6261
 4695SOL     OW25717   1.158   1.094   8.278  0.4632  0.1540 -0.0782
 4695SOL    HW125718   1.078   1.142   8.258 -0.6303 -1.9376 -0.6159
 4695SOL    HW225719   1.147   1.110   8.372 -0.0852 -0.2669 -0.0718
 4696SOL     OW25720   4.683   0.608  14.685  0.3097  0.2636 -0.0451
 4696SOL    HW125721   4.651   0.519  14.672 -0.0719  0.5741 -1.1640
 4696SOL    HW225722   4.642   0.641  14.605  0.2455  0.2595 -0.0137
 4697SOL     OW25723   0.029   3.575  17.128  0.0761  0.4111 -0.0475
 4697SOL    HW125724   0.032   3.554  17.035  2.2266 -0.7138  0.2615
 4697SOL    HW225725   0.121   3.601  17.138  0.5948 -1.3077 -0.2496
 4698SOL     OW25726   3.587   0.718   7.205 -0.4246 -0.6875  0.2459
 4698SOL    HW125727   3.509   0.750   7.159 -0.6511 -1.3513  0.1704
 4698SOL    HW225728   3.603   0.789   7.267 -1.3753 -0.9497  0.7911
 4699SOL     OW25729   2.155   0.166   9.913 -0.3600 -0.4457  0.9562
 4699SOL    HW125730   2.155   0.247   9.963 -1.9771  0.6693 -0.8525
 4699SOL    HW225731   2.118   0.091   9.960 -2.1954  0.1916  0.5279
 4700SOL     OW25732   2.373   3.318   0.644 -0.2275  0.2216  0.9478
 4700SOL    HW125733   2.365   3.412   0.657  0.1224  0.1869  1.4286
 4700SOL    HW225734   2.283   3.300   0.617  0.0568 -0.5465  0.5182
 4701SOL     OW25735   3.624   2.698  16.705  0.0638 -0.4846  0.0410
 4701SOL    HW125736   3.672   2.779  16.687  0.5900 -1.1194 -1.4945
 4701SOL    HW225737   3.578   2.723  16.785 -1.9972 -0.6924 -1.0908
 4702SOL     OW25738   2.992   3.889   4.435 -0.0316 -0.1859 -0.1814
 4702SOL    HW125739   3.076   3.877   4.479 -0.7098 -0.2617  1.0981
 4702SOL    HW225740   3.025   3.945   4.365  0.2354 -0.2079 -0.0733
 4703SOL     OW25741   1.951   0.799   0.316  0.4550  0.7322 -0.2752
 4703SOL    HW125742   1.874   0.782   0.370  0.0889 -1.3388 -1.4273
 4703SOL    HW225743   1.913   0.813   0.229  2.8916 -0.6864 -1.5679
 4704SOL     OW25744   3.146   2.097  15.108  0.2397 -0.3378 -0.2930
 4704SOL    HW125745   3.229   2.114  15.064  1.3066  3.4294  3.1099
 4704SOL    HW225746   3.175   2.136  15.191 -2.2576 -1.4125  1.1095
 4705SOL     OW25747   4.664   0.395   6.772  0.9178  0.4706 -0.0293
 4705SOL    HW125748   4.684   0.480   6.733 -1.3493  0.9184 -0.1999
 4705SOL    HW225749   4.693   0.337   6.702  1.3941 -0.6745  1.1182
 4706SOL     OW25750   2.398   1.866   4.391 -0.1769  0.4481  0.7401
 4706SOL    HW125751   2.409   1.810   4.468  0.3580  1.4396  1.3720
 4706SOL    HW225752   2.308   1.852   4.363  0.3218 -0.4835 -0.4131
 4707SOL     OW25753   0.543   3.396   6.057  0.0066  0.2872  0.0434
 4707SOL    HW125754   0.503   3.310   6.044  0.1575 -0.1232  2.3035
 4707SOL    HW225755   0.560   3.394   6.151  0.1690 -0.2767  0.0007
 4708SOL     OW25756   3.689   1.307  12.153 -0.2982  0.0515  0.1748
 4708SOL    HW125757   3.757   1.280  12.091 -1.4709 -0.7352 -0.7656
 4708SOL    HW225758   3.613   1.301  12.095 -2.1828 -0.0276  2.6452
 4709SOL     OW25759   0.006   0.123   3.247 -0.1131  0.0007 -0.0426
 4709SOL    HW125760   0.089   0.169   3.236  0.5615 -1.0427  0.6644
 4709SOL    HW225761   0.036   0.040   3.210  0.1760  1.0447 -2.1224
 4710SOL     OW25762   0.431   1.027   2.466 -0.6931 -0.1801 -0.3931
 4710SOL    HW125763   0.431   1.121   2.448 -0.2579 -0.3258 -1.1413
 4710SOL    HW225764   0.429   1.028   2.561 -0.4923 -1.3133 -0.3769
 4711SOL     OW25765   2.202   3.198   7.286  0.1190  0.5804 -0.2854
 4711SOL    HW125766   2.189   3.155   7.370  4.4377  2.4691  1.3704
 4711SOL    HW225767   2.177   3.124   7.230 -1.0199  0.8230 -0.0934
 4712SOL     OW25768   4.381   4.363   9.161 -0.1759 -0.3122  0.1233
 4712SOL    HW125769   4.471   4.397   9.164  0.5815 -2.2987 -0.2700
 4712SOL    HW225770   4.338   4.401   9.238 -0.9561 -1.4200  0.2294
 4713SOL     OW25771   1.904   2.292  10.008  0.0799 -0.1648 -0.3759
 4713SOL    HW125772   1.901   2.322  10.099 -3.5106 -1.6918  0.0177
 4713SOL    HW225773   1.814   2.260   9.999  0.2474 -0.1436 -2.1926
 4714SOL     OW25774   4.093   3.456   3.763  0.3327 -0.0429  0.3702
 4714SOL    HW125775   4.048   3.374   3.785 -0.3509  0.3319  0.3488
 4714SOL    HW225776   4.054   3.503   3.690 -0.4145 -0.1799  0.6828
 4715SOL     OW25777   0.571   4.161   5.290  0.8623  0.2608 -0.5175
 4715SOL    HW125778   0.622   4.153   5.371  1.4068  1.9563 -0.6862
 4715SOL    HW225779   0.569   4.256   5.282  1.8249  0.2095 -1.5165
 4716SOL     OW25780   3.091   1.722   9.460  0.1796 -0.0892  0.3260
 4716SOL    HW125781   3.029   1.734   9.532 -0.2095  0.2621 -0.0650
 4716SOL    HW225782   3.024   1.717   9.392  0.7855 -2.0767 -0.1199
 4717SOL     OW25783   0.021   1.061   6.374  0.1369 -0.3719 -0.3115
 4717SOL    HW125784   4.715   1.069   6.459  1.8640 -3.5988  0.8865
 4717SOL    HW225785   0.061   0.974   6.373  0.6177 -0.1352 -1.1074
 4718SOL     OW25786   4.399   4.126   9.017 -0.0158 -0.3025 -0.4799
 4718SOL    HW125787   4.487   4.098   8.991 -0.5736 -1.2666 -1.3442
 4718SOL    HW225788   4.413   4.181   9.094  0.0478 -2.8126  1.3013
 4719SOL     OW25789   2.359   4.494   7.735  0.6257  0.3552  0.4978
 4719SOL    HW125790   2.324   4.528   7.817 -0.0899 -0.4718  0.5310
 4719SOL    HW225791   2.451   4.486   7.760  0.3367 -3.0900  0.3585
 4720SOL     OW25792   2.897   0.268   2.092 -0.1159 -0.1211 -0.2133
 4720SOL    HW125793   2.837   0.195   2.109 -0.5371  1.1859  3.8380
 4720SOL    HW225794   2.875   0.338   2.153 -0.6318 -0.3211 -0.1601
 4721SOL     OW25795   4.411   2.377   4.207 -0.0371 -0.2230 -0.2681
 4721SOL    HW125796   4.425   2.291   4.247 -0.0085 -0.7408 -1.4011
 4721SOL    HW225797   4.331   2.361   4.158  1.7039 -3.1351 -2.2087
 4722SOL     OW25798   3.007   3.547  15.202 -0.5902  0.2196 -0.1334
 4722SOL    HW125799   2.941   3.616  15.190 -0.8008 -0.6855 -4.4918
 4722SOL    HW225800   3.086   3.598  15.218 -0.8853  0.0720  1.8063
 4723SOL     OW25801   2.967   2.372   8.393 -0.1892  0.3641  0.2446
 4723SOL    HW125802   2.948   2.280   8.374 -0.5993  0.8301 -1.5858
 4723SOL    HW225803   2.999   2.359   8.483  0.4895  1.3173  0.1355
 4724SOL     OW25804   2.164   2.077   8.784  0.4013  0.1001  0.2367
 4724SOL    HW125805   2.179   2.138   8.857 -1.9719 -0.9188  1.5838
 4724SOL    HW225806   2.071   2.093   8.768  0.7858 -0.3427 -2.4225
 4725SOL     OW25807   0.289   3.042  16.870  0.7512 -0.6356 -0.1190
 4725SOL    HW125808   0.223   3.070  16.806  0.6229  0.2100  0.3830
 4725SOL    HW225809   0.374   3.055  16.828 -0.2450  0.3543 -1.8230
 4726SOL     OW25810   4.482   1.359   3.846 -0.3068  0.4531 -0.0156
 4726SOL    HW125811   4.544   1.301   3.802  0.0420 -0.1373  1.2639
 4726SOL    HW225812   4.453   1.418   3.776  1.1698  2.3796  0.9929
 4727SOL     OW25813   4.112   0.249  17.546 -0.0091 -0.1009 -0.0507
 4727SOL    HW125814   4.176   0.191  17.505 -1.3199 -0.8782 -1.0043
 4727SOL    HW225815   4.106   0.210  17.633 -0.2688  0.5478  0.2211
 4728SOL     OW25816   3.043   0.716   1.616 -0.4729 -0.1856  0.0825
 4728SOL    HW125817   3.049   0.792   1.675  1.2324 -0.6602  0.5112
 4728SOL    HW225818   3.132   0.709   1.583  0.2420  1.1855  1.6914
 4729SOL     OW25819   2.828   0.555   2.164  0.4233  0.6862 -0.0906
 4729SOL    HW125820   2.878   0.516   2.236 -1.8176 -2.3343 -0.2020
 4729SOL    HW225821   2.779   0.627   2.205  0.3826 -0.7756  2.4324
 4730SOL     OW25822   3.824   2.579   8.560  0.1381 -0.2111 -0.5102
 4730SOL    HW125823   3.777   2.502   8.591 -0.7211 -0.3534 -2.1462
 4730SOL    HW225824   3.759   2.645   8.585  1.0221  1.0468 -1.5256
 4731SOL     OW25825   1.529   4.268   7.557  0.0047  0.0504  0.3540
 4731SOL    HW125826   1.587   4.344   7.554  1.6053 -1.1015  1.9855
 4731SOL    HW225827   1.452   4.313   7.592 -1.5212 -2.2844  0.0105
 4732SOL     OW25828   2.462   1.222   6.297  0.3345  0.1736 -0.4223
 4732SOL    HW125829   2.412   1.285   6.350 -1.9700 -2.6948  0.8216
 4732SOL    HW225830   2.485   1.283   6.227 -1.2289  0.0933 -0.9988
 4733SOL     OW25831   0.725   4.094   1.374  0.3717  0.3868 -0.1339
 4733SOL    HW125832   0.730   4.170   1.316 -0.9795  2.1820  2.0954
 4733SOL    HW225833   0.630   4.086   1.379  0.1807  1.8112 -1.5195
 4734SOL     OW25834   0.143   2.452   3.884 -0.6999 -0.2392  0.6821
 4734SOL    HW125835   0.130   2.411   3.799  0.1870  0.9270 -0.0180
 4734SOL    HW225836   0.056   2.481   3.912 -0.5742  1.4750 -0.7159
 4735SOL     OW25837   2.370   2.846   7.096 -0.4203 -0.7051 -0.4007
 4735SOL    HW125838   2.292   2.899   7.112 -0.4562 -1.1316  0.8683
 4735SOL    HW225839   2.322   2.774   7.054 -3.1466  0.5006  0.5993
 4736SOL     OW25840   4.243   0.239   5.528 -0.5610 -0.4466  0.5322
 4736SOL    HW125841   4.151   0.250   5.549 -0.0627 -0.5179  2.7561
 4736SOL    HW225842   4.260   0.293   5.451 -1.5523 -1.2974 -0.2839
 4737SOL     OW25843   4.732   2.088   3.442  1.0031  0.2136 -0.2803
 4737SOL    HW125844   4.710   2.128   3.526 -2.6215 -2.3386 -0.0007
 4737SOL    HW225845   0.018   2.001   3.473 -1.7286 -0.4946 -0.1468
 4738SOL     OW25846   1.665   2.114  13.564  0.3945 -0.8045  0.3522
 4738SOL    HW125847   1.609   2.129  13.640 -0.8414 -1.6783 -0.3706
 4738SOL    HW225848   1.605   2.137  13.493 -0.3665  1.3391  1.6958
 4739SOL     OW25849   1.714   0.795   4.109  0.2822 -0.1184  0.4888
 4739SOL    HW125850   1.727   0.708   4.070  1.0743 -0.2379  1.0232
 4739SOL    HW225851   1.660   0.836   4.042  0.3973 -0.7021  0.0371
 4740SOL     OW25852   3.110   4.026   4.239 -0.6872 -0.2502 -0.8094
 4740SOL    HW125853   3.128   4.024   4.145  0.0208 -2.6536 -0.6384
 4740SOL    HW225854   3.196   4.055   4.268  0.0418 -0.2379 -2.9662
 4741SOL     OW25855   2.750   2.708   2.574 -0.3493 -0.0136  0.4231
 4741SOL    HW125856   2.837   2.716   2.537  0.4926  1.0574  2.6585
 4741SOL    HW225857   2.712   2.788   2.539  0.6408 -0.7593 -2.3177
 4742SOL     OW25858   2.142   0.844   8.755 -0.7594  0.2219 -0.2403
 4742SOL    HW125859   2.175   0.837   8.845  1.3313 -0.3653 -1.0716
 4742SOL    HW225860   2.190   0.917   8.717  0.5733 -0.6495 -0.2209
 4743SOL     OW25861   4.252   3.318   5.895  0.0584  0.7082  0.0688
 4743SOL    HW125862   4.271   3.286   5.983 -2.8558 -1.1159  0.0446
 4743SOL    HW225863   4.341   3.322   5.862 -0.0616  0.0754 -0.3372
 4744SOL     OW25864   2.260   3.397   0.300  0.1519 -0.1447 -0.2322
 4744SOL    HW125865   2.337   3.429   0.347  1.5229 -1.9626 -1.2780
 4744SOL    HW225866   2.267   3.306   0.273  1.3133 -0.1348  0.0254
 4745SOL     OW25867   1.223   0.075   4.868 -0.4104  0.5865 -0.0674
 4745SOL    HW125868   1.183   0.074   4.955 -1.1301 -1.8847 -0.4280
 4745SOL    HW225869   1.275   0.154   4.883 -0.8665  0.7198  0.8006
 4746SOL     OW25870   1.592   1.749   1.430 -0.7128  0.0583 -0.2511
 4746SOL    HW125871   1.669   1.702   1.397 -2.1188 -3.2755  1.1858
 4746SOL    HW225872   1.604   1.836   1.391 -1.4162  0.8082  1.2180
 4747SOL     OW25873   0.071   3.065   2.953  0.0348 -0.2404  0.1687
 4747SOL    HW125874   0.150   3.015   2.936 -1.5282 -1.4079 -3.6791
 4747SOL    HW225875   0.051   3.038   3.043 -0.9530 -1.0775 -0.3087
 4748SOL     OW25876   2.103   2.605   6.430  0.3078  0.5702 -0.2877
 4748SOL    HW125877   2.040   2.650   6.373  2.4736  0.7573 -2.5403
 4748SOL    HW225878   2.046   2.578   6.502  1.0422  0.8236  0.3777
 4749SOL     OW25879   0.891   3.679  17.119 -0.2221 -0.8906 -0.2567
 4749SOL    HW125880   0.878   3.631  17.037 -1.2005 -0.3680 -0.4044
 4749SOL    HW225881   0.972   3.635  17.147 -0.0718  0.2453  1.0842
 4750SOL     OW25882   4.066   2.827   4.721  0.5306  0.9693  0.0743
 4750SOL    HW125883   4.078   2.920   4.701  1.1575  0.8502 -0.1050
 4750SOL    HW225884   4.145   2.806   4.771  0.9162 -0.6228 -1.2233
 4751SOL     OW25885   1.839   3.321   4.772  0.0199 -0.3295  0.2389
 4751SOL    HW125886   1.851   3.227   4.776  0.4764 -0.2702  0.2729
 4751SOL    HW225887   1.875   3.333   4.684 -0.7336 -0.8224 -0.1330
 4752SOL     OW25888   1.673   0.001   6.208 -0.3349 -0.2004  0.3440
 4752SOL    HW125889   1.719   0.031   6.286  0.3205  1.0206 -0.5239
 4752SOL    HW225890   1.678   4.643   6.209  0.5210 -0.1563  0.2722
 4753SOL     OW25891   1.344   0.571  14.595  0.3898 -0.6688 -0.0475
 4753SOL    HW125892   1.389   0.487  14.599  2.0219  0.1942 -0.1597
 4753SOL    HW225893   1.365   0.595  14.505  0.9336 -2.0103 -0.2835
 4754SOL     OW25894   2.207   3.958  15.119  0.1795  0.0140  0.3706
 4754SOL    HW125895   2.298   3.947  15.093 -0.2004  2.4416 -2.0251
 4754SOL    HW225896   2.167   3.963  15.032 -0.8959 -0.4993  0.8384
 4755SOL     OW25897   4.109   4.656  12.015  0.0831  0.0021  0.0983
 4755SOL    HW125898   4.096   4.723  11.947  2.1446  1.4215  1.1003
 4755SOL    HW225899   4.117   4.576  11.963  0.0376 -0.2378  0.4654
 4756SOL     OW25900   0.587   3.328   3.426  0.1404  0.2411 -0.0853
 4756SOL    HW125901   0.588   3.413   3.382 -0.3186 -0.2236 -0.9933
 4756SOL    HW225902   0.597   3.266   3.354 -0.1117 -1.9838  1.7691
 4757SOL     OW25903   1.850   0.903   4.839  0.4133 -0.4640 -0.1884
 4757SOL    HW125904   1.847   0.819   4.793 -0.7471 -0.3598 -0.2986
 4757SOL    HW225905   1.777   0.896   4.900  2.1419 -0.3632  1.9029
 4758SOL     OW25906   3.532   1.775   5.118  0.2849  0.0216 -0.9946
 4758SOL    HW125907   3.547   1.837   5.190 -2.5470  0.6222 -0.9522
 4758SOL    HW225908   3.481   1.831   5.061  0.6443  0.8835 -0.4811
 4759SOL     OW25909   2.701   3.245   2.404  0.2180  0.0505 -0.3666
 4759SOL    HW125910   2.772   3.285   2.455  0.7077 -0.8085 -0.3763
 4759SOL    HW225911   2.696   3.314   2.337  2.6653  1.9192  1.3596
 4760SOL     OW25912   0.674   0.281   1.564 -0.4595 -0.0628  0.2624
 4760SOL    HW125913   0.589   0.245   1.536 -1.0051  1.9336 -0.6396
 4760SOL    HW225914   0.675   0.357   1.507 -0.4482  0.1103  0.4953
 4761SOL     OW25915   3.875   0.846   4.403 -0.4451 -0.6106  0.0883
 4761SOL    HW125916   3.831   0.922   4.365 -0.2706 -0.9875 -0.8898
 4761SOL    HW225917   3.964   0.876   4.383 -0.5833 -0.6108 -0.5235
 4762SOL     OW25918   2.674   2.913  17.210 -0.3241  0.2411 -0.0806
 4762SOL    HW125919   2.582   2.937  17.216 -0.5433 -0.6482  0.1948
 4762SOL    HW225920   2.718   2.987  17.252 -1.6948  0.7615  0.4246
 4763SOL     OW25921   3.327   3.038   6.268  0.7559  0.3089  0.1136
 4763SOL    HW125922   3.310   3.112   6.328  1.2057 -0.5372  1.2914
 4763SOL    HW225923   3.401   3.072   6.219 -0.0644  0.4823 -1.0098
 4764SOL     OW25924   2.272   0.918   0.875 -0.4420  0.0509  0.2576
 4764SOL    HW125925   2.355   0.952   0.908 -0.2213 -0.6178  0.4013
 4764SOL    HW225926   2.277   0.930   0.780  2.1107  1.8802  0.6273
 4765SOL     OW25927   2.824   0.456   3.771 -0.2047  0.2419  0.2099
 4765SOL    HW125928   2.849   0.488   3.858 -0.4457  0.7424  0.0928
 4765SOL    HW225929   2.892   0.498   3.718 -2.3928  0.1593 -2.6716
 4766SOL     OW25930   2.216   3.640   9.258  0.1766 -0.4238 -0.1310
 4766SOL    HW125931   2.248   3.666   9.171 -1.2218  2.3316  0.1661
 4766SOL    HW225932   2.126   3.613   9.240 -0.3726 -0.2104  2.3484
 4767SOL     OW25933   2.832   4.640  11.883 -0.0703  0.2234 -0.6151
 4767SOL    HW125934   2.837   4.724  11.929 -0.2869 -0.1520  0.0955
 4767SOL    HW225935   2.925   4.624  11.894 -0.5727 -0.8333  1.9916
 4768SOL     OW25936   0.897   3.763   1.779 -0.4389  0.1022  0.1828
 4768SOL    HW125937   0.811   3.758   1.737 -1.0948 -1.1475  1.6262
 4768SOL    HW225938   0.939   3.838   1.737  0.3001 -0.9348 -0.9265
 4769SOL     OW25939   1.175   2.941   9.850  0.1845 -0.3720 -0.3425
 4769SOL    HW125940   1.121   2.943   9.771 -1.2291  0.6163  0.6621
 4769SOL    HW225941   1.185   3.036   9.855  2.6158 -0.6095 -0.6932
 4770SOL     OW25942   1.402   1.944   0.368 -0.2071 -0.6018 -0.1601
 4770SOL    HW125943   1.362   2.030   0.354 -1.1433 -0.7790  1.4484
 4770SOL    HW225944   1.493   1.974   0.366 -0.0522 -0.8912  2.5955
 4771SOL     OW25945   3.686   0.751   2.426  0.7254 -0.0903 -0.5485
 4771SOL    HW125946   3.605   0.740   2.376  0.2484  0.5018  0.0845
 4771SOL    HW225947   3.687   0.842   2.456 -0.8614  0.3576 -1.8232
 4772SOL     OW25948   2.518   0.530   3.758  0.0336  0.6392  0.2961
 4772SOL    HW125949   2.578   0.576   3.817 -0.6286  0.6796  0.9325
 4772SOL    HW225950   2.452   0.599   3.748  0.0344  0.4486 -1.0346
 4773SOL     OW25951   0.539   0.838   3.430  0.3285  0.1797 -0.6653
 4773SOL    HW125952   0.599   0.782   3.381 -0.5434 -0.3762 -1.1008
 4773SOL    HW225953   0.529   0.780   3.506  0.6193  0.0090 -0.7588
 4774SOL     OW25954   0.477   1.782   4.887 -0.6203  0.0388 -0.8616
 4774SOL    HW125955   0.418   1.736   4.827  0.8937  0.5638 -2.7562
 4774SOL    HW225956   0.511   1.714   4.945  0.7832  1.2786 -0.2064
 4775SOL     OW25957   0.976   2.474  10.100 -0.5648 -0.0911 -0.0487
 4775SOL    HW125958   1.040   2.542  10.078 -0.7043  0.6428  1.7466
 4775SOL    HW225959   0.897   2.521  10.074  0.4980  1.2207 -0.9091
 4776SOL     OW25960   1.094   1.531   3.659  0.0688  0.1224  0.2453
 4776SOL    HW125961   1.069   1.587   3.733 -0.1684  0.0430  0.2252
 4776SOL    HW225962   1.031   1.555   3.591 -2.1955  0.0666  2.3470
 4777SOL     OW25963   2.097   0.089   6.674 -0.3978  0.4404 -0.1294
 4777SOL    HW125964   2.128   0.176   6.650  2.8100 -0.4096  0.9328
 4777SOL    HW225965   2.033   0.125   6.735 -0.4112 -1.3838  0.9644
 4778SOL     OW25966   2.603   3.135   3.169 -0.1184 -0.5159  0.5475
 4778SOL    HW125967   2.535   3.188   3.128 -0.9937 -1.3813  0.8869
 4778SOL    HW225968   2.630   3.072   3.103 -2.0035  0.7243 -1.4035
 4779SOL     OW25969   1.005   1.953   4.140 -0.1949 -0.2171  0.5095
 4779SOL    HW125970   0.927   2.009   4.128 -0.9149 -1.1899  0.6489
 4779SOL    HW225971   0.992   1.916   4.228 -1.4786  0.8769  0.7845
 4780SOL     OW25972   3.229   2.895  16.271 -0.3586 -0.6549 -0.0853
 4780SOL    HW125973   3.279   2.972  16.243 -1.3751  0.0659  0.1027
 4780SOL    HW225974   3.182   2.927  16.348 -1.7688 -1.9736 -0.4031
 4781SOL     OW25975   3.801   4.512   8.287 -0.2036 -0.3436 -0.6799
 4781SOL    HW125976   3.821   4.506   8.381 -1.0406  0.0234 -0.4723
 4781SOL    HW225977   3.840   4.428   8.268  2.2446  0.8172 -0.7180
 4782SOL     OW25978   1.916   3.339  10.073  0.0462 -0.2766  0.2010
 4782SOL    HW125979   1.940   3.250  10.098 -3.3632 -1.2608  0.0011
 4782SOL    HW225980   1.827   3.323  10.041  0.3528 -1.0978 -0.2203
 4783SOL     OW25981   0.628   1.379   5.856 -0.0480  0.0705 -0.2616
 4783SOL    HW125982   0.655   1.289   5.835 -0.9959 -0.8431  2.4209
 4783SOL    HW225983   0.696   1.432   5.813 -0.2518  1.1983  0.8170
 4784SOL     OW25984   0.518   4.007   4.086  0.1541  0.4817 -0.9405
 4784SOL    HW125985   0.597   3.983   4.133  0.1775  0.8909 -0.7749
 4784SOL    HW225986   0.456   3.999   4.158 -0.2344 -2.3650 -1.5743
 4785SOL     OW25987   3.581   4.002  14.617  1.0898  0.4963  0.2554
 4785SOL    HW125988   3.587   4.067  14.688 -2.2080  0.8228  0.2119
 4785SOL    HW225989   3.488   4.007  14.597  1.2442  0.1830 -0.5155
 4786SOL     OW25990   1.959   3.796   8.660 -0.1403  0.1184  0.8474
 4786SOL    HW125991   1.966   3.843   8.578  0.4222  1.1873  1.5098
 4786SOL    HW225992   2.028   3.839   8.711  1.8418 -4.0748  1.6929
 4787SOL     OW25993   2.936   3.933   8.829 -0.1371  0.2118  0.5156
 4787SOL    HW125994   2.928   3.967   8.919  0.1164  0.3798  0.4753
 4787SOL    HW225995   2.987   3.856   8.852  1.0231  1.6885  2.9028
 4788SOL     OW25996   3.544   0.887   1.232 -0.1446  0.3979 -0.6699
 4788SOL    HW125997   3.610   0.863   1.296 -1.6101  1.0902  1.0909
 4788SOL    HW225998   3.598   0.918   1.159  4.0732 -2.4611  1.2143
 4789SOL     OW25999   0.257   1.971   6.861  0.2166 -0.0471 -0.0114
 4789SOL    HW126000   0.335   2.015   6.828  1.5254 -2.0073  0.4624
 4789SOL    HW226001   0.209   2.050   6.889  0.8903  0.3263  0.0741
 4790SOL     OW26002   2.166   0.374   7.570  0.1149 -0.0264  0.8593
 4790SOL    HW126003   2.244   0.368   7.516  0.0121  1.6852  0.5116
 4790SOL    HW226004   2.215   0.355   7.650 -1.2573 -2.6042  1.0801
 4791SOL     OW26005   0.297   3.635  12.619  0.2484  0.3163 -0.1930
 4791SOL    HW126006   0.226   3.571  12.623  0.9846 -0.3581  1.8791
 4791SOL    HW226007   0.252   3.719  12.609 -0.5339  0.1547  1.9599
 4792SOL     OW26008   2.853   1.324   1.664  0.2357  0.4416  0.0508
 4792SOL    HW126009   2.852   1.418   1.651  1.6335  0.2640 -1.3009
 4792SOL    HW226010   2.817   1.317   1.753  0.4150  1.2137  0.1767
 4793SOL     OW26011   3.408   0.007   1.992 -0.5945  0.2469 -0.4145
 4793SOL    HW126012   3.490   0.039   2.031  0.4657 -0.5622 -1.9620
 4793SOL    HW226013   3.443   4.676   1.934 -1.4612 -1.4019  1.0236
 4794SOL     OW26014   3.040   2.113   0.630 -0.0791 -0.3440 -0.5208
 4794SOL    HW126015   3.132   2.118   0.604 -0.1825 -2.1338 -1.2628
 4794SOL    HW226016   3.040   2.190   0.687 -0.4929 -0.6918 -0.0496
 4795SOL     OW26017   2.125   1.677   2.160  0.2132 -0.3488 -0.0088
 4795SOL    HW126018   2.113   1.697   2.067  3.5129 -0.1582 -0.3904
 4795SOL    HW226019   2.210   1.721   2.170 -0.2562  0.8042 -1.1329
 4796SOL     OW26020   2.933   0.515   8.791 -0.2751 -0.0256  0.1937
 4796SOL    HW126021   3.019   0.558   8.796 -0.1938  0.0311 -1.5313
 4796SOL    HW226022   2.882   0.595   8.775  1.3369  1.2954  1.6955
 4797SOL     OW26023   2.994   2.352   4.941  0.0677  0.2355  0.6626
 4797SOL    HW126024   2.998   2.373   4.847  0.3729  2.1861  1.1097
 4797SOL    HW226025   2.984   2.257   4.930  1.2880  0.5618 -3.5534
 4798SOL     OW26026   2.143   2.759   3.462 -0.0747  0.0960 -0.1858
 4798SOL    HW126027   2.182   2.841   3.492 -2.5658  1.1658  0.1120
 4798SOL    HW226028   2.203   2.702   3.509  0.2464  0.0867 -0.6012
 4799SOL     OW26029   3.562   2.782   6.251  0.2215 -0.1852 -0.0689
 4799SOL    HW126030   3.493   2.722   6.221  0.7870 -0.8015 -0.1203
 4799SOL    HW226031   3.569   2.843   6.177 -0.6456 -1.2549 -1.0272
 4800SOL     OW26032   1.297   1.733   5.395  0.5678 -0.2787 -0.0327
 4800SOL    HW126033   1.347   1.654   5.374 -1.0438 -1.3807  0.2726
 4800SOL    HW226034   1.237   1.733   5.320 -0.4612 -0.2944  0.7954
 4801SOL     OW26035   4.125   0.709   5.827  0.3128  0.3782 -0.1795
 4801SOL    HW126036   4.093   0.655   5.754  0.7029 -1.4056  0.9811
 4801SOL    HW226037   4.081   0.662   5.898  2.9107 -0.1471  1.0916
 4802SOL     OW26038   3.034   4.412   8.501  0.0085 -0.6115 -0.1933
 4802SOL    HW126039   2.944   4.422   8.470  0.2864 -1.1335 -1.1583
 4802SOL    HW226040   3.089   4.439   8.428  3.1724  0.4678  2.6027
 4803SOL     OW26041   1.185   1.404   5.552  0.1300 -0.2660  0.1759
 4803SOL    HW126042   1.261   1.347   5.541  1.2400  0.9825  1.4036
 4803SOL    HW226043   1.205   1.432   5.641 -2.0824  0.7116  0.3465
 4804SOL     OW26044   2.742   0.073   9.430  0.3771  0.0321 -0.4028
 4804SOL    HW126045   2.715   0.020   9.354 -0.5839  1.8721 -1.3472
 4804SOL    HW226046   2.807   0.018   9.474 -0.0765 -0.3914 -0.2681
 4805SOL     OW26047   2.886   3.606  16.848  0.4170  0.1480  0.2705
 4805SOL    HW126048   2.878   3.664  16.924 -1.3700 -1.9210  1.6462
 4805SOL    HW226049   2.827   3.540  16.884  0.5262  0.0391  0.2508
 4806SOL     OW26050   1.380   1.083   9.013  0.0534  0.0263 -0.6672
 4806SOL    HW126051   1.331   1.160   9.041  1.9884 -0.1734  3.2384
 4806SOL    HW226052   1.318   1.011   9.016  0.5834 -0.4899 -2.0471
 4807SOL     OW26053   1.246   2.417   8.964  0.0396  0.3308 -0.0812
 4807SOL    HW126054   1.183   2.444   9.030  1.3668  1.1863  0.8218
 4807SOL    HW226055   1.295   2.499   8.963 -1.8334  1.4516  0.1162
 4808SOL     OW26056   0.776   0.791  14.030 -0.1649  0.2116 -0.1693
 4808SOL    HW126057   0.754   0.705  14.065 -2.3856  0.4892 -0.9063
 4808SOL    HW226058   0.725   0.782  13.949 -1.5965  1.0924  0.6408
 4809SOL     OW26059   4.225   0.913   5.085  0.1132  0.3586  0.6130
 4809SOL    HW126060   4.197   0.838   5.033  0.7483  0.4807  0.0964
 4809SOL    HW226061   4.152   0.926   5.145  0.2468 -0.2313  0.9051
 4810SOL     OW26062   1.507   4.324   1.304 -0.0845  0.0465 -0.2245
 4810SOL    HW126063   1.449   4.385   1.259  1.4107  1.7168  0.0883
 4810SOL    HW226064   1.502   4.361   1.392 -0.6540  1.2770 -0.7746
 4811SOL     OW26065   2.510   2.601   0.671 -0.0600  0.2396  0.5662
 4811SOL    HW126066   2.515   2.505   0.680 -1.1331  0.0364 -0.9499
 4811SOL    HW226067   2.432   2.605   0.617  1.0699  1.7769 -0.9339
 4812SOL     OW26068   3.456   0.590   5.247  0.1617 -0.1710  0.2468
 4812SOL    HW126069   3.458   0.518   5.310 -0.0036 -0.5011 -0.1236
 4812SOL    HW226070   3.545   0.623   5.258 -0.2308  0.6774  0.8527
 4813SOL     OW26071   2.780   3.864  14.013  0.0424 -0.1288 -0.4418
 4813SOL    HW126072   2.830   3.939  14.044 -2.2350  0.7405  1.1175
 4813SOL    HW226073   2.857   3.809  14.000 -0.3673 -0.7669 -0.1588
 4814SOL     OW26074   1.073   4.466  11.111 -0.3080 -0.6011 -0.2020
 4814SOL    HW126075   1.046   4.378  11.088  2.2598 -1.4420 -0.0540
 4814SOL    HW226076   1.160   4.446  11.147  0.4395  0.6488 -1.3155
 4815SOL     OW26077   2.181   4.585  15.116  0.5392 -0.6892  0.2670
 4815SOL    HW126078   2.125   4.619  15.186 -3.4365 -2.6243 -1.9726
 4815SOL    HW226079   2.263   4.570  15.163  0.3158  1.0683  1.2163
 4816SOL     OW26080   3.558   2.695  15.674  0.1302  0.5999  0.2406
 4816SOL    HW126081   3.644   2.681  15.636  0.0467  0.6451  0.0377
 4816SOL    HW226082   3.581   2.647  15.754  0.3971  0.8456  0.3133
 4817SOL     OW26083   0.360   3.649   2.228  0.0731  0.2673  0.6027
 4817SOL    HW126084   0.400   3.721   2.276  1.2166  1.1537 -1.6839
 4817SOL    HW226085   0.325   3.589   2.294  0.2354 -3.3029 -2.5532
 4818SOL     OW26086   0.802   4.313   5.927 -0.2585  0.0628  0.3786
 4818SOL    HW126087   0.831   4.400   5.955 -1.2930  0.3088  0.6693
 4818SOL    HW226088   0.718   4.316   5.973  0.8389 -0.7304  2.4581
 4819SOL     OW26089   2.927   3.382   1.371  0.5721 -0.4451  0.3383
 4819SOL    HW126090   2.968   3.387   1.285  0.0616  0.6217  0.1672
 4819SOL    HW226091   3.007   3.351   1.414  0.0241 -3.2310 -0.6356
 4820SOL     OW26092   2.740   1.120   3.421 -0.0924  0.3209 -0.0089
 4820SOL    HW126093   2.820   1.077   3.449 -0.7183  0.0162  1.2907
 4820SOL    HW226094   2.691   1.060   3.365  1.5818  1.1406 -2.3483
 4821SOL     OW26095   4.711   1.238  12.351 -0.0363 -0.1030 -0.2906
 4821SOL    HW126096   4.624   1.242  12.311  0.5196  0.2801 -1.4622
 4821SOL    HW226097   4.714   1.151  12.390  0.0033 -0.2779 -0.6854
 4822SOL     OW26098   1.762   4.243   0.477 -0.9371  0.3540  0.3717
 4822SOL    HW126099   1.718   4.320   0.440 -1.4141 -0.2949 -0.4185
 4822SOL    HW226100   1.851   4.247   0.442 -1.2856 -2.4240 -0.7895
 4823SOL     OW26101   1.584   1.841   4.810 -0.6445 -0.1412 -0.3297
 4823SOL    HW126102   1.587   1.757   4.764 -1.0184 -0.5598  0.4204
 4823SOL    HW226103   1.513   1.826   4.872 -1.6340 -0.4702 -1.5391
 4824SOL     OW26104   3.800   2.722   6.363  0.1349  0.1348  0.1208
 4824SOL    HW126105   3.707   2.733   6.346 -0.1112 -0.9201  0.8473
 4824SOL    HW226106   3.820   2.641   6.316 -0.5268 -0.7457  1.3760
 4825SOL     OW26107   3.588   3.383   4.716  0.5206  0.3255  0.1943
 4825SOL    HW126108   3.613   3.348   4.631 -1.5417 -0.2009 -0.1841
 4825SOL    HW226109   3.501   3.345   4.727  0.5389  0.4551  0.7919
 4826SOL     OW26110   2.449   4.504   6.229  0.5962  0.2291 -0.3414
 4826SOL    HW126111   2.451   4.429   6.289  2.2041  0.9960  0.5613
 4826SOL    HW226112   2.537   4.537   6.249  0.2726 -1.3646  3.6876
 4827SOL     OW26113   0.638   3.579  17.182  0.5030 -0.3120  0.0011
 4827SOL    HW126114   0.731   3.599  17.166  0.9468 -2.0598  0.3642
 4827SOL    HW226115   0.610   3.668  17.203  1.3198  0.1213 -0.7025
 4828SOL     OW26116   0.943   3.026  17.125 -0.1814 -1.0566  0.2221
 4828SOL    HW126117   0.936   2.967  17.200  0.4241  0.4257  1.4545
 4828SOL    HW226118   0.951   2.967  17.050 -0.5899 -0.2894 -0.4320
 4829SOL     OW26119   3.507   1.010  11.948  0.0751 -0.0988 -0.4376
 4829SOL    HW126120   3.413   1.022  11.931 -0.0831  0.3238  0.7870
 4829SOL    HW226121   3.539   1.062  11.874  1.6805 -0.6568 -0.1178
 4830SOL     OW26122   1.413   3.234   5.370  0.2043 -0.2304 -0.1505
 4830SOL    HW126123   1.413   3.248   5.276  3.0857 -0.7575 -0.2411
 4830SOL    HW226124   1.496   3.189   5.382  0.7162  0.9897  0.9165
 4831SOL     OW26125   3.139   3.804   5.170 -0.3384  0.3585 -0.8965
 4831SOL    HW126126   3.189   3.734   5.127  0.8823 -0.3676  1.6894
 4831SOL    HW226127   3.156   3.792   5.263 -1.0851  0.8116 -0.7019
 4832SOL     OW26128   3.458   4.599   8.743  0.2827  0.2305  0.1187
 4832SOL    HW126129   3.504   4.589   8.660  0.1573  1.2897 -0.0704
 4832SOL    HW226130   3.371   4.563   8.724  0.6027 -0.3605 -0.2412
 4833SOL     OW26131   0.732   0.743   9.557 -0.2698  0.1021 -0.3831
 4833SOL    HW126132   0.679   0.691   9.617  1.3464 -0.5316  0.4968
 4833SOL    HW226133   0.669   0.760   9.487  0.3195  1.3468 -0.6225
 4834SOL     OW26134   0.899   1.013   5.473 -0.1721  0.5782 -0.5219
 4834SOL    HW126135   0.906   1.091   5.529 -3.1731  1.3740 -1.2436
 4834SOL    HW226136   0.891   0.945   5.540  0.1725  0.0523 -1.0212
 4835SOL     OW26137   2.572   0.593   6.821 -0.3961  0.5048  0.6785
 4835SOL    HW126138   2.653   0.556   6.786 -0.8740 -0.0838  0.1765
 4835SOL    HW226139   2.581   0.679   6.861 -0.4974  0.3004  1.1466
 4836SOL     OW26140   0.800   1.285  16.594 -0.6595  0.0942 -0.1566
 4836SOL    HW126141   0.762   1.371  16.578 -0.1494  0.0130 -1.8738
 4836SOL    HW226142   0.745   1.247  16.663  0.5170  0.2536  0.8700
 4837SOL     OW26143   4.421   0.109   5.293 -0.4439 -0.4713 -0.2842
 4837SOL    HW126144   4.433   0.054   5.216 -0.4345  0.0889 -0.6838
 4837SOL    HW226145   4.392   0.190   5.252 -1.5485 -1.5082 -1.5667
 4838SOL     OW26146   3.339   1.639   3.411 -0.3886  0.2588  0.2084
 4838SOL    HW126147   3.355   1.643   3.506 -0.5121 -1.8917  0.3263
 4838SOL    HW226148   3.395   1.707   3.375  0.2709  0.3442  1.3728
 4839SOL     OW26149   2.097   0.474  15.836  0.1472  0.1168 -0.6011
 4839SOL    HW126150   2.015   0.499  15.878  0.7228 -0.9260  1.1320
 4839SOL    HW226151   2.150   0.456  15.913  0.1067 -0.1049 -0.6265
 4840SOL     OW26152   1.340   4.104  12.192  0.0181  0.2241 -0.4111
 4840SOL    HW126153   1.390   4.024  12.209  1.5907  1.7142  1.9851
 4840SOL    HW226154   1.341   4.106  12.096  1.6449 -3.3126 -0.4955
 4841SOL     OW26155   2.412   3.035   1.724 -0.1247 -0.0208 -0.0277
 4841SOL    HW126156   2.473   3.105   1.748 -2.4867  2.3143 -0.8202
 4841SOL    HW226157   2.466   2.968   1.767 -2.6156 -1.5135  0.7354
 4842SOL     OW26158   2.840   2.053   6.743 -0.0595 -0.0767  0.0169
 4842SOL    HW126159   2.926   2.018   6.722 -0.1698 -0.6043  0.4490
 4842SOL    HW226160   2.812   1.978   6.794 -0.9205  0.2044 -0.0452
 4843SOL     OW26161   0.963   4.471  10.617  0.5290 -0.2327  0.0545
 4843SOL    HW126162   1.033   4.442  10.560  2.0034  1.3412  1.0527
 4843SOL    HW226163   0.938   4.554  10.575  0.8338 -0.7718 -1.1786
 4844SOL     OW26164   2.876   1.957  10.122  0.4790 -0.6304  0.2301
 4844SOL    HW126165   2.812   1.889  10.143 -1.2160  1.1625  0.7868
 4844SOL    HW226166   2.946   1.952  10.187 -0.1660  0.0228  0.9726
 4845SOL     OW26167   4.706   1.033   4.313  0.2760  0.6182 -0.4249
 4845SOL    HW126168   4.663   1.041   4.227  1.0118  1.2469 -0.7396
 4845SOL    HW226169   4.641   1.074   4.370  0.0332 -0.3168 -0.0249
 4846SOL     OW26170   2.563   1.017   1.987 -0.0068 -0.3428 -0.1179
 4846SOL    HW126171   2.537   1.102   2.024 -0.0643 -0.3172 -0.2166
 4846SOL    HW226172   2.493   1.010   1.922  0.3965  2.3074 -0.8655
 4847SOL     OW26173   1.831   3.753   0.703  0.1573 -0.0914  0.0740
 4847SOL    HW126174   1.916   3.739   0.661 -0.6179  0.9187 -1.8075
 4847SOL    HW226175   1.844   3.834   0.753  0.1322  1.5977 -2.7048
 4848SOL     OW26176   0.686   2.665   5.143  0.2495  0.4094  0.4971
 4848SOL    HW126177   0.635   2.654   5.063 -1.3521 -2.6737  1.9269
 4848SOL    HW226178   0.774   2.657   5.107 -0.4225 -0.3726 -0.9541
 4849SOL     OW26179   2.230   3.790   1.651 -0.2375 -0.3818  0.1276
 4849SOL    HW126180   2.156   3.732   1.669 -0.7756  0.6677  1.2752
 4849SOL    HW226181   2.247   3.770   1.559  1.5710  0.1997  0.3404
 4850SOL     OW26182   4.473   2.009   8.983  0.2626 -0.1550  0.2639
 4850SOL    HW126183   4.469   2.104   8.969  1.3424 -0.4285 -1.9591
 4850SOL    HW226184   4.395   1.989   9.035 -0.4003  2.6953  0.3856
 4851SOL     OW26185   1.887   3.656   3.762 -0.3438  0.6731  0.2637
 4851SOL    HW126186   1.803   3.650   3.716 -0.1209  1.2315 -0.2092
 4851SOL    HW226187   1.924   3.575   3.728 -3.9791 -0.5294 -0.7820
 4852SOL     OW26188   1.012   1.866   7.259 -0.1556  0.0210 -0.0165
 4852SOL    HW126189   0.979   1.777   7.252 -0.0225  0.0929 -1.6096
 4852SOL    HW226190   1.068   1.861   7.336  1.1287  0.3337 -0.9455
 4853SOL     OW26191   1.404   4.145   9.251 -0.9252 -0.7138 -0.2273
 4853SOL    HW126192   1.365   4.090   9.183 -1.0289  1.5643 -2.0307
 4853SOL    HW226193   1.325   4.191   9.280 -1.2040 -1.1518 -0.2913
 4854SOL     OW26194   2.916   1.490   4.232  0.1196  0.1042 -0.0630
 4854SOL    HW126195   2.912   1.525   4.143 -0.5989  0.8195  0.2588
 4854SOL    HW226196   2.856   1.416   4.231 -1.9576  1.7832 -0.3847
 4855SOL     OW26197   3.227   1.977  13.272 -0.4458  0.1698 -0.4505
 4855SOL    HW126198   3.169   1.912  13.311  0.9757 -0.1192  1.1920
 4855SOL    HW226199   3.232   2.031  13.351  1.3646 -0.4264 -0.1501
 4856SOL     OW26200   3.209   3.373   1.486 -0.1109  0.1384  0.1493
 4856SOL    HW126201   3.232   3.466   1.486  1.1593 -0.1798  1.1712
 4856SOL    HW226202   3.178   3.353   1.574  3.3433  0.4404  1.4214
 4857SOL     OW26203   2.472   0.373   3.089 -0.2841 -1.0972 -0.6302
 4857SOL    HW126204   2.536   0.302   3.094  0.0974 -0.7844 -1.0898
 4857SOL    HW226205   2.521   0.430   3.030 -0.6410 -1.9794 -1.7799
 4858SOL     OW26206   0.097   1.575   8.729  0.1507  0.3744  0.3618
 4858SOL    HW126207   0.016   1.532   8.756  1.9594 -3.0119  0.4378
 4858SOL    HW226208   0.157   1.501   8.723 -1.3695 -0.8706  0.5369
 4859SOL     OW26209   4.041   1.824  11.962 -0.1125 -0.6326 -0.1168
 4859SOL    HW126210   4.024   1.886  12.032 -1.4681 -1.8975  0.6919
 4859SOL    HW226211   3.951   1.805  11.937  0.5238  0.3292 -3.0729
 4860SOL     OW26212   3.968   0.284   5.595  0.2396 -0.2029 -0.1947
 4860SOL    HW126213   3.924   0.290   5.511  1.5704  1.0535 -0.8115
 4860SOL    HW226214   3.946   0.195   5.622  4.4368 -1.8544 -2.2406
 4861SOL     OW26215   1.671   2.260   6.765  0.1260 -0.3320  0.3160
 4861SOL    HW126216   1.683   2.199   6.838  0.1154  1.2001  1.5677
 4861SOL    HW226217   1.580   2.237   6.750  0.1337 -0.8912  1.1487
 4862SOL     OW26218   0.419   4.235   8.304  0.1427  0.8188  0.0669
 4862SOL    HW126219   0.420   4.323   8.266 -1.8111  1.3290  1.2232
 4862SOL    HW226220   0.329   4.206   8.297  0.0987  0.6677  1.2616
 4863SOL     OW26221   2.070   4.023   4.013  0.3191 -0.0785  0.0144
 4863SOL    HW126222   1.987   3.975   4.004 -0.4223  1.2916 -0.3558
 4863SOL    HW226223   2.123   3.944   4.008 -1.5868 -1.2592 -1.6572
 4864SOL     OW26224   3.686   2.642  10.333 -0.2635  0.7211  0.1437
 4864SOL    HW126225   3.746   2.714  10.314  1.0471 -0.4216 -0.0400
 4864SOL    HW226226   3.614   2.664  10.273 -0.4626  0.7795  0.4015
 4865SOL     OW26227   4.366   0.450  11.038 -0.8060  0.0415  0.1970
 4865SOL    HW126228   4.282   0.404  11.029 -0.7509  0.0804 -0.5157
 4865SOL    HW226229   4.405   0.433  10.952 -0.0145 -2.4453  1.0508
 4866SOL     OW26230   1.666   4.291  13.891 -0.4250  0.1220 -0.2863
 4866SOL    HW126231   1.725   4.366  13.904 -1.6930  1.4763 -2.4751
 4866SOL    HW226232   1.650   4.262  13.981 -1.8491  1.5104 -0.0942
 4867SOL     OW26233   1.846   0.595   3.430 -0.0653 -0.4262 -0.6142
 4867SOL    HW126234   1.791   0.670   3.409 -0.5698 -0.7212 -0.3316
 4867SOL    HW226235   1.890   0.586   3.345 -0.1730  0.0294 -0.7218
 4868SOL     OW26236   1.051   1.826   9.119  0.2855 -0.1874  0.5463
 4868SOL    HW126237   0.964   1.865   9.121 -0.2861 -1.4219 -1.3878
 4868SOL    HW226238   1.091   1.836   9.206  1.6201 -0.5059 -0.0327
 4869SOL     OW26239   1.171   1.243   9.100  0.4183 -0.2632  0.1572
 4869SOL    HW126240   1.095   1.190   9.075  0.0581  0.2666  0.1236
 4869SOL    HW226241   1.180   1.230   9.195 -1.6139 -0.4945  0.3266
 4870SOL     OW26242   0.617   4.114   9.784  0.2738  0.3724  0.7606
 4870SOL    HW126243   0.583   4.194   9.825  1.0998  1.2806 -0.3333
 4870SOL    HW226244   0.638   4.066   9.864  0.1755 -2.4767 -0.9312
 4871SOL     OW26245   3.440   4.003   2.566  0.6375 -0.1337  0.1035
 4871SOL    HW126246   3.499   4.032   2.636 -1.6219  2.7191  0.8431
 4871SOL    HW226247   3.371   3.959   2.616  0.8797 -1.0062 -0.3389
 4872SOL     OW26248   3.621   0.150  10.210  0.8062 -0.2539 -0.0819
 4872SOL    HW126249   3.685   0.161  10.281  0.5297 -1.8606  0.4298
 4872SOL    HW226250   3.641   0.223  10.151 -0.3050 -1.0671 -1.4435
 4873SOL     OW26251   0.594   0.462   7.143 -0.4380  0.2943 -0.1228
 4873SOL    HW126252   0.629   0.373   7.141 -0.5476  0.3041 -2.5953
 4873SOL    HW226253   0.663   0.501   7.089 -0.7857  0.6839 -0.2838
 4874SOL     OW26254   4.354   2.951   6.275 -0.5808 -0.0880 -0.1113
 4874SOL    HW126255   4.295   2.969   6.348 -0.0349 -1.3334  0.6532
 4874SOL    HW226256   4.424   2.915   6.331 -0.3862 -1.5282 -1.2890
 4875SOL     OW26257   2.960   2.596  14.882  0.7103 -0.5744  0.0202
 4875SOL    HW126258   2.928   2.616  14.970 -1.8946 -1.2317 -0.7874
 4875SOL    HW226259   3.011   2.518  14.908 -1.0558 -1.9612 -0.7056
 4876SOL     OW26260   4.733   3.835  17.364  0.0008 -0.3612 -0.3473
 4876SOL    HW126261   0.061   3.766  17.374 -0.2469 -0.6936 -1.0606
 4876SOL    HW226262   0.008   3.886  17.444 -1.9750  1.1249 -0.9963
 4877SOL     OW26263   3.471   3.601   6.077 -0.1726 -0.3489  0.2104
 4877SOL    HW126264   3.399   3.622   6.136  0.0443  0.9405  0.0105
 4877SOL    HW226265   3.449   3.508   6.074  0.8646 -0.5884 -0.1848
 4878SOL     OW26266   4.481   1.655   5.754  0.4814 -0.4986  0.3666
 4878SOL    HW126267   4.553   1.656   5.816  0.9411  2.3502 -0.2090
 4878SOL    HW226268   4.515   1.611   5.676  0.5314  0.4301 -0.1438
 4879SOL     OW26269   3.816   3.390   2.028  0.1638 -0.2744  0.0327
 4879SOL    HW126270   3.834   3.396   1.934 -0.8242  2.3350  0.0246
 4879SOL    HW226271   3.835   3.299   2.053 -0.0095 -0.9566 -2.2956
 4880SOL     OW26272   3.607   4.008   1.758  0.0327 -0.4926 -0.3013
 4880SOL    HW126273   3.530   3.951   1.756  1.0041 -1.8384  0.1891
 4880SOL    HW226274   3.644   3.979   1.842 -1.7919 -0.1436  0.6325
 4881SOL     OW26275   2.881   2.884   7.816 -0.8874  0.3468  0.0499
 4881SOL    HW126276   2.908   2.869   7.726 -0.4938 -1.4922  0.4656
 4881SOL    HW226277   2.876   2.793   7.847  1.5110  0.3627  0.4766
 4882SOL     OW26278   2.286   0.665  11.999  0.0467  0.4923  0.3044
 4882SOL    HW126279   2.375   0.638  11.976  0.8957  1.2622  2.7388
 4882SOL    HW226280   2.253   0.576  12.013  3.1832 -0.8878 -0.9792
 4883SOL     OW26281   1.775   0.914  16.174  0.0492 -0.1122  0.2755
 4883SOL    HW126282   1.730   0.994  16.147 -0.5342 -0.2629  0.8000
 4883SOL    HW226283   1.792   0.890  16.083 -2.2310 -1.8680  0.2935
 4884SOL     OW26284   2.056   1.557  13.618  0.2390 -0.1758  0.3085
 4884SOL    HW126285   2.094   1.626  13.673  0.9313  0.1230 -0.5461
 4884SOL    HW226286   1.964   1.569  13.641 -0.5858  1.4259 -3.8768
 4885SOL     OW26287   0.792   2.821   7.112  0.5809  0.2214 -0.0708
 4885SOL    HW126288   0.734   2.833   7.188 -1.4659 -0.9872 -1.4344
 4885SOL    HW226289   0.878   2.823   7.154  1.3285 -0.0768 -1.5800
 4886SOL     OW26290   0.780   0.922   9.222  0.2067 -0.2394  0.5704
 4886SOL    HW126291   0.710   0.910   9.287 -1.0238 -0.6821 -0.8300
 4886SOL    HW226292   0.771   0.844   9.167  1.0824  0.0413  0.0396
 4887SOL     OW26293   4.121   3.882  15.492  0.2266  0.4525  0.3187
 4887SOL    HW126294   4.057   3.890  15.422  0.2652 -0.8404  0.1349
 4887SOL    HW226295   4.110   3.789  15.513 -0.0138  0.1898 -0.9957
 4888SOL     OW26296   1.627   0.969   0.136  0.0650 -0.2106 -0.8317
 4888SOL    HW126297   1.684   1.046   0.144 -0.6528  0.3036 -0.6266
 4888SOL    HW226298   1.636   0.928   0.051  1.6539  1.2927 -1.3914
 4889SOL     OW26299   1.918   2.651   2.320  0.1662  0.2630  0.3495
 4889SOL    HW126300   1.894   2.559   2.331  2.0144 -0.2429  0.1385
 4889SOL    HW226301   2.007   2.639   2.287 -0.4592  0.8342 -1.5021
 4890SOL     OW26302   0.162   0.809   5.854  0.2290  0.1418 -0.2172
 4890SOL    HW126303   0.168   0.714   5.866  0.9417  0.1778 -0.3128
 4890SOL    HW226304   0.099   0.824   5.783 -0.1704 -2.1240 -0.3323
 4891SOL     OW26305   0.759   3.774   8.935 -0.3232  0.5030  0.3201
 4891SOL    HW126306   0.820   3.710   8.900  1.3198  1.5534  1.2506
 4891SOL    HW226307   0.686   3.757   8.875 -0.0576  0.5900 -0.0276
 4892SOL     OW26308   2.516   0.168  16.514 -0.0196 -0.0608  0.2284
 4892SOL    HW126309   2.553   0.083  16.539  1.9155  0.6209 -0.3292
 4892SOL    HW226310   2.425   0.142  16.501 -0.7596  2.2467  0.8610
 4893SOL     OW26311   3.330   2.907   4.337  0.5791 -0.1083 -0.5920
 4893SOL    HW126312   3.414   2.902   4.291 -0.1535  1.4299 -2.1086
 4893SOL    HW226313   3.348   2.936   4.426 -0.9063 -0.4246 -0.1936
 4894SOL     OW26314   3.946   4.502   2.917  0.1944 -0.7720  0.2573
 4894SOL    HW126315   4.030   4.457   2.903  0.3470 -1.0408  2.0962
 4894SOL    HW226316   3.918   4.468   3.002  0.4513  0.7168  0.9419
 4895SOL     OW26317   1.751   4.692   7.165  0.7131 -0.5163  0.2855
 4895SOL    HW126318   1.821   0.015   7.141  1.6461 -1.1572  1.3920
 4895SOL    HW226319   1.793   4.607   7.152 -0.9971 -1.2620 -0.3069
 4896SOL     OW26320   1.526   2.725  12.520 -0.3570  0.1616  0.1461
 4896SOL    HW126321   1.444   2.718  12.567 -0.6575 -0.3860 -0.4484
 4896SOL    HW226322   1.581   2.685  12.588  0.7502 -0.3301 -1.0098
 4897SOL     OW26323   0.329   1.107   7.956  0.1813  0.0551 -0.3125
 4897SOL    HW126324   0.324   1.145   7.869  1.7020  1.6625  0.2914
 4897SOL    HW226325   0.397   1.043   7.935 -0.2758 -1.2044  2.0401
 4898SOL     OW26326   4.618   2.498   5.699  0.3410  0.3163  0.0734
 4898SOL    HW126327   4.569   2.537   5.627  2.4230  0.0663 -1.5038
 4898SOL    HW226328   4.686   2.443   5.660  0.4520 -0.9312  2.0227
 4899SOL     OW26329   2.408   2.924   3.854 -0.0072  0.8211  0.0059
 4899SOL    HW126330   2.474   2.869   3.896  0.9736  1.1359 -1.1157
 4899SOL    HW226331   2.449   3.010   3.859 -0.6061  1.1488 -0.7377
 4900SOL     OW26332   2.023   1.034   8.315 -0.2005 -0.0693  0.4483
 4900SOL    HW126333   2.050   1.123   8.336  0.6287  0.0347 -1.0769
 4900SOL    HW226334   2.071   1.022   8.233  0.6461  1.1798  0.7692
 4901SOL     OW26335   0.586   4.413   4.120  0.1719 -0.3206 -0.3503
 4901SOL    HW126336   0.580   4.383   4.030  0.4463 -0.0310 -0.4635
 4901SOL    HW226337   0.651   4.355   4.162  0.6848 -0.4914 -1.3707
 4902SOL     OW26338   0.868   0.812   7.447  0.2452 -0.0710 -0.6283
 4902SOL    HW126339   0.927   0.788   7.375  1.6308 -0.6631  0.7134
 4902SOL    HW226340   0.778   0.803   7.415 -0.0250  1.1742 -0.1976
 4903SOL     OW26341   4.303   0.509   2.550  0.1147  0.2364 -0.5330
 4903SOL    HW126342   4.362   0.562   2.604  0.0026 -1.3804  1.1672
 4903SOL    HW226343   4.243   0.577   2.519  1.3959  2.2411  1.3776
 4904SOL     OW26344   2.879   0.759  14.601 -0.6034  0.1933  0.0142
 4904SOL    HW126345   2.912   0.687  14.654 -1.3505  0.2577  0.5587
 4904SOL    HW226346   2.790   0.728  14.588 -1.2833  3.1263 -2.4345
 4905SOL     OW26347   3.776   1.627   7.676 -0.0780 -0.3684  0.1398
 4905SOL    HW126348   3.865   1.610   7.646 -0.1795  0.1753 -0.4786
 4905SOL    HW226349   3.728   1.591   7.601  0.8926 -0.1310 -0.5888
 4906SOL     OW26350   2.440   0.897   8.939  0.4141  0.0250  0.2181
 4906SOL    HW126351   2.491   0.871   9.016  0.3258  1.6324  0.8335
 4906SOL    HW226352   2.356   0.876   8.979  0.2731 -1.4704 -0.8593
 4907SOL     OW26353   1.631   0.106  12.491 -0.3987 -0.1525 -0.1258
 4907SOL    HW126354   1.666   0.099  12.580  0.0428 -1.2041 -0.3812
 4907SOL    HW226355   1.694   0.047  12.451 -1.1145 -0.5322 -0.6760
 4908SOL     OW26356   0.688   4.354   6.645  0.3085  0.0824 -0.4836
 4908SOL    HW126357   0.763   4.325   6.593  1.9643 -0.4945  2.1755
 4908SOL    HW226358   0.717   4.438   6.680  0.2829 -0.0447 -0.1530
 4909SOL     OW26359   1.481   4.031   6.137  0.1403 -0.1889 -0.2406
 4909SOL    HW126360   1.470   4.085   6.215  0.9697 -0.2626 -0.0753
 4909SOL    HW226361   1.526   3.950   6.162  0.3049 -0.1909 -0.5417
 4910SOL     OW26362   4.246   4.547  16.436  0.2478 -0.2015 -0.0106
 4910SOL    HW126363   4.254   4.642  16.441  0.6513 -0.2599  0.4380
 4910SOL    HW226364   4.154   4.537  16.410  1.1039 -2.8777 -1.9078
 4911SOL     OW26365   0.712   2.095   3.453 -0.0574  0.0397  0.7363
 4911SOL    HW126366   0.738   2.168   3.397  1.1837 -0.6574  0.4141
 4911SOL    HW226367   0.735   2.128   3.540 -0.7810  0.2919  0.8285
 4912SOL     OW26368   1.312   1.508  17.424  0.0328  0.5009 -0.3609
 4912SOL    HW126369   1.219   1.519  17.443  0.1585 -2.0317  1.8551
 4912SOL    HW226370   1.330   1.433  17.482 -1.7485  1.2637  1.1775
 4913SOL     OW26371   2.239   2.037   3.474 -0.2348  0.9105  0.0767
 4913SOL    HW126372   2.312   2.029   3.536  0.4820  0.5455 -0.8178
 4913SOL    HW226373   2.211   2.126   3.494  0.9400  0.8904  1.8429
 4914SOL     OW26374   1.771   0.840  17.666 -0.1210 -0.2409 -0.2186
 4914SOL    HW126375   1.855   0.800  17.690 -0.0558 -0.1321 -0.2629
 4914SOL    HW226376   1.775   0.840  17.570 -2.6530  0.7640 -0.3099
 4915SOL     OW26377   0.598   3.467   0.941 -0.1444 -0.0194 -0.2172
 4915SOL    HW126378   0.529   3.407   0.968 -0.3170  0.0276 -0.5637
 4915SOL    HW226379   0.653   3.469   1.020  0.9016  2.6449 -0.9958
 4916SOL     OW26380   2.322   3.704   7.994  0.1827 -0.2083 -0.3127
 4916SOL    HW126381   2.369   3.707   7.910  1.6284  0.2725  0.5189
 4916SOL    HW226382   2.358   3.776   8.045 -1.5594  1.7470 -1.8628
 4917SOL     OW26383   2.740   4.675   2.998  0.6112 -0.3278  0.1277
 4917SOL    HW126384   2.705   4.620   2.927  0.7298 -0.7308  0.3827
 4917SOL    HW226385   2.815   4.627   3.031  0.2647 -1.4238 -0.6598
 4918SOL     OW26386   1.536   1.910  11.945 -0.1183  0.4113  0.5669
 4918SOL    HW126387   1.487   1.988  11.918  0.1163  0.2838 -0.2198
 4918SOL    HW226388   1.467   1.848  11.967  0.9849 -1.1483 -0.3616
 4919SOL     OW26389   1.286   0.874   1.386 -0.4690  1.2725  0.0289
 4919SOL    HW126390   1.263   0.924   1.307  0.2559 -0.1505 -1.0848
 4919SOL    HW226391   1.257   0.787   1.360 -1.0882  1.9095 -1.4743
 4920SOL     OW26392   1.104   2.687   6.557  0.8725  0.2421 -0.2804
 4920SOL    HW126393   1.051   2.613   6.585  1.8215 -0.6617 -0.8481
 4920SOL    HW226394   1.086   2.679   6.463  1.6962 -1.4869 -0.2910
 4921SOL     OW26395   4.039   3.521   8.573  0.3067  0.2131 -0.3616
 4921SOL    HW126396   4.098   3.488   8.641 -1.1721 -1.0074  0.3187
 4921SOL    HW226397   4.042   3.614   8.595  0.7241  0.1048  0.0303
 4922SOL     OW26398   1.750   0.723  14.996  0.2382 -0.3114 -0.3441
 4922SOL    HW126399   1.684   0.768  15.049 -0.7078 -0.2238 -1.5833
 4922SOL    HW226400   1.744   0.769  14.913  2.2014 -1.9199 -1.3826
 4923SOL     OW26401   3.777   0.168  11.849  0.1093  0.1229 -0.2203
 4923SOL    HW126402   3.867   0.137  11.842 -0.1975 -1.4219  2.5954
 4923SOL    HW226403   3.757   0.115  11.926 -2.0807  1.1847 -0.0533
 4924SOL     OW26404   1.056   0.977   2.628  0.2639  0.2582  0.0902
 4924SOL    HW126405   0.986   0.981   2.563  1.0296 -3.6708 -0.9960
 4924SOL    HW226406   1.032   0.916   2.698  1.3755  0.2871  0.4895
 4925SOL     OW26407   1.885   0.055   1.362  0.7306 -0.4805  0.0372
 4925SOL    HW126408   1.873   0.054   1.457  1.2744  0.4520  0.1235
 4925SOL    HW226409   1.821   0.120   1.333 -0.5239 -0.6102  2.5173
 4926SOL     OW26410   2.694   2.247   6.631 -0.1236 -0.6875 -0.5442
 4926SOL    HW126411   2.728   2.166   6.668 -1.6337 -1.6310 -1.2407
 4926SOL    HW226412   2.781   2.287   6.620 -0.6139  0.5997  0.1900
 4927SOL     OW26413   4.416   1.305   8.649 -0.0512  0.1093  0.4514
 4927SOL    HW126414   4.487   1.242   8.660  0.5672  0.6562 -0.4453
 4927SOL    HW226415   4.374   1.275   8.568  2.8812 -1.2712 -0.5404
 4928SOL     OW26416   3.115   1.978   6.703  0.2599 -0.4746 -0.4379
 4928SOL    HW126417   3.190   1.969   6.763 -0.6698  1.4923  0.9949
 4928SOL    HW226418   3.122   1.896   6.653  2.0572  0.1447 -1.1950
 4929SOL     OW26419   2.553   3.856   3.765 -0.0730 -0.2223 -0.7142
 4929SOL    HW126420   2.532   3.943   3.801  0.6272 -0.1922 -0.3779
 4929SOL    HW226421   2.561   3.807   3.847 -0.8153  1.3330  0.2876
 4930SOL     OW26422   1.691   1.564   8.691  0.2702 -0.4241 -0.2161
 4930SOL    HW126423   1.743   1.486   8.672 -2.0420 -2.9144  3.7824
 4930SOL    HW226424   1.659   1.573   8.601  0.6065 -0.1047 -0.3014
 4931SOL     OW26425   4.492   2.897   7.291  0.0810  0.1062  0.2527
 4931SOL    HW126426   4.545   2.825   7.324 -0.8389 -0.4453  0.5490
 4931SOL    HW226427   4.413   2.903   7.345  0.0178 -1.9514  0.3818
 4932SOL     OW26428   2.950   2.613  15.826  0.5447  0.4313 -0.2943
 4932SOL    HW126429   3.022   2.665  15.790  0.5995  1.1169  0.8181
 4932SOL    HW226430   2.991   2.585  15.908 -0.6370 -0.9546 -0.1834
 4933SOL     OW26431   0.491   2.547   2.093  0.2595 -0.2013 -0.3886
 4933SOL    HW126432   0.543   2.548   2.173 -0.6646 -1.5191  0.2235
 4933SOL    HW226433   0.553   2.532   2.021 -2.7882  1.8519 -3.4830
 4934SOL     OW26434   3.594   0.146   4.371 -0.0717 -0.1339 -0.1625
 4934SOL    HW126435   3.595   0.086   4.297  1.4528  0.2491 -0.4707
 4934SOL    HW226436   3.503   0.173   4.368  0.5673  2.0794 -0.1030
 4935SOL     OW26437   3.893   1.313   8.308 -0.1869  0.1926  0.2904
 4935SOL    HW126438   3.828   1.315   8.238 -1.0168  1.1998  1.1015
 4935SOL    HW226439   3.965   1.262   8.270 -0.4639 -0.4215  0.5987
 4936SOL     OW26440   0.455   0.341   8.361 -0.4610  0.0077 -0.3489
 4936SOL    HW126441   0.434   0.282   8.289  1.5129  1.2740 -1.9553
 4936SOL    HW226442   0.466   0.277   8.432  0.7682  1.7077  0.9913
 4937SOL     OW26443   3.802   4.079   0.783 -0.1658 -0.0076  0.9712
 4937SOL    HW126444   3.707   4.081   0.771  0.0162 -1.8530 -0.6782
 4937SOL    HW226445   3.803   4.061   0.877  0.4718 -1.1295  0.7455
 4938SOL     OW26446   1.918   1.807   6.338  0.6164 -0.5892 -0.2175
 4938SOL    HW126447   1.874   1.732   6.379  1.7182 -0.8857  0.4234
 4938SOL    HW226448   1.848   1.866   6.367  0.7127 -0.3844 -0.4053
 4939SOL     OW26449   3.485   4.324   2.945 -0.4206  0.2810 -0.1998
 4939SOL    HW126450   3.435   4.372   2.879  0.1525  2.2810  0.7864
 4939SOL    HW226451   3.488   4.391   3.013  0.1681  1.0446 -0.9634
 4940SOL     OW26452   4.039   4.137   8.759 -0.4676 -0.0360  0.1360
 4940SOL    HW126453   4.050   4.042   8.750  0.5396  0.2432 -1.8444
 4940SOL    HW226454   3.947   4.140   8.785 -0.7813  0.5379 -1.0147
 4941SOL     OW26455   1.989   4.727   9.064 -0.3384 -0.2909 -0.6622
 4941SOL    HW126456   2.057   4.729   9.131 -0.4595  0.1939 -0.5536
 4941SOL    HW226457   1.913   0.020   9.112  0.1940 -0.8758  0.5535
 4942SOL     OW26458   4.303   1.171   4.303  0.2658  0.1005  0.5041
 4942SOL    HW126459   4.358   1.234   4.348 -0.7794  1.3455  0.0220
 4942SOL    HW226460   4.305   1.211   4.216  0.4382 -0.8329  0.0660
 4943SOL     OW26461   1.766   1.655   1.699  0.1181 -0.0040  0.0349
 4943SOL    HW126462   1.704   1.627   1.631 -3.1493  2.8077  1.8190
 4943SOL    HW226463   1.843   1.700   1.664 -2.6219  3.1512 -2.0706
 4944SOL     OW26464   0.920   0.476   4.667  0.4623 -0.7121  0.2051
 4944SOL    HW126465   0.826   0.456   4.666  0.0920  1.1593 -0.8361
 4944SOL    HW226466   0.960   0.390   4.651  1.9501  0.3796 -1.9395
 4945SOL     OW26467   4.094   2.173   8.253 -0.1331 -0.0537  0.0228
 4945SOL    HW126468   4.046   2.244   8.295  1.0497  1.5516 -1.3468
 4945SOL    HW226469   4.180   2.214   8.260 -0.3726  0.7113 -1.4936
 4946SOL     OW26470   2.921   3.074   6.351  0.2768 -0.3849 -0.3215
 4946SOL    HW126471   2.918   2.993   6.300 -0.4965 -0.7573  0.3145
 4946SOL    HW226472   2.940   3.152   6.299  2.3443  0.2089  1.3425
 4947SOL     OW26473   1.875   3.231   6.616 -0.5729 -0.7090  0.2916
 4947SOL    HW126474   1.866   3.286   6.538  2.1057 -0.9113 -0.1513
 4947SOL    HW226475   1.874   3.300   6.683 -1.3053  0.6224 -1.0882
 4948SOL     OW26476   1.723   2.084  14.450  0.3231 -0.3318 -0.4403
 4948SOL    HW126477   1.782   2.157  14.432 -0.2582  0.4257  0.6698
 4948SOL    HW226478   1.778   2.013  14.419  0.9304 -0.4415  0.9182
 4949SOL     OW26479   2.779   1.059   5.198 -0.1890 -0.0370 -0.1946
 4949SOL    HW126480   2.822   1.117   5.135  0.5271  1.2719  1.5094
 4949SOL    HW226481   2.795   0.972   5.162 -2.1915 -0.3982 -0.2271
 4950SOL     OW26482   0.283   2.017   7.715  0.5029 -0.5197 -0.1992
 4950SOL    HW126483   0.326   2.049   7.794  0.1297  0.1980 -0.2906
 4950SOL    HW226484   0.325   1.931   7.706  0.3075 -0.5483 -0.8234
 4951SOL     OW26485   1.709   0.650   7.528  0.2751 -0.6005  0.1869
 4951SOL    HW126486   1.774   0.593   7.569  1.3167  1.0001  0.7411
 4951SOL    HW226487   1.684   0.698   7.607 -0.3329 -0.4297 -0.1110
 4952SOL     OW26488   0.087   1.359  16.034  0.1806 -0.5222  0.0704
 4952SOL    HW126489   0.132   1.349  16.117 -0.0160 -1.0514  0.1103
 4952SOL    HW226490   0.029   1.434  16.051  1.2211  0.8539 -2.5053
 4953SOL     OW26491   4.605   2.683   7.389  0.2289  0.5669  0.2827
 4953SOL    HW126492   4.530   2.663   7.445 -0.1646  2.6115  0.4909
 4953SOL    HW226493   4.677   2.639   7.434  0.1293  0.5852  0.4632
 4954SOL     OW26494   1.668   3.452   4.462  0.0770 -0.0686  0.2933
 4954SOL    HW126495   1.745   3.503   4.485  0.3938 -0.3539 -0.1394
 4954SOL    HW226496   1.593   3.506   4.487 -1.7752 -2.3177 -0.2891
 4955SOL     OW26497   4.238   2.142  17.165  0.1365 -0.1056 -0.2031
 4955SOL    HW126498   4.272   2.053  17.153 -0.0783 -0.2790  0.5156
 4955SOL    HW226499   4.243   2.142  17.260  1.6711  2.7525 -0.2792
 4956SOL     OW26500   1.843   2.396   7.002  0.6314  0.1386  0.1097
 4956SOL    HW126501   1.824   2.371   6.911 -1.5721 -1.1852  0.9338
 4956SOL    HW226502   1.772   2.453   7.032  0.3346  0.4367 -1.1335
 4957SOL     OW26503   1.158   3.586   8.204 -0.5643 -0.2770 -0.1611
 4957SOL    HW126504   1.082   3.623   8.248 -0.4926 -0.3637  0.0359
 4957SOL    HW226505   1.214   3.661   8.187 -0.5312 -0.0469  0.9716
 4958SOL     OW26506   3.823   4.599   2.641 -0.0033 -0.0888 -0.5030
 4958SOL    HW126507   3.895   4.568   2.585 -0.1650 -1.3441 -0.0320
 4958SOL    HW226508   3.854   4.570   2.727  0.0259  0.7838 -0.2246
 4959SOL     OW26509   0.450   2.233   9.013 -0.1315 -0.0409 -0.0472
 4959SOL    HW126510   0.444   2.162   8.950 -0.2963 -0.1991  0.1499
 4959SOL    HW226511   0.501   2.293   8.958  0.3773  0.6226  1.1472
 4960SOL     OW26512   3.822   2.435   4.392 -0.0936 -0.9279 -0.0072
 4960SOL    HW126513   3.912   2.403   4.398  0.5593  1.2921  1.8964
 4960SOL    HW226514   3.795   2.405   4.305 -0.9295  0.1993 -0.1386
 4961SOL     OW26515   2.827   4.641   8.922 -0.0707 -0.1967  0.1075
 4961SOL    HW126516   2.821   4.637   9.018 -0.3238  0.8907  0.1377
 4961SOL    HW226517   2.782   4.724   8.910  0.1548  0.2081  2.0705
 4962SOL     OW26518   3.837   3.498   9.391  0.0613 -0.0779  0.3776
 4962SOL    HW126519   3.846   3.437   9.465  2.4190 -1.8535 -1.3628
 4962SOL    HW226520   3.754   3.539   9.413  1.0958  2.9897 -1.5243
 4963SOL     OW26521   3.766   4.339   3.083 -0.4957 -0.4803 -0.2615
 4963SOL    HW126522   3.699   4.403   3.107 -0.0619  0.7567 -2.3907
 4963SOL    HW226523   3.776   4.292   3.166  3.4156  2.8701  1.1508
 4964SOL     OW26524   1.258   4.290   2.596 -0.0317  1.1634 -0.0305
 4964SOL    HW126525   1.208   4.356   2.546  1.5505  2.4151  0.0212
 4964SOL    HW226526   1.192   4.275   2.664 -2.3342  0.5995 -2.3897
 4965SOL     OW26527   1.871   0.646   8.640  0.1198 -0.0110  0.3048
 4965SOL    HW126528   1.893   0.728   8.596 -1.2066  0.3687  0.3330
 4965SOL    HW226529   1.859   0.676   8.730 -0.7714  2.9239 -0.8066
 4966SOL     OW26530   4.691   3.449   2.223  0.4064 -0.4771  0.5920
 4966SOL    HW126531   4.597   3.430   2.215 -0.1974  2.2662  1.1337
 4966SOL    HW226532   4.697   3.513   2.294 -0.3433  0.2271  0.0270
 4967SOL     OW26533   2.731   4.253   5.139  0.1287 -0.0419 -0.8550
 4967SOL    HW126534   2.814   4.227   5.097  1.3157  3.9009 -0.9646
 4967SOL    HW226535   2.686   4.169   5.139  0.3336 -0.1573 -1.9342
 4968SOL     OW26536   2.238   0.857   5.532 -0.1162 -0.3192  0.1119
 4968SOL    HW126537   2.215   0.950   5.530 -2.7545 -0.9585 -0.7044
 4968SOL    HW226538   2.330   0.862   5.506  0.9586  0.6224  4.0648
 4969SOL     OW26539   0.390   3.208   9.723  0.1513 -0.3384  0.2606
 4969SOL    HW126540   0.425   3.208   9.634 -0.9079 -2.3758 -0.1586
 4969SOL    HW226541   0.465   3.188   9.778  1.3873 -0.6484 -1.5282
 4970SOL     OW26542   0.400   3.746   7.577  0.6973 -0.8229  0.5583
 4970SOL    HW126543   0.312   3.769   7.548  0.4206 -1.7358  0.6838
 4970SOL    HW226544   0.445   3.770   7.496 -0.4124 -2.9409 -0.6963
 4971SOL     OW26545   2.270   2.251   3.196 -0.7986  0.1685 -0.0743
 4971SOL    HW126546   2.330   2.324   3.180  0.3657 -1.3032 -2.4381
 4971SOL    HW226547   2.327   2.176   3.177  0.0272  0.8066 -0.1000
 4972SOL     OW26548   1.653   2.415   8.268 -0.1448 -0.4289 -0.0899
 4972SOL    HW126549   1.657   2.420   8.172  1.7669  0.6984  0.0470
 4972SOL    HW226550   1.745   2.397   8.287  0.0395 -1.4691 -1.9186
 4973SOL     OW26551   1.318   4.336   7.233  0.4296  0.0687  0.0064
 4973SOL    HW126552   1.249   4.274   7.208 -0.7339  1.2449  0.2865
 4973SOL    HW226553   1.400   4.287   7.229  0.7220  0.4695  1.1147
 4974SOL     OW26554   3.185   1.876   5.357  0.0764 -0.3363 -0.2535
 4974SOL    HW126555   3.162   1.955   5.405  0.2274  0.5334 -1.6122
 4974SOL    HW226556   3.239   1.920   5.291 -0.5201  0.4695 -0.1950
 4975SOL     OW26557   0.653   3.996   8.658  0.1429  0.1408  0.6920
 4975SOL    HW126558   0.616   3.933   8.720  0.3256  0.1521  0.8134
 4975SOL    HW226559   0.599   3.989   8.579 -1.2216  2.4775  1.4054
 4976SOL     OW26560   1.184   3.373   0.043  0.0971  0.8814 -0.8048
 4976SOL    HW126561   1.273   3.344   0.024 -0.1535 -0.9289  0.8549
 4976SOL    HW226562   1.187   3.451  17.738  2.2417  0.4450 -1.2756
 4977SOL     OW26563   4.436   1.455   2.750 -0.3065  0.2896 -0.2942
 4977SOL    HW126564   4.490   1.486   2.677  1.5734  1.1529  1.4244
 4977SOL    HW226565   4.455   1.519   2.819 -1.7351  0.9501 -0.5257
 4978SOL     OW26566   1.588   1.875   7.429  0.1052 -0.5896 -0.6502
 4978SOL    HW126567   1.668   1.919   7.402 -1.2868  1.8459 -0.8375
 4978SOL    HW226568   1.550   1.926   7.501  0.1954  0.1496 -1.1285
 4979SOL     OW26569   2.267   2.752  11.179  0.0028  0.8612  0.0515
 4979SOL    HW126570   2.359   2.773  11.199  1.2063 -1.0541 -3.3880
 4979SOL    HW226571   2.269   2.657  11.187 -2.1050  0.8021 -0.1541
 4980SOL     OW26572   0.680   4.060   8.984 -0.5144  0.0647 -0.3066
 4980SOL    HW126573   0.647   4.088   9.069 -1.0456 -0.9881 -0.1686
 4980SOL    HW226574   0.647   3.970   8.978  0.4006 -0.3213  0.6304
 4981SOL     OW26575   0.574   2.727   8.260  0.6587  0.0493 -0.6585
 4981SOL    HW126576   0.579   2.720   8.164 -1.4084 -0.6621 -0.7240
 4981SOL    HW226577   0.480   2.739   8.275  1.0611 -0.1428  1.9886
 4982SOL     OW26578   3.077   4.343   5.423  0.5845  0.1322  0.0575
 4982SOL    HW126579   2.997   4.362   5.472  0.6753 -1.4983  0.8201
 4982SOL    HW226580   3.043   4.332   5.334 -2.3558 -0.1904  1.2186
 4983SOL     OW26581   4.457   0.415   8.014 -0.5259  0.3793  0.1213
 4983SOL    HW126582   4.495   0.373   8.091 -0.6334 -0.4137 -0.2694
 4983SOL    HW226583   4.365   0.391   8.022  0.2207 -2.5428 -0.3670
 4984SOL     OW26584   2.612   3.573   5.228  0.0959  0.9292 -0.9007
 4984SOL    HW126585   2.613   3.620   5.145 -0.5321  4.1460  0.9047
 4984SOL    HW226586   2.520   3.550   5.243 -0.3881  3.2768 -0.2352
 4985SOL     OW26587   3.249   2.744   7.757  0.1969 -0.4141  0.6873
 4985SOL    HW126588   3.231   2.707   7.671 -4.8944  1.8807  0.7168
 4985SOL    HW226589   3.184   2.702   7.814  0.8774 -1.0412  0.9903
 4986SOL     OW26590   4.588   0.277  10.729 -0.3173  0.3266  0.1793
 4986SOL    HW126591   4.501   0.273  10.767 -1.2301 -0.3805 -1.9595
 4986SOL    HW226592   4.627   0.361  10.753 -0.1402  0.4206 -0.4214
 4987SOL     OW26593   1.099   1.970   7.014  0.4197  0.8007  0.3715
 4987SOL    HW126594   1.138   2.035   7.072 -0.9446  1.3856  0.6329
 4987SOL    HW226595   1.066   1.912   7.083  1.9486  1.2965  1.5118
 4988SOL     OW26596   1.493   3.865   1.743 -0.0227 -0.2086 -0.1115
 4988SOL    HW126597   1.425   3.920   1.704 -0.6993 -0.8177  0.2142
 4988SOL    HW226598   1.565   3.905   1.694 -0.2757 -0.4068 -0.6438
 4989SOL     OW26599   0.269   0.404   7.378  0.1206 -0.0392 -0.1546
 4989SOL    HW126600   0.189   0.371   7.419  0.5912  0.5288  1.2296
 4989SOL    HW226601   0.219   0.437   7.304  0.7401  1.8269  0.2404
 4990SOL     OW26602   1.116   3.410   9.953 -0.0949 -0.5152  0.0372
 4990SOL    HW126603   1.101   3.453  10.037 -2.6285 -1.6970  0.1934
 4990SOL    HW226604   1.167   3.475   9.904  0.7225 -0.5263  0.8768
 4991SOL     OW26605   3.812   1.351  12.372  0.3161 -0.3396 -0.0100
 4991SOL    HW126606   3.744   1.321  12.433  0.7528 -1.5008 -0.0897
 4991SOL    HW226607   3.760   1.340  12.293 -1.2463  3.0962  0.5672
 4992SOL     OW26608   3.339   0.328   4.500  0.2390  0.1985 -0.5132
 4992SOL    HW126609   3.351   0.244   4.545  1.0270 -1.1277 -3.1213
 4992SOL    HW226610   3.419   0.375   4.522 -0.7224 -0.8235  5.0487
 4993SOL     OW26611   0.660   1.583   4.994  0.0320  0.4571 -0.1617
 4993SOL    HW126612   0.644   1.492   4.971  0.1211  0.2922  0.4237
 4993SOL    HW226613   0.716   1.573   5.071  0.2355  0.0839 -0.3609
 4994SOL     OW26614   4.153   3.514   2.121  0.0538 -0.1584 -0.0299
 4994SOL    HW126615   4.101   3.581   2.077  0.2174  0.5890  0.9355
 4994SOL    HW226616   4.131   3.441   2.062  2.0773 -1.3131  0.6169
 4995SOL     OW26617   1.816   3.159   8.351  0.9280 -0.1135  0.1130
 4995SOL    HW126618   1.905   3.148   8.318  1.1361  0.2480  0.5360
 4995SOL    HW226619   1.770   3.124   8.276 -0.9988  2.7165 -0.0215
 4996SOL     OW26620   1.384   3.384   6.222  0.3273  0.3702 -0.1680
 4996SOL    HW126621   1.436   3.463   6.210  0.5755 -0.0076 -1.6838
 4996SOL    HW226622   1.319   3.393   6.153 -0.8779 -1.1177  0.7619
 4997SOL     OW26623   2.716   0.299  12.481 -0.2313 -0.3248 -0.2053
 4997SOL    HW126624   2.749   0.343  12.560  1.1717  0.3556 -1.1703
 4997SOL    HW226625   2.785   0.312  12.416  0.1764  2.9362  0.8407
 4998SOL     OW26626   2.917   0.202  17.173  0.4086  0.1043 -0.0114
 4998SOL    HW126627   2.995   0.195  17.119  0.2528 -1.2128 -0.0610
 4998SOL    HW226628   2.878   0.115  17.159  0.9205 -0.3563  1.3821
 4999SOL     OW26629   0.485   3.021   0.088 -0.1536 -0.1146 -0.3212
 4999SOL    HW126630   0.481   2.925   0.094 -0.0891 -0.2775 -2.8104
 4999SOL    HW226631   0.570   3.048   0.054 -0.2271 -2.0765 -2.0882
 5000SOL     OW26632   2.323   3.491   5.168 -0.4724 -0.2985 -0.5252
 5000SOL    HW126633   2.293   3.492   5.259  1.1873  1.0286  0.0071
 5000SOL    HW226634   2.279   3.573   5.146 -0.1086  0.3870  1.3338
 5001SOL     OW26635   2.110   0.027   0.570  0.2323  0.0021 -0.3108
 5001SOL    HW126636   2.041   0.092   0.585 -0.6083 -0.4085 -2.4569
 5001SOL    HW226637   2.177   0.089   0.598  2.5601 -2.4641 -0.4342
 5002SOL     OW26638   1.889   2.718   3.353  0.0404 -0.2791  0.3122
 5002SOL    HW126639   1.873   2.624   3.361  2.2771 -0.6647  0.4406
 5002SOL    HW226640   1.975   2.719   3.395  0.3536  1.1093 -0.3608
 5003SOL     OW26641   2.929   1.086   1.541  0.0217 -0.1213 -0.1752
 5003SOL    HW126642   2.910   1.167   1.587  0.1474  1.0637 -2.2324
 5003SOL    HW226643   2.994   1.053   1.604  0.1662 -0.5119 -0.5262
 5004SOL     OW26644   3.333   0.789   8.175  0.0302  0.2160  0.4027
 5004SOL    HW126645   3.263   0.852   8.194 -2.2193 -2.1296 -0.1156
 5004SOL    HW226646   3.404   0.845   8.141 -0.6169  1.3837  0.9670
 5005SOL     OW26647   3.906   4.405   7.496 -0.3189 -0.4357 -0.4319
 5005SOL    HW126648   3.983   4.451   7.461  0.5159 -1.2133  0.4081
 5005SOL    HW226649   3.879   4.464   7.567 -0.7679  0.1756 -1.0999
 5006SOL     OW26650   2.195   1.908   2.916 -0.2838  0.1386 -0.6666
 5006SOL    HW126651   2.144   1.985   2.890 -0.1445 -0.4895 -2.7623
 5006SOL    HW226652   2.270   1.958   2.947 -0.6647 -0.1238  0.6850
 5007SOL     OW26653   1.152   0.677   9.272  0.4432 -0.0706  0.3824
 5007SOL    HW126654   1.142   0.602   9.331 -1.6759  1.9755  2.6189
 5007SOL    HW226655   1.140   0.624   9.193 -0.6786  0.7055  0.0341
 5008SOL     OW26656   1.992   0.621  11.658 -0.2793 -0.1154  0.0467
 5008SOL    HW126657   2.079   0.661  11.653  0.6282 -1.8488  1.7440
 5008SOL    HW226658   2.002   0.594  11.749 -2.5153  1.5854  0.7905
 5009SOL     OW26659   1.359   1.006  17.104 -0.2583 -0.1471 -0.3323
 5009SOL    HW126660   1.361   1.076  17.169  0.1047 -0.2232 -0.2613
 5009SOL    HW226661   1.266   1.008  17.081  0.4194  1.6270 -2.8845
 5010SOL     OW26662   0.126   2.609   7.481  0.3305  0.2292 -0.2894
 5010SOL    HW126663   0.171   2.681   7.437 -1.9824  0.6066 -2.0313
 5010SOL    HW226664   0.080   2.655   7.552  0.1445 -0.4030  0.0038
 5011SOL     OW26665   0.436   3.918   1.898  0.0893  0.2002 -0.0799
 5011SOL    HW126666   0.424   3.824   1.908 -1.1132  0.4296  0.5494
 5011SOL    HW226667   0.389   3.945   1.977  1.6382  0.2419  0.8424
 5012SOL     OW26668   0.382   2.326  13.182 -0.0346  0.9192  0.1776
 5012SOL    HW126669   0.313   2.392  13.180  0.2451  1.1799 -0.8819
 5012SOL    HW226670   0.362   2.280  13.100 -1.2648  0.5739  0.6719
 5013SOL     OW26671   0.195   1.659   8.291 -0.3710  0.2852  0.6180
 5013SOL    HW126672   0.243   1.733   8.327  0.6229  0.4317 -1.0199
 5013SOL    HW226673   0.111   1.671   8.335  0.0253  0.1966  1.4076
 5014SOL     OW26674   4.404   0.530  11.316  0.3004  0.0740 -0.0078
 5014SOL    HW126675   4.393   0.493  11.228  0.4559 -0.0469  0.0238
 5014SOL    HW226676   4.486   0.575  11.299 -0.3518  1.7408  1.2908
 5015SOL     OW26677   2.705   2.923  15.757  1.1563  0.5458 -0.2545
 5015SOL    HW126678   2.638   2.923  15.825 -0.5205 -0.3632 -1.8979
 5015SOL    HW226679   2.788   2.938  15.803  0.7769 -0.3843  0.7537
 5016SOL     OW26680   3.365   1.209   2.696 -0.0160 -0.3025 -0.4673
 5016SOL    HW126681   3.423   1.268   2.649  0.1052  0.3217  0.4688
 5016SOL    HW226682   3.423   1.139   2.725  0.0113  0.0237  0.2620
 5017SOL     OW26683   3.784   0.675   2.015  0.0270  0.1505 -0.1351
 5017SOL    HW126684   3.874   0.654   1.988 -0.6092 -3.1883  0.3202
 5017SOL    HW226685   3.732   0.596   2.002  0.8963 -0.7909  1.9856
 5018SOL     OW26686   2.260   0.147  16.794 -0.1596  0.7164 -0.2829
 5018SOL    HW126687   2.271   0.096  16.715  1.9822  1.9038 -0.7606
 5018SOL    HW226688   2.216   0.223  16.756 -3.1779 -0.2006  1.4128
 5019SOL     OW26689   1.609   1.022  15.986  0.0358 -0.9124  0.2457
 5019SOL    HW126690   1.614   0.957  15.916  0.1314  0.1815 -0.7459
 5019SOL    HW226691   1.517   1.009  16.011  0.2518  1.0429  2.0710
 5020SOL     OW26692   0.146   0.840   1.313  0.1424  0.1575  0.0109
 5020SOL    HW126693   0.196   0.856   1.233 -0.8803 -1.2497 -0.9090
 5020SOL    HW226694   0.203   0.880   1.379 -1.2318  1.2869  0.5200
 5021SOL     OW26695   2.210   2.041   2.015 -0.4107  0.3207 -0.1364
 5021SOL    HW126696   2.262   2.002   1.945 -0.9575  0.3059 -0.5384
 5021SOL    HW226697   2.120   2.033   1.982 -0.7142  1.9582  0.3328
 5022SOL     OW26698   1.547   3.853   7.371  0.5000  0.2380 -0.8237
 5022SOL    HW126699   1.524   3.773   7.418  0.1188 -0.8591 -2.8463
 5022SOL    HW226700   1.483   3.848   7.299  0.9137 -1.6122 -1.0526
 5023SOL     OW26701   4.451   1.120  16.625  0.0060  0.2530  0.1690
 5023SOL    HW126702   4.535   1.128  16.580 -0.5123  0.8387 -0.6951
 5023SOL    HW226703   4.389   1.170  16.572  2.2602  1.4126 -1.3758
 5024SOL     OW26704   2.632   3.645  11.898 -0.3063 -0.0268  0.3497
 5024SOL    HW126705   2.635   3.682  11.809 -1.5801  0.5435  0.5485
 5024SOL    HW226706   2.537   3.645  11.909 -0.1350  0.9447  1.8338
 5025SOL     OW26707   4.703   3.071   9.182 -0.1912 -0.4912  0.4717
 5025SOL    HW126708   0.058   3.085   9.197 -0.1250  0.9087 -1.2123
 5025SOL    HW226709   4.670   3.157   9.209 -0.2232  0.3768 -2.2454
 5026SOL     OW26710   4.084   4.212   9.309 -0.3148  0.1567  0.0457
 5026SOL    HW126711   4.120   4.198   9.222 -0.1594 -0.1389  0.1572
 5026SOL    HW226712   4.022   4.139   9.309  1.6931 -1.5582 -2.2308
 5027SOL     OW26713   2.409   1.083   2.350 -0.3531  0.5008  0.3069
 5027SOL    HW126714   2.476   1.056   2.413  0.5685  1.2203 -0.3633
 5027SOL    HW226715   2.444   1.164   2.313 -0.2713 -0.8506 -2.5204
 5028SOL     OW26716   4.490   1.908   6.955 -0.2235 -0.4426 -0.3007
 5028SOL    HW126717   4.562   1.847   6.970 -0.0583 -0.6862 -2.1479
 5028SOL    HW226718   4.530   1.984   6.913 -1.0716  0.0289 -0.2570
 5029SOL     OW26719   4.008   1.865   5.007 -0.4947 -0.1442  0.2568
 5029SOL    HW126720   4.000   1.772   5.026  0.1145 -0.1557  0.4368
 5029SOL    HW226721   4.019   1.893   5.098 -1.7647  0.4383  0.2377
 5030SOL     OW26722   0.692   2.200   9.611  0.7915  0.1756 -0.0473
 5030SOL    HW126723   0.604   2.183   9.578  1.2667  0.6476 -1.5451
 5030SOL    HW226724   0.689   2.143   9.688 -2.4987  1.4609  0.7771
 5031SOL     OW26725   2.694   1.247   8.235  0.2208 -0.0193 -0.2657
 5031SOL    HW126726   2.690   1.313   8.165  1.8486 -0.2084 -0.5412
 5031SOL    HW226727   2.775   1.272   8.280 -0.4327  0.6681  0.5391
 5032SOL     OW26728   0.088   1.700   9.478 -0.5512  0.5312 -0.0550
 5032SOL    HW126729   0.137   1.666   9.403  0.3154  0.3315  0.5957
 5032SOL    HW226730   0.021   1.633   9.491  0.9898 -1.0131 -0.0464
 5033SOL     OW26731   0.712   0.496   9.279  0.1538 -0.6219 -0.5685
 5033SOL    HW126732   0.685   0.408   9.250 -0.0664 -0.7495  0.0073
 5033SOL    HW226733   0.787   0.476   9.335 -0.2836  1.7765  0.8586
 5034SOL     OW26734   2.182   1.145  13.315  0.2777 -0.1574  0.0265
 5034SOL    HW126735   2.266   1.185  13.292  0.0055  0.4704  0.1168
 5034SOL    HW226736   2.183   1.061  13.270  2.0717 -0.3328  0.3845
 5035SOL     OW26737   1.608   2.157   9.370 -0.0554  0.0582  0.3783
 5035SOL    HW126738   1.606   2.094   9.442 -2.3252 -0.3968 -0.0690
 5035SOL    HW226739   1.564   2.235   9.405 -0.7391  0.6873 -1.9052
 5036SOL     OW26740   2.285   4.347  12.708 -0.3125 -0.4255  0.2080
 5036SOL    HW126741   2.342   4.422  12.723  1.8650 -1.8779 -0.7743
 5036SOL    HW226742   2.273   4.314  12.797 -0.5193 -2.0451 -0.4165
 5037SOL     OW26743   2.687   0.089   6.270 -0.2895  0.8410 -0.3461
 5037SOL    HW126744   2.613   0.030   6.257  0.3016  0.1335 -0.4847
 5037SOL    HW226745   2.711   0.126   6.185 -0.3881  2.0656  0.1508
 5038SOL     OW26746   4.521   2.367   3.485  0.0651  0.2329  0.0157
 5038SOL    HW126747   4.601   2.416   3.464 -0.6405  0.8821 -1.1743
 5038SOL    HW226748   4.553   2.335   3.570  1.7780 -2.6970 -1.7719
 5039SOL     OW26749   2.080   3.487   4.904 -0.4221  0.2150  0.2043
 5039SOL    HW126750   2.147   3.423   4.880  0.5385  1.0034  0.7984
 5039SOL    HW226751   2.132   3.561   4.933  0.4341 -0.2062 -0.2470
 5040SOL     OW26752   0.996   1.362   0.818  0.8783 -0.5080 -0.1969
 5040SOL    HW126753   0.959   1.297   0.878 -0.5041  0.7340  0.3083
 5040SOL    HW226754   1.085   1.327   0.822  0.8588 -0.4748  0.6002
 5041SOL     OW26755   1.635   3.071   5.429 -0.2050  0.0089 -0.6891
 5041SOL    HW126756   1.715   3.108   5.391  1.0963 -0.5910  1.4953
 5041SOL    HW226757   1.657   3.076   5.522  0.9423  0.9824 -1.0034
 5042SOL     OW26758   3.679   0.350   4.005 -0.9074 -0.4682  0.3484
 5042SOL    HW126759   3.652   0.435   3.972  2.8581  1.9271  3.4856
 5042SOL    HW226760   3.761   0.378   4.046 -1.1739 -3.8925  3.2195
 5043SOL     OW26761   3.886   1.567   6.797 -0.1751 -0.3337  0.5227
 5043SOL    HW126762   3.979   1.543   6.794 -0.3796 -1.0108 -0.5313
 5043SOL    HW226763   3.858   1.509   6.869  1.6619 -0.4811  1.1077
 5044SOL     OW26764   3.591   0.182   8.748  0.1624  0.1055 -0.3268
 5044SOL    HW126765   3.542   0.261   8.768  2.5450  0.7967  2.6292
 5044SOL    HW226766   3.551   0.121   8.809  0.6421  1.0219  0.8964
 5045SOL     OW26767   2.124   0.897   3.791  0.4985  1.0906 -0.7453
 5045SOL    HW126768   2.129   0.992   3.776 -2.1840  1.2101 -1.0234
 5045SOL    HW226769   2.095   0.889   3.882  1.8207 -1.0646 -0.5174
 5046SOL     OW26770   1.768   2.956   2.756 -0.1304 -0.0058  0.2105
 5046SOL    HW126771   1.752   2.915   2.671 -0.8091 -0.2669  0.4587
 5046SOL    HW226772   1.761   2.874   2.806  0.5001  0.3601  0.8896
 5047SOL     OW26773   1.211   3.935  13.873 -0.0750  0.1545 -0.1972
 5047SOL    HW126774   1.148   3.989  13.825  0.2840 -0.7847 -1.7244
 5047SOL    HW226775   1.227   3.986  13.952 -0.8550 -0.3985  0.3285
 5048SOL     OW26776   2.622   4.471   4.967 -0.3277  0.1291  0.3849
 5048SOL    HW126777   2.561   4.527   5.015  0.6969  1.1984  0.4730
 5048SOL    HW226778   2.689   4.464   5.035 -1.5025  0.9320  1.6369
 5049SOL     OW26779   3.277   1.684  16.745  0.0790 -0.1311  0.4800
 5049SOL    HW126780   3.258   1.720  16.832 -0.7326 -0.7802  0.5623
 5049SOL    HW226781   3.360   1.725  16.720  0.2083 -0.8839 -0.3012
 5050SOL     OW26782   1.426   4.018   0.685 -0.1582 -0.1629  0.1255
 5050SOL    HW126783   1.337   4.051   0.684 -1.2613 -3.1340  0.9716
 5050SOL    HW226784   1.468   4.065   0.758  1.0372 -3.0489  1.3147
 5051SOL     OW26785   4.654   0.940   8.125  0.0761 -0.2664 -0.1056
 5051SOL    HW126786   4.594   0.866   8.131 -1.4494  0.9530 -0.4999
 5051SOL    HW226787   4.605   0.996   8.066 -3.3350 -3.5536 -0.3684
 5052SOL     OW26788   4.007   1.570   4.765  0.1460  0.3216 -0.4013
 5052SOL    HW126789   3.998   1.498   4.828  0.2763  0.7966  0.1602
 5052SOL    HW226790   4.060   1.525   4.699  0.9770  1.2833 -0.4033
 5053SOL     OW26791   1.590   1.513  13.995  0.3353  0.0001 -0.3700
 5053SOL    HW126792   1.503   1.484  14.024  1.1364 -1.7674  0.2866
 5053SOL    HW226793   1.575   1.599  13.957  0.7167 -1.6332 -4.1922
 5054SOL     OW26794   1.687   0.657   9.005  0.0491  0.2201 -0.4115
 5054SOL    HW126795   1.621   0.664   9.074  2.8104 -1.9541  2.4516
 5054SOL    HW226796   1.747   0.591   9.037  0.4298  0.2581 -1.0436
 5055SOL     OW26797   1.972   3.585  14.009 -0.6458 -0.3103 -0.7667
 5055SOL    HW126798   1.899   3.596  14.069  0.5919 -3.5972  1.3215
 5055SOL    HW226799   2.032   3.544  14.071 -0.5076  2.7911  1.1780
 5056SOL     OW26800   2.157   2.261   6.573  0.5023 -0.0403 -0.0087
 5056SOL    HW126801   2.171   2.353   6.594  0.1372  0.5395 -2.3197
 5056SOL    HW226802   2.226   2.244   6.509 -0.6790 -0.4093 -1.1974
 5057SOL     OW26803   1.949   1.309   4.234 -0.2441 -0.0426  0.1740
 5057SOL    HW126804   1.897   1.290   4.312 -2.1269 -1.1747 -1.3908
 5057SOL    HW226805   2.015   1.368   4.271 -0.6807  0.3406  0.3474
 5058SOL     OW26806   0.895   2.620   6.791  0.6242 -0.6565 -0.0036
 5058SOL    HW126807   0.851   2.616   6.877 -0.7398 -0.3798 -0.6845
 5058SOL    HW226808   0.958   2.690   6.806  0.6222 -0.7854  0.6039
 5059SOL     OW26809   2.018   1.353   3.614 -0.0414  0.2062 -0.4760
 5059SOL    HW126810   1.939   1.376   3.565  0.5761  2.5146 -0.3908
 5059SOL    HW226811   2.023   1.438   3.657  1.2863 -0.1357  0.0310
 5060SOL     OW26812   0.262   1.762   7.482 -0.4826  0.4118 -0.2227
 5060SOL    HW126813   0.329   1.700   7.511  0.8813  2.9195  1.9480
 5060SOL    HW226814   0.256   1.749   7.388 -2.4425 -0.4637  0.0244
 5061SOL     OW26815   2.804   1.137   0.703 -0.4241 -0.4244  0.7235
 5061SOL    HW126816   2.896   1.158   0.720 -0.6299  0.4506  0.7463
 5061SOL    HW226817   2.820   1.068   0.639  0.8197 -0.2043  0.7932
 5062SOL     OW26818   0.810   3.796   8.364  0.4060 -0.7178  0.0638
 5062SOL    HW126819   0.808   3.734   8.437  1.3193  0.3278  0.9720
 5062SOL    HW226820   0.741   3.755   8.311 -0.3088 -1.9394  1.9124
 5063SOL     OW26821   2.542   1.240   5.118  0.2791  0.2838 -0.1083
 5063SOL    HW126822   2.627   1.256   5.075  0.8897 -1.4511  0.4571
 5063SOL    HW226823   2.561   1.161   5.168 -1.3022 -0.4943 -0.7470
 5064SOL     OW26824   1.516   4.437  15.098  0.0130  0.8810  0.4615
 5064SOL    HW126825   1.482   4.413  15.012 -0.5097  0.0292  0.9097
 5064SOL    HW226826   1.585   4.496  15.068  0.0074  1.3729  1.4016
 5065SOL     OW26827   3.181   1.107  15.151  0.4517 -0.2256 -0.0016
 5065SOL    HW126828   3.274   1.082  15.150  0.8122  1.1805 -1.5484
 5065SOL    HW226829   3.143   1.034  15.199 -0.1977  0.7456  0.9798
 5066SOL     OW26830   2.616   1.398   3.125  0.3721 -0.2721  0.3966
 5066SOL    HW126831   2.575   1.378   3.209 -2.2171  2.7946 -0.1150
 5066SOL    HW226832   2.574   1.478   3.093 -0.8362 -1.1053 -0.1152
 5067SOL     OW26833   3.597   2.993   4.122  0.1573  0.1020 -0.7119
 5067SOL    HW126834   3.691   2.980   4.135  0.2442  3.2897  1.7963
 5067SOL    HW226835   3.573   3.047   4.198  1.8571  0.9055 -0.7486
 5068SOL     OW26836   2.489   1.476  11.306 -0.6241 -0.1995 -0.1643
 5068SOL    HW126837   2.536   1.395  11.327 -2.8355 -1.3182  0.4415
 5068SOL    HW226838   2.555   1.520  11.253 -1.2244  0.4758 -0.3485
 5069SOL     OW26839   4.304   4.567   9.719  0.6101  0.0837  0.1129
 5069SOL    HW126840   4.395   4.551   9.742  0.6991 -0.9980 -0.9741
 5069SOL    HW226841   4.267   4.479   9.711  3.0213 -0.8244 -1.0540
 5070SOL     OW26842   2.644   1.003  14.647  0.0760  0.1822  0.1066
 5070SOL    HW126843   2.595   0.973  14.724  0.8048  0.5172  0.7006
 5070SOL    HW226844   2.651   1.094  14.675  2.9560  0.1996 -0.7335
 5071SOL     OW26845   3.048   0.773   7.502  0.0944  0.6103  0.2442
 5071SOL    HW126846   3.021   0.700   7.559 -0.3705  1.9029  1.6953
 5071SOL    HW226847   2.984   0.837   7.534  0.1180  1.3185 -1.1499
 5072SOL     OW26848   3.227   1.581   3.917 -0.7022 -0.2161 -0.2870
 5072SOL    HW126849   3.255   1.662   3.874  0.3731 -0.6616 -0.4209
 5072SOL    HW226850   3.182   1.623   3.991  0.7186  1.1948 -0.2100
 5073SOL     OW26851   3.278   0.273   5.924 -0.2408  0.4140 -0.5301
 5073SOL    HW126852   3.281   0.289   5.829 -0.7513  2.2901 -0.2253
 5073SOL    HW226853   3.191   0.235   5.933  0.1913 -0.8306 -1.5947
 5074SOL     OW26854   1.022   1.550  17.476 -0.5302 -0.3286  0.3118
 5074SOL    HW126855   0.939   1.578  17.516 -0.6728 -1.0933  0.5388
 5074SOL    HW226856   1.027   1.459  17.504 -3.4773  0.3665  3.1703
 5075SOL     OW26857   1.448   0.674   0.385 -0.7461  0.1585 -0.4265
 5075SOL    HW126858   1.538   0.695   0.412 -0.7349  0.0425 -0.3717
 5075SOL    HW226859   1.399   0.658   0.466  0.5158 -1.2327  0.0758
 5076SOL     OW26860   0.562   2.840   7.269 -0.3628 -0.0137  0.0771
 5076SOL    HW126861   0.491   2.778   7.281 -0.6396 -0.0945 -1.8757
 5076SOL    HW226862   0.529   2.897   7.199  0.1592 -0.1148 -0.2527
 5077SOL     OW26863   1.699   0.333  12.332  0.2328  0.4740  0.1000
 5077SOL    HW126864   1.687   0.247  12.372 -3.4279  1.3927  0.9560
 5077SOL    HW226865   1.615   0.377  12.348  0.5316  1.2267 -0.3782
 5078SOL     OW26866   3.565   0.996   8.403 -0.4528  0.0323  0.4929
 5078SOL    HW126867   3.541   0.960   8.318  0.5539  2.9675 -1.0286
 5078SOL    HW226868   3.488   0.975   8.456  1.2608 -2.2835  2.0698
 5079SOL     OW26869   4.391   0.216   6.572 -0.5914 -0.2788  1.0466
 5079SOL    HW126870   4.467   0.236   6.626  1.1610 -1.3840 -1.0386
 5079SOL    HW226871   4.398   0.121   6.571  0.4863 -0.1838 -1.5478
 5080SOL     OW26872   3.671   3.144   8.183  0.1985 -0.0344 -0.6586
 5080SOL    HW126873   3.678   3.239   8.174  1.1134 -0.1376 -1.1245
 5080SOL    HW226874   3.701   3.123   8.094  2.9300 -0.7286  0.4334
 5081SOL     OW26875   4.245   1.922   8.446 -0.0354  0.4232  0.2490
 5081SOL    HW126876   4.219   1.839   8.485 -1.4417  1.1145  0.7546
 5081SOL    HW226877   4.322   1.903   8.392 -1.2084 -1.7811 -0.6062
 5082SOL     OW26878   0.858   3.291   7.845  0.3225 -0.1846  0.0765
 5082SOL    HW126879   0.894   3.205   7.866 -0.5673 -0.7160 -0.5879
 5082SOL    HW226880   0.925   3.349   7.882  0.1395 -0.2070  0.4474
 5083SOL     OW26881   0.726   2.891   8.409 -0.3906  0.2250 -0.3846
 5083SOL    HW126882   0.667   2.830   8.364  4.0503 -1.8148 -3.3883
 5083SOL    HW226883   0.725   2.845   8.493 -0.7821  0.3952 -0.2971
 5084SOL     OW26884   1.332   1.678   2.189  0.2571  0.3675  0.3619
 5084SOL    HW126885   1.382   1.652   2.112  0.2949  0.5117  0.3396
 5084SOL    HW226886   1.371   1.625   2.260  1.3189 -0.5095 -0.8864
 5085SOL     OW26887   2.405   0.153   2.422 -0.2805 -0.0768 -0.4795
 5085SOL    HW126888   2.354   0.181   2.345 -0.4922  0.6415 -0.0752
 5085SOL    HW226889   2.367   0.066   2.434  0.4286 -0.2748  0.2895
 5086SOL     OW26890   2.966   2.318   7.782  0.4778  0.0357 -0.4626
 5086SOL    HW126891   3.059   2.334   7.765  1.1285 -1.5304  1.5003
 5086SOL    HW226892   2.927   2.381   7.722 -1.4031  1.0040  1.7823
 5087SOL     OW26893   1.839   0.471   0.244  0.0649  0.2363  0.0121
 5087SOL    HW126894   1.809   0.558   0.218 -3.0339 -0.2129  1.9653
 5087SOL    HW226895   1.771   0.428   0.297 -0.5002 -1.4417 -2.0328
 5088SOL     OW26896   3.427   0.357  10.342  0.1978 -0.3967 -0.5005
 5088SOL    HW126897   3.495   0.419  10.367 -1.3259  1.0668 -0.0611
 5088SOL    HW226898   3.478   0.276  10.353  0.4069 -0.6235 -3.1182
 5089SOL     OW26899   4.117   3.300  13.313 -0.4980  0.1998 -0.0175
 5089SOL    HW126900   4.022   3.297  13.297 -0.7585  2.8063  1.0605
 5089SOL    HW226901   4.121   3.260  13.400 -2.5638  0.3290  0.1515
 5090SOL     OW26902   3.285   2.876   5.462 -0.1800 -0.1622  0.6260
 5090SOL    HW126903   3.281   2.960   5.414  1.0247 -0.3547  0.1919
 5090SOL    HW226904   3.371   2.882   5.502  0.2154 -1.6946 -0.0219
 5091SOL     OW26905   3.107   0.955   3.273  0.3973  0.4842  0.5939
 5091SOL    HW126906   3.097   1.036   3.222 -0.1991 -0.1890 -0.3570
 5091SOL    HW226907   3.054   0.897   3.219 -0.4443  0.4172  1.4955
 5092SOL     OW26908   1.780   2.259   3.698 -0.5900 -0.4588 -0.5398
 5092SOL    HW126909   1.775   2.248   3.603 -1.5276 -0.7550 -0.4527
 5092SOL    HW226910   1.861   2.215   3.723 -0.7382  0.3628  1.3304
 5093SOL     OW26911   2.330   2.290   2.326  0.6251  0.6643 -0.1062
 5093SOL    HW126912   2.352   2.380   2.300  0.4659  0.1534 -2.0166
 5093SOL    HW226913   2.236   2.299   2.342  0.7668  1.0888  0.4733
 5094SOL     OW26914   3.284   4.302   5.621 -0.0154  0.1118 -0.0938
 5094SOL    HW126915   3.211   4.314   5.561  1.6825 -1.1729 -2.4299
 5094SOL    HW226916   3.276   4.382   5.673 -0.4854 -0.2372  0.3631
 5095SOL     OW26917   4.527   2.639   5.443  0.0181 -0.1163  0.0952
 5095SOL    HW126918   4.500   2.728   5.464  1.2015  1.0311 -3.1763
 5095SOL    HW226919   4.528   2.620   5.349 -4.1194  1.6721 -0.2832
 5096SOL     OW26920   1.332   2.819   2.102  0.1455 -0.7772  0.7263
 5096SOL    HW126921   1.282   2.772   2.035  1.4149  0.5300 -1.1177
 5096SOL    HW226922   1.269   2.862   2.160 -1.9522 -1.2321 -1.2433
 5097SOL     OW26923   3.289   0.563   8.331  0.3940 -0.1864  0.7433
 5097SOL    HW126924   3.202   0.534   8.304  1.1218 -0.7462 -0.9862
 5097SOL    HW226925   3.304   0.636   8.271 -0.5628 -0.7484 -0.1840
 5098SOL     OW26926   0.753   3.644  11.027  0.2074  0.0883  0.5170
 5098SOL    HW126927   0.674   3.591  11.038  0.0598 -0.0248 -1.0232
 5098SOL    HW226928   0.753   3.710  11.096 -1.6921  0.3227  0.3170
 5099SOL     OW26929   0.485   4.157   6.670 -0.3257 -0.2871  0.2159
 5099SOL    HW126930   0.537   4.236   6.654 -1.1699 -0.2328 -2.1522
 5099SOL    HW226931   0.522   4.132   6.755 -0.1031 -0.4106  0.0817
 5100SOL     OW26932   2.854   3.946   1.470 -0.4036  0.0948  0.0967
 5100SOL    HW126933   2.798   3.995   1.409  1.2137 -1.2580 -2.5072
 5100SOL    HW226934   2.832   3.968   1.560 -2.1355  2.1248 -0.7999
 5101SOL     OW26935   0.109   1.132   5.487  0.2473  0.3033 -0.0650
 5101SOL    HW126936   0.126   1.112   5.579 -0.2733 -1.7344 -0.4271
 5101SOL    HW226937   0.111   1.228   5.490 -0.3306  0.2042  2.9251
 5102SOL     OW26938   2.854   1.912   4.749 -0.3472 -0.0037 -0.1339
 5102SOL    HW126939   2.831   1.923   4.657 -0.2098 -2.0257 -0.3950
 5102SOL    HW226940   2.783   1.855   4.776  0.5794 -0.9269  0.3431
 5103SOL     OW26941   3.683   0.433   1.925  0.4476  0.8764  0.3550
 5103SOL    HW126942   3.710   0.432   1.833  0.3964  0.3302  0.3444
 5103SOL    HW226943   3.751   0.370   1.951  1.7225  2.8192  1.6709
 5104SOL     OW26944   3.943   0.077  13.871  0.1152 -0.3833  0.0549
 5104SOL    HW126945   3.851   0.058  13.851  0.2651 -0.9944 -0.0424
 5104SOL    HW226946   3.987   4.736  13.901  1.5587  0.5108  0.3378
 5105SOL     OW26947   1.543   4.065   3.180  0.1074 -0.6680 -0.3391
 5105SOL    HW126948   1.519   4.146   3.224 -1.6502  0.2136 -2.9291
 5105SOL    HW226949   1.636   4.060   3.203  0.5289 -1.4488 -2.2259
 5106SOL     OW26950   2.997   3.764   7.360  0.0287  0.2520 -0.3869
 5106SOL    HW126951   2.946   3.765   7.440  0.9148  0.4192  0.1797
 5106SOL    HW226952   2.986   3.854   7.332  0.5404  0.3569 -0.2600
 5107SOL     OW26953   0.374   4.227  13.035  0.1685 -0.2497 -0.1400
 5107SOL    HW126954   0.455   4.200  12.992  1.2277  1.7809  0.6041
 5107SOL    HW226955   0.366   4.160  13.102  1.1704 -0.3867 -0.1617
 5108SOL     OW26956   0.793   2.087   4.094  0.4035 -0.3047  0.5925
 5108SOL    HW126957   0.732   2.081   4.167  1.4376 -0.6123  1.4209
 5108SOL    HW226958   0.771   2.176   4.068 -0.2539 -0.1423  1.7071
 5109SOL     OW26959   1.030   3.710  13.782 -0.7142 -0.1115 -0.3586
 5109SOL    HW126960   1.102   3.771  13.797 -2.1415  0.8425  2.4920
 5109SOL    HW226961   0.962   3.714  13.849 -0.6970  0.7212 -0.3969
 5110SOL     OW26962   0.688   4.299   1.174 -0.3634 -0.9231  0.1262
 5110SOL    HW126963   0.727   4.245   1.105 -1.0044 -0.1514 -0.8319
 5110SOL    HW226964   0.593   4.287   1.168 -0.4449 -0.2395  0.0618
 5111SOL     OW26965   0.745   0.885  14.288  0.1552 -0.0418  0.4794
 5111SOL    HW126966   0.712   0.958  14.235  3.8986  0.0347 -1.7711
 5111SOL    HW226967   0.788   0.839  14.216  2.9998  1.1857  1.3872
 5112SOL     OW26968   1.801   3.740  12.387 -0.1728 -0.4266 -0.0425
 5112SOL    HW126969   1.718   3.691  12.388  0.4452 -1.4235  1.2639
 5112SOL    HW226970   1.781   3.797  12.313  0.0899 -1.9120 -1.2684
 5113SOL     OW26971   1.255   3.461  13.215 -0.0408 -0.2978  0.7006
 5113SOL    HW126972   1.328   3.515  13.247 -0.5925  0.1963  1.1301
 5113SOL    HW226973   1.307   3.390  13.177 -0.9260  0.5535 -2.0957
 5114SOL     OW26974   0.327   0.771   7.833  0.2614  0.3731 -0.0027
 5114SOL    HW126975   0.361   0.746   7.747 -1.6139 -0.0650 -0.6185
 5114SOL    HW226976   0.247   0.820   7.811  0.2239 -0.3614 -1.4967
 5115SOL     OW26977   2.182   0.378  12.027  0.2517  0.0183  0.5295
 5115SOL    HW126978   2.101   0.389  11.978  1.2316 -0.1561 -1.1333
 5115SOL    HW226979   2.253   0.359  11.965  1.1684 -0.4964  1.7387
 5116SOL     OW26980   4.302   3.576   3.906 -0.0805 -0.0496  0.7732
 5116SOL    HW126981   4.251   3.533   3.837  2.6362  1.2119 -2.0108
 5116SOL    HW226982   4.364   3.505   3.925 -1.2272 -0.5525  2.6882
 5117SOL     OW26983   0.095   0.070  11.121  1.1442  0.1288 -0.7096
 5117SOL    HW126984   0.053   0.126  11.187 -0.8432 -2.2816  0.0644
 5117SOL    HW226985   0.189   0.069  11.134  0.6946 -1.4714  2.1523
 5118SOL     OW26986   4.117   2.521   7.407 -0.0474 -0.2327  0.6643
 5118SOL    HW126987   4.035   2.479   7.381  0.0280  0.2431 -0.3307
 5118SOL    HW226988   4.131   2.585   7.338 -0.6764  1.7191  2.3607
 5119SOL     OW26989   0.441   3.267  13.636  0.2952  0.3598 -0.0216
 5119SOL    HW126990   0.535   3.251  13.636 -0.2234 -2.7055  0.7603
 5119SOL    HW226991   0.407   3.178  13.629  1.5274 -0.1358  0.2492
 5120SOL     OW26992   1.970   4.350  10.407 -0.3343 -0.5071 -0.2594
 5120SOL    HW126993   1.923   4.347  10.323 -0.8339  3.3349 -0.1430
 5120SOL    HW226994   2.023   4.271  10.397 -1.0550 -1.5768  4.3801
 5121SOL     OW26995   3.411   0.987  10.112 -0.3106  0.6267  0.4583
 5121SOL    HW126996   3.354   1.032  10.050 -0.0471 -1.2383 -1.1406
 5121SOL    HW226997   3.383   1.025  10.195  2.7906  0.8247  1.4317
 5122SOL     OW26998   1.644   3.900   6.703 -0.0496 -0.3112  0.3961
 5122SOL    HW126999   1.556   3.869   6.724 -0.1764 -0.3274 -0.1494
 5122SOL    HW227000   1.678   3.832   6.645  1.4826  1.9887 -1.4115
 5123SOL     OW27001   0.497   2.968   6.540 -0.4891  0.6559  0.0623
 5123SOL    HW127002   0.535   3.008   6.461  0.4942 -2.0922 -0.8660
 5123SOL    HW227003   0.537   2.882   6.531 -0.1358  0.7367  0.9204
 5124SOL     OW27004   4.351   2.291   1.749 -0.7871 -1.1201 -0.2240
 5124SOL    HW127005   4.431   2.322   1.792 -0.8731 -0.9013 -0.2267
 5124SOL    HW227006   4.298   2.254   1.819 -0.0522  0.1412  0.9983
 5125SOL     OW27007   0.193   3.291   5.663 -0.5183 -0.1131  0.2134
 5125SOL    HW127008   0.223   3.356   5.600 -0.3119 -1.3156 -0.9305
 5125SOL    HW227009   0.133   3.240   5.609 -1.4058 -1.3905  2.3914
 5126SOL     OW27010   0.930   1.240   8.222  0.3764  0.1272 -0.4216
 5126SOL    HW127011   0.861   1.200   8.275 -0.8352  2.5648 -0.1239
 5126SOL    HW227012   0.888   1.221   8.138  0.8286 -1.2223 -0.3335
 5127SOL     OW27013   4.321   3.480   3.285  0.4094 -0.1137 -0.5121
 5127SOL    HW127014   4.330   3.429   3.205  0.8849  0.8602 -1.0820
 5127SOL    HW227015   4.411   3.511   3.295  1.2724 -3.2742  1.3520
 5128SOL     OW27016   0.675   3.139  12.045  0.5008  0.2305  0.2375
 5128SOL    HW127017   0.670   3.183  12.130  1.3379 -0.8552  0.8471
 5128SOL    HW227018   0.664   3.215  11.988  0.7848  0.3340  0.3221
 5129SOL     OW27019   2.391   4.235   3.608 -0.2351  0.0736  0.0948
 5129SOL    HW127020   2.350   4.168   3.663 -1.8805  2.1032  1.3321
 5129SOL    HW227021   2.427   4.299   3.670 -1.3132  0.8669 -0.0886
 5130SOL     OW27022   4.601   0.474  14.440 -0.4777  0.1105 -0.1359
 5130SOL    HW127023   4.692   0.503  14.433 -1.0994  2.2738  0.6357
 5130SOL    HW227024   4.619   0.382  14.422 -0.5987 -0.0169  0.3895
 5131SOL     OW27025   1.515   0.022   3.507 -0.0132  0.7952 -0.2576
 5131SOL    HW127026   1.434   4.726   3.545 -0.5601  0.8541 -1.3533
 5131SOL    HW227027   1.562   0.012   3.589 -2.5466  1.7396  1.3301
 5132SOL     OW27028   0.067   0.061   3.969  0.1203 -0.3929  0.0244
 5132SOL    HW127029   0.111   4.737   3.912 -1.3539 -1.1847 -0.2642
 5132SOL    HW227030   0.130   0.082   4.037  0.0387  0.6363 -0.2141
 5133SOL     OW27031   0.156   1.071   1.748  0.3686 -0.1277  0.2363
 5133SOL    HW127032   0.180   1.163   1.757  1.5127 -0.2345 -1.5498
 5133SOL    HW227033   0.136   1.046   1.838  1.0503  1.4668  0.8328
 5134SOL     OW27034   3.710   2.356   7.498 -0.2162  0.0042 -1.1211
 5134SOL    HW127035   3.775   2.359   7.568 -2.3469  0.6779  0.8303
 5134SOL    HW227036   3.707   2.266   7.467  0.5881 -0.5380  0.4077
 5135SOL     OW27037   4.311   2.578   1.624  0.1266  0.1622  0.4098
 5135SOL    HW127038   4.256   2.546   1.553  2.4965 -0.0946 -1.2934
 5135SOL    HW227039   4.391   2.573   1.573 -0.5499  3.2830 -0.9513
 5136SOL     OW27040   2.697   4.504   7.643 -0.2444 -0.3348  0.1759
 5136SOL    HW127041   2.700   4.409   7.654  1.5257 -0.3161 -0.2499
 5136SOL    HW227042   2.778   4.521   7.595 -0.6964  0.5876 -0.2765
 5137SOL     OW27043   1.337   3.416   3.700  0.2222  0.2151  0.4680
 5137SOL    HW127044   1.397   3.343   3.688  0.5383  0.6038 -0.3161
 5137SOL    HW227045   1.393   3.492   3.683  0.7092 -0.6405 -1.7360
 5138SOL     OW27046   1.004   0.814  11.129  1.0697  0.0959  0.4782
 5138SOL    HW127047   1.069   0.836  11.196  1.6692 -0.4871  0.0848
 5138SOL    HW227048   0.962   0.898  11.108  2.3446  0.3674 -0.9960
 5139SOL     OW27049   1.711   3.450   8.214 -0.0103  0.3902 -0.0028
 5139SOL    HW127050   1.763   3.523   8.249 -0.9485  1.0062  0.1122
 5139SOL    HW227051   1.633   3.503   8.197 -0.0272  0.7528  1.1918
 5140SOL     OW27052   1.475   2.021   7.625 -0.0516 -0.4501 -0.3192
 5140SOL    HW127053   1.478   1.941   7.676  0.2706  1.0350  1.9842
 5140SOL    HW227054   1.391   2.055   7.653 -0.1230  0.2955 -1.4298
 5141SOL     OW27055   4.693   3.655   5.062 -0.2683  0.3507  0.7283
 5141SOL    HW127056   4.667   3.595   5.131  0.6816 -0.6926  0.1921
 5141SOL    HW227057   4.642   3.625   4.987  1.3127  1.4226 -0.7940
 5142SOL     OW27058   1.946   4.657   2.053 -0.0675  0.4120  0.3011
 5142SOL    HW127059   1.995   4.615   1.982 -1.1999 -1.5141  0.6633
 5142SOL    HW227060   1.979   0.008   2.040  1.1229  0.0118  0.6008
 5143SOL     OW27061   4.440   2.146  12.382  0.0816 -0.5062 -0.4565
 5143SOL    HW127062   4.513   2.083  12.385 -0.9852 -1.7570 -0.4153
 5143SOL    HW227063   4.390   2.114  12.458  1.0592 -0.0851  0.3616
 5144SOL     OW27064   1.788   0.954   8.614  0.3055 -0.8951 -0.6762
 5144SOL    HW127065   1.756   0.972   8.526 -0.2609 -1.6697 -0.6349
 5144SOL    HW227066   1.737   0.874   8.629 -1.3784 -0.0915 -2.0992
 5145SOL     OW27067   4.586   1.020   7.057 -0.0891 -0.5164  0.1125
 5145SOL    HW127068   4.519   1.044   7.121  0.0891  0.3632 -0.0289
 5145SOL    HW227069   4.538   0.966   6.994  1.2175 -0.6356 -0.7819
 5146SOL     OW27070   3.352   1.444   2.447  0.5066  0.0078 -0.6907
 5146SOL    HW127071   3.263   1.436   2.481  1.0983 -1.4659  0.5416
 5146SOL    HW227072   3.349   1.374   2.382 -0.6071 -0.4894 -0.0959
 5147SOL     OW27073   2.638   3.861   1.219  0.5817  0.0928 -0.1931
 5147SOL    HW127074   2.597   3.880   1.135  0.2622 -0.3254 -0.1289
 5147SOL    HW227075   2.596   3.930   1.271 -2.2660 -0.1305 -2.1712
 5148SOL     OW27076   3.589   3.789  17.128 -0.1001 -0.5133 -0.4111
 5148SOL    HW127077   3.590   3.876  17.169 -0.4279  0.4168 -2.3651
 5148SOL    HW227078   3.496   3.768  17.124 -0.8569  2.6791 -0.0638
 5149SOL     OW27079   2.745   1.849   9.579  0.4635 -0.3815 -0.0916
 5149SOL    HW127080   2.690   1.873   9.653  1.7381  1.2817  0.3122
 5149SOL    HW227081   2.808   1.921   9.586 -0.5573  0.5966 -0.9729
 5150SOL     OW27082   3.848   3.270   8.876 -0.0896 -0.1164  0.1323
 5150SOL    HW127083   3.941   3.251   8.894 -0.5502 -4.0090 -1.6963
 5150SOL    HW227084   3.811   3.288   8.963 -0.1536  2.4541 -0.4241
 5151SOL     OW27085   1.983   0.408   4.978  0.3965  0.9218  0.5892
 5151SOL    HW127086   1.891   0.384   4.973  0.7675 -0.6399  1.1976
 5151SOL    HW227087   1.986   0.392   5.072  1.8211  1.7635  0.6879
 5152SOL     OW27088   2.474   2.233   8.027 -0.7365 -0.1977  0.3009
 5152SOL    HW127089   2.462   2.294   8.100 -0.0228 -0.3890  0.5802
 5152SOL    HW227090   2.521   2.158   8.064 -0.5961 -0.0772  0.3686
 5153SOL     OW27091   2.089   3.588  13.774 -0.3727  0.3374  0.0090
 5153SOL    HW127092   2.141   3.511  13.798  1.6125  2.3346  2.0569
 5153SOL    HW227093   2.035   3.602  13.851 -1.8973  0.1133 -1.0280
 5154SOL     OW27094   1.183   1.129   8.544 -0.2224 -1.1907  0.2352
 5154SOL    HW127095   1.196   1.203   8.603 -0.7411  0.0050 -1.1524
 5154SOL    HW227096   1.269   1.087   8.547 -0.1652 -1.1208 -0.4682
 5155SOL     OW27097   2.353   1.123  15.609 -0.0804  0.4705  0.5864
 5155SOL    HW127098   2.352   1.196  15.671  1.3821  0.5003  0.5685
 5155SOL    HW227099   2.432   1.078  15.639  0.1040  0.3487 -0.0920
 5156SOL     OW27100   4.549   0.579   8.389  0.3813  0.0314 -0.0167
 5156SOL    HW127101   4.520   0.616   8.306  0.6894 -1.1586 -0.6585
 5156SOL    HW227102   4.636   0.547   8.365 -0.4737 -2.0268 -0.4221
 5157SOL     OW27103   0.170   2.104   1.684  1.1653 -0.0858  0.2935
 5157SOL    HW127104   0.172   2.093   1.589 -0.4189  1.9165  0.0066
 5157SOL    HW227105   0.117   2.184   1.686  1.9644  0.4094  1.4059
 5158SOL     OW27106   2.235   3.705   1.960 -0.0526  0.0232  0.4842
 5158SOL    HW127107   2.155   3.755   1.977  0.8019  1.7618 -0.5896
 5158SOL    HW227108   2.216   3.660   1.878 -1.4203 -0.0306  0.8266
 5159SOL     OW27109   4.119   0.226   6.521 -0.2202  0.3603 -0.4140
 5159SOL    HW127110   4.214   0.224   6.533 -0.3577 -2.9720  0.1753
 5159SOL    HW227111   4.096   0.306   6.569  0.5280 -0.9812  2.1919
 5160SOL     OW27112   2.911   4.504   8.169  0.0721  0.7515  0.1094
 5160SOL    HW127113   2.893   4.437   8.103 -0.7862  1.3831 -0.2879
 5160SOL    HW227114   2.894   4.585   8.121  1.4033  0.8654 -0.1729
 5161SOL     OW27115   2.885   0.371   2.400  0.3799  0.1759 -0.2997
 5161SOL    HW127116   2.936   0.295   2.427 -1.4805 -1.2480 -0.8205
 5161SOL    HW227117   2.803   0.325   2.416  1.3543 -1.7139 -0.7596
 5162SOL     OW27118   1.405   0.719   0.118  0.5190 -0.2717  0.2186
 5162SOL    HW127119   1.424   0.688   0.206  0.6633  0.9701  0.6231
 5162SOL    HW227120   1.385   0.813   0.122  1.2164 -0.1979  1.7310
 5163SOL     OW27121   4.110   0.810   1.107  0.4467  0.1368  0.2275
 5163SOL    HW127122   4.184   0.871   1.105 -0.5330  1.3734  2.3497
 5163SOL    HW227123   4.050   0.841   1.039 -0.6036 -1.7950  0.2643
 5164SOL     OW27124   0.333   2.047   4.621 -0.2303 -0.3425  0.0894
 5164SOL    HW127125   0.259   2.046   4.560 -1.0740 -0.3729  1.1150
 5164SOL    HW227126   0.371   1.961   4.605 -0.7959 -0.8966  1.7552
 5165SOL     OW27127   0.719   2.531   6.434  0.2331 -0.4087  0.1567
 5165SOL    HW127128   0.680   2.461   6.486 -0.4735 -0.3672 -0.3091
 5165SOL    HW227129   0.652   2.541   6.366  0.0857 -3.3657 -0.1269
 5166SOL     OW27130   1.872   3.627   5.628 -0.2505 -0.2784  0.1769
 5166SOL    HW127131   1.791   3.668   5.658  0.4402 -0.5607  2.4729
 5166SOL    HW227132   1.911   3.681   5.560 -0.1834  1.3481  1.5063
 5167SOL     OW27133   0.357   3.640   8.842  0.0036 -0.3093  0.2649
 5167SOL    HW127134   0.380   3.595   8.760 -1.8216  1.5337 -1.2799
 5167SOL    HW227135   0.357   3.571   8.908 -2.2205 -0.4054  0.1854
 5168SOL     OW27136   1.657   0.248   5.533  0.0258  0.3453 -1.3559
 5168SOL    HW127137   1.705   0.201   5.465  0.4382  1.2316 -1.6718
 5168SOL    HW227138   1.689   0.205   5.612 -0.5285  1.6785 -0.4132
 5169SOL     OW27139   4.696   3.763  12.502 -0.4982  0.4811  0.0852
 5169SOL    HW127140   0.014   3.721  12.567  0.1223 -0.5414 -1.1027
 5169SOL    HW227141   4.659   3.843  12.538  0.3696  0.2991  1.3821
 5170SOL     OW27142   3.137   1.994   2.305  0.1368  0.0544  0.0600
 5170SOL    HW127143   3.136   1.907   2.345  3.0109 -0.3628 -0.7761
 5170SOL    HW227144   3.221   1.977   2.262 -2.5064  0.0047 -5.0766
 5171SOL     OW27145   3.533   4.398   2.200 -0.2340 -0.6089 -0.0796
 5171SOL    HW127146   3.480   4.375   2.276 -0.7995  0.9140 -0.0056
 5171SOL    HW227147   3.472   4.423   2.132 -1.5269  0.3060  1.4119
 5172SOL     OW27148   4.188   2.023   5.952  0.3718 -0.0291  0.2693
 5172SOL    HW127149   4.232   1.992   6.032  1.8232  0.7314 -0.2323
 5172SOL    HW227150   4.241   1.991   5.879  0.6524  2.4528 -0.5910
 5173SOL     OW27151   0.183   3.579   4.345 -0.3556  0.0410 -0.5699
 5173SOL    HW127152   0.223   3.571   4.259 -0.6886  1.1729 -0.8290
 5173SOL    HW227153   0.152   3.494   4.377  1.7380 -0.2519  0.6653
 5174SOL     OW27154   4.335   4.671   0.875  0.3177  0.5763 -0.0822
 5174SOL    HW127155   4.378   0.010   0.911 -1.1207  0.1909  2.4494
 5174SOL    HW227156   4.292   4.713   0.800  1.5263  2.6656  0.3860
 5175SOL     OW27157   0.749   2.545   7.489 -0.0390  0.1333  1.2177
 5175SOL    HW127158   0.670   2.576   7.533 -0.7929  0.0355 -0.0471
 5175SOL    HW227159   0.815   2.591   7.540  1.1526  1.6613 -1.7015
 5176SOL     OW27160   4.291   3.245   8.691 -0.1089  0.7641 -0.5741
 5176SOL    HW127161   4.352   3.236   8.764  0.1253  0.1484 -0.8437
 5176SOL    HW227162   4.351   3.253   8.617 -0.0208  1.6876 -0.4000
 5177SOL     OW27163   1.826   2.587  11.706  0.1065 -0.3429  0.0685
 5177SOL    HW127164   1.819   2.651  11.635 -2.0688 -0.4358  0.1979
 5177SOL    HW227165   1.734   2.577  11.732 -0.5913  0.3745 -2.0373
 5178SOL     OW27166   2.844   0.518  14.770  0.3671 -0.3802 -0.4012
 5178SOL    HW127167   2.842   0.450  14.703 -1.9162 -1.7678  1.0782
 5178SOL    HW227168   2.932   0.503  14.803  0.3901 -1.6234 -1.0376
 5179SOL     OW27169   1.209   1.759   4.103 -0.1511  0.0568 -0.2525
 5179SOL    HW127170   1.125   1.793   4.133  0.5641  1.8827 -0.3145
 5179SOL    HW227171   1.231   1.828   4.040  1.4732  0.0772  0.3343
 5180SOL     OW27172   4.564   1.722   6.136  0.3805  0.2299 -0.0057
 5180SOL    HW127173   4.591   1.637   6.170  0.4920 -0.1142 -0.9654
 5180SOL    HW227174   4.569   1.708   6.042  0.1866  0.5323 -0.0600
 5181SOL     OW27175   4.673   0.195  16.031  0.8324  0.0541  0.5777
 5181SOL    HW127176   0.030   0.199  16.042  1.0061  0.6176 -1.2137
 5181SOL    HW227177   4.676   0.161  15.942  3.1961  2.4311 -0.2312
 5182SOL     OW27178   4.357   1.962   7.219 -0.7267  0.1804 -0.2227
 5182SOL    HW127179   4.442   1.998   7.194  0.1158 -0.7211  1.2717
 5182SOL    HW227180   4.357   1.878   7.173  1.5202  0.8539 -1.4313
 5183SOL     OW27181   3.526   3.139   1.156  0.3690 -0.0425 -0.2066
 5183SOL    HW127182   3.445   3.106   1.195 -0.7710  0.3688 -2.2640
 5183SOL    HW227183   3.489   3.179   1.078 -0.2863  0.5339  0.4044
 5184SOL     OW27184   1.695   0.301  13.783  0.7296  0.0842 -0.2205
 5184SOL    HW127185   1.748   0.235  13.737  0.6302  1.2355 -1.9741
 5184SOL    HW227186   1.759   0.372  13.787  1.0566 -0.2952  1.4001
 5185SOL     OW27187   4.513   3.316   5.433  0.0486 -0.0347  0.7239
 5185SOL    HW127188   4.472   3.245   5.383  1.0099  0.9276 -1.4597
 5185SOL    HW227189   4.442   3.338   5.493  0.7155  0.6736  1.2492
 5186SOL     OW27190   2.886   0.610   7.686  0.0589 -0.5038 -0.5167
 5186SOL    HW127191   2.898   0.678   7.753  1.5896 -1.4368  0.1659
 5186SOL    HW227192   2.795   0.625   7.661 -0.7300 -0.5569  2.3295
 5187SOL     OW27193   1.931   0.214   2.833  0.2404  0.2962 -0.0498
 5187SOL    HW127194   1.900   0.246   2.748 -0.0909  0.0046 -0.0352
 5187SOL    HW227195   2.022   0.243   2.826  0.2943  0.9558  3.2617
 5188SOL     OW27196   0.567   4.605   8.054 -0.3550 -0.1774 -0.0687
 5188SOL    HW127197   0.589   4.663   7.981 -1.0209  1.3764  0.9415
 5188SOL    HW227198   0.556   4.521   8.011 -3.0052  0.0573  0.1275
 5189SOL     OW27199   1.050   1.462   2.417 -0.8630  0.2533 -0.8150
 5189SOL    HW127200   1.058   1.557   2.431  0.9269 -0.1263  0.7666
 5189SOL    HW227201   0.984   1.479   2.350 -2.0960  1.9519  0.8488
 5190SOL     OW27202   2.209   1.617   9.211 -0.5469  0.0092 -0.1557
 5190SOL    HW127203   2.282   1.626   9.149 -0.7883 -1.8112 -0.7168
 5190SOL    HW227204   2.178   1.707   9.207 -0.6500  0.0882  2.6476
 5191SOL     OW27205   1.615   2.184  17.206 -0.3779 -0.1456 -0.8095
 5191SOL    HW127206   1.604   2.091  17.184  1.0935 -0.4285 -0.3522
 5191SOL    HW227207   1.702   2.189  17.246 -1.0119 -0.7010  0.6070
 5192SOL     OW27208   3.981   2.151   4.730  0.1056 -0.2056 -0.3136
 5192SOL    HW127209   3.927   2.083   4.771  2.6109 -2.5061 -0.8995
 5192SOL    HW227210   4.067   2.113   4.716  0.7209  1.1722 -0.3405
 5193SOL     OW27211   2.592   1.066  10.427 -0.0740  0.1252 -0.1950
 5193SOL    HW127212   2.528   1.042  10.360 -1.4995 -2.9637  2.2818
 5193SOL    HW227213   2.646   0.989  10.416  0.4868  0.3615  0.9831
 5194SOL     OW27214   3.490   1.911   6.260  0.1868  0.1410  0.0046
 5194SOL    HW127215   3.484   1.845   6.328  0.7287 -0.8080 -0.8603
 5194SOL    HW227216   3.571   1.885   6.215  0.6574  0.2461  0.7978
 5195SOL     OW27217   4.195   1.601  15.825 -0.1405 -0.1668  0.7622
 5195SOL    HW127218   4.148   1.680  15.854 -0.7140  0.0322 -0.7356
 5195SOL    HW227219   4.244   1.569  15.901 -0.3915  2.4166  2.0103
 5196SOL     OW27220   2.025   2.185   7.652 -0.2526  0.1742  0.0131
 5196SOL    HW127221   2.059   2.251   7.712  3.0262 -0.4247 -1.1618
 5196SOL    HW227222   2.060   2.208   7.566 -2.6958  0.0520 -1.0231
 5197SOL     OW27223   3.135   4.249  16.260  0.4286 -0.4807 -0.5281
 5197SOL    HW127224   3.068   4.214  16.201  1.0354  0.0714 -1.5452
 5197SOL    HW227225   3.175   4.312  16.200  0.7371 -0.3319 -0.1656
 5198SOL     OW27226   1.922   0.283   3.847 -0.4499  0.0028 -0.0308
 5198SOL    HW127227   1.893   0.341   3.777 -1.3998  1.6083  1.6910
 5198SOL    HW227228   1.996   0.236   3.806 -0.6578  0.9996 -1.5346
 5199SOL     OW27229   0.842   2.849  10.484  0.4250 -0.2554  0.2964
 5199SOL    HW127230   0.922   2.861  10.535  0.9698 -0.6689 -0.4731
 5199SOL    HW227231   0.782   2.811  10.549  0.7209 -0.4392  0.4619
 5200SOL     OW27232   4.427   2.554   9.093 -0.0348  0.1720 -0.0790
 5200SOL    HW127233   4.497   2.582   9.034 -0.3117  1.7771  0.3462
 5200SOL    HW227234   4.352   2.584   9.041  0.0740  0.5567 -0.0129
 5201SOL     OW27235   1.520   2.303   6.245  0.0343  0.2665 -0.1041
 5201SOL    HW127236   1.476   2.377   6.204 -1.0889 -0.6985 -0.6393
 5201SOL    HW227237   1.610   2.328   6.268  0.4775 -0.2493 -1.2645
 5202SOL     OW27238   2.618   2.842   5.318  0.4078 -0.3008 -0.0725
 5202SOL    HW127239   2.568   2.808   5.392 -1.7627  2.2998 -0.3735
 5202SOL    HW227240   2.551   2.886   5.267 -0.9447 -1.7401  0.4494
 5203SOL     OW27241   1.812   1.238   2.726 -0.1066 -0.1621 -0.2732
 5203SOL    HW127242   1.816   1.286   2.809  1.3846  0.2266 -0.5699
 5203SOL    HW227243   1.747   1.280   2.671  2.1923  1.4527 -1.7471
 5204SOL     OW27244   2.263   3.904   5.543  0.3040 -0.6867 -0.1017
 5204SOL    HW127245   2.214   3.895   5.625 -1.8521  1.2973 -1.1874
 5204SOL    HW227246   2.317   3.978   5.570 -0.8887  0.5845 -1.2297
 5205SOL     OW27247   3.658   3.744   9.206  0.0027 -0.5238  0.2797
 5205SOL    HW127248   3.617   3.691   9.274  0.9289 -1.1292  0.3662
 5205SOL    HW227249   3.653   3.832   9.243 -0.3263 -0.2151 -0.4821
 5206SOL     OW27250   0.518   2.697   3.227  0.0119  0.0608 -0.0208
 5206SOL    HW127251   0.425   2.710   3.246  0.2824  1.5564  0.2325
 5206SOL    HW227252   0.523   2.719   3.134 -1.7746  0.1968 -0.0928
 5207SOL     OW27253   1.787   1.195   0.183 -0.4828 -0.2275 -0.4451
 5207SOL    HW127254   1.717   1.209   0.248 -1.2044  0.1641 -1.2984
 5207SOL    HW227255   1.862   1.184   0.241 -1.3540 -0.7972  0.5704
 5208SOL     OW27256   4.321   3.444   8.386 -0.5495 -0.7078 -0.2050
 5208SOL    HW127257   4.368   3.361   8.390  0.5993 -0.1438 -1.7334
 5208SOL    HW227258   4.388   3.504   8.353 -0.5056  0.3039  1.7335
 5209SOL     OW27259   2.515   3.778   0.630 -0.3260  0.5293 -0.2275
 5209SOL    HW127260   2.603   3.755   0.659 -0.0979  2.3131  0.4930
 5209SOL    HW227261   2.541   3.867   0.606  0.7430  0.3537  0.2932
 5210SOL     OW27262   0.409   3.972  13.582  0.2783 -0.7423  0.3478
 5210SOL    HW127263   0.423   3.929  13.666  0.9997  0.5146  0.8762
 5210SOL    HW227264   0.494   3.980  13.540 -0.3843 -1.4536 -1.1082
 5211SOL     OW27265   2.429   4.607   3.021  0.5591 -0.0823  0.0165
 5211SOL    HW127266   2.461   4.679   2.966 -1.8253  1.6604  0.9502
 5211SOL    HW227267   2.370   4.563   2.960 -2.0679  0.0549  2.4771
 5212SOL     OW27268   0.834   3.829   9.652  0.5835 -0.0199 -0.3540
 5212SOL    HW127269   0.752   3.874   9.630  0.5006  0.9645  1.9980
 5212SOL    HW227270   0.898   3.899   9.660 -1.5189  2.3078 -3.6642
 5213SOL     OW27271   2.698   0.155   8.925 -0.0744  0.4079  0.9347
 5213SOL    HW127272   2.693   0.176   9.018 -0.5155 -1.0712  1.2513
 5213SOL    HW227273   2.655   0.230   8.884  0.8104 -0.1471 -0.9895
 5214SOL     OW27274   0.489   1.819   4.517  0.1630 -0.3113 -0.1790
 5214SOL    HW127275   0.457   1.767   4.591 -0.9330 -0.6622 -0.9026
 5214SOL    HW227276   0.581   1.825   4.543  0.4765 -0.7117 -1.2107
 5215SOL     OW27277   3.553   2.324   4.897 -0.0773  0.0770  0.2317
 5215SOL    HW127278   3.573   2.233   4.919  0.4855 -0.3712 -2.1785
 5215SOL    HW227279   3.639   2.367   4.902 -0.0277 -0.0258  0.2629
 5216SOL     OW27280   1.381   0.715  13.827  0.4078  0.1917 -0.7152
 5216SOL    HW127281   1.360   0.628  13.794  2.5851 -0.7377  0.3890
 5216SOL    HW227282   1.476   0.708  13.838  0.1525 -1.7587  0.2483
 5217SOL     OW27283   3.374   1.643   9.652  0.6237  0.1383  0.4926
 5217SOL    HW127284   3.327   1.604   9.726 -1.2025 -0.2168 -0.8548
 5217SOL    HW227285   3.380   1.735   9.678 -1.5097  0.0428  1.3701
 5218SOL     OW27286   0.207   2.867   7.350 -0.2803  0.6736  0.2532
 5218SOL    HW127287   0.176   2.849   7.261 -2.4605  0.4173  1.0695
 5218SOL    HW227288   0.204   2.962   7.342  0.3035  0.6108 -0.6734
 5219SOL     OW27289   0.946   4.125   9.232 -0.2046  0.1363  0.3229
 5219SOL    HW127290   0.909   4.037   9.220  2.1019 -0.7003 -0.4674
 5219SOL    HW227291   0.864   4.174   9.231 -0.4280 -0.1579  2.9887
 5220SOL     OW27292   3.487   3.462  10.276 -0.3601 -0.0445  0.5701
 5220SOL    HW127293   3.414   3.427  10.226 -1.2749  2.4509  0.1676
 5220SOL    HW227294   3.446   3.451  10.362 -0.8069  0.3201  0.3987
 5221SOL     OW27295   4.659   0.805   8.517 -0.1068  0.4411  0.1438
 5221SOL    HW127296   4.713   0.732   8.486 -2.6982 -1.7396  0.8668
 5221SOL    HW227297   4.592   0.760   8.568 -1.5059  2.5010  0.1193
 5222SOL     OW27298   3.848   3.047   8.637  0.2826  0.3246  0.5224
 5222SOL    HW127299   3.918   3.037   8.702  0.2347  2.8923  0.9654
 5222SOL    HW227300   3.775   3.064   8.696  1.0513 -0.5129  1.7387
 5223SOL     OW27301   3.969   2.607   9.579 -0.4204  0.3502  0.1741
 5223SOL    HW127302   3.927   2.524   9.604 -0.3517  0.3835  0.4051
 5223SOL    HW227303   3.930   2.625   9.494  0.1955 -0.4795 -0.2894
 5224SOL     OW27304   2.502   1.611   0.928 -0.0900 -0.1959  0.5120
 5224SOL    HW127305   2.589   1.632   0.960 -0.1719 -0.1644  0.7158
 5224SOL    HW227306   2.453   1.693   0.930 -0.0368 -0.1477 -0.2543
 5225SOL     OW27307   0.638   4.326  14.884  0.0605 -0.0394 -0.6894
 5225SOL    HW127308   0.680   4.406  14.914  0.1388 -0.8776  1.4321
 5225SOL    HW227309   0.713   4.287  14.838 -1.0236 -2.9157 -0.0630
 5226SOL     OW27310   3.840   3.383   7.527 -0.1523 -0.1992  0.3867
 5226SOL    HW127311   3.802   3.392   7.615  0.7499  0.2206  0.7332
 5226SOL    HW227312   3.762   3.367   7.474  0.0704  0.1123 -0.0322
 5227SOL     OW27313   4.105   4.702   3.150  0.2015 -0.3912  0.6408
 5227SOL    HW127314   4.155   0.045   3.140 -1.3277  0.5443  0.5246
 5227SOL    HW227315   4.014   4.730   3.139 -0.3647 -1.6346  2.1872
 5228SOL     OW27316   0.206   3.689   3.615  0.4420 -0.1878  0.6785
 5228SOL    HW127317   0.296   3.655   3.616 -0.0316 -1.4162  1.9164
 5228SOL    HW227318   0.173   3.640   3.691 -1.2065  0.3543  0.2967
 5229SOL     OW27319   0.332   3.692   3.221  0.0027 -0.6800  0.0456
 5229SOL    HW127320   0.404   3.643   3.261  0.0391  0.5222  1.4660
 5229SOL    HW227321   0.354   3.671   3.131  0.8348  0.7055 -0.0581
 5230SOL     OW27322   4.572   3.325   4.661  0.2701  0.1968  0.3275
 5230SOL    HW127323   4.512   3.399   4.650 -0.8340 -0.7642 -0.0972
 5230SOL    HW227324   4.541   3.271   4.588 -2.5480 -0.5023  2.0536
 5231SOL     OW27325   1.712   2.057   6.953 -0.1716 -0.0536  0.4344
 5231SOL    HW127326   1.766   1.987   6.989 -0.4736 -0.4550  0.1088
 5231SOL    HW227327   1.628   2.017   6.974 -0.0858  0.3704  1.5736
 5232SOL     OW27328   3.705   1.969  13.972  0.6393  0.4162  0.5781
 5232SOL    HW127329   3.632   1.927  14.018  1.1655 -0.5063  0.5733
 5232SOL    HW227330   3.696   2.060  14.003 -0.2501  0.6923 -0.5173
 5233SOL     OW27331   1.384   2.216  10.257  0.7278  0.0287  0.1249
 5233SOL    HW127332   1.407   2.262  10.338 -0.4350  4.1087 -1.8738
 5233SOL    HW227333   1.390   2.124  10.283 -0.8484 -0.0790  0.1370
 5234SOL     OW27334   0.949   2.212   9.503  0.2418 -0.0972  0.2157
 5234SOL    HW127335   0.909   2.298   9.491  0.3916  0.3316  2.7679
 5234SOL    HW227336   0.882   2.165   9.552 -0.9274  1.6350  0.2616
 5235SOL     OW27337   3.578   0.214   2.099  0.4606  0.2502 -0.7706
 5235SOL    HW127338   3.551   0.285   2.157 -1.5084 -1.4331  0.3595
 5235SOL    HW227339   3.605   0.266   2.023 -0.9082 -0.0302 -1.4589
 5236SOL     OW27340   0.314   4.528   4.154  0.4245  0.1075  0.5356
 5236SOL    HW127341   0.386   4.481   4.112 -1.7554  0.2939 -3.3659
 5236SOL    HW227342   0.246   4.460   4.162 -0.4144  1.0595  1.4977
 5237SOL     OW27343   2.706   2.078   7.426 -0.2325 -0.3166  0.2392
 5237SOL    HW127344   2.731   2.120   7.508  1.1795 -1.4873  0.4028
 5237SOL    HW227345   2.780   2.094   7.368 -0.5881 -0.1989 -0.1804
 5238SOL     OW27346   1.790   3.225   9.565  0.0463  0.3356  0.0835
 5238SOL    HW127347   1.851   3.295   9.587 -0.1344 -0.1645  2.1978
 5238SOL    HW227348   1.753   3.265   9.486  0.7136  1.1077  0.1635
 5239SOL     OW27349   2.246   0.427   0.433 -0.1794  0.3229 -0.2428
 5239SOL    HW127350   2.277   0.366   0.500  0.5247  1.3407  0.3604
 5239SOL    HW227351   2.250   0.373   0.355  0.2534  2.2806 -1.5693
 5240SOL     OW27352   0.272   2.340  11.124  0.1845 -0.0633  0.5988
 5240SOL    HW127353   0.277   2.417  11.067 -0.3908 -1.9275 -1.9538
 5240SOL    HW227354   0.307   2.372  11.207  0.2378  0.5564  0.3432
 5241SOL     OW27355   2.001   1.424   9.179  0.4221  0.7663 -0.1374
 5241SOL    HW127356   2.017   1.340   9.137 -1.7757 -0.2563  1.0722
 5241SOL    HW227357   2.087   1.466   9.178  0.2276  1.1115 -2.3531
 5242SOL     OW27358   4.491   0.235   1.697  0.0230  0.4727 -0.3059
 5242SOL    HW127359   4.485   0.207   1.605 -0.8090  0.5101 -0.2564
 5242SOL    HW227360   4.573   0.197   1.728 -0.3683 -0.5359 -0.5080
 5243SOL     OW27361   4.291   1.683   4.641  0.0220 -0.4894 -0.1647
 5243SOL    HW127362   4.309   1.620   4.710  0.2271 -1.0291 -0.7082
 5243SOL    HW227363   4.224   1.741   4.679 -0.2266 -0.2682 -0.9382
 5244SOL     OW27364   4.432   2.869   8.717 -0.5999 -0.1706 -0.4429
 5244SOL    HW127365   4.400   2.941   8.663  1.4083  0.1277 -1.2353
 5244SOL    HW227366   4.527   2.873   8.705 -0.9118  0.2613 -2.8035
 5245SOL     OW27367   0.257   1.477   5.348  0.2896 -0.0853  0.1742
 5245SOL    HW127368   0.296   1.398   5.310 -0.6407 -0.5695  0.2367
 5245SOL    HW227369   0.330   1.539   5.352 -1.9465  2.6518 -1.6899
 5246SOL     OW27370   0.181   0.088   9.930  0.3638 -0.1376  0.0192
 5246SOL    HW127371   0.155   0.102   9.839  1.1754 -0.8904 -0.3348
 5246SOL    HW227372   0.105   0.131   9.967  0.9797 -1.1638  2.4768
 5247SOL     OW27373   4.119   1.219   6.911 -0.3503 -0.3335  0.3527
 5247SOL    HW127374   4.210   1.223   6.884  0.0461 -1.1047  1.5586
 5247SOL    HW227375   4.077   1.264   6.837  1.2282 -1.4211 -1.1780
 5248SOL     OW27376   3.016   0.003   6.592  0.1079 -0.1658 -0.2547
 5248SOL    HW127377   2.938   0.023   6.541  2.2698  0.6295 -3.3059
 5248SOL    HW227378   3.045   0.087   6.626  0.2333 -0.8532  1.3448
 5249SOL     OW27379   1.415   0.732   0.662  0.4272 -0.3356 -0.3451
 5249SOL    HW127380   1.337   0.677   0.668 -0.2879  0.8248  0.9361
 5249SOL    HW227381   1.472   0.690   0.726  2.3590  3.1738  0.2217
 5250SOL     OW27382   4.325   2.813   4.832  0.0767 -0.0734  0.6857
 5250SOL    HW127383   4.397   2.864   4.869  0.0520  0.5234 -0.0977
 5250SOL    HW227384   4.296   2.758   4.905 -0.5410  0.0961  0.5701
 5251SOL     OW27385   3.470   4.575   1.812  0.3199  0.1398  0.6291
 5251SOL    HW127386   3.511   4.619   1.738 -0.4028 -1.2280 -0.5946
 5251SOL    HW227387   3.387   4.560   1.767  1.1714  1.2435 -1.3308
 5252SOL     OW27388   3.831   3.195  10.983 -0.3612 -0.2378  0.0995
 5252SOL    HW127389   3.903   3.143  10.949 -0.5173 -1.0399  1.0370
 5252SOL    HW227390   3.755   3.141  10.961  0.5874 -0.9796 -1.3473
 5253SOL     OW27391   4.188   2.646   5.976 -0.4301 -0.0012 -0.1671
 5253SOL    HW127392   4.248   2.718   5.996  0.1545 -0.4828 -0.2141
 5253SOL    HW227393   4.146   2.679   5.896 -1.1195  0.9900  0.5979
 5254SOL     OW27394   1.887   4.461  11.437  0.1197 -0.2672 -0.4154
 5254SOL    HW127395   1.833   4.514  11.378  1.8230  0.1808 -1.5648
 5254SOL    HW227396   1.967   4.452  11.384  0.3241  1.1890 -0.3600
 5255SOL     OW27397   1.232   1.323   2.953  0.4929 -0.4724  0.1472
 5255SOL    HW127398   1.156   1.358   2.907  0.5095 -0.0001  0.4729
 5255SOL    HW227399   1.212   1.235   2.982 -1.5667 -0.5938 -1.6819
 5256SOL     OW27400   0.393   2.749   8.597 -0.3593  0.1818 -0.7517
 5256SOL    HW127401   0.355   2.661   8.606 -1.0019  0.3358 -1.8781
 5256SOL    HW227402   0.397   2.755   8.501 -0.9500 -0.0036 -0.7924
 5257SOL     OW27403   3.512   4.180   7.621  0.1433  0.3260 -0.0636
 5257SOL    HW127404   3.455   4.176   7.697 -0.7923 -1.6058 -0.8664
 5257SOL    HW227405   3.447   4.193   7.552 -0.7054  2.5294  1.1443
 5258SOL     OW27406   3.483   3.860  11.744 -0.1547  0.6708 -0.4787
 5258SOL    HW127407   3.531   3.871  11.662  1.9412 -2.3610  0.3555
 5258SOL    HW227408   3.410   3.809  11.710  0.0829 -0.5453  0.8716
 5259SOL     OW27409   2.386   2.226   6.038 -0.4403 -0.2242  0.4054
 5259SOL    HW127410   2.294   2.210   6.059 -0.6636  0.0829 -0.3581
 5259SOL    HW227411   2.418   2.136   6.048  0.0661  0.0626  1.3767
 5260SOL     OW27412   4.619   3.676  16.749 -0.0387 -0.1068 -0.0602
 5260SOL    HW127413   4.606   3.584  16.724  0.6906  0.2920 -1.8942
 5260SOL    HW227414   4.703   3.696  16.708  1.0361  1.8879  3.2053
 5261SOL     OW27415   2.114   4.625   4.981  0.2592  0.2719 -0.2814
 5261SOL    HW127416   2.142   4.604   5.070  1.4454  2.2246 -0.2025
 5261SOL    HW227417   2.018   4.624   4.990  0.5938  2.6439  3.3211
 5262SOL     OW27418   2.469   1.170   7.684  0.0545 -0.4446  0.3075
 5262SOL    HW127419   2.431   1.095   7.638 -0.5941  1.8949 -2.8748
 5262SOL    HW227420   2.390   1.189   7.736  0.7534 -1.2230  1.6647
 5263SOL     OW27421   2.457   3.510   4.154  0.6611  0.3715 -0.3291
 5263SOL    HW127422   2.528   3.447   4.167 -1.7392 -2.5850 -1.3445
 5263SOL    HW227423   2.494   3.589   4.194 -1.0289 -0.2840  2.5074
 5264SOL     OW27424   3.953   4.541  16.372 -0.0002  0.0045 -0.2297
 5264SOL    HW127425   3.914   4.605  16.432  0.6781 -0.0528  0.2788
 5264SOL    HW227426   3.887   4.472  16.374 -0.1779  0.1188 -2.0292
 5265SOL     OW27427   1.458   1.646   5.039 -0.0466 -0.2499  0.3634
 5265SOL    HW127428   1.508   1.722   5.070  0.3947 -0.9082  1.2624
 5265SOL    HW227429   1.528   1.581   5.035  1.3134  1.0529  2.8029
 5266SOL     OW27430   1.456   4.507   4.863  0.0868  0.0513  0.3111
 5266SOL    HW127431   1.406   4.437   4.821 -0.2224 -0.6055  1.7639
 5266SOL    HW227432   1.400   4.580   4.837  0.9314  1.5389  2.7131
 5267SOL     OW27433   4.308   2.468   7.150 -0.1333  0.9498 -0.0055
 5267SOL    HW127434   4.245   2.406   7.113  0.2352 -0.4877  1.8150
 5267SOL    HW227435   4.273   2.488   7.237 -0.6404  0.0486 -0.0007
 5268SOL     OW27436   1.136   0.080  11.943 -0.1153 -0.4090  0.4328
 5268SOL    HW127437   1.205   0.136  11.910 -0.0144 -1.2597 -0.8084
 5268SOL    HW227438   1.177   0.053  12.025 -0.1189 -1.0026  0.2421
 5269SOL     OW27439   1.575   4.603   8.338  0.0265  0.0906 -0.2504
 5269SOL    HW127440   1.505   4.597   8.403 -0.6996 -0.6774 -1.1103
 5269SOL    HW227441   1.615   4.687   8.361 -0.2643 -0.0692  0.8664
 5270SOL     OW27442   2.383   1.908   5.185 -0.1009 -0.1701 -0.0038
 5270SOL    HW127443   2.352   1.904   5.094 -0.1872  0.8794 -0.0261
 5270SOL    HW227444   2.381   2.003   5.199 -0.6259 -0.0899 -0.6181
 5271SOL     OW27445   4.098   1.138  11.312 -0.1762 -0.4197 -0.3940
 5271SOL    HW127446   4.192   1.124  11.328  0.1868  1.3082 -1.0025
 5271SOL    HW227447   4.071   1.046  11.319  0.6918 -0.6725 -0.3290
 5272SOL     OW27448   4.467   1.033   5.189  0.2200 -0.3141  0.0344
 5272SOL    HW127449   4.432   1.102   5.133  1.4518  0.7362  0.5518
 5272SOL    HW227450   4.432   0.956   5.144  0.1342 -0.2311 -0.0388
 5273SOL     OW27451   3.527   1.858   3.156 -0.0332  0.6438  0.9790
 5273SOL    HW127452   3.510   1.817   3.071  1.4302 -0.7980  1.3627
 5273SOL    HW227453   3.573   1.939   3.136 -0.0863  0.0488 -1.5593
 5274SOL     OW27454   3.251   2.489   1.858  0.2503 -0.3772  0.8050
 5274SOL    HW127455   3.336   2.462   1.823 -1.2795 -2.8050 -1.0736
 5274SOL    HW227456   3.272   2.576   1.891  0.1507 -1.1373  2.8639
 5275SOL     OW27457   2.645   4.632   3.828  0.0190 -0.1980  0.5824
 5275SOL    HW127458   2.573   4.694   3.838 -0.8579 -1.1643  0.1732
 5275SOL    HW227459   2.636   4.568   3.898 -2.0096 -0.6882 -0.1259
 5276SOL     OW27460   0.093   2.256   3.249  0.4686 -0.1197  0.0611
 5276SOL    HW127461   0.070   2.192   3.315  0.1599 -1.6335 -1.5176
 5276SOL    HW227462   0.189   2.262   3.258  0.4913 -0.9800  0.3167
 5277SOL     OW27463   4.686   2.044   3.117  0.0301  0.1670 -0.1373
 5277SOL    HW127464   4.693   2.068   3.025 -0.1219  0.1924 -0.1424
 5277SOL    HW227465   4.692   2.133   3.150 -0.9364  0.6608 -1.3057
 5278SOL     OW27466   4.070   1.850   3.800  0.1209 -0.6636 -0.8903
 5278SOL    HW127467   4.039   1.933   3.763  0.7341 -0.8371 -1.8071
 5278SOL    HW227468   4.022   1.845   3.883  2.8216 -1.7780  0.5991
 5279SOL     OW27469   0.418   4.100   5.608 -0.0531 -0.4163 -0.2718
 5279SOL    HW127470   0.496   4.045   5.614  0.0567 -0.2404 -0.0631
 5279SOL    HW227471   0.465   4.179   5.582 -2.4190  1.1166  0.0812
 5280SOL     OW27472   3.980   4.150  13.990  0.1367 -0.2544 -0.1036
 5280SOL    HW127473   3.997   4.182  14.078 -1.8785 -0.1896  0.2655
 5280SOL    HW227474   3.899   4.196  13.967  1.3601  1.5395 -0.8255
 5281SOL     OW27475   3.029   1.747   4.351 -0.4336  0.3239  0.5304
 5281SOL    HW127476   3.027   1.659   4.390 -0.3881  0.3264  0.5375
 5281SOL    HW227477   2.935   1.768   4.350 -0.6051 -0.3414  1.4226
 5282SOL     OW27478   0.491   2.861   6.163  0.2004 -0.6953  0.9466
 5282SOL    HW127479   0.535   2.933   6.206  0.2811 -0.6367  0.7636
 5282SOL    HW227480   0.494   2.781   6.215 -2.0789 -2.5486 -1.7249
 5283SOL     OW27481   2.454   0.376   9.152  0.0567  0.6770  0.3441
 5283SOL    HW127482   2.401   0.304   9.185  0.5524  0.0358 -0.2805
 5283SOL    HW227483   2.542   0.347   9.179  0.2985  1.8414  0.8473
 5284SOL     OW27484   4.131   3.310   1.941 -0.0166 -0.3433  0.9082
 5284SOL    HW127485   4.178   3.259   1.876 -1.1443  0.3804 -0.4893
 5284SOL    HW227486   4.048   3.266   1.959  2.1547 -3.5062  3.0310
 5285SOL     OW27487   4.431   3.290   8.952  0.0131 -0.2386 -0.2510
 5285SOL    HW127488   4.522   3.303   8.979  0.3695 -0.2986 -1.4112
 5285SOL    HW227489   4.405   3.230   9.022 -1.7048 -0.4142 -1.0233
 5286SOL     OW27490   0.226   4.181   4.483  0.3283 -0.3749 -0.2400
 5286SOL    HW127491   0.133   4.166   4.463  0.6744  0.2242 -2.2362
 5286SOL    HW227492   0.257   4.246   4.421 -0.8073  1.1749  0.8306
 5287SOL     OW27493   2.315   2.197  12.123 -0.6429 -0.1230 -0.1929
 5287SOL    HW127494   2.270   2.263  12.070  1.7688  0.4210 -1.5831
 5287SOL    HW227495   2.278   2.228  12.206 -0.9425  0.1980 -0.4458
 5288SOL     OW27496   0.521   4.521   7.740  0.7359 -0.1697 -0.2010
 5288SOL    HW127497   0.576   4.443   7.750  2.1470  0.7231 -0.8879
 5288SOL    HW227498   0.438   4.490   7.703  1.0011  0.0841 -1.0202
 5289SOL     OW27499   2.605   4.282  13.895 -0.3736  0.9128 -0.1841
 5289SOL    HW127500   2.559   4.324  13.967  0.5795  0.8463  0.4616
 5289SOL    HW227501   2.546   4.312  13.826 -1.0728 -0.4092 -0.1655
 5290SOL     OW27502   0.576   0.409   6.289  0.3721  0.2495  0.3151
 5290SOL    HW127503   0.613   0.488   6.329 -0.7684 -0.7061  3.2753
 5290SOL    HW227504   0.625   0.417   6.207 -0.4123  2.2315  0.0417
 5291SOL     OW27505   0.076   3.945  10.538  0.0131 -0.6969  0.6670
 5291SOL    HW127506   0.090   3.850  10.540 -0.6765 -0.7832  1.4258
 5291SOL    HW227507   0.070   3.971  10.446  4.8166  1.4518  0.9324
 5292SOL     OW27508   2.833   2.718  17.296 -1.0911  0.3409 -0.2082
 5292SOL    HW127509   2.756   2.772  17.277 -1.2472  0.1977  0.0106
 5292SOL    HW227510   2.840   2.714  17.391 -0.1629  1.1435 -0.2499
 5293SOL     OW27511   2.912   2.424   1.074  0.5672 -0.2194 -0.3584
 5293SOL    HW127512   2.913   2.458   1.163  0.3065 -0.8119 -0.1319
 5293SOL    HW227513   3.005   2.403   1.065  0.5106 -1.6086  2.2305
 5294SOL     OW27514   3.085   0.711   4.841  0.5814 -0.6353 -0.0107
 5294SOL    HW127515   3.042   0.630   4.866 -0.1401 -0.0454  0.6688
 5294SOL    HW227516   3.152   0.706   4.909  2.1993 -1.0098 -1.6254
 5295SOL     OW27517   3.799   2.726  15.607  0.0498 -0.0785 -0.4357
 5295SOL    HW127518   3.871   2.664  15.613 -0.7373 -0.8847  0.5767
 5295SOL    HW227519   3.855   2.804  15.608 -1.6290  1.1064  2.3083
 5296SOL     OW27520   2.416   2.066   2.203 -0.1468  0.2208 -0.0534
 5296SOL    HW127521   2.349   2.089   2.139  0.4246 -1.2384 -1.1551
 5296SOL    HW227522   2.407   2.144   2.259 -1.7747  0.3343 -0.4690
 5297SOL     OW27523   0.069   4.271  13.346  0.1870  0.1754 -0.2068
 5297SOL    HW127524   0.139   4.206  13.344 -0.1638 -0.3002  3.1330
 5297SOL    HW227525   0.126   4.344  13.370  2.1070 -0.5141 -2.6673
 5298SOL     OW27526   2.018   3.365   7.533  0.2327 -0.4639  0.3240
 5298SOL    HW127527   2.020   3.362   7.628  0.7882 -0.8505  0.2966
 5298SOL    HW227528   1.998   3.273   7.515 -0.9639 -0.5700  2.3049
 5299SOL     OW27529   4.634   0.853   4.647  0.2139  1.4058  0.1415
 5299SOL    HW127530   4.638   0.893   4.560 -0.2822 -1.8445 -1.3595
 5299SOL    HW227531   4.571   0.786   4.623  0.1327  2.4715 -2.6221
 5300SOL     OW27532   0.302   3.671  10.978  0.0182  0.9232 -0.4278
 5300SOL    HW127533   0.379   3.715  11.013  1.7680 -1.4938 -1.2719
 5300SOL    HW227534   0.318   3.578  10.991 -5.5055  0.2707  1.4707
 5301SOL     OW27535   1.627   4.124  14.958 -1.3941 -0.2240  0.1628
 5301SOL    HW127536   1.695   4.157  15.016 -0.1837 -0.4696 -1.1009
 5301SOL    HW227537   1.654   4.157  14.872 -1.0053 -1.2261 -0.1094
 5302SOL     OW27538   2.211   1.481  13.402  1.0395 -0.7560 -0.5404
 5302SOL    HW127539   2.152   1.501  13.474  0.2649  0.6782 -1.5821
 5302SOL    HW227540   2.296   1.483  13.445  1.6101 -1.7888 -1.6207
 5303SOL     OW27541   0.834   4.253  10.643  0.2884  0.2666  0.0740
 5303SOL    HW127542   0.889   4.329  10.625  0.6912 -0.0158  0.0946
 5303SOL    HW227543   0.761   4.289  10.693 -1.0340 -2.8611  0.3927
 5304SOL     OW27544   3.583   3.194   2.685  0.0330  1.0003 -0.4280
 5304SOL    HW127545   3.513   3.195   2.751 -0.4311 -1.2371 -0.8811
 5304SOL    HW227546   3.662   3.169   2.733 -0.7245  0.6651  0.6443
 5305SOL     OW27547   1.430   2.714  10.128  0.0622  0.0564  0.1930
 5305SOL    HW127548   1.501   2.755  10.177 -0.8438 -1.3892  2.7013
 5305SOL    HW227549   1.355   2.766  10.157  0.4307  0.1337  1.0015
 5306SOL     OW27550   2.093   0.477   6.447 -0.2787 -0.0499 -0.0213
 5306SOL    HW127551   2.168   0.536   6.455 -2.0144  2.1630  0.0150
 5306SOL    HW227552   2.113   0.439   6.362  0.6208 -0.5450  0.4140
 5307SOL     OW27553   3.561   1.625   1.914 -0.5248  0.1461 -0.3707
 5307SOL    HW127554   3.641   1.677   1.923 -0.6726  0.4894 -1.0066
 5307SOL    HW227555   3.584   1.540   1.876 -1.7993 -0.1062 -0.5639
 5308SOL     OW27556   2.138   2.195   7.390  0.3734 -0.1011 -0.4121
 5308SOL    HW127557   2.215   2.251   7.384  1.4442 -1.4390  0.8925
 5308SOL    HW227558   2.087   2.225   7.315  1.8576 -0.8425 -1.7195
 5309SOL     OW27559   0.622   0.319   1.842  0.4477  0.3853 -0.4364
 5309SOL    HW127560   0.624   0.299   1.749 -2.7395 -1.2022 -0.1681
 5309SOL    HW227561   0.588   0.408   1.853  0.2532  0.3798 -0.9930
 5310SOL     OW27562   3.002   4.532  17.641 -0.0404 -0.7840 -0.3361
 5310SOL    HW127563   3.007   4.608  17.582 -0.7478 -1.3073 -1.0711
 5310SOL    HW227564   2.929   4.484  17.603 -1.6655  1.9529 -0.6707
 5311SOL     OW27565   4.624   4.310   1.567  0.3669  0.1357 -0.0951
 5311SOL    HW127566   4.544   4.321   1.619 -0.9988 -0.1148 -2.1376
 5311SOL    HW227567   4.594   4.263   1.489  1.8563 -1.4183  0.2608
 5312SOL     OW27568   3.951   1.754   0.302  0.3255  0.2945 -0.3678
 5312SOL    HW127569   4.029   1.709   0.269 -0.0966 -1.3562  0.9036
 5312SOL    HW227570   3.984   1.844   0.303 -1.1041  0.8034 -0.3337
 5313SOL     OW27571   1.928   2.876   1.132 -0.0958  0.0732 -0.2946
 5313SOL    HW127572   2.000   2.839   1.183  0.3313 -0.5554 -1.3444
 5313SOL    HW227573   1.865   2.913   1.194  0.2950  0.7435 -0.2919
 5314SOL     OW27574   2.404   4.118   5.640  0.2724  0.1340  0.0091
 5314SOL    HW127575   2.472   4.172   5.601 -0.3242  1.4934  0.8640
 5314SOL    HW227576   2.337   4.186   5.632  0.8127  0.3488 -2.5863
 5315SOL     OW27577   3.150   1.365  11.508  0.0206 -0.5334 -0.1661
 5315SOL    HW127578   3.241   1.343  11.489  0.3939  1.4752 -0.7083
 5315SOL    HW227579   3.123   1.419  11.434  2.9857 -0.7470 -1.4178
 5316SOL     OW27580   3.925   3.603   8.333  0.1232  0.2478 -0.4464
 5316SOL    HW127581   3.973   3.543   8.277 -1.4517 -2.6405  1.2773
 5316SOL    HW227582   3.953   3.570   8.418  0.4235  1.4130 -0.0958
 5317SOL     OW27583   3.914   0.741  17.078  0.1608 -0.0670  0.3332
 5317SOL    HW127584   3.845   0.711  17.019  0.1674 -1.0838  0.8483
 5317SOL    HW227585   3.947   0.828  17.053 -0.1060 -0.4528 -1.3763
 5318SOL     OW27586   2.180   2.072   6.950 -0.6153 -0.1992  0.9390
 5318SOL    HW127587   2.244   2.071   7.022  2.7401  0.5768 -2.0037
 5318SOL    HW227588   2.237   2.114   6.885  2.1457 -3.3435  1.3286
 5319SOL     OW27589   0.810   2.013   8.664 -0.5757 -0.6106 -0.2452
 5319SOL    HW127590   0.902   1.995   8.648 -0.5562  1.4095 -2.5333
 5319SOL    HW227591   0.767   1.932   8.637 -1.4603 -0.6480  1.2836
 5320SOL     OW27592   0.949   3.945   5.796 -0.4863 -0.0178 -0.0203
 5320SOL    HW127593   0.915   4.014   5.738  0.2432  1.7663  1.6923
 5320SOL    HW227594   1.001   3.905   5.727  2.4758  0.6744  1.8043
 5321SOL     OW27595   2.375   2.036  12.416  0.1122  0.0319  0.4409
 5321SOL    HW127596   2.378   2.129  12.437 -1.2610  1.1929 -4.4253
 5321SOL    HW227597   2.453   1.998  12.457 -0.2078 -1.0233  0.0850
 5322SOL     OW27598   0.278   2.143   7.451 -0.0172 -0.3965  0.7052
 5322SOL    HW127599   0.299   2.055   7.420 -0.1945 -0.1255 -0.1831
 5322SOL    HW227600   0.256   2.126   7.543 -0.5180 -1.3528  0.4204
 5323SOL     OW27601   3.590   2.185   3.902  0.4712  0.0541 -0.2667
 5323SOL    HW127602   3.583   2.195   3.807 -0.1532  1.3111 -0.0847
 5323SOL    HW227603   3.522   2.243   3.937 -0.2888  0.5745 -2.5705
 5324SOL     OW27604   4.173   3.794   8.947 -0.2758 -0.2851 -0.5438
 5324SOL    HW127605   4.179   3.808   9.041 -1.6594 -2.8364 -0.0859
 5324SOL    HW227606   4.260   3.763   8.921  0.5698 -0.8149  2.9668
 5325SOL     OW27607   4.016   3.254   7.148  0.5521  0.3611 -0.0496
 5325SOL    HW127608   4.086   3.314   7.124  0.2630  0.7766  0.1492
 5325SOL    HW227609   3.935   3.302   7.132  2.4096  2.6929 -2.4340
 5326SOL     OW27610   3.171   2.680  15.209  0.5998  0.0846  0.0495
 5326SOL    HW127611   3.161   2.749  15.275 -6.0577  1.3712 -2.2968
 5326SOL    HW227612   3.266   2.669  15.204  0.6195  0.2177  0.1219
 5327SOL     OW27613   1.830   1.275  12.161 -0.1434 -0.2837  0.8540
 5327SOL    HW127614   1.799   1.353  12.206  1.5618  1.1687 -0.5102
 5327SOL    HW227615   1.868   1.314  12.082  0.4144 -1.3170  0.6038
 5328SOL     OW27616   0.170   2.820  11.869 -0.0134 -0.8874 -0.3961
 5328SOL    HW127617   0.170   2.772  11.786  1.7463 -0.3569 -0.6938
 5328SOL    HW227618   0.221   2.889  11.827  0.8366 -0.0117  2.0972
 5329SOL     OW27619   3.794   2.233   6.793 -0.3910 -0.2103  0.3807
 5329SOL    HW127620   3.863   2.185   6.839 -0.9913 -1.4768 -0.0375
 5329SOL    HW227621   3.845   2.271   6.721  0.3944  1.0247  1.5863
 5330SOL     OW27622   0.422   1.743  16.531 -0.1967 -0.1034  0.3574
 5330SOL    HW127623   0.462   1.739  16.617 -1.4870  1.3508  1.0201
 5330SOL    HW227624   0.328   1.736  16.551 -0.4193  0.1220 -0.6058
 5331SOL     OW27625   3.207   3.009   7.689 -1.0143  0.4437 -0.5894
 5331SOL    HW127626   3.234   2.920   7.710 -1.4140  0.5083  0.1868
 5331SOL    HW227627   3.153   2.993   7.612  0.9245  0.9385 -2.0419
 5332SOL     OW27628   2.858   2.650   3.798 -0.2744 -0.1389  0.0704
 5332SOL    HW127629   2.829   2.690   3.880  0.3198 -0.7791  0.5954
 5332SOL    HW227630   2.781   2.618   3.751 -0.6896  0.5577  0.2767
 5333SOL     OW27631   1.636   4.196  14.414 -0.1241 -0.3456 -0.0161
 5333SOL    HW127632   1.659   4.231  14.500  0.2878  0.0826 -0.2973
 5333SOL    HW227633   1.711   4.147  14.378  0.7669  0.4654  0.7630
 5334SOL     OW27634   2.779   4.346  16.145  0.4385 -0.4124 -0.1846
 5334SOL    HW127635   2.845   4.284  16.115  1.6196 -0.3974  2.3706
 5334SOL    HW227636   2.703   4.311  16.098 -0.5220 -0.8313  1.6589
 5335SOL     OW27637   0.422   3.301   8.279  0.2026 -0.1912 -0.3918
 5335SOL    HW127638   0.402   3.294   8.186 -1.7472  0.0804  0.0046
 5335SOL    HW227639   0.453   3.216   8.310  0.5747 -0.2018 -0.7949
 5336SOL     OW27640   2.216   4.670   6.134 -0.6133  0.1065  0.2419
 5336SOL    HW127641   2.186   4.639   6.219 -0.3773 -1.9156 -0.4201
 5336SOL    HW227642   2.223   4.588   6.085  0.7298  1.8584 -2.5122
 5337SOL     OW27643   1.046   1.999   6.291 -0.4806 -0.0885  0.4445
 5337SOL    HW127644   0.951   1.997   6.300 -0.5656  0.7980 -0.2798
 5337SOL    HW227645   1.051   2.037   6.204  0.7177 -2.4346 -0.5055
 5338SOL     OW27646   3.484   3.903   4.652  0.4739  0.0790 -0.3929
 5338SOL    HW127647   3.529   3.937   4.729  0.2591  2.1171 -1.1817
 5338SOL    HW227648   3.502   3.972   4.589 -0.0779 -0.2715 -0.9370
 5339SOL     OW27649   3.564   4.034  11.950  0.1508 -0.0556 -0.1922
 5339SOL    HW127650   3.561   3.938  11.947  0.7638 -0.1329  1.6146
 5339SOL    HW227651   3.540   4.044  12.042 -1.8511  0.3600 -0.7674
 5340SOL     OW27652   0.935   3.453   1.758 -0.3362  0.1972  0.0709
 5340SOL    HW127653   0.985   3.415   1.685 -1.2767  0.1842 -0.5659
 5340SOL    HW227654   0.967   3.541   1.737  0.8176  0.3855  2.6320
 5341SOL     OW27655   0.939   0.089   7.029 -0.0739  0.1696 -0.9590
 5341SOL    HW127656   0.987   0.123   6.953  0.5577 -0.1903 -0.7216
 5341SOL    HW227657   0.925   0.166   7.084  1.4845  0.7915 -1.4250
 5342SOL     OW27658   3.742   0.895   5.247  0.3158  0.0311 -0.6713
 5342SOL    HW127659   3.736   0.799   5.247  0.9022 -0.0166  1.0939
 5342SOL    HW227660   3.652   0.914   5.274  0.9971  3.0340 -0.5650
 5343SOL     OW27661   4.230   3.768   5.006  0.0231  0.0764  0.2589
 5343SOL    HW127662   4.277   3.734   5.082 -1.2592  0.6682  1.3111
 5343SOL    HW227663   4.153   3.712   5.003 -0.0147  0.0882  1.0254
 5344SOL     OW27664   3.932   3.906   3.453  0.0812  0.3421 -1.0588
 5344SOL    HW127665   3.838   3.894   3.464  0.1047  0.0193 -1.2165
 5344SOL    HW227666   3.948   3.999   3.438 -1.1128  0.4398 -1.6941
 5345SOL     OW27667   0.829   1.391   4.114  0.0454  0.6531 -0.2088
 5345SOL    HW127668   0.757   1.380   4.177  0.5082  1.1376  0.4023
 5345SOL    HW227669   0.789   1.358   4.034 -0.0959  0.1744  0.0606
 5346SOL     OW27670   2.593   2.879   4.711  0.4212  0.4087 -0.2022
 5346SOL    HW127671   2.657   2.950   4.700 -0.1537  1.0938  0.9395
 5346SOL    HW227672   2.526   2.934   4.751 -1.8295 -2.3729 -0.1485
 5347SOL     OW27673   2.256   3.949   1.003  0.1527 -0.3000  0.2803
 5347SOL    HW127674   2.207   3.917   1.079  0.8339 -0.3713  0.6956
 5347SOL    HW227675   2.231   4.041   0.991  0.0147 -0.7087 -2.3895
 5348SOL     OW27676   3.416   1.620   2.642 -0.1982  0.3605  0.1310
 5348SOL    HW127677   3.423   1.542   2.697 -1.0366 -0.3121 -0.7216
 5348SOL    HW227678   3.399   1.579   2.557 -0.3514  1.0135 -0.1515
 5349SOL     OW27679   3.607   3.465   2.777 -0.1279 -0.3962 -0.1333
 5349SOL    HW127680   3.614   3.380   2.733 -1.0125  0.4807 -1.9866
 5349SOL    HW227681   3.598   3.452   2.871 -1.1344 -3.3096 -0.6324
 5350SOL     OW27682   3.560   4.477   3.192 -0.4870 -0.4446 -0.2496
 5350SOL    HW127683   3.469   4.465   3.220 -0.2600 -1.6244 -0.0394
 5350SOL    HW227684   3.586   4.540   3.259 -2.2950  0.8366 -0.7559
 5351SOL     OW27685   1.537   0.912   1.871 -0.0830 -0.0964 -0.2526
 5351SOL    HW127686   1.480   0.885   1.799  0.7705 -2.4638 -0.0486
 5351SOL    HW227687   1.478   0.904   1.945 -0.5207  1.7165 -0.3974
 5352SOL     OW27688   2.456   4.681  16.142  0.0921 -0.2367  0.3933
 5352SOL    HW127689   2.482   0.032  16.120  0.1876 -0.3919 -0.1120
 5352SOL    HW227690   2.361   4.685  16.155  0.4157 -0.4771  2.8437
 5353SOL     OW27691   4.534   0.535   3.342 -0.2940  0.9136  0.4092
 5353SOL    HW127692   4.505   0.444   3.335 -1.4939  1.3940 -0.8420
 5353SOL    HW227693   4.629   0.529   3.334 -0.2761  0.8527  0.6732
 5354SOL     OW27694   1.605   4.633  10.067  0.2205 -0.0391 -0.4408
 5354SOL    HW127695   1.666   4.655   9.997 -0.3053  2.3051 -0.1599
 5354SOL    HW227696   1.547   4.709  10.064  1.1813  0.8664  3.1219
 5355SOL     OW27697   2.245   4.233   1.954 -0.6665  0.1404 -0.0152
 5355SOL    HW127698   2.164   4.284   1.950 -1.3606 -0.8886  0.9901
 5355SOL    HW227699   2.239   4.165   1.887 -1.5792  1.7944 -1.6058
 5356SOL     OW27700   0.448   3.586   3.665 -0.5599  0.5550 -0.1847
 5356SOL    HW127701   0.480   3.524   3.730 -0.6320  1.2285  0.5007
 5356SOL    HW227702   0.530   3.626   3.637  0.7394 -2.5732 -0.7380
 5357SOL     OW27703   2.182   3.998   5.793 -0.7249  0.0520  0.1189
 5357SOL    HW127704   2.229   4.002   5.876  3.9258 -0.1021 -2.4777
 5357SOL    HW227705   2.110   3.941   5.818  0.5420 -0.5146  2.4560
 5358SOL     OW27706   0.001   4.049   1.636  0.4355  0.0795  0.0441
 5358SOL    HW127707   0.016   4.129   1.584  0.7167  0.7300  1.1258
 5358SOL    HW227708   0.091   4.045   1.668  0.2267 -1.3237  0.4256
 5359SOL     OW27709   0.510   3.049   1.123 -0.3081 -0.2976 -0.0478
 5359SOL    HW127710   0.427   3.054   1.170 -1.6494  0.1808 -2.4921
 5359SOL    HW227711   0.563   3.117   1.165  1.4678 -3.5401  2.9607
 5360SOL     OW27712   4.729   2.508   3.377  0.2898  0.0400 -0.4969
 5360SOL    HW127713   0.028   2.426   3.345  2.2421 -0.1550  2.3048
 5360SOL    HW227714   0.059   2.571   3.354 -2.4830  2.8921 -0.8775
 5361SOL     OW27715   0.254   2.769  13.883 -0.3879  0.6069  0.0912
 5361SOL    HW127716   0.315   2.712  13.930 -0.4278  0.2471 -0.3022
 5361SOL    HW227717   0.277   2.746  13.793 -0.0692  1.2878 -0.0023
 5362SOL     OW27718   4.715   4.207  12.491  0.0804 -0.0394 -0.0554
 5362SOL    HW127719   0.016   4.173  12.411  0.7538  1.9570 -0.5667
 5362SOL    HW227720   4.654   4.275  12.461  0.8344  0.0124 -1.4536
 5363SOL     OW27721   2.235   1.084   8.639 -0.6300  0.1364 -0.6848
 5363SOL    HW127722   2.259   1.080   8.547  0.1315 -0.5990 -0.4595
 5363SOL    HW227723   2.294   1.156   8.664 -0.0199 -0.9447  1.0618
 5364SOL     OW27724   3.235   3.876   4.907 -0.2274 -0.2552  0.0139
 5364SOL    HW127725   3.319   3.914   4.880  0.3444 -0.9881  0.7481
 5364SOL    HW227726   3.174   3.943   4.874 -2.5395 -1.9846  0.8101
 5365SOL     OW27727   3.293   4.670   9.716 -0.3424 -0.4392 -0.0448
 5365SOL    HW127728   3.313   4.580   9.690 -1.0836 -1.1146  1.6963
 5365SOL    HW227729   3.201   4.682   9.693 -0.0340  1.9604  0.0153
 5366SOL     OW27730   1.819   1.274  17.524  0.2212  0.0497 -0.1721
 5366SOL    HW127731   1.903   1.318  17.510  0.9844 -1.4222 -0.2038
 5366SOL    HW227732   1.859   1.191  17.550 -1.7723 -1.3259 -1.4977
 5367SOL     OW27733   4.428   0.681   6.221 -0.1467  0.4454  0.2528
 5367SOL    HW127734   4.493   0.717   6.281 -1.3590  2.1744  0.5226
 5367SOL    HW227735   4.466   0.594   6.211 -0.4666  0.2540  0.7258
 5368SOL     OW27736   1.294   4.671   3.624 -0.3040 -0.1422 -0.1223
 5368SOL    HW127737   1.211   4.714   3.605  0.2429  0.0676 -2.0457
 5368SOL    HW227738   1.260   4.627   3.701  0.3570  1.0382  0.8459
 5369SOL     OW27739   0.081   3.028   3.221 -0.9071  0.5593 -0.1659
 5369SOL    HW127740   0.073   3.028   3.316  0.5940 -0.9434 -0.0217
 5369SOL    HW227741   0.134   3.107   3.214  0.7924 -0.5132  0.3684
 5370SOL     OW27742   1.827   3.360   5.599  0.1577 -0.0690 -0.0836
 5370SOL    HW127743   1.796   3.450   5.587 -1.1765 -0.6720 -1.2637
 5370SOL    HW227744   1.783   3.336   5.680  0.0750 -1.2560 -0.4760
 5371SOL     OW27745   1.995   3.933   3.691  0.3361 -0.0302 -0.2505
 5371SOL    HW127746   2.089   3.925   3.705  0.1566 -2.2341 -0.3464
 5371SOL    HW227747   1.952   3.851   3.714 -0.8842  0.5173 -0.5643
 5372SOL     OW27748   0.761   2.475  13.686  0.4174 -0.1821  0.6170
 5372SOL    HW127749   0.711   2.404  13.647  0.5026 -0.6835  1.4140
 5372SOL    HW227750   0.693   2.528  13.728 -0.2963 -0.4620 -0.1847
 5373SOL     OW27751   2.595   0.157   4.612 -0.4222 -0.1544 -0.1539
 5373SOL    HW127752   2.618   0.248   4.627 -0.1333 -0.1573 -0.5966
 5373SOL    HW227753   2.604   0.139   4.519  2.6844 -1.1268  0.3427
 5374SOL     OW27754   2.221   3.483   1.147 -0.2707  0.0098 -0.5887
 5374SOL    HW127755   2.127   3.479   1.165 -0.2007  3.2164  0.3605
 5374SOL    HW227756   2.215   3.485   1.052 -1.3743 -0.0374 -0.5203
 5375SOL     OW27757   1.588   1.826   2.024  0.4541 -0.4898 -0.6063
 5375SOL    HW127758   1.582   1.736   1.991  0.1164 -0.9230  0.6403
 5375SOL    HW227759   1.632   1.820   2.109  0.8257 -0.8857 -0.8237
 5376SOL     OW27760   1.437   1.634  13.728  0.6095 -0.1242 -0.0876
 5376SOL    HW127761   1.415   1.718  13.686  0.1588 -1.9400 -3.4490
 5376SOL    HW227762   1.446   1.579  13.650  1.4147  2.3672 -1.7596
 5377SOL     OW27763   1.792   0.830   9.635 -0.1214 -0.0739  0.0444
 5377SOL    HW127764   1.731   0.810   9.706  0.2811 -1.0115  0.1255
 5377SOL    HW227765   1.852   0.893   9.676  0.5960 -0.2018 -0.8105
 5378SOL     OW27766   0.163   2.300   2.837 -0.1925  0.4184 -1.0191
 5378SOL    HW127767   0.212   2.337   2.764 -2.1371 -0.9375 -2.9742
 5378SOL    HW227768   0.161   2.377   2.895  0.8434 -0.2643 -0.0701
 5379SOL     OW27769   1.031   4.384  16.691 -0.2193  0.2218  0.1495
 5379SOL    HW127770   1.024   4.473  16.725 -1.8302 -0.8720  2.7343
 5379SOL    HW227771   0.937   4.378  16.675 -0.6674 -3.3203  4.0081
 5380SOL     OW27772   0.230   2.365  12.811  0.3829 -0.4329 -0.1664
 5380SOL    HW127773   0.197   2.305  12.744 -3.6530 -1.0142  2.3831
 5380SOL    HW227774   0.272   2.298  12.864  0.1112  1.4031  2.3477
 5381SOL     OW27775   0.811   3.448   2.410 -0.6666 -0.1286  0.3144
 5381SOL    HW127776   0.904   3.453   2.385 -0.4032  0.5319  1.4236
 5381SOL    HW227777   0.766   3.459   2.327 -1.7824 -1.2424  0.7835
 5382SOL     OW27778   1.716   4.621  17.062 -0.5930  0.9264 -0.3856
 5382SOL    HW127779   1.665   4.702  17.070  0.0072  1.2937 -0.2698
 5382SOL    HW227780   1.797   4.652  17.021  0.2960  1.2282  1.6034
 5383SOL     OW27781   4.301   4.483   3.132  0.2807 -0.2563 -0.0609
 5383SOL    HW127782   4.228   4.543   3.116 -0.7572 -1.4468  0.2437
 5383SOL    HW227783   4.381   4.535   3.135 -0.0800  0.3341 -0.6272
 5384SOL     OW27784   1.576   2.814   7.432  0.0989 -0.0403 -0.0164
 5384SOL    HW127785   1.670   2.807   7.416  0.2323  0.9520  0.3190
 5384SOL    HW227786   1.562   2.880   7.501 -1.0867 -0.1723 -0.1176
 5385SOL     OW27787   2.265   1.070   3.062  0.1186 -0.6129  0.6324
 5385SOL    HW127788   2.310   0.986   3.055 -1.3599 -1.3323 -0.0152
 5385SOL    HW227789   2.266   1.103   2.972  1.5794 -1.0670  0.4723
 5386SOL     OW27790   4.705   3.984  15.437  0.1879  0.8249 -0.6715
 5386SOL    HW127791   0.039   4.003  15.376 -0.6111  2.4626 -1.1175
 5386SOL    HW227792   4.632   4.012  15.382 -0.6217 -1.3076 -0.6527
 5387SOL     OW27793   0.228   4.265   7.998 -0.3667 -0.1528 -0.7020
 5387SOL    HW127794   0.165   4.337   7.994  0.8157  0.8932 -0.4584
 5387SOL    HW227795   0.242   4.255   8.092 -1.1770 -2.7114 -0.8680
 5388SOL     OW27796   2.339   0.142   8.495 -0.3229 -0.1274  0.2733
 5388SOL    HW127797   2.244   0.135   8.497 -0.3927  0.0001 -2.5333
 5388SOL    HW227798   2.356   0.222   8.546 -1.8352  1.2590 -1.4079
 5389SOL     OW27799   0.786   1.023  13.209 -0.2330  0.2145  0.2162
 5389SOL    HW127800   0.791   0.929  13.226  0.4198  0.4787  1.5040
 5389SOL    HW227801   0.774   1.013  13.115  0.0071  1.3595  0.0604
 5390SOL     OW27802   2.887   1.055   8.007  0.0698  0.0437 -0.2326
 5390SOL    HW127803   2.950   1.124   8.023 -0.4188  0.5467 -0.4825
 5390SOL    HW227804   2.843   1.087   7.928 -2.1344  0.5063  1.1659
 5391SOL     OW27805   3.644   0.042  16.920  0.2383  0.5499  0.5408
 5391SOL    HW127806   3.725   0.002  16.888  0.0001 -0.5998  1.3563
 5391SOL    HW227807   3.573   0.013  16.862  0.0995  0.4991  0.7369
 5392SOL     OW27808   3.872   4.536  12.145 -0.4932 -0.4278 -0.0922
 5392SOL    HW127809   3.881   4.620  12.190 -3.0339  0.1754 -0.7048
 5392SOL    HW227810   3.921   4.561  12.067  2.8669 -1.7142  1.5839
 5393SOL     OW27811   1.083   0.894   7.951 -0.2425  0.0398  0.1339
 5393SOL    HW127812   0.997   0.929   7.975 -0.1688 -1.6778  2.9475
 5393SOL    HW227813   1.126   0.898   8.037  1.1669  1.5466 -0.6488
 5394SOL     OW27814   3.486   2.993   2.513 -0.5150 -0.4026 -0.3160
 5394SOL    HW127815   3.525   3.068   2.558 -0.7246  0.6134 -1.8022
 5394SOL    HW227816   3.391   3.002   2.516 -0.5930 -1.0097 -0.8773
 5395SOL     OW27817   0.696   1.835   3.355  0.9840  0.1407  0.0364
 5395SOL    HW127818   0.730   1.776   3.422  1.1119  0.4519  0.2401
 5395SOL    HW227819   0.695   1.921   3.396  2.6976 -0.5525  1.5072
 5396SOL     OW27820   0.647   0.183   9.694 -0.1661 -0.3113 -0.6717
 5396SOL    HW127821   0.583   0.200   9.764  0.0436  1.9644 -1.0306
 5396SOL    HW227822   0.696   0.264   9.709 -0.7852 -0.2042  0.8510
 5397SOL     OW27823   0.145   0.114  13.603  0.2434  0.5912 -0.4875
 5397SOL    HW127824   0.110   0.052  13.668 -3.6286  1.2387 -1.9624
 5397SOL    HW227825   0.237   0.098  13.625 -0.3274 -1.7977  0.1037
 5398SOL     OW27826   2.722   0.300   3.569 -0.2630 -0.3673 -0.2493
 5398SOL    HW127827   2.731   0.369   3.634 -0.6124 -0.8617  0.3278
 5398SOL    HW227828   2.763   0.231   3.622 -0.5256  0.8549  1.5091
 5399SOL     OW27829   1.066   0.694  16.858  0.0441  0.5005  0.1363
 5399SOL    HW127830   1.038   0.611  16.897 -0.3601  0.2494 -0.6826
 5399SOL    HW227831   1.017   0.692  16.775 -0.3480 -0.3554  0.3795
 5400SOL     OW27832   2.663   0.091   4.325  0.2169  0.0708 -0.2733
 5400SOL    HW127833   2.567   0.093   4.325  0.1707 -1.8995 -0.3275
 5400SOL    HW227834   2.682   0.182   4.300  0.4114  0.4801  1.3446
 5401SOL     OW27835   4.280   3.643  15.597 -0.7605 -0.3354 -0.6093
 5401SOL    HW127836   4.333   3.621  15.520  0.6266 -1.7262  0.7595
 5401SOL    HW227837   4.196   3.648  15.550 -1.3453  0.8743  0.5475
 5402SOL     OW27838   2.446   2.136   9.865  0.2813  0.0296 -0.3426
 5402SOL    HW127839   2.370   2.137   9.924  0.3446 -2.0154 -0.2212
 5402SOL    HW227840   2.497   2.197   9.918 -0.4530  0.2890  0.0684
 5403SOL     OW27841   3.664   0.143   2.954  0.3156 -0.6819  0.4767
 5403SOL    HW127842   3.650   0.095   2.872 -1.3115  0.1502  0.2661
 5403SOL    HW227843   3.614   0.224   2.951  1.0601 -0.2900 -1.3376
 5404SOL     OW27844   3.927   1.340   8.650  0.4569 -0.3888 -0.1102
 5404SOL    HW127845   3.967   1.270   8.701  0.8531  0.7158  1.0797
 5404SOL    HW227846   3.849   1.310   8.603 -0.8010  1.9749  0.4728
 5405SOL     OW27847   1.970   2.209   3.086  0.2608  0.3835 -0.1586
 5405SOL    HW127848   1.971   2.296   3.124  0.8149  0.3434 -0.0847
 5405SOL    HW227849   2.062   2.203   3.112  0.5724  0.4436 -1.2454
 5406SOL     OW27850   3.759   1.385   6.312  0.8210 -0.6760 -0.6916
 5406SOL    HW127851   3.806   1.463   6.282  0.7541 -1.0754 -1.8124
 5406SOL    HW227852   3.823   1.344   6.370  1.4960  0.2903 -0.7386
 5407SOL     OW27853   3.502   3.643  13.054  0.0676 -0.0379 -0.5400
 5407SOL    HW127854   3.581   3.665  13.004  1.2847 -0.1674  1.3278
 5407SOL    HW227855   3.506   3.548  13.062 -0.0396 -0.2403 -2.9017
 5408SOL     OW27856   2.213   3.051   9.735 -0.4295  0.5463 -0.3275
 5408SOL    HW127857   2.260   2.970   9.719 -0.0633  0.7708 -0.3723
 5408SOL    HW227858   2.123   3.023   9.716 -0.5466  0.0333  0.9198
 5409SOL     OW27859   2.876   0.159   4.677 -0.4524 -0.2029  0.0988
 5409SOL    HW127860   2.836   0.246   4.682  0.5450  0.2617 -0.0503
 5409SOL    HW227861   2.804   0.102   4.649 -0.0545 -0.2725 -0.7799
 5410SOL     OW27862   1.857   1.177   4.795 -0.6865  0.6879  0.0143
 5410SOL    HW127863   1.794   1.201   4.727 -1.4628 -1.6018 -0.0865
 5410SOL    HW227864   1.824   1.088   4.809 -0.5725  0.9939  2.2365
 5411SOL     OW27865   3.920   2.248   1.135 -0.0247  0.6160 -0.0608
 5411SOL    HW127866   4.014   2.243   1.151 -0.0533  1.0403  0.2296
 5411SOL    HW227867   3.904   2.158   1.106 -2.1532  1.2255 -0.8066
 5412SOL     OW27868   0.354   2.636   7.960  0.2500  0.1869 -0.2784
 5412SOL    HW127869   0.335   2.605   8.048  1.6860  0.0974 -0.0020
 5412SOL    HW227870   0.342   2.555   7.910 -0.4107 -1.9361  3.3355
 5413SOL     OW27871   2.957   1.314  12.535 -0.1245 -0.3921  0.3623
 5413SOL    HW127872   2.877   1.306  12.586 -1.1755  0.3673 -1.1710
 5413SOL    HW227873   2.971   1.225  12.502  0.0279 -0.4638  0.6219
 5414SOL     OW27874   3.865   0.230   4.355 -0.5394  0.2044 -0.2064
 5414SOL    HW127875   3.780   0.188   4.365  0.0035 -1.1078 -1.1810
 5414SOL    HW227876   3.925   0.169   4.399 -2.5394  0.7571  3.3152
 5415SOL     OW27877   3.515   0.217   5.118  0.1990  0.2188  0.1575
 5415SOL    HW127878   3.485   0.144   5.064 -0.0722  1.2871 -1.1387
 5415SOL    HW227879   3.562   0.167   5.185 -2.6289 -0.1120  1.8658
 5416SOL     OW27880   0.935   3.936   7.220  0.1393  0.2089 -0.2110
 5416SOL    HW127881   0.977   3.868   7.169  0.3162  0.9657 -1.0748
 5416SOL    HW227882   0.896   3.893   7.296  2.8334  1.9204  2.1592
 5417SOL     OW27883   3.006   0.121   2.444  0.0174 -0.5159 -0.1260
 5417SOL    HW127884   3.074   0.057   2.466  1.2861  0.6424 -0.6717
 5417SOL    HW227885   2.933   0.059   2.437  1.4473 -2.3820  1.5824
 5418SOL     OW27886   2.669   1.075   6.686  0.5875  0.2183 -0.2495
 5418SOL    HW127887   2.748   1.115   6.723  0.7738  0.3167 -0.7479
 5418SOL    HW227888   2.682   0.982   6.705 -0.3025  0.0715 -0.3871
 5419SOL     OW27889   3.049   4.674   1.521  0.0721  0.3120  0.8972
 5419SOL    HW127890   2.959   4.700   1.501 -0.5730  0.6892  4.2117
 5419SOL    HW227891   3.095   0.019   1.520  0.8177 -0.1667 -3.6224
 5420SOL     OW27892   4.040   3.977   5.049  0.3950  0.5777  0.2980
 5420SOL    HW127893   4.096   3.902   5.027  0.6689  0.0426  2.9104
 5420SOL    HW227894   4.091   4.040   5.100  0.7624  2.0202 -1.8295
 5421SOL     OW27895   2.622   2.776   0.512 -0.3973 -0.6598  0.2807
 5421SOL    HW127896   2.685   2.727   0.459 -0.6561 -0.8407  0.1402
 5421SOL    HW227897   2.574   2.707   0.558 -0.1950 -1.9900 -1.4982
 5422SOL     OW27898   0.235   2.856   4.017 -0.2564 -0.7428  0.0426
 5422SOL    HW127899   0.154   2.893   4.050 -0.6736 -1.2207 -0.4341
 5422SOL    HW227900   0.295   2.916   4.062  0.2100 -1.3212  0.1937
 5423SOL     OW27901   0.262   3.259   6.287  0.4663  0.1595  0.0419
 5423SOL    HW127902   0.329   3.302   6.341 -0.1988  1.9598 -0.6075
 5423SOL    HW227903   0.232   3.325   6.226 -2.0450 -1.6334 -0.6612
 5424SOL     OW27904   3.794   2.663   3.468  0.3566  0.3712  0.9492
 5424SOL    HW127905   3.736   2.687   3.395 -0.5686  0.4374  1.7059
 5424SOL    HW227906   3.787   2.747   3.514 -0.4751  0.5998  0.4078
 5425SOL     OW27907   2.670   3.318   8.742 -0.3068  0.1340 -0.5218
 5425SOL    HW127908   2.668   3.376   8.818 -0.6922  2.4273 -2.3014
 5425SOL    HW227909   2.624   3.365   8.673  0.4319 -0.3655 -1.3574
 5426SOL     OW27910   4.045   1.453   0.860  0.3048 -0.1700  0.3507
 5426SOL    HW127911   4.137   1.471   0.880  0.5394 -0.2189 -0.6865
 5426SOL    HW227912   4.050   1.430   0.767  0.0117 -0.3927  0.3908
 5427SOL     OW27913   2.143   4.068   5.132  0.2618 -0.8822  0.0012
 5427SOL    HW127914   2.184   4.142   5.088 -2.4921  0.1490 -0.8109
 5427SOL    HW227915   2.220   4.028   5.173 -0.7058  0.3088  2.9704
 5428SOL     OW27916   0.821   1.375  11.486 -0.3903 -0.1945 -0.8724
 5428SOL    HW127917   0.775   1.344  11.408 -2.5077  1.6487 -0.3374
 5428SOL    HW227918   0.826   1.298  11.543 -0.9647  0.6527  0.2973
 5429SOL     OW27919   4.607   3.511   8.375 -0.0015 -0.5059  0.2110
 5429SOL    HW127920   4.623   3.505   8.470 -0.0364  1.3187  0.3473
 5429SOL    HW227921   4.678   3.458   8.340  0.0102  0.9022 -1.9252
 5430SOL     OW27922   0.525   4.180   6.947  0.2246  0.0641 -0.4250
 5430SOL    HW127923   0.604   4.171   7.000  0.9608  0.5185 -1.4444
 5430SOL    HW227924   0.493   4.261   6.987 -0.7993 -1.4787  1.9235
 5431SOL     OW27925   3.965   1.101   9.565  0.2386  0.2363 -0.3629
 5431SOL    HW127926   3.939   1.010   9.572  1.0503 -0.1618 -2.7941
 5431SOL    HW227927   3.970   1.118   9.660 -3.2427  2.3811 -0.5778
 5432SOL     OW27928   2.039   1.477   6.272 -0.2730 -0.6161 -0.3432
 5432SOL    HW127929   2.049   1.486   6.367 -2.6042  0.6035 -0.2086
 5432SOL    HW227930   2.068   1.563   6.242 -2.6313  0.1530 -0.4914
 5433SOL     OW27931   0.819   2.779   2.990 -0.2971 -0.1259  0.1210
 5433SOL    HW127932   0.912   2.759   2.982  0.2350  1.8517  1.3528
 5433SOL    HW227933   0.812   2.835   3.067 -1.1692  1.0011 -0.7830
 5434SOL     OW27934   1.059   2.690   7.148  0.0269 -0.6392  0.3945
 5434SOL    HW127935   1.027   2.599   7.151  1.9206 -1.1500  4.7867
 5434SOL    HW227936   1.145   2.674   7.187  1.0555  0.2917 -1.4875
 5435SOL     OW27937   2.820   3.640   1.179  0.3850 -0.4772  0.0580
 5435SOL    HW127938   2.765   3.578   1.132 -0.0369 -0.3960  0.4467
 5435SOL    HW227939   2.775   3.722   1.162  0.8017  0.6913  4.4425
 5436SOL     OW27940   1.646   4.591   5.011  0.2310 -0.9301  0.6478
 5436SOL    HW127941   1.574   4.543   4.970 -0.6253  0.9638 -0.0481
 5436SOL    HW227942   1.602   4.617   5.091  2.1194  1.6617  0.8688
 5437SOL     OW27943   3.152   1.040   2.606 -0.6340  0.4060 -0.4206
 5437SOL    HW127944   3.216   1.085   2.661 -0.0501 -1.1562  0.2016
 5437SOL    HW227945   3.211   1.026   2.531  1.8403 -0.6752  1.6955
 5438SOL     OW27946   0.097   0.617   8.414  0.3123 -0.2371  0.2021
 5438SOL    HW127947   0.124   0.683   8.350 -0.4208 -0.2013 -0.0621
 5438SOL    HW227948   0.167   0.602   8.478  1.3597 -0.0068 -0.8836
 5439SOL     OW27949   3.232   2.963   9.405  0.4106  0.1637 -0.0046
 5439SOL    HW127950   3.212   3.015   9.483  0.3927  0.3475 -0.1307
 5439SOL    HW227951   3.323   2.939   9.417  0.1285 -0.0727  1.6111
 5440SOL     OW27952   4.426   2.162   2.957  0.4401 -0.6090  0.1038
 5440SOL    HW127953   4.484   2.104   2.908  1.8978  0.1108  0.9930
 5440SOL    HW227954   4.482   2.182   3.032  0.4951  0.3981 -0.2062
 5441SOL     OW27955   3.387   2.764   2.196 -0.5519  0.0269  0.0939
 5441SOL    HW127956   3.462   2.818   2.220  1.5428 -3.1599  0.7471
 5441SOL    HW227957   3.434   2.683   2.177  1.3794  1.0666  0.4515
 5442SOL     OW27958   3.766   0.700   3.476  0.2781  0.2239  0.0574
 5442SOL    HW127959   3.829   0.733   3.412 -1.0488 -1.1004 -1.9166
 5442SOL    HW227960   3.758   0.775   3.535  2.2803 -0.4761  1.2497
 5443SOL     OW27961   2.246   4.044   1.757  0.1260 -0.1400 -0.1694
 5443SOL    HW127962   2.184   4.085   1.697  1.5455  1.4922 -0.5041
 5443SOL    HW227963   2.231   3.955   1.725  0.5992 -0.8257  1.4947
 5444SOL     OW27964   2.226   3.559   3.723  0.4260 -0.6116 -0.3686
 5444SOL    HW127965   2.282   3.530   3.651 -1.6995  0.1947 -2.3481
 5444SOL    HW227966   2.214   3.651   3.700 -0.5051 -0.4442  0.7235
 5445SOL     OW27967   0.267   1.647   0.923 -0.6322 -0.2130  0.1383
 5445SOL    HW127968   0.212   1.597   0.863 -1.7056  0.8868  0.2006
 5445SOL    HW227969   0.205   1.654   0.996 -1.8733  0.9560 -1.0355
 5446SOL     OW27970   0.218   2.937   6.049 -0.7442  0.0686 -0.2680
 5446SOL    HW127971   0.235   2.957   5.957 -0.4714  2.0386  0.2240
 5446SOL    HW227972   0.302   2.951   6.092 -1.6026 -1.0362  1.7769
 5447SOL     OW27973   3.760   1.885  11.899 -0.5253 -0.1603  0.5655
 5447SOL    HW127974   3.684   1.828  11.892 -0.1031 -0.8908  1.8556
 5447SOL    HW227975   3.719   1.969  11.881 -0.6842 -0.5802 -1.0062
 5448SOL     OW27976   2.840   4.047   8.326  0.1997 -0.5684 -0.6643
 5448SOL    HW127977   2.872   3.960   8.351  2.4523 -0.2968 -2.7016
 5448SOL    HW227978   2.917   4.077   8.278  1.7273 -1.1883  1.3848
 5449SOL     OW27979   3.810   0.746  15.188 -0.1530 -0.4048 -0.8236
 5449SOL    HW127980   3.792   0.789  15.272  0.8343  0.8923 -1.2766
 5449SOL    HW227981   3.858   0.814  15.141 -0.5862 -0.0713 -0.7821
 5450SOL     OW27982   1.441   3.160   5.974 -0.2900  0.1260 -0.7198
 5450SOL    HW127983   1.400   3.084   6.015 -3.0942  1.9647 -0.0797
 5450SOL    HW227984   1.376   3.230   5.966  0.5972  0.8080 -1.9860
 5451SOL     OW27985   3.524   0.897   8.682 -0.3051 -0.0625 -0.0790
 5451SOL    HW127986   3.610   0.859   8.695 -0.4649 -0.0455  0.9933
 5451SOL    HW227987   3.474   0.834   8.630 -1.1219  0.7687 -0.3158
 5452SOL     OW27988   3.997   2.001  12.172 -0.2829  0.0735  0.0974
 5452SOL    HW127989   4.021   2.093  12.156 -3.7586  0.7659 -1.0590
 5452SOL    HW227990   3.918   2.004  12.225 -0.0847  0.8914  0.3540
 5453SOL     OW27991   0.914   0.830   3.040  0.4833  0.2678  0.1625
 5453SOL    HW127992   0.916   0.824   3.136 -1.0993 -1.2013  0.1075
 5453SOL    HW227993   0.988   0.770   3.029  0.9541  0.6226  1.3775
 5454SOL     OW27994   0.366   3.248   3.592 -0.0311  0.4702  1.0281
 5454SOL    HW127995   0.444   3.259   3.538 -0.7911 -4.2167 -1.0535
 5454SOL    HW227996   0.300   3.305   3.552  0.4944 -0.9181 -1.7884
 5455SOL     OW27997   4.018   2.366   3.426 -0.1258 -0.5745  0.1913
 5455SOL    HW127998   4.024   2.298   3.493  0.3573 -0.9278 -0.2106
 5455SOL    HW227999   4.109   2.368   3.395 -0.6888 -0.2692 -1.4225
 5456SOL     OW28000   0.746   0.759  16.176  0.0436 -0.3417 -0.3718
 5456SOL    HW128001   0.834   0.744  16.211 -0.6508  0.4594  1.7015
 5456SOL    HW228002   0.734   0.853  16.182 -0.7319 -0.3541 -1.7747
 5457SOL     OW28003   3.527   2.782  16.941  0.2294  0.0887  0.6253
 5457SOL    HW128004   3.443   2.784  16.987 -0.3004 -1.3556 -0.2848
 5457SOL    HW228005   3.570   2.856  16.983  1.0872 -0.0591  0.0195
 5458SOL     OW28006   2.593   4.187   6.125  0.4114 -0.2172  0.0709
 5458SOL    HW128007   2.565   4.187   6.033  0.6893 -0.2309 -0.0116
 5458SOL    HW228008   2.684   4.159   6.125  1.3815  2.9179 -1.0075
 5459SOL     OW28009   3.211   0.641   3.089  0.1732 -0.1434  0.0818
 5459SOL    HW128010   3.178   0.553   3.070  0.5876 -0.2359 -0.2036
 5459SOL    HW228011   3.304   0.622   3.089  0.4699  1.2669  0.2347
 5460SOL     OW28012   0.818   1.908  14.919  0.2076  0.3377 -0.1901
 5460SOL    HW128013   0.897   1.856  14.909 -0.1152  0.0622 -1.4200
 5460SOL    HW228014   0.835   1.961  14.996 -0.0664 -0.2733  0.2902
 5461SOL     OW28015   4.712   4.112   4.459 -0.4089  0.2950  0.4418
 5461SOL    HW128016   4.669   4.092   4.542 -2.4025  2.0507 -0.1734
 5461SOL    HW228017   4.653   4.063   4.402 -0.7268  0.4413  0.6437
 5462SOL     OW28018   2.862   0.748   9.126 -0.0170  0.3935  0.3556
 5462SOL    HW128019   2.895   0.667   9.167 -2.1529 -0.7269 -0.1444
 5462SOL    HW228020   2.922   0.806   9.173  0.2015  1.1316 -0.8348
 5463SOL     OW28021   4.310   2.180  11.126  0.7843  0.2189 -0.4178
 5463SOL    HW128022   4.260   2.141  11.054  1.7573 -0.7988 -0.5358
 5463SOL    HW228023   4.248   2.173  11.198  1.1619  0.6355 -0.0545
 5464SOL     OW28024   4.458   4.153   1.390  0.0806 -0.2756  0.5316
 5464SOL    HW128025   4.404   4.100   1.331 -0.7937 -0.0755  1.1531
 5464SOL    HW228026   4.438   4.240   1.355 -0.6202 -1.4237 -1.9773
 5465SOL     OW28027   0.904   2.625   7.702 -0.3130 -0.2322  0.0912
 5465SOL    HW128028   0.933   2.557   7.763  0.0927  0.9090  1.1699
 5465SOL    HW228029   0.979   2.683   7.685  1.3116 -2.2448  0.3362
 5466SOL     OW28030   1.486   4.366   6.172  0.2977  0.4911  0.1092
 5466SOL    HW128031   1.488   4.335   6.081 -2.5976  0.8521 -0.0888
 5466SOL    HW228032   1.580   4.359   6.188  0.3567  0.7994 -0.0942
 5467SOL     OW28033   0.569   3.083   3.196 -0.3627  0.1094  0.8349
 5467SOL    HW128034   0.494   3.142   3.193  0.0834  0.5586 -0.9165
 5467SOL    HW228035   0.590   3.082   3.103 -1.2431 -3.0870  0.6575
 5468SOL     OW28036   1.900   3.503   4.223 -1.4511  0.0561 -0.0462
 5468SOL    HW128037   1.985   3.534   4.254 -0.7522 -2.0083  0.1202
 5468SOL    HW228038   1.925   3.429   4.167 -1.0484  0.3935 -0.3091
 5469SOL     OW28039   1.788   3.824  12.667 -0.0447 -0.5397  0.0354
 5469SOL    HW128040   1.835   3.769  12.604 -1.8543 -0.7264 -1.1606
 5469SOL    HW228041   1.742   3.878  12.603  2.3768  1.9252  0.4217
 5470SOL     OW28042   2.470   4.198   4.431 -0.3453 -0.1698 -0.6141
 5470SOL    HW128043   2.410   4.271   4.448  1.6447  1.5798 -1.0890
 5470SOL    HW228044   2.436   4.141   4.500  1.0875 -0.4765 -0.1569
 5471SOL     OW28045   2.403   3.681   9.647 -0.2487 -0.0484  0.0381
 5471SOL    HW128046   2.341   3.754   9.652 -0.5366 -0.2260 -0.9278
 5471SOL    HW228047   2.475   3.714   9.700 -0.6914  1.3987 -0.2506
 5472SOL     OW28048   2.702   4.040   3.260  0.2766 -0.6268  0.0465
 5472SOL    HW128049   2.672   4.121   3.217 -1.5563 -2.5640 -2.3215
 5472SOL    HW228050   2.663   3.980   3.196 -1.6180  0.7946 -0.1656
 5473SOL     OW28051   3.330   3.130  11.391  0.0582  0.0438  0.0127
 5473SOL    HW128052   3.400   3.076  11.426 -0.4262 -0.5054  0.1395
 5473SOL    HW228053   3.361   3.215  11.422  1.3272 -0.8661  1.2755
 5474SOL     OW28054   3.326   3.115   1.487  0.4013  0.7213 -0.6672
 5474SOL    HW128055   3.289   3.201   1.507 -0.7162  0.2847 -0.8945
 5474SOL    HW228056   3.321   3.118   1.392  0.5219  2.0610 -0.6321
 5475SOL     OW28057   3.769   0.798   1.357 -0.4072 -0.5987 -0.8192
 5475SOL    HW128058   3.721   0.837   1.430 -1.0311 -4.1278  0.6516
 5475SOL    HW228059   3.854   0.840   1.372 -0.5794 -0.7000  0.4487
 5476SOL     OW28060   0.441   4.221   7.852  0.5069  0.4234 -0.0540
 5476SOL    HW128061   0.518   4.249   7.900  1.5082 -1.4973 -0.5515
 5476SOL    HW228062   0.369   4.242   7.912 -0.1743  1.6334 -1.2831
 5477SOL     OW28063   0.382   2.769   2.446 -0.0060 -0.2878  0.0102
 5477SOL    HW128064   0.370   2.760   2.352  0.0438  0.3814 -0.0575
 5477SOL    HW228065   0.333   2.850   2.457 -0.4028 -0.7924  2.0015
 5478SOL     OW28066   2.739   1.480  11.588  0.1844 -0.3620  0.1196
 5478SOL    HW128067   2.709   1.453  11.675  2.8545  0.0001  1.1677
 5478SOL    HW228068   2.675   1.436  11.533 -0.5874 -0.2067  0.9041
 5479SOL     OW28069   4.583   2.610   8.179 -0.5393 -0.1292  0.5416
 5479SOL    HW128070   4.587   2.521   8.216  0.8903 -0.3763 -0.1992
 5479SOL    HW228071   4.551   2.656   8.257  0.4932  0.1239  0.8080
 5480SOL     OW28072   1.540   0.005  17.284 -0.2124 -0.4638  0.0245
 5480SOL    HW128073   1.522   0.046  17.369 -0.1084 -2.2078  0.9017
 5480SOL    HW228074   1.628   4.707  17.300  2.1835  4.4612 -2.1887
 5481SOL     OW28075   3.006   4.354   3.662 -0.0037 -0.0345 -0.1300
 5481SOL    HW128076   2.977   4.290   3.726  0.3431 -0.0606  0.0007
 5481SOL    HW228077   3.076   4.303   3.623  0.5194 -0.0762  0.8582
 5482SOL     OW28078   3.794   2.485   4.905  0.7202  0.6243  0.0153
 5482SOL    HW128079   3.772   2.573   4.936 -0.1360 -0.2369  1.8112
 5482SOL    HW228080   3.862   2.513   4.842 -1.4125 -0.0794 -2.6038
 5483SOL     OW28081   2.700   0.369  14.248 -0.3846 -0.1496 -0.3902
 5483SOL    HW128082   2.716   0.308  14.176 -0.4349 -1.2724  0.5495
 5483SOL    HW228083   2.701   0.455  14.206  0.2222  0.0793  0.0989
 5484SOL     OW28084   0.637   1.022  16.182  0.3110 -0.1073  0.6746
 5484SOL    HW128085   0.595   1.022  16.096 -0.4646 -1.3718  1.0521
 5484SOL    HW228086   0.604   1.103  16.221  2.8081 -0.2209  3.0202
 5485SOL     OW28087   0.906   3.496   8.287 -0.3329 -0.0710 -0.4179
 5485SOL    HW128088   0.960   3.417   8.287 -0.2642 -0.0300  0.1214
 5485SOL    HW228089   0.817   3.471   8.310 -0.3909 -0.9188 -1.5750
 5486SOL     OW28090   4.429   3.676   7.214 -0.2379  0.0361  0.0693
 5486SOL    HW128091   4.334   3.669   7.207 -0.1185  0.7435 -2.1177
 5486SOL    HW228092   4.448   3.615   7.286 -1.0621 -0.0263  0.2391
 5487SOL     OW28093   3.872   3.614   2.185 -0.0301  0.6850 -0.6768
 5487SOL    HW128094   3.877   3.575   2.273 -0.6832  1.5807 -0.2377
 5487SOL    HW228095   3.842   3.542   2.130 -0.1122 -0.3128  0.6614
 5488SOL     OW28096   2.681   1.999   8.561  0.6383 -0.1776  0.5923
 5488SOL    HW128097   2.636   2.080   8.584 -0.7808  0.0486 -2.8754
 5488SOL    HW228098   2.610   1.943   8.530  0.3747  0.9091 -0.7845
 5489SOL     OW28099   2.852   4.180   8.806  0.3345 -0.7311  0.3798
 5489SOL    HW128100   2.831   4.181   8.899 -1.5647  2.2694 -0.0774
 5489SOL    HW228101   2.876   4.088   8.797  0.9301 -0.8827  3.5100
 5490SOL     OW28102   4.002   2.408   2.772  0.4791 -0.1457  0.3534
 5490SOL    HW128103   4.045   2.440   2.692  0.3191 -2.1550 -0.5288
 5490SOL    HW228104   4.064   2.337   2.787 -1.9778 -1.7699  2.9489
 5491SOL     OW28105   4.075   3.189   4.924  0.0544 -0.2597 -0.0615
 5491SOL    HW128106   3.985   3.222   4.923  0.1665  0.0540  0.9305
 5491SOL    HW228107   4.093   3.179   4.830  0.9780  3.1658 -0.2780
 5492SOL     OW28108   0.086   1.209  16.756 -0.3421 -0.0071  0.1574
 5492SOL    HW128109   0.105   1.146  16.825 -1.9615 -0.1240  0.5080
 5492SOL    HW228110   0.033   1.268  16.809 -2.9794 -1.7340 -0.5246
 5493SOL     OW28111   0.403   1.032   2.749  0.1562 -0.4735  0.5221
 5493SOL    HW128112   0.430   1.099   2.812  1.3771 -0.7270  0.2700
 5493SOL    HW228113   0.450   0.956   2.783  0.7244 -0.1442  0.4675
 5494SOL     OW28114   1.131   3.951   5.567 -0.0617 -1.3583 -0.2145
 5494SOL    HW128115   1.186   3.904   5.504  0.3327 -0.0327 -0.8529
 5494SOL    HW228116   1.114   4.034   5.522  2.6281 -1.4246 -1.3679
 5495SOL     OW28117   2.179   0.757   7.197 -0.1333 -0.2333  0.2561
 5495SOL    HW128118   2.184   0.674   7.150  0.6279 -0.9453  1.5903
 5495SOL    HW228119   2.096   0.754   7.246  0.7312  0.0642  1.7321
 5496SOL     OW28120   2.004   0.951  13.903  0.3710 -0.0029  0.1217
 5496SOL    HW128121   2.050   0.923  13.982  1.2661  0.7866 -0.1191
 5496SOL    HW228122   2.068   0.942  13.832 -0.0369  1.1416 -0.3954
 5497SOL     OW28123   3.934   1.985   3.324  0.8432 -0.0314 -0.4491
 5497SOL    HW128124   3.871   2.023   3.385  1.5785 -1.0200  0.9254
 5497SOL    HW228125   4.014   1.967   3.373  0.7667  1.4609  0.2201
 5498SOL     OW28126   2.105   4.466   0.573  0.4083 -0.0193  0.1578
 5498SOL    HW128127   2.043   4.457   0.501 -0.1773 -2.6623  0.9996
 5498SOL    HW228128   2.110   4.560   0.591 -1.7759  0.0287  0.4632
 5499SOL     OW28129   0.742   4.687  11.683 -0.2960  0.2682  0.0785
 5499SOL    HW128130   0.813   4.733  11.637  0.4030  0.1479  1.0345
 5499SOL    HW228131   0.779   4.692  11.771  1.0361  2.5583 -0.6081
 5500SOL     OW28132   3.432   4.147   6.154 -0.0213 -0.3849  0.4203
 5500SOL    HW128133   3.414   4.226   6.204 -0.4459  0.4389 -1.0364
 5500SOL    HW228134   3.358   4.092   6.178 -0.2005  0.2623  1.3540
 5501SOL     OW28135   3.951   3.892  16.621 -0.2524  0.2971  0.1822
 5501SOL    HW128136   3.990   3.838  16.690  1.4796 -1.3016 -2.0300
 5501SOL    HW228137   3.930   3.969  16.674  0.7201  1.7773 -1.5811
 5502SOL     OW28138   2.008   1.428   0.006  0.0192 -0.1874  0.0158
 5502SOL    HW128139   2.007   1.337   0.035 -2.0493 -0.1327  0.1448
 5502SOL    HW228140   2.015   1.416  17.661 -2.6720  1.8198 -0.4607
 5503SOL     OW28141   2.603   4.257   3.122  0.1731  0.9071 -0.2599
 5503SOL    HW128142   2.649   4.272   3.040  0.7093 -1.9639 -0.4621
 5503SOL    HW228143   2.644   4.327   3.172 -0.3085  0.7184  0.4070
 5504SOL     OW28144   1.543   0.578   7.341 -0.0045  0.2444 -0.0695
 5504SOL    HW128145   1.532   0.484   7.351  0.4695  0.3352  1.3097
 5504SOL    HW228146   1.590   0.594   7.423 -0.9019  0.6960  0.3568
 5505SOL     OW28147   4.078   1.973   7.257 -0.1274  0.4381 -0.1156
 5505SOL    HW128148   4.079   1.891   7.306  1.2643  1.5754  1.7612
 5505SOL    HW228149   4.174   1.971   7.252 -0.1384 -2.1158  0.5391
 5506SOL     OW28150   1.368   0.522   9.544  0.1615  0.6903 -0.6243
 5506SOL    HW128151   1.400   0.443   9.587  1.1041  1.6295  0.4386
 5506SOL    HW228152   1.285   0.497   9.504 -1.0005  1.7304  1.1337
 5507SOL     OW28153   2.369   2.182   7.808 -0.0143  0.2755  0.2984
 5507SOL    HW128154   2.287   2.216   7.842 -1.0760 -0.5906 -1.3874
 5507SOL    HW228155   2.415   2.213   7.886  1.1469  0.2120 -0.3576
 5508SOL     OW28156   2.502   2.466   1.936  0.2531  0.1076 -0.4137
 5508SOL    HW128157   2.461   2.394   1.887  0.1217 -0.9689  1.2862
 5508SOL    HW228158   2.593   2.438   1.924  0.2075  0.7177 -2.2521
 5509SOL     OW28159   4.334   3.056   3.944 -0.0133  0.0829  0.1894
 5509SOL    HW128160   4.342   3.100   3.859 -0.5137 -1.3403 -0.6043
 5509SOL    HW228161   4.369   3.113   4.012 -1.3293  0.6092  0.4271
 5510SOL     OW28162   0.830   2.257  16.346  0.0306 -0.5048 -0.2557
 5510SOL    HW128163   0.738   2.241  16.366 -0.1113  1.0595  0.2880
 5510SOL    HW228164   0.859   2.296  16.428 -0.4402  0.5154 -0.5795
 5511SOL     OW28165   1.822   1.893   4.958 -0.4192  0.0164 -0.7185
 5511SOL    HW128166   1.766   1.876   4.883 -1.3304  0.8834 -0.2333
 5511SOL    HW228167   1.896   1.936   4.915  0.5862 -0.2758  0.7140
 5512SOL     OW28168   4.697   3.828   0.252 -0.0172 -0.2273 -0.0431
 5512SOL    HW128169   4.707   3.808   0.345  1.1401  1.3397  0.1755
 5512SOL    HW228170   0.051   3.823   0.224  0.2960  0.8379  0.7558
 5513SOL     OW28171   1.844   2.924   7.094 -0.1967 -0.1245  0.5785
 5513SOL    HW128172   1.770   2.878   7.133 -0.3332 -1.1389 -0.8842
 5513SOL    HW228173   1.808   2.972   7.019 -0.9365 -1.0556  0.3431
 5514SOL     OW28174   0.471   1.403  12.327 -0.3173  0.1992 -0.1341
 5514SOL    HW128175   0.526   1.403  12.405 -0.3801  1.7201 -0.0938
 5514SOL    HW228176   0.401   1.343  12.354 -0.3640 -0.3447 -1.4556
 5515SOL     OW28177   2.047   0.421  17.636 -0.2258 -0.4009 -0.1838
 5515SOL    HW128178   2.135   0.431  17.600 -0.4106  0.3396 -0.4221
 5515SOL    HW228179   2.006   0.375  17.563 -0.0671 -0.0563 -0.4892
 5516SOL     OW28180   2.169   0.572   6.051 -0.1809 -0.6936  0.0509
 5516SOL    HW128181   2.234   0.532   5.993 -0.2406  1.8576 -1.8157
 5516SOL    HW228182   2.163   0.502   6.115 -0.7297  0.8970  1.7530
 5517SOL     OW28183   4.485   0.076   2.857  0.0225 -0.3865  0.0417
 5517SOL    HW128184   4.575   0.103   2.845 -0.1229 -0.1136 -0.4326
 5517SOL    HW228185   4.435   0.150   2.823  1.0374  0.3847  0.2512
 5518SOL     OW28186   4.333   3.505  14.632  0.1713  0.3284  0.1786
 5518SOL    HW128187   4.281   3.460  14.698  0.6861  0.5122  0.7147
 5518SOL    HW228188   4.296   3.593  14.627  1.5063  0.9496  1.3761
 5519SOL     OW28189   0.700   2.317   6.062 -0.2114  0.0555  0.3201
 5519SOL    HW128190   0.706   2.390   6.123  1.8719  1.8805 -2.1299
 5519SOL    HW228191   0.780   2.322   6.011  0.3242  0.6673  1.2249
 5520SOL     OW28192   4.207   3.095   4.359  0.4045 -0.4456  0.0336
 5520SOL    HW128193   4.113   3.115   4.368  0.4809  0.1332 -0.4736
 5520SOL    HW228194   4.233   3.168   4.302  1.1066 -0.3948  0.4179
 5521SOL     OW28195   1.159   2.346   7.689 -0.4989  0.8194  0.1176
 5521SOL    HW128196   1.109   2.361   7.609  2.5581  0.8001 -1.7774
 5521SOL    HW228197   1.149   2.251   7.690  2.9682  0.4440 -0.7847
 5522SOL     OW28198   2.738   4.064   4.808  0.4018 -0.2449  0.9976
 5522SOL    HW128199   2.752   3.982   4.760 -0.4729 -0.5460  1.2559
 5522SOL    HW228200   2.767   4.132   4.747 -0.5466  1.0954  2.0477
 5523SOL     OW28201   0.386   3.449  12.157  0.0057  0.1313 -0.1848
 5523SOL    HW128202   0.338   3.485  12.082  1.1150  0.6284 -0.6643
 5523SOL    HW228203   0.366   3.357  12.139  0.3352 -0.0819  0.5273
 5524SOL     OW28204   2.478   0.025   9.037 -0.3173  0.0421 -0.5298
 5524SOL    HW128205   2.449   4.704   8.967  1.2350 -1.7376  0.3520
 5524SOL    HW228206   2.547   0.075   8.994 -0.0002  0.4500  0.4544
 5525SOL     OW28207   0.855   0.545   3.150  0.5745 -0.3245  0.0343
 5525SOL    HW128208   0.939   0.573   3.113 -0.7189  1.8715 -1.2780
 5525SOL    HW228209   0.803   0.532   3.071  2.1732  3.7653 -1.7055
 5526SOL     OW28210   3.238   2.830   1.935  0.0338 -0.2273 -0.3302
 5526SOL    HW128211   3.159   2.776   1.929 -0.8331  1.1119 -0.9938
 5526SOL    HW228212   3.196   2.908   1.970  0.1903 -1.2909  2.2214
 5527SOL     OW28213   4.023   2.694   6.851  0.1153 -0.2987 -0.2106
 5527SOL    HW128214   3.950   2.690   6.789  0.2608 -0.1294 -0.3922
 5527SOL    HW228215   4.001   2.613   6.896 -0.2647  0.1098  0.3373
 5528SOL     OW28216   2.454   3.052   8.481  0.3067  0.3192  0.0538
 5528SOL    HW128217   2.489   3.111   8.414  1.4865  1.0230  1.2923
 5528SOL    HW228218   2.364   3.079   8.497  1.0477  2.3711  0.8799
 5529SOL     OW28219   0.391   4.202   2.440 -0.0677  0.2143  0.0506
 5529SOL    HW128220   0.404   4.292   2.469 -0.2881 -0.5562  2.5898
 5529SOL    HW228221   0.303   4.209   2.402 -0.0969 -0.5294 -0.0148
 5530SOL     OW28222   4.050   1.552  17.718 -0.3151 -0.1100 -0.1380
 5530SOL    HW128223   4.056   1.644  17.747 -0.1245 -0.8297  2.1267
 5530SOL    HW228224   4.108   1.560  17.642  0.2477  1.2237  0.4187
 5531SOL     OW28225   1.676   1.197   8.467  0.5654 -0.2111 -0.2110
 5531SOL    HW128226   1.727   1.242   8.534 -2.1447  0.5751  1.3094
 5531SOL    HW228227   1.710   1.223   8.382 -0.2219  0.0606 -0.4435
 5532SOL     OW28228   0.973   0.696   4.295 -0.2492  0.1152  0.3320
 5532SOL    HW128229   0.961   0.601   4.291 -2.2029  0.3741  0.1426
 5532SOL    HW228230   1.041   0.712   4.230 -0.4462 -1.4306 -0.2486
 5533SOL     OW28231   1.142   2.224  10.035  0.1307  0.6620  0.2241
 5533SOL    HW128232   1.234   2.198  10.033 -0.0273  0.3518 -3.6924
 5533SOL    HW228233   1.141   2.302  10.091  1.3254 -1.3946  3.0913
 5534SOL     OW28234   3.502   2.824   1.894 -0.3898  0.2532  0.7241
 5534SOL    HW128235   3.407   2.827   1.904 -0.4936 -0.0780 -0.1735
 5534SOL    HW228236   3.501   2.732   1.920 -0.9505  0.6052  1.9743
 5535SOL     OW28237   0.030   1.180   8.668 -0.2848 -0.4679 -0.4208
 5535SOL    HW128238   0.084   1.102   8.661  1.3903  0.5163  1.6964
 5535SOL    HW228239   4.683   1.138   8.655 -0.5489  0.6716 -2.3646
 5536SOL     OW28240   2.339   0.709  10.640  0.0949 -1.0306  0.3509
 5536SOL    HW128241   2.310   0.618  10.651 -1.2703 -0.5025  1.2193
 5536SOL    HW228242   2.262   0.752  10.602  0.9301  1.4741  1.4563
 5537SOL     OW28243   1.535   1.850   3.704  0.5516 -0.4585 -0.5002
 5537SOL    HW128244   1.478   1.792   3.653 -2.2661  1.5775  0.3100
 5537SOL    HW228245   1.528   1.928   3.650  3.1082  0.2342  0.1908
 5538SOL     OW28246   3.489   1.128   3.645  0.4500  0.5063  0.0619
 5538SOL    HW128247   3.485   1.076   3.725  0.1575  2.6619  1.4498
 5538SOL    HW228248   3.398   1.127   3.618  1.0698 -1.2106 -1.9320
 5539SOL     OW28249   2.360   2.598   8.825  0.2226 -0.2934 -0.2127
 5539SOL    HW128250   2.431   2.617   8.763 -0.2335 -0.5064 -0.7982
 5539SOL    HW228251   2.383   2.513   8.862 -0.0183  0.4173  1.5882
 5540SOL     OW28252   2.565   3.764   5.032 -0.0440  0.4932 -0.0805
 5540SOL    HW128253   2.591   3.736   4.944  0.2451  1.9209 -0.4608
 5540SOL    HW228254   2.471   3.770   5.016 -0.0403 -1.2061 -0.7306
 5541SOL     OW28255   3.024   1.690   6.965 -0.3753 -0.0266 -0.0239
 5541SOL    HW128256   3.110   1.712   7.000 -0.2209  0.4653 -0.7285
 5541SOL    HW228257   2.978   1.683   7.049 -0.5501  1.1926 -0.0226
 5542SOL     OW28258   3.980   1.800   2.904  0.1641  0.0907  0.2971
 5542SOL    HW128259   3.884   1.795   2.907  0.1555 -0.8658 -1.1896
 5542SOL    HW228260   3.985   1.882   2.854  1.3811 -1.0147 -1.3825
 5543SOL     OW28261   0.720   1.038  14.586 -0.4130  0.2813 -0.1549
 5543SOL    HW128262   0.726   0.946  14.611  0.3477  0.5347  0.5810
 5543SOL    HW228263   0.773   1.052  14.508  0.6356  0.7683  0.6522
 5544SOL     OW28264   3.500   0.540  11.138 -0.3356 -0.5732 -0.0729
 5544SOL    HW128265   3.505   0.523  11.232 -1.2036  3.0869  0.6095
 5544SOL    HW228266   3.587   0.576  11.118 -1.7904  2.3555 -1.1381
 5545SOL     OW28267   0.845   3.291   4.755  0.2357  0.2221  0.3224
 5545SOL    HW128268   0.876   3.359   4.695 -2.6401 -1.1492 -2.6982
 5545SOL    HW228269   0.754   3.287   4.727  0.3161  1.9956 -0.1877
 5546SOL     OW28270   2.797   2.429   5.898  0.1774  0.1221 -0.0153
 5546SOL    HW128271   2.778   2.510   5.945  1.9658  0.3455  0.3326
 5546SOL    HW228272   2.885   2.450   5.865  0.2686 -0.3631 -0.0828
 5547SOL     OW28273   1.407   0.363   3.603 -0.0371  0.0513  0.1881
 5547SOL    HW128274   1.387   0.434   3.541  1.5517  0.2061 -0.1270
 5547SOL    HW228275   1.499   0.339   3.594  0.1130  1.6623 -2.6717
 5548SOL     OW28276   4.542   1.576   3.404  0.5299 -0.2056  0.1345
 5548SOL    HW128277   4.561   1.658   3.357  2.9546 -1.1402 -0.5226
 5548SOL    HW228278   4.588   1.519   3.343  0.0443  0.8401 -1.2065
 5549SOL     OW28279   2.481   0.223  16.129 -0.2253 -0.0559 -0.3164
 5549SOL    HW128280   2.500   0.304  16.177 -0.4945 -0.1034 -0.1265
 5549SOL    HW228281   2.385   0.220  16.122 -0.0865  1.3852 -2.8831
 5550SOL     OW28282   0.806   1.039   4.263 -0.1573 -0.3587 -0.2162
 5550SOL    HW128283   0.875   0.976   4.244 -2.1504 -2.5831 -0.1008
 5550SOL    HW228284   0.858   1.109   4.301 -1.9241 -0.4978  2.4716
 5551SOL     OW28285   1.927   0.152   7.106  0.1736  0.2196  0.0566
 5551SOL    HW128286   2.022   0.145   7.101  0.2838  0.9594  1.0636
 5551SOL    HW228287   1.927   0.203   7.187 -3.9105 -0.3694  0.4728
 5552SOL     OW28288   0.580   3.030  15.470 -0.5498 -0.1613 -0.1360
 5552SOL    HW128289   0.546   3.053  15.383  0.1192  0.5430 -0.2029
 5552SOL    HW228290   0.497   3.054  15.512 -0.0326 -0.8732  1.2970
 5553SOL     OW28291   1.511   3.207   9.574 -0.2709 -0.8423  0.0408
 5553SOL    HW128292   1.606   3.203   9.588 -0.2047  2.2665  0.4290
 5553SOL    HW228293   1.496   3.239   9.663 -1.0692  2.4776 -1.3038
 5554SOL     OW28294   0.714   2.408   3.590  0.1853 -0.2779 -0.2563
 5554SOL    HW128295   0.719   2.320   3.627 -2.6840 -0.5821 -0.5609
 5554SOL    HW228296   0.805   2.437   3.583  1.1943 -3.7345 -1.5127
 5555SOL     OW28297   0.384   3.036  13.388 -0.4425  0.2430  0.5838
 5555SOL    HW128298   0.357   3.031  13.480 -0.5176 -1.9568  0.4323
 5555SOL    HW228299   0.307   3.078  13.348 -1.6954 -1.0522  1.6132
 5556SOL     OW28300   3.069   1.538  17.691  0.3752  0.0051  0.1178
 5556SOL    HW128301   3.133   1.488  17.742  0.3935  1.2390  1.2759
 5556SOL    HW228302   3.048   1.614  17.745  2.8123  0.8694 -0.1219
 5557SOL     OW28303   3.304   2.190   9.021 -0.6564  0.0184  0.0076
 5557SOL    HW128304   3.225   2.145   9.051  0.8606 -2.0725  0.8410
 5557SOL    HW228305   3.277   2.191   8.929 -1.2104  1.7727  0.1855
 5558SOL     OW28306   2.096   1.756   2.448 -0.1025  0.6127  0.5647
 5558SOL    HW128307   2.192   1.762   2.450 -0.0292 -0.5657  0.5831
 5558SOL    HW228308   2.088   1.762   2.353  0.9989 -0.9564  0.3742
 5559SOL     OW28309   4.677   4.736  10.789 -0.1036  0.1557  0.0652
 5559SOL    HW128310   4.681   0.094  10.795  1.0050  0.0705  0.7120
 5559SOL    HW228311   0.020   4.712  10.744 -0.7986 -0.6746 -0.7401
 5560SOL     OW28312   1.722   4.608   7.900 -0.0293 -0.2949 -1.0803
 5560SOL    HW128313   1.635   4.596   7.861 -0.3003  0.0453 -0.6004
 5560SOL    HW228314   1.693   4.686   7.947  0.7322 -0.7258  0.0975
 5561SOL     OW28315   4.202   2.662   4.353 -0.1329  0.7044  0.4573
 5561SOL    HW128316   4.173   2.636   4.266  1.6825 -0.1603  0.1017
 5561SOL    HW228317   4.225   2.578   4.392 -0.1108  1.0511  1.1954
 5562SOL     OW28318   2.704   0.845  13.686 -0.4213  0.4344  0.3179
 5562SOL    HW128319   2.792   0.826  13.718 -1.0639 -4.2904 -0.6518
 5562SOL    HW228320   2.657   0.769  13.721 -1.5578  1.5387  1.1723
 5563SOL     OW28321   0.829   0.850  15.796 -0.1266  0.2938 -0.6764
 5563SOL    HW128322   0.807   0.772  15.846  0.5609  0.7704  0.3734
 5563SOL    HW228323   0.775   0.920  15.833  3.6083  2.0211  1.3904
 5564SOL     OW28324   3.985   1.072   8.781 -0.3754  0.5391 -0.0858
 5564SOL    HW128325   3.894   1.089   8.804 -0.4145  0.7218 -0.3808
 5564SOL    HW228326   3.991   1.001   8.844 -1.0675  0.2009 -0.3992
 5565SOL     OW28327   1.510   4.622   5.485  0.6072  0.2745 -0.3043
 5565SOL    HW128328   1.554   4.629   5.569  2.3709  0.4776 -1.2386
 5565SOL    HW228329   1.427   4.582   5.511  1.0892 -0.0475  0.7210
 5566SOL     OW28330   3.063   0.078   7.377  0.0443 -0.2988  0.1348
 5566SOL    HW128331   3.143   0.075   7.325 -0.1213 -0.8819 -0.0795
 5566SOL    HW228332   3.071   0.170   7.402 -1.6740 -0.5365  1.6198
 5567SOL     OW28333   2.943   4.707   4.062 -0.2190  0.2855 -0.0810
 5567SOL    HW128334   2.976   4.660   3.985  1.6451  0.8246  0.3911
 5567SOL    HW228335   2.917   0.052   4.023  0.3419 -0.2372 -1.5682
 5568SOL     OW28336   2.399   2.299   1.783  0.6815  0.1269  0.6181
 5568SOL    HW128337   2.375   2.207   1.798 -0.2707  0.4021  0.7653
 5568SOL    HW228338   2.338   2.329   1.716 -0.4425  0.0662  1.6035
 5569SOL     OW28339   0.618   2.399   8.886 -0.3031  0.3864  0.0304
 5569SOL    HW128340   0.688   2.452   8.925 -1.7048  0.7875  2.0223
 5569SOL    HW228341   0.660   2.370   8.806  1.1315  0.7417  0.6617
 5570SOL     OW28342   3.211   3.396   2.505 -0.5993 -0.1858 -0.3859
 5570SOL    HW128343   3.271   3.467   2.527  2.2749 -3.0892  1.0956
 5570SOL    HW228344   3.238   3.373   2.416 -0.3096  0.8130 -0.5542
 5571SOL     OW28345   2.331   0.832   2.902 -0.0539 -0.9808 -0.1754
 5571SOL    HW128346   2.333   0.811   2.808 -1.0049 -3.8973  0.4637
 5571SOL    HW228347   2.237   0.854   2.902 -0.0900 -1.1414 -1.7866
 5572SOL     OW28348   1.329   0.328   6.165  0.4830  0.0933  0.1557
 5572SOL    HW128349   1.345   0.317   6.259 -1.0822  0.7362  0.4877
 5572SOL    HW228350   1.331   0.238   6.132 -0.2998 -0.4259  1.5361
 5573SOL     OW28351   4.353   2.404   3.801 -0.2614  0.0623 -0.0099
 5573SOL    HW128352   4.346   2.346   3.877 -1.7524 -1.2388 -1.1141
 5573SOL    HW228353   4.294   2.476   3.821 -2.4120 -1.6024 -0.2794
 5574SOL     OW28354   2.931   2.085   8.417 -0.0867  0.0589  0.0616
 5574SOL    HW128355   2.843   2.050   8.425  0.4678 -1.1460  0.8157
 5574SOL    HW228356   2.965   2.082   8.507  1.8541  0.8395 -0.6409
 5575SOL     OW28357   1.554   3.699  17.160  0.6343 -0.6177 -0.1613
 5575SOL    HW128358   1.569   3.707  17.065  1.7239  3.0347  0.3341
 5575SOL    HW228359   1.526   3.607  17.151  0.6164 -0.5454 -0.8875
 5576SOL     OW28360   1.217   0.330  14.184  0.0398 -0.0188 -0.5186
 5576SOL    HW128361   1.276   0.353  14.255 -0.6707  2.1708 -0.6325
 5576SOL    HW228362   1.274   0.309  14.110 -1.3794  1.2633 -1.9817
 5577SOL     OW28363   2.757   4.157   2.128  0.0350 -0.0925 -0.2287
 5577SOL    HW128364   2.845   4.166   2.166  0.3199 -1.4100 -0.5866
 5577SOL    HW228365   2.740   4.251   2.132  2.7255  0.3501  1.3127
 5578SOL     OW28366   0.071   1.892   3.941 -0.3507 -0.7277  0.0376
 5578SOL    HW128367   0.140   1.911   3.877 -0.8078  1.0708  0.0971
 5578SOL    HW228368   0.067   1.970   3.996  0.7011 -0.8288  0.2703
 5579SOL     OW28369   4.535   4.494   2.615  0.0896 -0.4833  0.2726
 5579SOL    HW128370   4.461   4.515   2.558  1.4307 -0.2690 -1.3999
 5579SOL    HW228371   4.496   4.519   2.699  2.8127  0.0682  1.3849
 5580SOL     OW28372   0.668   2.930   4.704  0.5150 -0.1337  0.5081
 5580SOL    HW128373   0.647   3.022   4.721  0.7817  0.1259 -0.5878
 5580SOL    HW228374   0.692   2.943   4.612  1.9682  0.5561  0.9970
 5581SOL     OW28375   2.644   3.558  12.141  0.1874  0.1197 -0.3337
 5581SOL    HW128376   2.645   3.590  12.051  0.1194 -0.6206 -0.5970
 5581SOL    HW228377   2.672   3.635  12.190  1.5733 -1.7373  1.7664
 5582SOL     OW28378   1.359   3.356   1.613 -0.5859  0.4754 -0.3543
 5582SOL    HW128379   1.399   3.396   1.536  1.0316  0.4682  0.4825
 5582SOL    HW228380   1.347   3.435   1.666  0.3391  1.4101 -1.5456
 5583SOL     OW28381   2.726   4.619   7.904 -0.1016  0.3379 -0.0086
 5583SOL    HW128382   2.737   4.549   7.840  0.1468  0.9133 -0.5924
 5583SOL    HW228383   2.658   4.670   7.860 -1.5328 -0.8597  0.7996
 5584SOL     OW28384   1.126   2.771   9.429 -0.1641 -0.2414 -0.3483
 5584SOL    HW128385   1.075   2.734   9.356  2.2444 -3.2276 -0.5472
 5584SOL    HW228386   1.161   2.688   9.464 -0.8015  0.1115  1.1098
 5585SOL     OW28387   0.312   3.634  17.168  0.1134  0.1107  0.1316
 5585SOL    HW128388   0.284   3.665  17.082  1.8265  0.7446 -0.1985
 5585SOL    HW228389   0.364   3.562  17.133  1.8139  0.2212  2.4251
 5586SOL     OW28390   1.621   2.644   6.411  0.0782  0.9615  0.0181
 5586SOL    HW128391   1.576   2.666   6.492 -1.4541  0.2080 -0.6429
 5586SOL    HW228392   1.662   2.559   6.428  0.0568  0.8849 -0.3093
 5587SOL     OW28393   0.826   1.220  10.902  0.4028 -0.2450  0.0801
 5587SOL    HW128394   0.742   1.220  10.856  0.4016  2.6069  0.0585
 5587SOL    HW228395   0.873   1.299  10.875  2.5490 -1.6508 -0.2026
 5588SOL     OW28396   1.914   3.301  12.383  0.0844 -0.5145  0.1191
 5588SOL    HW128397   1.881   3.217  12.416  0.2679 -0.9644 -0.8324
 5588SOL    HW228398   2.008   3.293  12.401  0.1714  0.5240  0.0999
 5589SOL     OW28399   0.294   0.367   1.415 -0.7751 -0.1661 -0.0914
 5589SOL    HW128400   0.251   0.393   1.334  0.4581  0.1248 -0.6561
 5589SOL    HW228401   0.351   0.443   1.419  0.9428 -1.4876  0.4912
 5590SOL     OW28402   0.830   4.434   3.603  0.0319  0.3452 -0.1644
 5590SOL    HW128403   0.871   4.442   3.689 -0.0978 -0.8052  0.0072
 5590SOL    HW228404   0.776   4.512   3.615 -0.5112 -0.1659  0.6973
 5591SOL     OW28405   3.238   2.256  11.234  0.2904  0.6437  0.5246
 5591SOL    HW128406   3.321   2.293  11.205  1.2474 -0.7101  1.4988
 5591SOL    HW228407   3.274   2.202  11.305 -1.1051  0.0751  0.8046
 5592SOL     OW28408   4.092   3.035  13.660 -0.0467  0.3465  0.3212
 5592SOL    HW128409   4.126   3.104  13.717  1.0947  0.2816 -0.2929
 5592SOL    HW228410   4.009   3.027  13.708 -0.5651 -0.6022 -0.7430
 5593SOL     OW28411   1.245   2.640   8.333  0.6452  0.2570  0.0129
 5593SOL    HW128412   1.222   2.580   8.262 -1.1602 -1.6144  2.1569
 5593SOL    HW228413   1.294   2.711   8.291  0.0546  1.2944  1.0712
 5594SOL     OW28414   2.582   0.501   2.007  0.1211  0.4339  0.3885
 5594SOL    HW128415   2.550   0.589   2.028  1.7742  1.0467  0.3739
 5594SOL    HW228416   2.673   0.511   2.037 -0.2387  1.5848  1.1288
 5595SOL     OW28417   0.498   2.739   0.076 -0.1864 -0.2563  0.2293
 5595SOL    HW128418   0.536   2.714   0.161 -1.3657 -0.7438  0.6135
 5595SOL    HW228419   0.576   2.750   0.022 -0.8638  0.8556 -0.5200
 5596SOL     OW28420   3.412   3.583  13.594 -0.3886  0.1281 -0.1946
 5596SOL    HW128421   3.450   3.531  13.524  0.4410 -1.9458  1.7712
 5596SOL    HW228422   3.321   3.572  13.566 -0.1792 -1.0522 -0.4183
 5597SOL     OW28423   1.809   3.672   6.932  0.4522 -0.2979 -0.6156
 5597SOL    HW128424   1.726   3.706   6.967  0.6502 -0.3670 -0.0887
 5597SOL    HW228425   1.794   3.702   6.842 -0.4852  0.1552 -0.3134
 5598SOL     OW28426   2.352   0.228   6.388  0.2187 -0.1847  0.2097
 5598SOL    HW128427   2.390   0.150   6.348  1.2331 -0.4378  1.6764
 5598SOL    HW228428   2.381   0.206   6.477  0.2925 -1.2727 -0.0789
 5599SOL     OW28429   2.583   3.277   4.200 -0.4922 -0.0169  0.0789
 5599SOL    HW128430   2.656   3.217   4.188  2.1894  2.8399  2.2882
 5599SOL    HW228431   2.564   3.276   4.294  0.8302  1.6800  0.3496
 5600SOL     OW28432   4.227   4.414   3.458 -0.2527  0.6794  0.3512
 5600SOL    HW128433   4.314   4.384   3.430 -1.9079 -2.2363 -1.7663
 5600SOL    HW228434   4.236   4.508   3.446 -1.4223  0.6071 -1.1558
 5601SOL     OW28435   4.269   4.573   1.581  0.2849 -0.5400 -0.0581
 5601SOL    HW128436   4.240   4.598   1.668 -1.7073  0.6625 -1.0638
 5601SOL    HW228437   4.361   4.556   1.598  0.8359  2.1323 -0.4337
 5602SOL     OW28438   4.565   4.363   2.043 -0.3075 -0.2588  0.2053
 5602SOL    HW128439   4.499   4.416   1.996 -0.1979  1.3829  1.8831
 5602SOL    HW228440   4.533   4.274   2.029 -3.9077  1.2239 -1.0416
 5603SOL     OW28441   1.460   3.313   3.067 -0.1779 -0.3648 -0.2655
 5603SOL    HW128442   1.538   3.352   3.026  0.0756 -1.1625 -0.5442
 5603SOL    HW228443   1.388   3.362   3.029 -0.0678 -1.1388 -1.4704
 5604SOL     OW28444   2.679   3.187  16.644 -0.8050  0.0319  0.1557
 5604SOL    HW128445   2.749   3.251  16.636 -1.3757  0.8750  2.0565
 5604SOL    HW228446   2.724   3.102  16.650  0.6171  0.9013  1.6062
 5605SOL     OW28447   4.262   4.294   6.992  0.4226  0.2714  0.3428
 5605SOL    HW128448   4.180   4.334   6.963  0.9265  0.6527 -0.5638
 5605SOL    HW228449   4.237   4.276   7.083 -1.8786  0.2818 -0.2851
 5606SOL     OW28450   3.617   0.321   4.778 -1.0956 -0.1292  0.5998
 5606SOL    HW128451   3.641   0.412   4.759  1.3036 -1.4267 -2.4656
 5606SOL    HW228452   3.530   0.334   4.816 -1.1067  3.6385 -0.7391
 5607SOL     OW28453   0.931   2.360   5.910 -0.2500 -0.1002 -0.5126
 5607SOL    HW128454   0.998   2.339   5.845 -0.0993 -0.9475 -0.0905
 5607SOL    HW228455   0.901   2.446   5.881  0.2562  0.6332  1.1210
 5608SOL     OW28456   3.692   1.906   5.600  0.0867 -0.1892  0.1842
 5608SOL    HW128457   3.685   1.818   5.636  1.4872 -0.2268  0.3604
 5608SOL    HW228458   3.603   1.935   5.619  0.3908  0.6325  0.3643
 5609SOL     OW28459   1.035   4.405   6.028 -0.3382 -0.1671 -0.3410
 5609SOL    HW128460   1.099   4.415   6.098 -0.6183  3.0187 -0.5313
 5609SOL    HW228461   1.034   4.310   6.015  1.1842 -0.1070 -0.8966
 5610SOL     OW28462   1.475   1.277  16.366  0.0114 -0.8251  1.0281
 5610SOL    HW128463   1.537   1.289  16.294  0.8084  1.5772  2.1198
 5610SOL    HW228464   1.522   1.237  16.440 -0.1356 -2.6752  0.1300
 5611SOL     OW28465   3.128   1.440   0.663 -0.4425  0.1953  0.2486
 5611SOL    HW128466   3.051   1.468   0.714  1.2613  0.7779  2.4888
 5611SOL    HW228467   3.112   1.346   0.662 -0.1521  0.1481  0.0942
 5612SOL     OW28468   3.329   4.591   9.967 -0.4596 -0.0714 -0.7128
 5612SOL    HW128469   3.348   4.636  10.049 -1.6475  1.0170 -1.0401
 5612SOL    HW228470   3.326   4.661   9.902 -1.9354 -0.5274 -1.1425
 5613SOL     OW28471   3.038   4.494   7.099 -0.1253  0.4611  0.0948
 5613SOL    HW128472   3.000   4.564   7.047  2.6184  1.9166  0.0644
 5613SOL    HW228473   3.130   4.507   7.076  0.3289 -3.7903 -0.5349
 5614SOL     OW28474   0.740   1.636   8.268 -0.4397 -0.6986 -0.1215
 5614SOL    HW128475   0.825   1.605   8.236 -0.3708  0.1475 -0.7588
 5614SOL    HW228476   0.689   1.556   8.260  0.2981 -1.2871  0.9793
 5615SOL     OW28477   2.501   2.224   5.620 -0.0877  1.0095  0.3987
 5615SOL    HW128478   2.479   2.289   5.686  0.5376  1.8410 -0.2218
 5615SOL    HW228479   2.577   2.183   5.663  0.0434  0.9042  0.0676
 5616SOL     OW28480   3.703   1.287   5.455  0.2573  0.1009 -0.7986
 5616SOL    HW128481   3.785   1.266   5.410  0.5467 -1.6177  0.5396
 5616SOL    HW228482   3.702   1.383   5.455  2.1035  0.1116  1.1725
 5617SOL     OW28483   2.935   1.417   7.687  0.7877 -0.1286 -0.1650
 5617SOL    HW128484   2.907   1.363   7.613 -0.9038  0.4460  0.0552
 5617SOL    HW228485   3.023   1.442   7.658  0.3118  1.1545 -0.5464
 5618SOL     OW28486   2.804   4.700  17.191  0.2406  0.0818  0.0942
 5618SOL    HW128487   2.770   4.611  17.182  1.4758 -0.1948 -1.7570
 5618SOL    HW228488   2.722   0.006  17.213  1.1197  1.6432  0.2223
 5619SOL     OW28489   3.646   1.654   5.709  0.0397 -0.0001  0.6283
 5619SOL    HW128490   3.718   1.598   5.737 -1.1053 -0.1985  3.2023
 5619SOL    HW228491   3.572   1.599   5.737  0.0204 -0.0763  0.4325
 5620SOL     OW28492   1.922   0.193   3.268 -0.4290  0.3528  0.8165
 5620SOL    HW128493   1.955   0.199   3.358  0.3828  1.8683  0.4150
 5620SOL    HW228494   1.833   0.160   3.276 -0.4711  0.0376 -0.8929
 5621SOL     OW28495   0.782   0.290   5.236 -0.2771 -0.0407  0.5741
 5621SOL    HW128496   0.813   0.213   5.284  0.6298  0.9870  1.6365
 5621SOL    HW228497   0.704   0.259   5.191  0.2792 -2.1216  1.0185
 5622SOL     OW28498   2.949   1.046   5.835 -0.0303  0.0059 -0.1628
 5622SOL    HW128499   2.869   1.094   5.857 -0.0756 -0.7076  1.2425
 5622SOL    HW228500   3.000   1.119   5.803  0.5897 -1.2857 -2.1726
 5623SOL     OW28501   1.952   1.096   5.935  0.1348 -0.6222 -0.1116
 5623SOL    HW128502   2.048   1.094   5.934  0.0850 -2.6496  0.8134
 5623SOL    HW228503   1.943   1.112   5.841  0.6565 -0.3619 -0.1163
 5624SOL     OW28504   0.175   3.931   2.621  0.0712  0.2288  0.1842
 5624SOL    HW128505   0.134   3.859   2.669 -0.7483 -0.3857 -1.4344
 5624SOL    HW228506   0.106   3.997   2.611  0.8624  1.1891  0.9951
 5625SOL     OW28507   0.470   4.262   6.248 -0.3915  0.3399 -0.1825
 5625SOL    HW128508   0.384   4.234   6.216  0.2161 -1.8179  0.0461
 5625SOL    HW228509   0.520   4.180   6.246  0.1175  0.6668 -0.4340
 5626SOL     OW28510   0.967   3.595   8.870  0.4742 -0.3536 -0.0380
 5626SOL    HW128511   0.924   3.525   8.820  0.5696 -0.1454 -0.4072
 5626SOL    HW228512   1.007   3.650   8.803 -0.7551  4.1465  2.9230
 5627SOL     OW28513   0.466   4.208   8.593 -0.2111 -0.7325 -0.2603
 5627SOL    HW128514   0.492   4.181   8.505 -3.3122  0.2159 -1.4560
 5627SOL    HW228515   0.407   4.279   8.568  2.6640  0.9095 -2.4650
 5628SOL     OW28516   2.957   2.796  13.311  0.2022 -0.4297  0.0257
 5628SOL    HW128517   2.947   2.817  13.218 -0.6886 -0.3014  0.1582
 5628SOL    HW228518   3.029   2.857  13.331  0.7495 -0.6331 -1.3127
 5629SOL     OW28519   0.013   1.078  17.011  0.0006 -0.2458  0.0079
 5629SOL    HW128520   4.718   1.050  17.097  0.6633 -0.7343  0.0991
 5629SOL    HW228521   0.085   1.016  17.003 -0.6030 -0.8433 -0.8155
 5630SOL     OW28522   1.165   2.344   3.031 -0.3050 -0.0264  0.9128
 5630SOL    HW128523   1.147   2.418   2.974 -0.1199 -1.1119 -0.5702
 5630SOL    HW228524   1.172   2.281   2.958  0.9993  0.6212  0.4858
 5631SOL     OW28525   1.954   1.910   7.548  0.9445 -0.3535  0.5610
 5631SOL    HW128526   1.912   1.926   7.463  2.1115  0.3115  0.1140
 5631SOL    HW228527   1.968   1.997   7.584  1.6890 -0.3357  0.2413
 5632SOL     OW28528   1.083   3.682   9.114 -0.5933 -0.4620  0.1967
 5632SOL    HW128529   1.106   3.612   9.176 -0.1934 -0.5252 -0.0262
 5632SOL    HW228530   1.086   3.630   9.034  2.2159  0.2058 -0.1219
 5633SOL     OW28531   3.258   3.743   3.110 -0.5974 -0.5925 -0.3316
 5633SOL    HW128532   3.193   3.714   3.046  1.4724  1.3132 -3.2838
 5633SOL    HW228533   3.288   3.831   3.087 -1.0455 -0.0490  1.1159
 5634SOL     OW28534   4.094   3.537   9.044  0.0345 -0.2139 -0.2908
 5634SOL    HW128535   4.103   3.620   8.996 -1.6110 -0.3452 -0.8328
 5634SOL    HW228536   4.110   3.577   9.130  0.1417  0.6438 -0.7123
 5635SOL     OW28537   1.830   4.522   3.190  0.2141 -0.4261 -0.5245
 5635SOL    HW128538   1.778   4.531   3.110 -0.4408  0.8115  0.0487
 5635SOL    HW228539   1.756   4.509   3.248  0.6658  1.5314  0.4813
 5636SOL     OW28540   4.348   0.951   0.752  0.5252 -0.0048 -0.0317
 5636SOL    HW128541   4.257   0.933   0.730  0.6025 -2.3416  1.5356
 5636SOL    HW228542   4.350   0.967   0.846 -1.3643  1.0856 -0.1786
 5637SOL     OW28543   4.437   2.846   2.607 -0.3073  0.4918  0.3772
 5637SOL    HW128544   4.454   2.937   2.581  3.7320 -0.7183 -1.1712
 5637SOL    HW228545   4.469   2.800   2.530 -0.1979  0.2443  0.5679
 5638SOL     OW28546   0.941   0.851   5.700 -0.7787 -0.5201  0.3270
 5638SOL    HW128547   1.009   0.850   5.633 -0.1746  2.2973  0.9126
 5638SOL    HW228548   0.973   0.788   5.765 -0.0795  1.9267  2.3887
 5639SOL     OW28549   1.715   2.748   4.209 -0.2483  0.0778 -0.0765
 5639SOL    HW128550   1.635   2.702   4.234 -1.6322  2.1539 -0.7208
 5639SOL    HW228551   1.753   2.679   4.155  1.5074  2.0626 -1.3827
 5640SOL     OW28552   0.217   4.584   6.433 -0.2686  0.5937  0.7573
 5640SOL    HW128553   0.214   4.496   6.470 -0.9197  0.4219  0.2944
 5640SOL    HW228554   0.222   4.572   6.339 -0.4467 -0.4086  0.8725
 5641SOL     OW28555   2.816   0.550   9.401  0.5172  0.0737  0.1575
 5641SOL    HW128556   2.856   0.578   9.483  0.8580 -1.0013  0.3690
 5641SOL    HW228557   2.883   0.567   9.335  1.5799  0.8036  1.4461
 5642SOL     OW28558   0.008   0.487  15.939  0.3831 -0.0350 -0.5447
 5642SOL    HW128559   4.710   0.494  15.850  1.0183 -0.4034 -0.8259
 5642SOL    HW228560   0.026   0.394  15.954 -0.8890 -0.6015 -2.4629
 5643SOL     OW28561   3.433   3.392   4.055  0.2426  0.8908  0.4265
 5643SOL    HW128562   3.350   3.359   4.090  0.7282  0.2317  0.9890
 5643SOL    HW228563   3.460   3.436   4.136  2.6084 -0.4742  0.3704
 5644SOL     OW28564   2.420   1.543   4.945  0.1066  0.3930 -0.6089
 5644SOL    HW128565   2.450   1.561   5.034  2.4271  0.1164 -1.3156
 5644SOL    HW228566   2.329   1.569   4.951 -0.0692  0.2103 -2.4134
 5645SOL     OW28567   1.781   0.231   6.604 -0.2290 -0.6883 -0.3226
 5645SOL    HW128568   1.789   0.324   6.626  4.2365 -0.7958 -1.3836
 5645SOL    HW228569   1.812   0.183   6.682 -0.7139 -0.1516  0.1969
 5646SOL     OW28570   1.449   3.851  13.953 -0.0212 -0.1641 -0.0523
 5646SOL    HW128571   1.386   3.907  13.908  2.7656  0.5932 -3.0025
 5646SOL    HW228572   1.433   3.890  14.039  0.2361 -1.0589  0.4087
 5647SOL     OW28573   3.386   2.091  11.414 -0.1927  0.6602 -0.2451
 5647SOL    HW128574   3.340   2.053  11.489  0.8283 -0.3365 -0.1396
 5647SOL    HW228575   3.445   2.019  11.392 -0.4873 -0.0227  1.2299
 5648SOL     OW28576   1.074   0.981  15.752 -0.7784 -0.3239 -0.2008
 5648SOL    HW128577   0.985   0.948  15.769 -0.7336 -0.8555 -0.9966
 5648SOL    HW228578   1.083   1.055  15.813  0.6032  0.4669 -1.3603
 5649SOL     OW28579   3.080   3.450   5.668  0.1807 -0.0342 -0.2841
 5649SOL    HW128580   3.013   3.503   5.709 -0.6960 -2.4715  1.4249
 5649SOL    HW228581   3.045   3.362   5.660  0.2830 -0.0201 -0.9330
 5650SOL     OW28582   0.831   1.168   8.729  0.0834 -0.8649 -0.1761
 5650SOL    HW128583   0.741   1.141   8.747 -0.4495  1.0703  0.0785
 5650SOL    HW228584   0.826   1.196   8.638 -0.5606  3.1523  1.1201
 5651SOL     OW28585   1.072   1.730   1.826 -0.1787  0.2584  0.2762
 5651SOL    HW128586   1.059   1.668   1.898 -2.4533 -2.0423 -2.1113
 5651SOL    HW228587   1.027   1.691   1.751  1.1055  0.6752 -0.7108
 5652SOL     OW28588   3.424   4.157   4.540  0.1121 -0.1480  0.0162
 5652SOL    HW128589   3.352   4.206   4.579  0.0269 -0.9087  0.8164
 5652SOL    HW228590   3.498   4.203   4.579 -0.8646  2.3395 -1.0543
 5653SOL     OW28591   1.378   1.230  17.253 -0.3438  0.4929 -0.2829
 5653SOL    HW128592   1.381   1.232  17.348  0.6618  1.0862 -0.3348
 5653SOL    HW228593   1.342   1.315  17.229 -0.4943  0.1044 -1.4641
 5654SOL     OW28594   2.705   3.535   2.939 -0.0654 -0.0958 -0.0988
 5654SOL    HW128595   2.717   3.584   2.858  1.2522 -1.4384 -0.7084
 5654SOL    HW228596   2.655   3.459   2.908 -0.0834 -0.7519  1.5369
 5655SOL     OW28597   4.525   4.350  11.301 -0.0780  0.0404  0.2833
 5655SOL    HW128598   4.598   4.307  11.257  0.1304  0.7506 -0.0463
 5655SOL    HW228599   4.448   4.302  11.269 -1.7301  2.4053  0.6986
 5656SOL     OW28600   3.969   4.031   7.671  0.1252 -0.2013 -0.3532
 5656SOL    HW128601   4.011   4.008   7.753  0.4764  0.5787 -0.3095
 5656SOL    HW228602   4.044   4.017   7.613 -0.6391 -3.3213 -0.5892
 5657SOL     OW28603   2.421   0.150   6.665 -0.6379 -0.6412 -0.1059
 5657SOL    HW128604   2.353   0.153   6.732 -0.6530  3.2202 -0.2927
 5657SOL    HW228605   2.487   0.204   6.709 -3.4986  1.4517  1.5896
 5658SOL     OW28606   3.334   3.624   9.268  0.2710  0.5824 -0.1426
 5658SOL    HW128607   3.243   3.611   9.240  1.1193 -2.0342 -1.6795
 5658SOL    HW228608   3.381   3.587   9.194  0.2347 -0.0982  0.1743
 5659SOL     OW28609   1.834   0.092   4.040 -0.5616  0.4554  0.1930
 5659SOL    HW128610   1.818   0.070   3.948  1.6410 -0.7278  0.1024
 5659SOL    HW228611   1.892   0.168   4.036 -2.9985  2.2762 -0.5677
 5660SOL     OW28612   1.931   1.383   5.541 -0.6003 -0.2875  0.0929
 5660SOL    HW128613   1.971   1.393   5.628 -0.6272  0.4065  0.0261
 5660SOL    HW228614   2.012   1.357   5.497 -0.8479 -1.9124  0.6316
 5661SOL     OW28615   3.963   0.715  10.713 -0.1714 -0.4728 -0.0950
 5661SOL    HW128616   3.977   0.797  10.761  1.0380 -0.6768 -0.1140
 5661SOL    HW228617   3.868   0.710  10.705 -0.3142  0.6628  0.8171
 5662SOL     OW28618   1.758   3.188   5.205 -0.2581 -0.4265 -0.4492
 5662SOL    HW128619   1.732   3.132   5.132  3.6960  1.3225 -3.2470
 5662SOL    HW228620   1.761   3.274   5.163  0.0760 -0.4449 -0.4698
 5663SOL     OW28621   1.734   4.602   6.658  0.6134  0.0082  0.3729
 5663SOL    HW128622   1.741   4.549   6.737  0.9477  2.1077  1.7593
 5663SOL    HW228623   1.824   4.592   6.627 -0.0183  1.6299 -1.9661
 5664SOL     OW28624   3.469   4.495   6.110 -0.0041  0.3085 -0.2373
 5664SOL    HW128625   3.388   4.535   6.079  0.0872 -1.2922 -2.5440
 5664SOL    HW228626   3.453   4.488   6.204 -1.2724  0.4853 -0.4407
 5665SOL     OW28627   0.656   4.707   8.565  0.1797  0.0024  0.2531
 5665SOL    HW128628   0.732   4.653   8.581  0.2871 -0.8614 -3.1651
 5665SOL    HW228629   0.648   4.707   8.469  3.6594  1.1547 -0.0160
 5666SOL     OW28630   4.380   1.881   2.329 -0.2007  0.1316 -0.0702
 5666SOL    HW128631   4.356   1.948   2.265  1.1731  4.0605  3.5130
 5666SOL    HW228632   4.470   1.909   2.339 -0.5028  2.0834 -2.7138
 5667SOL     OW28633   0.333   0.082   6.122  0.1297 -0.4466 -0.4386
 5667SOL    HW128634   0.326   4.726   6.109  1.1359 -0.3546 -1.6554
 5667SOL    HW228635   0.249   0.116   6.152 -0.1862 -1.6765  0.0345
 5668SOL     OW28636   4.240   4.407   5.896  0.2406  0.0619 -0.8651
 5668SOL    HW128637   4.172   4.374   5.955 -0.2017 -0.1815 -1.5049
 5668SOL    HW228638   4.221   4.359   5.815  0.9387  0.0537 -1.0321
 5669SOL     OW28639   3.839   3.688  15.861  0.3443 -0.2812 -0.3161
 5669SOL    HW128640   3.833   3.593  15.856  3.0775 -0.4946  0.3395
 5669SOL    HW228641   3.754   3.716  15.895  0.9033  1.0167 -0.0079
 5670SOL     OW28642   2.966   0.980   3.986  0.3759 -0.6973  0.7767
 5670SOL    HW128643   2.925   1.058   3.948  3.3464  1.2281  1.5294
 5670SOL    HW228644   2.938   0.911   3.926 -1.6273  0.0819  0.8064
 5671SOL     OW28645   4.021   0.306  10.014 -0.0568 -0.3349  0.8065
 5671SOL    HW128646   4.052   0.221   9.981 -0.9434  0.0461 -0.9491
 5671SOL    HW228647   3.927   0.288  10.018 -0.3165  1.0179  0.7056
 5672SOL     OW28648   2.606   1.342   9.665 -0.3956 -0.2707  0.0414
 5672SOL    HW128649   2.625   1.430   9.631 -1.8865 -0.6032 -1.6739
 5672SOL    HW228650   2.523   1.319   9.623 -1.5319  2.5849  0.7344
 5673SOL     OW28651   2.995   4.652   9.450  0.0075  0.5583  0.2836
 5673SOL    HW128652   2.965   4.648   9.541  0.9391 -1.5797  0.5025
 5673SOL    HW228653   3.027   4.562   9.440  0.2693  0.6308  0.5041
 5674SOL     OW28654   2.119   0.865   2.000  0.0893 -0.3503 -0.0162
 5674SOL    HW128655   2.186   0.811   1.958  1.4953  2.6389 -1.6017
 5674SOL    HW228656   2.175   0.891   2.072 -0.0808 -1.3913  0.4997
 5675SOL     OW28657   0.787   3.740   5.436 -0.1132 -0.4186  0.2823
 5675SOL    HW128658   0.694   3.759   5.434  0.3281  1.5576 -0.6532
 5675SOL    HW228659   0.812   3.831   5.425  0.4125 -0.1637  3.4909
 5676SOL     OW28660   0.998   2.806   8.566 -0.1665 -0.0960 -0.3996
 5676SOL    HW128661   1.080   2.764   8.591 -0.2653 -0.1321 -0.1301
 5676SOL    HW228662   0.955   2.769   8.489 -0.4458  1.7233 -1.1329
 5677SOL     OW28663   0.764   0.290   8.748  0.0684 -0.0050 -0.0138
 5677SOL    HW128664   0.845   0.240   8.757 -0.5515 -1.0572 -0.2380
 5677SOL    HW228665   0.744   0.275   8.655  0.6245  0.1281 -0.1524
 5678SOL     OW28666   0.864   3.027   6.611  0.0319 -0.8215 -0.6495
 5678SOL    HW128667   0.957   3.004   6.613  0.4701  0.8866 -0.8228
 5678SOL    HW228668   0.853   3.033   6.706  1.5567 -2.3294 -0.3810
 5679SOL     OW28669   2.088   2.821   4.323 -0.0177  0.0657  0.2053
 5679SOL    HW128670   2.076   2.906   4.280  1.7785 -0.0139 -0.4596
 5679SOL    HW228671   2.181   2.800   4.317  0.2142  1.7622 -2.1914
 5680SOL     OW28672   0.461   4.334  10.659  0.5117  0.4138 -0.1125
 5680SOL    HW128673   0.380   4.384  10.650  0.7004  0.4160 -1.7246
 5680SOL    HW228674   0.447   4.265  10.594  0.6900  0.7785 -0.5343
 5681SOL     OW28675   4.055   3.965   6.147 -0.1851 -0.0519  0.4468
 5681SOL    HW128676   4.029   3.873   6.146  0.9958 -0.3742  0.2651
 5681SOL    HW228677   3.989   4.009   6.092 -0.3433  0.0976  0.7584
 5682SOL     OW28678   0.683   3.600  10.023  0.1588 -0.5260  0.0143
 5682SOL    HW128679   0.757   3.543  10.043 -2.4240 -3.2245  1.9159
 5682SOL    HW228680   0.618   3.535   9.995 -0.9444  0.8297 -0.6355
 5683SOL     OW28681   0.930   4.686   8.144  0.4946  0.3163  0.3504
 5683SOL    HW128682   0.950   4.598   8.111 -0.1598  0.2690  0.0954
 5683SOL    HW228683   1.017   4.708   8.179 -0.7125  2.6740  1.8398
 5684SOL     OW28684   2.238   3.969   8.943 -0.0078  0.5645 -0.2631
 5684SOL    HW128685   2.190   4.002   9.019 -0.4351 -1.1761  0.2160
 5684SOL    HW228686   2.177   3.993   8.874 -1.1669 -2.1696 -0.1654
 5685SOL     OW28687   2.964   1.000   9.418 -0.2943  0.6337 -0.1266
 5685SOL    HW128688   2.986   0.986   9.510  0.6554 -1.9905 -0.7438
 5685SOL    HW228689   2.995   1.090   9.415  3.9207 -0.8437 -2.1733
 5686SOL     OW28690   2.128   1.625   1.482  0.3008 -0.2760 -0.6044
 5686SOL    HW128691   2.101   1.550   1.429 -1.6826 -0.4858  0.6949
 5686SOL    HW228692   2.176   1.596   1.560 -0.9643  4.1683  1.8086
 5687SOL     OW28693   3.071   0.985   4.771 -0.2423 -0.1794 -0.4259
 5687SOL    HW128694   3.158   1.025   4.763 -2.1361  4.2754  1.2156
 5687SOL    HW228695   3.100   0.895   4.788  1.0212  0.1951 -0.5560
 5688SOL     OW28696   0.231   1.165  13.223  0.2323  0.3892  0.0702
 5688SOL    HW128697   0.202   1.238  13.278 -0.7798  0.7732 -0.9709
 5688SOL    HW228698   0.292   1.119  13.281  0.3082  0.3964 -0.0049
 5689SOL     OW28699   2.034   0.596   2.703 -0.1424 -0.5898  0.3878
 5689SOL    HW128700   1.976   0.654   2.654 -0.7509 -0.5848  1.1229
 5689SOL    HW228701   1.996   0.576   2.788 -2.6414  0.8490 -0.4038
 5690SOL     OW28702   3.387   0.645   9.416 -0.2756 -0.0986  0.9267
 5690SOL    HW128703   3.369   0.581   9.347 -2.9959  0.6895  0.9005
 5690SOL    HW228704   3.336   0.722   9.389 -1.3173 -1.6543 -1.5589
 5691SOL     OW28705   1.449   3.740   4.085 -0.5406 -0.8579  0.0698
 5691SOL    HW128706   1.370   3.716   4.134 -0.4655  0.1605  0.6715
 5691SOL    HW228707   1.508   3.670   4.112  0.1909 -0.2065  0.1469
 5692SOL     OW28708   0.095   3.775  13.794 -0.6050 -0.3756 -0.1179
 5692SOL    HW128709   0.014   3.742  13.832 -1.4972  1.3508 -0.5722
 5692SOL    HW228710   0.091   3.867  13.818  1.3104  0.0028 -1.1582
 5693SOL     OW28711   4.628   0.209  11.837  0.5899  0.3117 -0.0647
 5693SOL    HW128712   4.705   0.153  11.837  0.4560  0.1266 -0.0211
 5693SOL    HW228713   4.601   0.220  11.928 -2.0097 -0.8776 -0.6838
 5694SOL     OW28714   2.906   2.988  15.925 -0.6099  0.5546 -0.2190
 5694SOL    HW128715   2.921   3.074  15.963  1.3460 -0.9892  2.5845
 5694SOL    HW228716   2.992   2.955  15.896  0.6942  3.4201  0.4344
 5695SOL     OW28717   0.007   0.922  16.353 -0.1404  0.5309 -0.1432
 5695SOL    HW128718   0.091   0.965  16.336 -0.7663  2.4776  1.6704
 5695SOL    HW228719   4.699   0.992  16.400  1.8246  0.4118  1.9711
 5696SOL     OW28720   4.004   1.230   0.309 -0.0510  0.3472  0.0114
 5696SOL    HW128721   4.052   1.158   0.350  2.0999  1.7908  0.0787
 5696SOL    HW228722   4.036   1.231   0.219 -0.2444 -2.1013 -0.0744
 5697SOL     OW28723   2.983   0.452   4.951 -0.0646 -0.1180  0.5930
 5697SOL    HW128724   3.028   0.398   4.885  1.5337 -0.9528  2.3739
 5697SOL    HW228725   2.992   0.404   5.033  1.0436 -1.9699 -0.6242
 5698SOL     OW28726   1.830   1.613   5.268  0.3146  0.2810  0.1102
 5698SOL    HW128727   1.772   1.559   5.321  1.3723  1.9379  2.9697
 5698SOL    HW228728   1.885   1.664   5.328  1.1274 -1.1739  0.5911
 5699SOL     OW28729   1.762   4.600  17.350  0.5183  0.1066 -0.2818
 5699SOL    HW128730   1.761   4.511  17.387  0.1749 -0.5034 -1.7574
 5699SOL    HW228731   1.768   4.582  17.256 -2.6635 -2.3642 -0.0193
 5700SOL     OW28732   1.999   0.655   4.882  0.0630 -0.0727  0.4308
 5700SOL    HW128733   1.945   0.635   4.806  1.5562  1.5163 -1.0401
 5700SOL    HW228734   2.013   0.570   4.923  0.7153 -0.2314 -0.1280
 5701SOL     OW28735   1.339   4.153   3.007  0.5588 -0.5213  0.1881
 5701SOL    HW128736   1.374   4.096   2.938  1.7939  0.3655  0.0811
 5701SOL    HW228737   1.414   4.143   3.065  1.5530  2.6352 -0.5458
 5702SOL     OW28738   1.270   1.366   2.559 -0.0893 -0.0714  0.4737
 5702SOL    HW128739   1.255   1.272   2.544  0.6602 -0.4514  2.0389
 5702SOL    HW228740   1.182   1.398   2.537 -0.3239 -0.7516  0.4035
 5703SOL     OW28741   2.325   4.573  15.651  0.3632 -0.5775 -0.3856
 5703SOL    HW128742   2.393   4.564  15.584  0.2518  0.9269 -0.7063
 5703SOL    HW228743   2.368   4.583  15.736 -2.5332  0.0398  0.9856
 5704SOL     OW28744   0.267   1.602   3.380 -0.1036  0.2917 -0.3583
 5704SOL    HW128745   0.241   1.554   3.459 -0.2375  0.2697 -0.4156
 5704SOL    HW228746   0.357   1.570   3.375 -0.3880 -0.3918 -1.2188
 5705SOL     OW28747   1.171   1.975  12.177  0.3633  0.4744  0.1860
 5705SOL    HW128748   1.087   1.930  12.176 -0.4030  1.9342 -1.3718
 5705SOL    HW228749   1.148   2.032  12.104 -0.5831  1.3044  1.1166
 5706SOL     OW28750   2.938   0.427  11.907  0.2404 -0.0533  0.0522
 5706SOL    HW128751   3.020   0.474  11.925 -1.0030  1.5146  1.6911
 5706SOL    HW228752   2.895   0.479  11.839  0.6453  0.8312  0.4620
 5707SOL     OW28753   2.904   3.999  11.312  0.2492 -0.4542  0.2706
 5707SOL    HW128754   2.986   3.954  11.291 -2.5791 -5.1200 -0.8146
 5707SOL    HW228755   2.849   3.983  11.235  0.0964 -0.5200  0.3911
 5708SOL     OW28756   3.566   3.324  16.244 -0.1130  0.1939 -0.0712
 5708SOL    HW128757   3.553   3.337  16.338 -0.4882  1.9915 -0.3641
 5708SOL    HW228758   3.629   3.253  16.231 -1.2107 -1.0845  1.5308
 5709SOL     OW28759   0.693   3.512   7.959 -0.6194 -0.4315  0.3665
 5709SOL    HW128760   0.668   3.551   7.875 -0.1302 -0.5321  0.1721
 5709SOL    HW228761   0.738   3.432   7.931  1.0374  0.5536  0.1671
 5710SOL     OW28762   2.075   3.575   1.676  0.0390  0.2465  0.3243
 5710SOL    HW128763   2.028   3.551   1.597 -0.2351  0.9024  0.2892
 5710SOL    HW228764   2.024   3.525   1.740  0.0833 -0.2844 -0.0547
 5711SOL     OW28765   0.266   0.759   6.688  0.1338 -0.1146 -0.2256
 5711SOL    HW128766   0.303   0.841   6.719 -1.0336 -0.0311  0.9334
 5711SOL    HW228767   0.351   0.729   6.656 -0.1404 -1.4940  0.3130
 5712SOL     OW28768   2.237   0.940  16.014 -0.2624 -0.1384 -0.4720
 5712SOL    HW128769   2.326   0.917  15.987 -0.2673  0.2134 -0.7956
 5712SOL    HW228770   2.201   0.949  15.925 -0.5164  0.0004 -0.3534
 5713SOL     OW28771   3.721   3.342   5.379 -0.2375  0.0746  0.3528
 5713SOL    HW128772   3.704   3.345   5.473 -3.1222 -0.6313 -0.1354
 5713SOL    HW228773   3.751   3.432   5.367  2.7346 -1.0609 -0.8264
 5714SOL     OW28774   3.620   1.376   4.420  0.3479 -0.1890  0.4960
 5714SOL    HW128775   3.547   1.313   4.423  0.0379  0.0967 -1.2652
 5714SOL    HW228776   3.675   1.341   4.490 -1.0041  1.1103  2.2182
 5715SOL     OW28777   3.747   3.647  11.069 -0.3130  0.0329  0.2542
 5715SOL    HW128778   3.808   3.702  11.020  1.9208 -1.2281  1.6132
 5715SOL    HW228779   3.814   3.582  11.088 -1.2458 -0.8928  0.4136
 5716SOL     OW28780   0.445   4.555   5.702  0.0875  0.6780 -0.3145
 5716SOL    HW128781   0.396   4.637   5.692 -1.1453 -0.0757 -0.5150
 5716SOL    HW228782   0.510   4.573   5.769 -0.0485 -0.4945  0.1359
 5717SOL     OW28783   4.175   2.828  16.280  0.4729 -0.3005 -0.2568
 5717SOL    HW128784   4.228   2.751  16.296  0.1015 -0.2715  1.1410
 5717SOL    HW228785   4.241   2.894  16.303  0.0375 -0.4831  1.5561
 5718SOL     OW28786   1.355   2.690   9.613  0.7599  0.1362  0.3379
 5718SOL    HW128787   1.351   2.682   9.708  1.8052 -2.1347  0.1842
 5718SOL    HW228788   1.322   2.779   9.600  1.3688  0.1637 -1.0106
 5719SOL     OW28789   1.516   3.501   9.059 -0.2193 -0.6209 -0.4021
 5719SOL    HW128790   1.436   3.470   9.101  0.5594  1.0252  2.2863
 5719SOL    HW228791   1.565   3.419   9.060 -0.9845 -1.0716 -0.2183
 5720SOL     OW28792   2.921   1.914   4.032  0.9419  0.5718  0.3143
 5720SOL    HW128793   3.013   1.891   4.022  0.6455 -0.2219 -0.6643
 5720SOL    HW228794   2.882   1.826   4.031 -0.6935  1.2853  0.6485
 5721SOL     OW28795   2.172   0.585   8.581 -0.2476 -0.2788 -0.1425
 5721SOL    HW128796   2.078   0.569   8.573 -0.2076  0.4880 -1.9938
 5721SOL    HW228797   2.170   0.641   8.659 -0.8104 -2.3277  1.3252
 5722SOL     OW28798   1.776   3.313   7.076  0.5082 -0.1212 -1.1062
 5722SOL    HW128799   1.843   3.321   7.144 -1.1820 -1.6888  0.7301
 5722SOL    HW228800   1.784   3.219   7.058 -0.4775 -0.2640 -0.8219
 5723SOL     OW28801   1.765   1.951  17.563  0.3295 -0.5553 -0.0869
 5723SOL    HW128802   1.760   1.890  17.489 -0.9822 -0.2408 -0.2620
 5723SOL    HW228803   1.853   1.940  17.599  0.7938  0.7231 -0.8428
 5724SOL     OW28804   4.214   4.482   0.242 -0.3196  1.0001 -0.2088
 5724SOL    HW128805   4.140   4.421   0.239 -1.9312  2.8474  1.8260
 5724SOL    HW228806   4.164   4.549   0.288  0.1622 -0.2592  2.1736
 5725SOL     OW28807   4.018   4.695   8.672  0.3536 -0.0665  0.0049
 5725SOL    HW128808   4.067   4.617   8.697 -0.7001 -0.5243  0.6397
 5725SOL    HW228809   3.955   4.709   8.742 -0.3888  1.1420 -0.9135
 5726SOL     OW28810   1.634   0.183   1.341  0.1023 -0.0767  0.3047
 5726SOL    HW128811   1.555   0.230   1.369 -0.1792 -0.4751  0.1695
 5726SOL    HW228812   1.692   0.253   1.310  1.2605 -0.9480  0.4898
 5727SOL     OW28813   1.590   2.767   0.481  0.1154 -0.4776  0.1697
 5727SOL    HW128814   1.666   2.708   0.483  0.3478 -0.0699  3.1139
 5727SOL    HW228815   1.553   2.738   0.397 -1.2421 -1.9853  1.2875
 5728SOL     OW28816   4.358   0.504   1.416 -0.7052  0.4219 -0.1663
 5728SOL    HW128817   4.341   0.411   1.401  0.7348  0.1576 -0.1106
 5728SOL    HW228818   4.295   0.536   1.352 -2.4031 -2.0449  0.2462
 5729SOL     OW28819   3.184   0.290   4.824 -0.3623  0.4095  0.2422
 5729SOL    HW128820   3.257   0.343   4.789 -0.0700 -0.6466 -0.7721
 5729SOL    HW228821   3.143   0.264   4.741  2.1950 -1.3572 -0.4928
 5730SOL     OW28822   4.442   4.321   7.585 -0.9600 -0.3552 -0.3719
 5730SOL    HW128823   4.454   4.416   7.583 -0.2194 -0.4545 -0.7473
 5730SOL    HW228824   4.410   4.315   7.675 -1.8334 -2.1360 -0.8058
 5731SOL     OW28825   1.032   0.740   5.034  0.0008  0.2319 -0.0765
 5731SOL    HW128826   0.938   0.748   5.021 -0.2487  0.2200  1.6515
 5731SOL    HW228827   1.025   0.657   5.081 -0.6199  0.5379  0.3729
 5732SOL     OW28828   3.045   3.854   6.726  0.3077  0.3117 -0.4590
 5732SOL    HW128829   3.042   3.763   6.756 -2.4465  0.6259  0.1913
 5732SOL    HW228830   3.094   3.891   6.799  2.0520 -1.5886 -0.6555
 5733SOL     OW28831   3.754   1.894   8.407 -0.3450  0.1696 -0.0619
 5733SOL    HW128832   3.773   1.884   8.500 -0.1720  0.0627 -0.1065
 5733SOL    HW228833   3.804   1.818   8.378  0.2384 -0.2868  2.1226
 5734SOL     OW28834   0.681   4.492   2.778  0.2990  0.7335  0.5199
 5734SOL    HW128835   0.662   4.511   2.686  2.9714  0.6773 -0.0224
 5734SOL    HW228836   0.760   4.543   2.796  1.1753 -0.5042  0.1728
 5735SOL     OW28837   0.075   1.549  16.317 -0.3372 -0.3075  0.0430
 5735SOL    HW128838   0.093   1.455  16.317  1.8577  0.0834  2.3191
 5735SOL    HW228839   0.166   1.578  16.312 -0.2382 -0.1783  2.6825
 5736SOL     OW28840   1.922   2.386  11.548 -0.4885 -0.2086  0.4174
 5736SOL    HW128841   1.868   2.442  11.603 -1.8601 -1.6054  0.4933
 5736SOL    HW228842   1.856   2.346  11.492 -0.3243 -1.3490  1.0335
 5737SOL     OW28843   4.645   1.651  15.272 -0.3545 -0.0986 -0.0706
 5737SOL    HW128844   4.681   1.571  15.233  0.0293 -0.3960  0.8754
 5737SOL    HW228845   4.571   1.623  15.326 -2.0007  0.2283 -2.1816
 5738SOL     OW28846   3.108   2.499   5.875  0.4947  0.1437 -1.1034
 5738SOL    HW128847   3.133   2.579   5.829 -1.4489  1.2610 -0.1723
 5738SOL    HW228848   3.197   2.462   5.877 -0.0447 -1.2115 -1.7189
 5739SOL     OW28849   0.504   3.741  11.160 -0.0862 -0.0237  0.4352
 5739SOL    HW128850   0.571   3.809  11.159 -0.4192  0.3129  1.3514
 5739SOL    HW228851   0.523   3.704  11.246 -2.7887 -2.0087  0.1676
 5740SOL     OW28852   4.468   1.046   7.697  0.1324  0.0918 -0.2009
 5740SOL    HW128853   4.452   0.985   7.625 -2.2638 -1.3880  1.6031
 5740SOL    HW228854   4.402   1.116   7.704 -0.4053 -0.6800  2.4178
 5741SOL     OW28855   4.213   2.937   7.733  0.3796  0.1414 -0.1017
 5741SOL    HW128856   4.235   2.850   7.765 -0.3821 -0.0576 -0.1185
 5741SOL    HW228857   4.280   2.992   7.774  0.5143 -0.5715  0.6333
 5742SOL     OW28858   2.001   0.534   5.564 -0.1784 -0.1061  0.5441
 5742SOL    HW128859   1.931   0.548   5.627 -0.7016  0.5870 -0.1907
 5742SOL    HW228860   2.067   0.587   5.609  0.1468  0.1970 -0.2944
 5743SOL     OW28861   4.679   1.311  12.984  0.3333  0.1822  0.7980
 5743SOL    HW128862   4.670   1.333  12.891  1.9821  2.0137  1.0647
 5743SOL    HW228863   4.665   1.397  13.023  0.4034  0.1049  0.9926
 5744SOL     OW28864   0.456   3.308   7.087 -0.1188  0.0622  0.1676
 5744SOL    HW128865   0.551   3.306   7.078  0.0567  2.2846  1.4771
 5744SOL    HW228866   0.420   3.313   6.998  1.0168  1.6976 -0.1882
 5745SOL     OW28867   3.570   0.283   6.888  0.1187 -0.1461  0.5101
 5745SOL    HW128868   3.598   0.375   6.888 -0.9204  0.1819 -0.2298
 5745SOL    HW228869   3.591   0.255   6.799  1.3250  2.8326 -0.1363
 5746SOL     OW28870   3.367   1.283   7.397 -0.6104 -0.6865  0.1188
 5746SOL    HW128871   3.333   1.343   7.463  1.3715 -1.3853  1.7834
 5746SOL    HW228872   3.291   1.230   7.371 -1.3983 -0.2223  1.4569
 5747SOL     OW28873   1.743   0.782   6.645 -0.3084 -0.0687  0.1103
 5747SOL    HW128874   1.720   0.862   6.692  0.8462 -0.6171  1.6289
 5747SOL    HW228875   1.837   0.802   6.646  0.1484 -2.0792 -1.3322
 5748SOL     OW28876   0.060   0.497   3.417 -0.5742  0.4989 -0.6412
 5748SOL    HW128877   0.067   0.586   3.450 -0.2355  0.3150 -0.2139
 5748SOL    HW228878   0.034   0.452   3.497  0.6665  1.7540  0.4571
 5749SOL     OW28879   0.971   3.021  12.958 -0.0810  0.0267  0.4024
 5749SOL    HW128880   0.984   3.006  13.051 -0.9181  1.8176  0.8162
 5749SOL    HW228881   0.898   2.966  12.928  0.4103 -1.2579  1.5811
 5750SOL     OW28882   3.376   4.536   7.354  0.2191 -0.4352 -0.2066
 5750SOL    HW128883   3.355   4.621   7.314 -0.2988  0.9913  3.0886
 5750SOL    HW228884   3.454   4.562   7.402  1.2276 -0.0133 -2.0525
 5751SOL     OW28885   2.752   2.601   6.593  0.4544 -0.3717  0.0208
 5751SOL    HW128886   2.799   2.529   6.635 -0.2212 -1.3570 -0.9314
 5751SOL    HW228887   2.812   2.670   6.619 -0.0119 -0.8512  2.4325
 5752SOL     OW28888   1.521   2.184   8.554  0.7867 -0.2143 -0.1861
 5752SOL    HW128889   1.509   2.247   8.624 -0.9022 -1.2921  0.5190
 5752SOL    HW228890   1.488   2.108   8.603  1.0104 -0.1326  0.0863
 5753SOL     OW28891   1.536   2.461   3.066 -0.0469 -0.4148 -0.4853
 5753SOL    HW128892   1.499   2.514   3.137  1.3590  1.1235 -0.9031
 5753SOL    HW228893   1.487   2.478   2.986 -0.9425  0.5439  0.2646
 5754SOL     OW28894   3.251   3.950   8.827  0.4790 -0.1398  0.0979
 5754SOL    HW128895   3.180   3.932   8.766  1.4555 -0.3446 -0.9919
 5754SOL    HW228896   3.321   3.893   8.792 -0.1164 -0.2335 -0.9502
 5755SOL     OW28897   1.205   3.194   3.540 -0.4677  0.6477  0.5415
 5755SOL    HW128898   1.280   3.194   3.599  0.0585  1.0898 -0.1231
 5755SOL    HW228899   1.175   3.103   3.543  1.6232  0.0260  2.5305
 5756SOL     OW28900   1.171   1.791   7.482 -0.3293 -0.2294  0.2169
 5756SOL    HW128901   1.146   1.701   7.500  2.6799 -1.2934 -0.8763
 5756SOL    HW228902   1.194   1.822   7.570  0.5089 -2.1998  0.6937
 5757SOL     OW28903   0.454   3.352  17.162 -0.0256 -0.2971  0.2152
 5757SOL    HW128904   0.411   3.369  17.245 -0.2194  1.3760 -0.2248
 5757SOL    HW228905   0.524   3.416  17.171  1.0120 -1.5241  0.7238
 5758SOL     OW28906   4.307   0.295   0.611  0.1250 -0.0458  0.3000
 5758SOL    HW128907   4.339   0.245   0.686  0.4079 -0.3783 -0.0385
 5758SOL    HW228908   4.212   0.287   0.619  0.1742 -0.4242  0.5273
 5759SOL     OW28909   1.461   1.700  16.583  0.3139 -0.1998 -0.3607
 5759SOL    HW128910   1.415   1.773  16.543 -0.1568 -0.0592  0.4257
 5759SOL    HW228911   1.445   1.640  16.510 -2.3410 -0.6969  0.6226
 5760SOL     OW28912   4.044   2.639  15.680  0.0987  0.2932  0.4325
 5760SOL    HW128913   3.993   2.609  15.754 -1.4442  0.3142 -0.6257
 5760SOL    HW228914   4.120   2.581  15.681 -0.2847 -0.1989  0.5424
 5761SOL     OW28915   2.067   1.374   2.064  0.3113  0.2749 -0.1519
 5761SOL    HW128916   1.984   1.407   2.100 -0.1061 -0.4753 -0.4296
 5761SOL    HW228917   2.124   1.399   2.136  1.0390  1.0418 -0.9892
 5762SOL     OW28918   4.101   0.849   0.593 -0.3694 -0.7676  0.1629
 5762SOL    HW128919   4.099   0.825   0.500 -0.6311  2.0028 -0.5521
 5762SOL    HW228920   4.010   0.844   0.623 -0.8184  1.4746 -0.8292
 5763SOL     OW28921   3.948   0.496  16.819 -0.3609 -0.5176  0.1289
 5763SOL    HW128922   3.887   0.563  16.790  2.2161  3.3140  3.4852
 5763SOL    HW228923   3.905   0.484  16.904  2.9288  0.5379  1.9912
 5764SOL     OW28924   1.912   0.431   7.614 -0.0549 -0.2074 -0.0565
 5764SOL    HW128925   1.913   0.379   7.694  0.9431 -0.4618 -0.2264
 5764SOL    HW228926   2.006   0.417   7.598  0.1334  0.7142  0.2666
 5765SOL     OW28927   2.641   3.872   5.399  0.1742 -0.3276  0.3596
 5765SOL    HW128928   2.573   3.805   5.405 -0.5445  0.2702 -1.0562
 5765SOL    HW228929   2.719   3.831   5.364 -0.5017 -2.2955  1.1844
 5766SOL     OW28930   2.057   2.554   8.847  0.0476  0.2931 -0.1468
 5766SOL    HW128931   2.142   2.511   8.856  0.1990  0.5147 -0.5206
 5766SOL    HW228932   1.997   2.479   8.857 -0.1385  0.4030 -0.4295
 5767SOL     OW28933   2.306   2.344  12.378 -0.0549  0.3763  0.0712
 5767SOL    HW128934   2.294   2.324  12.471  0.6841 -1.6436 -0.2757
 5767SOL    HW228935   2.326   2.438  12.374  2.0889 -0.0757  0.1897
 5768SOL     OW28936   0.131   2.494   6.481  0.2219  0.2589  0.3543
 5768SOL    HW128937   0.167   2.575   6.446 -0.9874  1.0597  0.9914
 5768SOL    HW228938   0.044   2.520   6.512  0.1579 -0.5596  0.8732
 5769SOL     OW28939   2.999   2.689   2.465  0.4236 -0.2622 -0.1001
 5769SOL    HW128940   3.075   2.658   2.514  0.0876  0.3557  0.8074
 5769SOL    HW228941   3.047   2.705   2.384 -0.9304 -2.3629 -1.3326
 5770SOL     OW28942   1.148   2.966  14.640 -0.2019  0.0972 -0.0405
 5770SOL    HW128943   1.060   2.928  14.641  0.6939 -1.9276  1.3334
 5770SOL    HW228944   1.152   2.988  14.547 -1.6622  0.7232  0.0392
 5771SOL     OW28945   0.415   0.669   4.617  0.3211  0.1005  0.1154
 5771SOL    HW128946   0.363   0.595   4.650  1.3660 -0.8017 -0.2792
 5771SOL    HW228947   0.375   0.696   4.535  1.6596  2.8941  0.3994
 5772SOL     OW28948   0.577   1.179   8.746  0.2185 -0.4054 -1.0737
 5772SOL    HW128949   0.522   1.103   8.728  0.6588 -0.8787 -0.4021
 5772SOL    HW228950   0.550   1.207   8.833  2.5292  0.5211 -0.6548
 5773SOL     OW28951   0.631   3.989  10.189  0.0354 -0.2501  0.2021
 5773SOL    HW128952   0.609   3.920  10.252  0.7113  0.5387  1.3200
 5773SOL    HW228953   0.651   3.936  10.113 -1.3494 -1.9816  1.0401
 5774SOL     OW28954   3.707   1.540   2.311 -0.0191  0.1807  0.0251
 5774SOL    HW128955   3.667   1.582   2.387 -1.3707  0.7078 -0.9799
 5774SOL    HW228956   3.774   1.604   2.287 -0.3529  0.8123  0.7842
 5775SOL     OW28957   3.232   1.743   5.919 -0.2474  0.4066  0.1939
 5775SOL    HW128958   3.146   1.703   5.915  0.4330 -1.1655  1.4136
 5775SOL    HW228959   3.212   1.827   5.961  1.2892  0.7005  0.3461
 5776SOL     OW28960   3.459   1.405   5.496  0.1517 -0.2620  0.4243
 5776SOL    HW128961   3.459   1.493   5.458  1.8317 -0.3718  0.1754
 5776SOL    HW228962   3.522   1.361   5.439  0.6663 -0.5726  1.2262
 5777SOL     OW28963   0.165   1.035   0.177  0.0337  0.0025  0.3119
 5777SOL    HW128964   0.128   1.043   0.265  0.2794  0.9473  0.3187
 5777SOL    HW228965   0.143   0.942   0.168 -1.2692  0.1573  1.7989
 5778SOL     OW28966   0.908   1.874   2.023  0.5119  0.0156  0.1953
 5778SOL    HW128967   0.950   1.847   2.105 -0.4101 -0.3872  0.5292
 5778SOL    HW228968   0.983   1.850   1.968 -0.0098  2.7060 -1.6930
 5779SOL     OW28969   0.223   3.322   2.765 -0.7487  0.5349 -0.5259
 5779SOL    HW128970   0.216   3.418   2.760  0.6115  0.7759  2.7566
 5779SOL    HW228971   0.285   3.307   2.694  0.0824  0.4392  0.2245
 5780SOL     OW28972   2.320   4.646   3.366 -0.0947 -0.7058 -0.6463
 5780SOL    HW128973   2.416   4.643   3.359 -0.0444  0.4456 -0.3586
 5780SOL    HW228974   2.315   4.550   3.373 -0.6402 -0.5765  0.8513
 5781SOL     OW28975   0.950   4.261   5.255  0.2983  0.1883 -0.3434
 5781SOL    HW128976   0.963   4.345   5.300  2.1947  0.5342 -1.5236
 5781SOL    HW228977   0.918   4.293   5.171 -0.4361 -0.4837 -0.3228
 5782SOL     OW28978   3.441   0.744   2.260  0.1093  0.2847  1.0051
 5782SOL    HW128979   3.413   0.784   2.178 -2.4212 -0.2423  1.6122
 5782SOL    HW228980   3.416   0.654   2.243  1.8177 -0.1610  0.8255
 5783SOL     OW28981   0.325   1.311   5.746 -0.0608  0.0959  0.3261
 5783SOL    HW128982   0.401   1.307   5.803  0.4206  0.9405 -0.2675
 5783SOL    HW228983   0.295   1.220   5.750  1.4558 -0.5569 -3.2651
 5784SOL     OW28984   4.024   4.152   6.358  0.2495  0.4228  0.0136
 5784SOL    HW128985   4.046   4.081   6.298 -2.2191  0.1886 -0.6446
 5784SOL    HW228986   3.929   4.140   6.352  0.1832  1.3740 -0.8193
 5785SOL     OW28987   0.602   1.882  13.226  0.5834  0.0257 -0.0408
 5785SOL    HW128988   0.617   1.972  13.198  0.5852 -0.9450 -3.1501
 5785SOL    HW228989   0.671   1.848  13.168  1.9587  2.0744  0.4001
 5786SOL     OW28990   1.687   2.531   6.137  0.3027 -0.0295  0.0489
 5786SOL    HW128991   1.592   2.519   6.135 -0.0222  2.3688  0.9413
 5786SOL    HW228992   1.686   2.613   6.187  1.4902 -0.5324  0.8977
 5787SOL     OW28993   2.210   3.145   5.261  0.0295 -0.3555  0.3124
 5787SOL    HW128994   2.148   3.218   5.271 -2.2757 -2.3358  0.5978
 5787SOL    HW228995   2.300   3.177   5.254 -0.1758  0.1359 -0.0948
 5788SOL     OW28996   0.659   1.527   6.886 -0.2700  0.4423  0.2170
 5788SOL    HW128997   0.687   1.614   6.859 -0.3259  0.1994 -0.6310
 5788SOL    HW228998   0.576   1.517   6.839 -0.3115 -1.2393  0.6339
 5789SOL     OW28999   4.066   2.781  13.523  0.8863  0.2633  0.2374
 5789SOL    HW129000   4.060   2.875  13.540  1.8151  0.4452 -0.4794
 5789SOL    HW229001   4.045   2.734  13.604 -0.2141  1.4778  0.6637
 5790SOL     OW29002   1.882   0.925   9.284  0.2798  0.3082 -0.0821
 5790SOL    HW129003   1.874   0.941   9.190 -2.2687  1.5856  0.3563
 5790SOL    HW229004   1.803   0.876   9.306  0.6093  0.5337  1.6236
 5791SOL     OW29005   3.856   0.238   8.803 -0.1924 -0.1682  0.0965
 5791SOL    HW129006   3.856   0.219   8.897 -4.5347  1.0119  0.3231
 5791SOL    HW229007   3.765   0.226   8.775 -1.0304 -0.1040  2.7961
 5792SOL     OW29008   1.729   0.528  14.505 -0.5045  0.3261  0.3076
 5792SOL    HW129009   1.804   0.528  14.565  0.0669 -1.3921 -0.3887
 5792SOL    HW229010   1.656   0.525  14.566  1.1751  0.4818  2.3510
 5793SOL     OW29011   3.766   0.428   1.672 -0.1303  0.0408 -0.1338
 5793SOL    HW129012   3.749   0.361   1.606  0.1985  0.1805 -0.3609
 5793SOL    HW229013   3.861   0.421   1.664 -0.4075 -0.3752 -2.8442
 5794SOL     OW29014   0.683   2.060   4.350  0.3246 -0.2738  0.7228
 5794SOL    HW129015   0.770   2.075   4.387 -0.5588  2.2832  1.7604
 5794SOL    HW229016   0.621   2.044   4.421 -0.4611 -1.5465 -0.2532
 5795SOL     OW29017   2.957   4.314  12.742 -0.0426 -0.0642  0.4073
 5795SOL    HW129018   3.028   4.281  12.797  0.0721  0.3065  0.4790
 5795SOL    HW229019   3.009   4.359  12.675 -1.3811  2.4432  1.0662
 5796SOL     OW29020   2.643   1.933   3.045 -0.0842  0.9519  0.6192
 5796SOL    HW129021   2.666   1.990   2.972  3.2305  0.0981  0.9977
 5796SOL    HW229022   2.734   1.914   3.070  0.4670  1.6739 -0.8766
 5797SOL     OW29023   1.278   3.793   2.132  0.2735 -0.0808 -0.8566
 5797SOL    HW129024   1.249   3.788   2.041 -1.4532 -0.1009 -0.3183
 5797SOL    HW229025   1.195   3.776   2.178  1.3206 -1.2355  0.6058
 5798SOL     OW29026   3.232   3.526   1.914 -0.5923  0.0734 -0.1941
 5798SOL    HW129027   3.191   3.489   1.836 -2.3281 -1.2453  1.3071
 5798SOL    HW229028   3.176   3.495   1.986  0.7243  0.7146  1.1186
 5799SOL     OW29029   4.038   0.932   3.593 -0.4698  0.4270  0.5396
 5799SOL    HW129030   3.947   0.908   3.609 -0.8758  1.8188  0.2433
 5799SOL    HW229031   4.015   1.020   3.563  0.7482  0.4337 -0.3666
 5800SOL     OW29032   4.721   4.195   8.931 -0.2384  0.1000 -0.1748
 5800SOL    HW129033   4.725   4.277   8.882  1.3836  0.6940  0.9602
 5800SOL    HW229034   0.023   4.223   9.013  0.6045 -0.4677 -0.3893
 5801SOL     OW29035   4.188   3.487  10.879  0.1165 -0.4238  0.2876
 5801SOL    HW129036   4.153   3.519  10.796  1.7338  0.1953 -0.1511
 5801SOL    HW229037   4.164   3.394  10.876 -2.2190  0.1728  0.1259
 5802SOL     OW29038   0.892   2.933  10.025  0.5420  0.2925 -0.4053
 5802SOL    HW129039   0.835   2.923  10.101  0.6661 -0.7590 -0.4580
 5802SOL    HW229040   0.915   3.026  10.028  1.6900 -0.0722  2.4603
 5803SOL     OW29041   3.273   0.361   5.096  0.5522 -0.0476  0.1011
 5803SOL    HW129042   3.236   0.323   5.016  0.3979  1.0373 -0.3499
 5803SOL    HW229043   3.343   0.300   5.116  1.0433  0.0696 -1.2669
 5804SOL     OW29044   4.023   1.757  15.059 -0.6959 -0.3009 -0.2462
 5804SOL    HW129045   4.086   1.714  15.117 -1.4001 -2.2272 -0.9107
 5804SOL    HW229046   3.972   1.679  15.038  1.1057 -1.7283  0.6258
 5805SOL     OW29047   1.850   3.218   2.665 -0.2750  0.4240 -0.6738
 5805SOL    HW129048   1.924   3.182   2.616 -0.0871 -0.6131  0.3829
 5805SOL    HW229049   1.815   3.143   2.713 -0.5767  1.2073  0.3236
 5806SOL     OW29050   0.072   2.636   5.885 -0.6243 -0.5151  0.3182
 5806SOL    HW129051   0.029   2.611   5.803 -0.8842 -0.8708  0.5625
 5806SOL    HW229052   0.162   2.630   5.853 -1.5819 -0.4807 -2.3503
 5807SOL     OW29053   3.946   3.830   4.646  0.1718 -0.4610 -0.1176
 5807SOL    HW129054   3.903   3.862   4.726 -0.9231 -0.3112 -0.7728
 5807SOL    HW229055   3.889   3.764   4.607  0.3014  0.5365 -2.0170
 5808SOL     OW29056   4.369   2.990   0.736 -0.2601  0.1940  0.1126
 5808SOL    HW129057   4.387   3.055   0.804 -0.4415  1.9423 -1.5109
 5808SOL    HW229058   4.282   2.957   0.760 -0.4991 -0.8337 -2.1865
 5809SOL     OW29059   3.521   2.367   2.984  0.0595 -0.3178 -0.2200
 5809SOL    HW129060   3.553   2.449   2.949  0.7890  0.1130  1.4544
 5809SOL    HW229061   3.518   2.389   3.077  0.3182  1.0017 -0.5255
 5810SOL     OW29062   3.325   3.284  16.439  0.7117  0.4905 -0.1848
 5810SOL    HW129063   3.402   3.324  16.478  0.4143  0.3534  0.5330
 5810SOL    HW229064   3.257   3.351  16.446 -0.6765 -1.1472  2.0335
 5811SOL     OW29065   3.665   3.761   2.714 -0.3240  0.2575  0.4709
 5811SOL    HW129066   3.631   3.676   2.741  2.0426 -1.5331 -2.1514
 5811SOL    HW229067   3.615   3.815   2.775 -3.4445  1.0683 -2.7735
 5812SOL     OW29068   0.027   1.788   5.391  0.0826 -0.0259 -0.2368
 5812SOL    HW129069   4.715   1.868   5.374 -1.4409 -0.6528  1.2976
 5812SOL    HW229070   0.116   1.820   5.405 -0.2399  0.4924  0.6426
 5813SOL     OW29071   1.916   0.677   7.291  0.5959 -0.3269  0.6322
 5813SOL    HW129072   1.921   0.582   7.299  2.8398 -0.3091 -0.5193
 5813SOL    HW229073   1.881   0.693   7.379 -1.7863  0.8394 -0.5180
 5814SOL     OW29074   2.099   3.454   8.253  0.4185  0.5108  0.2169
 5814SOL    HW129075   2.100   3.491   8.165  0.1332  4.0294  1.7197
 5814SOL    HW229076   2.010   3.485   8.273  0.0106 -0.9319  0.7327
 5815SOL     OW29077   1.980   4.087   2.853  0.2512  0.7355  0.0958
 5815SOL    HW129078   1.954   4.171   2.814 -1.0810  0.5031  0.4859
 5815SOL    HW229079   2.065   4.112   2.889 -0.1785 -0.1922  1.7832
 5816SOL     OW29080   4.463   1.440   6.712  0.0683 -0.0767 -0.2353
 5816SOL    HW129081   4.445   1.509   6.777  2.0809 -0.3116  0.5729
 5816SOL    HW229082   4.557   1.423   6.712 -0.6663 -4.2004  1.1857
 5817SOL     OW29083   1.514   3.718   3.359 -0.2850 -0.1299 -0.0093
 5817SOL    HW129084   1.523   3.623   3.369  0.0434  0.0695  1.5686
 5817SOL    HW229085   1.579   3.731   3.291  1.3909 -1.7131  1.2728
 5818SOL     OW29086   2.903   2.782  11.746 -0.1012  0.0893  0.0755
 5818SOL    HW129087   2.839   2.851  11.763 -0.1885  0.1698 -0.5943
 5818SOL    HW229088   2.980   2.817  11.792 -2.3802  1.1924  3.0537
 5819SOL     OW29089   2.919   2.336  10.787 -0.1476 -0.0035 -0.1068
 5819SOL    HW129090   2.910   2.396  10.861  1.6187 -1.0858  0.9779
 5819SOL    HW229091   2.900   2.247  10.817 -1.2666 -0.0685 -0.9680
 5820SOL     OW29092   2.340   2.394  11.424  0.0337 -0.1862  0.0702
 5820SOL    HW129093   2.295   2.408  11.507  0.2008 -3.2585  0.6636
 5820SOL    HW229094   2.431   2.399  11.454  0.4288 -0.0860 -1.1080
 5821SOL     OW29095   3.549   4.603   8.194  0.3433  0.5242  0.1593
 5821SOL    HW129096   3.640   4.574   8.207  0.1700  0.2581  0.7795
 5821SOL    HW229097   3.539   4.582   8.102 -0.2758  2.1201 -0.1345
 5822SOL     OW29098   1.445   0.498  12.552 -0.0836 -0.7028 -0.4232
 5822SOL    HW129099   1.387   0.422  12.546  0.4675 -1.1813  0.2071
 5822SOL    HW229100   1.519   0.448  12.587 -0.1476 -0.0829  0.5984
 5823SOL     OW29101   0.373   1.406   9.001 -0.0837 -0.8210  0.5478
 5823SOL    HW129102   0.324   1.324   9.005  0.2504 -1.0805 -0.6423
 5823SOL    HW229103   0.340   1.447   8.921  1.3760 -1.8850 -0.6016
 5824SOL     OW29104   4.357   0.616   5.122  0.4958 -0.5590  0.1585
 5824SOL    HW129105   4.353   0.684   5.189 -0.1027 -0.0326 -0.4108
 5824SOL    HW229106   4.307   0.655   5.050  1.4465 -1.6593 -1.0988
 5825SOL     OW29107   4.026   4.171   5.738 -0.3165  0.5064  0.1771
 5825SOL    HW129108   4.118   4.145   5.739 -0.3265  0.4688  0.1189
 5825SOL    HW229109   3.995   4.104   5.799  0.5244 -2.0500 -2.2110
 5826SOL     OW29110   1.430   1.054   2.223 -0.0076 -0.1817 -0.3201
 5826SOL    HW129111   1.493   0.981   2.221  0.9688  0.6602 -0.2100
 5826SOL    HW229112   1.354   1.005   2.254  0.0338  0.1053  0.2323
 5827SOL     OW29113   1.671   1.041  10.578  0.4792  0.0002  0.1419
 5827SOL    HW129114   1.656   1.007  10.666  1.1348 -0.1889  0.1779
 5827SOL    HW229115   1.585   1.026  10.538  0.5925  0.3168 -0.2284
 5828SOL     OW29116   0.319   0.265  16.885 -0.4007 -0.3893 -0.1593
 5828SOL    HW129117   0.230   0.293  16.865  0.0414  0.5548 -0.7346
 5828SOL    HW229118   0.363   0.317  16.818  1.1298 -1.4843 -0.0105
 5829SOL     OW29119   3.985   1.632   5.132  0.2253  0.1621 -0.7095
 5829SOL    HW129120   3.981   1.658   5.224  0.7709  3.1897 -1.5665
 5829SOL    HW229121   4.057   1.569   5.140  1.2295  1.3028 -0.9444
 5830SOL     OW29122   2.858   4.070   6.739  0.2006 -0.1981  0.3150
 5830SOL    HW129123   2.898   3.989   6.769 -3.2918 -2.0613 -0.1305
 5830SOL    HW229124   2.781   4.034   6.695  0.0189 -1.4752  1.6746
 5831SOL     OW29125   2.024   0.136   8.376  0.2560  0.4790 -0.3165
 5831SOL    HW129126   2.083   0.211   8.372  0.2174  0.4133 -2.3300
 5831SOL    HW229127   1.976   0.154   8.457 -0.8104 -2.2005 -0.3296
 5832SOL     OW29128   2.499   3.898   9.876  0.0011  0.1239 -0.3864
 5832SOL    HW129129   2.496   3.940   9.790 -0.7651 -1.5956 -1.2045
 5832SOL    HW229130   2.408   3.913   9.900  0.3012  0.0310  0.8090
 5833SOL     OW29131   2.729   0.664  11.719  0.4693  0.1003  0.5850
 5833SOL    HW129132   2.815   0.705  11.720  1.1681 -1.3131 -2.7855
 5833SOL    HW229133   2.751   0.585  11.670  1.6811  1.5781 -1.2268
 5834SOL     OW29134   1.711   0.422   5.095 -0.1006  0.3408  0.4155
 5834SOL    HW129135   1.658   0.489   5.050 -1.1492 -0.4049  0.5324
 5834SOL    HW229136   1.746   0.474   5.167 -1.7188  2.7852 -0.5608
 5835SOL     OW29137   4.708   1.740   6.910  0.1827 -0.1616 -0.6103
 5835SOL    HW129138   4.714   1.644   6.908  0.8333 -0.1533  1.1564
 5835SOL    HW229139   0.063   1.762   6.917 -0.0683  0.7234 -0.1041
 5836SOL     OW29140   3.946   4.512   8.890  0.6769 -0.0846  0.0500
 5836SOL    HW129141   3.856   4.520   8.923  0.5097 -1.6356 -0.0271
 5836SOL    HW229142   4.002   4.505   8.967 -0.5614  0.5212  1.0084
 5837SOL     OW29143   2.961   0.908   4.398  0.5667 -0.0050  0.2494
 5837SOL    HW129144   2.978   0.984   4.454 -2.4183 -0.4001  1.6863
 5837SOL    HW229145   2.997   0.930   4.312  0.1024 -0.0657  0.0411
 5838SOL     OW29146   3.895   0.339   7.228  0.0254  0.5520  0.6935
 5838SOL    HW129147   3.917   0.367   7.316 -0.0622 -0.1664  0.9412
 5838SOL    HW229148   3.895   0.423   7.181 -0.3347 -0.1637 -0.5875
 5839SOL     OW29149   1.200   3.822   1.848 -0.3838  0.5740  0.5312
 5839SOL    HW129150   1.197   3.855   1.759  0.1002 -0.3747  0.1632
 5839SOL    HW229151   1.124   3.863   1.890  0.3145  2.8722 -0.4691
 5840SOL     OW29152   2.692   3.652   8.508  0.2396  0.3070  0.0837
 5840SOL    HW129153   2.682   3.636   8.414 -2.4293 -0.1195  0.4549
 5840SOL    HW229154   2.600   3.655   8.535  0.4659 -1.9530  1.0603
 5841SOL     OW29155   1.573   0.508   3.292 -0.1110 -0.5388  0.1286
 5841SOL    HW129156   1.668   0.505   3.305  0.3626  1.4627 -2.9754
 5841SOL    HW229157   1.553   0.415   3.295 -2.2073 -0.0849  0.2865
 5842SOL     OW29158   1.318   3.685   7.014  0.4814 -0.3450  0.4767
 5842SOL    HW129159   1.249   3.623   7.036 -1.7674  2.7140  2.1147
 5842SOL    HW229160   1.285   3.763   7.058 -0.2635  1.2348 -2.8419
 5843SOL     OW29161   0.083   1.401   5.557  0.2371  0.0277  0.0034
 5843SOL    HW129162   0.155   1.442   5.508 -0.3369 -0.0208 -0.8765
 5843SOL    HW229163   0.101   1.420   5.649  0.3353  0.5933 -0.1321
 5844SOL     OW29164   4.033   3.006   5.969 -0.2733  0.2528 -0.3168
 5844SOL    HW129165   4.079   3.082   6.006  0.4895 -0.7391  0.7846
 5844SOL    HW229166   4.019   2.945   6.042  0.6846  0.5009  0.0707
 5845SOL     OW29167   2.035   4.649   2.968  0.1434 -0.3335  0.5524
 5845SOL    HW129168   2.065   4.711   3.035  1.9236 -0.4685 -0.1075
 5845SOL    HW229169   2.107   4.663   2.906 -0.4212 -1.5670 -0.3744
 5846SOL     OW29170   0.722   1.006  12.911  0.7009 -0.1385 -0.2139
 5846SOL    HW129171   0.791   1.048  12.859 -0.0612 -0.1885 -1.2751
 5846SOL    HW229172   0.649   1.037  12.857  0.6335  0.0145 -0.0317
 5847SOL     OW29173   4.386   0.949   3.913 -0.2002 -0.5884  0.1833
 5847SOL    HW129174   4.416   0.873   3.863 -0.9605  1.1962 -2.9793
 5847SOL    HW229175   4.351   1.005   3.844  1.0570  0.6591  0.5733
 5848SOL     OW29176   0.443   4.571  10.069  0.3151  0.2597 -0.1736
 5848SOL    HW129177   0.513   4.634  10.085  0.4219 -0.1479  0.9335
 5848SOL    HW229178   0.448   4.523  10.151  0.2540  1.0094  0.2686
 5849SOL     OW29179   1.111   2.720   5.670 -0.2223  0.4919 -0.0027
 5849SOL    HW129180   1.160   2.715   5.587 -0.5346  1.2696 -0.2297
 5849SOL    HW229181   1.098   2.814   5.673 -1.7678  0.3326 -1.5967
 5850SOL     OW29182   2.564   1.676   6.333 -0.1639  0.6892  0.2758
 5850SOL    HW129183   2.474   1.709   6.339 -0.2779  0.0393  2.1337
 5850SOL    HW229184   2.616   1.727   6.395  1.3925 -0.3240 -0.2118
 5851SOL     OW29185   0.549   0.758   9.351 -0.4805  0.2501  0.1944
 5851SOL    HW129186   0.503   0.757   9.267  0.9184 -1.6850 -0.5535
 5851SOL    HW229187   0.586   0.670   9.345 -0.3079  0.3733 -0.4959
 5852SOL     OW29188   0.262   4.460   9.886  0.0372 -0.0165  0.1625
 5852SOL    HW129189   0.330   4.499   9.941 -1.5753  1.8880  0.7669
 5852SOL    HW229190   0.185   4.498   9.928  1.1255  0.6201  1.5760
 5853SOL     OW29191   1.964   0.225   8.130  0.1205 -0.0535  0.3941
 5853SOL    HW129192   1.896   0.161   8.112 -0.5074  0.1102  2.2800
 5853SOL    HW229193   1.995   0.190   8.213  2.3304 -2.1976 -1.3488
 5854SOL     OW29194   0.381   3.583   5.977 -0.2697 -0.4916  0.0524
 5854SOL    HW129195   0.437   3.566   5.902  1.0293  3.0692  0.1955
 5854SOL    HW229196   0.430   3.522   6.032 -2.0130 -0.5384  1.5495
 5855SOL     OW29197   0.159   4.101   5.662  0.4675 -0.1670 -0.0979
 5855SOL    HW129198   0.251   4.119   5.644  0.2076  1.8282  0.6220
 5855SOL    HW229199   0.134   4.097   5.569  1.6061  2.4578 -0.5234
 5856SOL     OW29200   3.638   3.429   8.772 -0.1394  0.6425 -0.0043
 5856SOL    HW129201   3.707   3.371   8.805 -1.2542 -0.8907 -0.3996
 5856SOL    HW229202   3.699   3.489   8.728 -0.4759  2.4971  2.0847
 5857SOL     OW29203   2.366   4.031   8.371 -0.2139 -0.0847  0.4558
 5857SOL    HW129204   2.274   4.057   8.369 -0.2454  0.1675  3.7384
 5857SOL    HW229205   2.389   4.016   8.463 -1.1491  4.0824  1.3679
 5858SOL     OW29206   3.043   1.030   0.265  0.2904  0.2305  0.3749
 5858SOL    HW129207   3.017   1.117   0.294  0.0998  0.3635 -0.2049
 5858SOL    HW229208   3.121   1.008   0.317  0.6381 -1.2654 -0.7752
 5859SOL     OW29209   2.794   4.620   5.441 -0.2306 -0.0147 -0.0162
 5859SOL    HW129210   2.848   4.649   5.367 -1.3971 -1.4631 -1.4228
 5859SOL    HW229211   2.754   4.537   5.417 -0.5211 -0.7044  2.8088
 5860SOL     OW29212   1.430   2.786   7.757  0.0821 -0.0450  0.1929
 5860SOL    HW129213   1.408   2.876   7.732  1.5861  0.3056  0.1640
 5860SOL    HW229214   1.519   2.796   7.792  0.0780  0.9282 -0.0659
 5861SOL     OW29215   1.670   2.489   9.020 -0.2536  0.2674 -0.0135
 5861SOL    HW129216   1.756   2.448   9.025 -0.9962 -1.0840  1.4890
 5861SOL    HW229217   1.657   2.516   9.111 -0.0334  1.4818 -0.3402
 5862SOL     OW29218   0.418   0.439  17.387  0.1866 -0.0291  0.3556
 5862SOL    HW129219   0.338   0.432  17.334  0.3427  1.6233 -0.0984
 5862SOL    HW229220   0.389   0.496  17.458  1.4460 -0.8997  1.5699
 5863SOL     OW29221   3.704   1.764  10.784  0.2483 -0.7469  0.0767
 5863SOL    HW129222   3.736   1.844  10.743  0.3084 -0.3897  0.8237
 5863SOL    HW229223   3.774   1.704  10.758  1.3479 -0.1098  1.5458
 5864SOL     OW29224   0.540   1.781   7.730  0.3050 -0.1262  0.0120
 5864SOL    HW129225   0.567   1.774   7.821 -1.5597  0.7055  0.6218
 5864SOL    HW229226   0.576   1.869   7.717 -0.5079 -0.1095 -2.2397
 5865SOL     OW29227   4.584   2.119   2.016 -0.7924 -0.7021 -0.3068
 5865SOL    HW129228   4.670   2.121   1.975 -0.1981 -2.3912  0.8266
 5865SOL    HW229229   4.532   2.066   1.955 -1.5164 -0.0323 -0.2635
 5866SOL     OW29230   3.806   0.567   7.106  1.2197  0.3548 -0.2324
 5866SOL    HW129231   3.725   0.596   7.149  1.3787  0.5345 -0.0521
 5866SOL    HW229232   3.786   0.576   7.013 -0.0415  0.7162  0.0714
 5867SOL     OW29233   2.097   3.198   3.633 -0.0316 -0.4633  0.7290
 5867SOL    HW129234   2.132   3.156   3.712  1.7240  0.1429  0.2589
 5867SOL    HW229235   2.024   3.140   3.611 -0.3905  0.3156 -0.1278
 5868SOL     OW29236   2.234   1.647   2.886  0.5936 -0.0903  0.1165
 5868SOL    HW129237   2.324   1.659   2.917  0.6040 -0.1156  0.0963
 5868SOL    HW229238   2.213   1.740   2.886  1.8573  0.1962  0.1946
 5869SOL     OW29239   2.972   1.565   2.097  0.3015  0.2737  0.1786
 5869SOL    HW129240   2.962   1.610   2.181 -1.8128  0.9304 -0.4134
 5869SOL    HW229241   3.067   1.559   2.096  0.2499 -0.0450 -1.8190
 5870SOL     OW29242   3.970   4.372  15.328  0.2102 -0.5397  0.0432
 5870SOL    HW129243   4.055   4.351  15.365  0.6404 -0.3978 -0.8676
 5870SOL    HW229244   3.929   4.292  15.361  0.9382 -1.7070 -1.8275
 5871SOL     OW29245   4.335   2.392   6.145 -0.3719 -0.2049  0.3173
 5871SOL    HW129246   4.368   2.423   6.230  1.0464 -2.5833  0.6475
 5871SOL    HW229247   4.388   2.448   6.089 -0.3233  0.3131  0.8751
 5872SOL     OW29248   2.080   4.405  11.238 -0.0767 -0.3239 -0.4058
 5872SOL    HW129249   2.032   4.391  11.157 -0.7163 -3.0957  0.4484
 5872SOL    HW229250   2.167   4.433  11.211 -0.4400  0.1501 -1.0808
 5873SOL     OW29251   3.757   2.668   2.347 -0.7358  0.5931  0.0446
 5873SOL    HW129252   3.804   2.669   2.264 -1.8608  0.7946 -0.5980
 5873SOL    HW229253   3.704   2.748   2.344 -1.3218  0.1760 -0.7252
 5874SOL     OW29254   3.691   4.718  17.379  0.3960 -0.0510 -0.0127
 5874SOL    HW129255   3.710   0.027  17.297  0.3708  0.8845  0.5192
 5874SOL    HW229256   3.604   4.679  17.368  0.2663  0.0487  0.7232
 5875SOL     OW29257   1.505   2.765   9.389 -0.0970 -0.1405 -0.0287
 5875SOL    HW129258   1.438   2.740   9.452  1.0425 -1.9257  0.4913
 5875SOL    HW229259   1.444   2.813   9.333 -0.9628 -0.4593  0.6554
 5876SOL     OW29260   3.248   1.097   9.476 -0.2643  0.7046 -0.1311
 5876SOL    HW129261   3.203   1.127   9.396 -3.8332 -1.0933  1.1972
 5876SOL    HW229262   3.339   1.110   9.448 -0.7281  1.1534 -1.4376
 5877SOL     OW29263   0.839   0.727   4.689  0.3789 -0.1526  0.2513
 5877SOL    HW129264   0.806   0.720   4.779  0.8622  1.6436  0.5736
 5877SOL    HW229265   0.863   0.638   4.665  1.9501  0.4768 -0.4672
 5878SOL     OW29266   0.112   0.466   1.973  0.5310 -0.3269  0.2098
 5878SOL    HW129267   0.051   0.416   2.026  0.3489  0.3934  0.6748
 5878SOL    HW229268   0.043   0.500   1.916 -1.3359  0.7384  3.1193
 5879SOL     OW29269   1.605   1.658   7.208  0.5230  0.4426  0.0354
 5879SOL    HW129270   1.620   1.693   7.120 -0.8077  3.1295  0.8888
 5879SOL    HW229271   1.557   1.730   7.249 -2.5110 -1.2605 -0.4721
 5880SOL     OW29272   4.525   3.091   8.079 -0.2129 -0.9848 -0.3291
 5880SOL    HW129273   4.525   3.183   8.055 -1.1066 -0.5346  1.3643
 5880SOL    HW229274   4.436   3.082   8.115 -1.1139  2.9215 -1.6126
 5881SOL     OW29275   4.513   3.696  11.852 -0.0330  0.6781 -0.2013
 5881SOL    HW129276   4.458   3.622  11.880  1.9537 -0.8583 -0.3498
 5881SOL    HW229277   4.497   3.711  11.758 -1.6222 -5.1814 -0.8862
 5882SOL     OW29278   1.431   4.090   4.890  0.1256  0.2089 -0.5259
 5882SOL    HW129279   1.453   4.028   4.820 -2.4455  0.4356 -1.5416
 5882SOL    HW229280   1.502   4.151   4.868  0.7627  0.2060  1.5613
 5883SOL     OW29281   1.672   0.258  14.756 -0.7615 -0.5090 -0.0162
 5883SOL    HW129282   1.765   0.242  14.771 -0.3948  0.5172 -1.1561
 5883SOL    HW229283   1.659   0.338  14.808 -1.6907 -0.4275 -0.3707
 5884SOL     OW29284   2.993   2.885   5.767  0.3866  0.1514  0.8277
 5884SOL    HW129285   3.031   2.973   5.758 -0.4918  0.4773  0.3824
 5884SOL    HW229286   2.901   2.912   5.767  1.2467  3.1317 -1.4536
 5885SOL     OW29287   0.028   4.447   7.978 -0.2273 -0.0798 -0.1094
 5885SOL    HW129288   4.691   4.495   7.942 -0.6714  0.2075  1.1968
 5885SOL    HW229289   4.718   4.377   8.022  0.2174  0.4630  1.2280
 5886SOL     OW29290   0.116   4.069   5.113 -0.0966 -0.2488  0.2460
 5886SOL    HW129291   0.097   4.006   5.043  1.1741  1.1998 -1.4136
 5886SOL    HW229292   0.082   4.153   5.083 -0.1404 -0.7194 -1.0176
 5887SOL     OW29293   3.192   2.582   6.689  0.1059  0.0773 -0.6767
 5887SOL    HW129294   3.256   2.605   6.756  1.1435  0.0769 -1.6623
 5887SOL    HW229295   3.231   2.526   6.622  2.5381  0.4134  0.4372
 5888SOL     OW29296   1.137   3.043   9.076  0.0735 -0.1600  0.3859
 5888SOL    HW129297   1.171   3.084   8.997  1.2535  1.9449  1.9854
 5888SOL    HW229298   1.089   2.968   9.041  2.0712 -1.3356  0.1258
 5889SOL     OW29299   1.929   2.194   1.533  0.6621 -0.0282 -0.4362
 5889SOL    HW129300   1.890   2.125   1.587 -0.6719  0.4678 -0.7695
 5889SOL    HW229301   1.867   2.267   1.534 -0.4545 -0.9550 -0.9619
 5890SOL     OW29302   0.981   3.418  14.080 -0.6860  0.4124 -0.1581
 5890SOL    HW129303   1.015   3.502  14.111  2.5397 -0.3065 -1.7124
 5890SOL    HW229304   0.942   3.383  14.160  0.4605 -2.5734 -0.9094
 5891SOL     OW29305   1.843   1.868  15.266 -0.3677 -0.3885 -0.5904
 5891SOL    HW129306   1.795   1.808  15.323 -0.1545  1.7350  1.8085
 5891SOL    HW229307   1.870   1.940  15.323 -1.6871 -0.1607 -0.2643
 5892SOL     OW29308   0.221   0.989   5.296 -0.0723 -0.4437  0.2509
 5892SOL    HW129309   0.197   1.038   5.375  1.4489  1.1755 -0.2810
 5892SOL    HW229310   0.151   0.994   5.231 -1.5838  0.5629  1.9767
 5893SOL     OW29311   2.853   2.984  12.298  0.7489  0.1273 -0.3477
 5893SOL    HW129312   2.849   2.896  12.261 -0.4885 -0.2330  0.6420
 5893SOL    HW229313   2.767   2.986  12.340  0.2309 -2.2208 -1.2929
 5894SOL     OW29314   1.636   1.864   8.457  0.4485 -0.2467 -0.0781
 5894SOL    HW129315   1.578   1.878   8.532  1.3799 -0.6995  0.7234
 5894SOL    HW229316   1.670   1.949   8.427  0.8575  0.0715  1.3166
 5895SOL     OW29317   0.103   1.421   1.963 -0.0624  0.2467 -0.1591
 5895SOL    HW129318   0.062   1.420   2.049 -0.4261  0.8620 -0.3333
 5895SOL    HW229319   0.086   1.508   1.928 -3.3302  0.6179  2.4409
 5896SOL     OW29320   0.985   1.450  11.853  0.3773  0.3702 -0.0724
 5896SOL    HW129321   0.968   1.510  11.782 -1.9966 -2.2811 -1.7206
 5896SOL    HW229322   0.924   1.484  11.918  0.5897 -0.8643  0.7873
 5897SOL     OW29323   4.053   0.294   8.222  0.3165 -0.4532 -0.1222
 5897SOL    HW129324   4.071   0.329   8.135 -0.4139  1.2330  0.3934
 5897SOL    HW229325   3.962   0.265   8.216 -0.1446  0.8421  0.5805
 5898SOL     OW29326   1.236   0.807  14.935 -0.8226  0.5998 -0.0079
 5898SOL    HW129327   1.288   0.874  14.979 -1.9821  1.2372  0.3842
 5898SOL    HW229328   1.161   0.855  14.899 -1.7268  0.5026  1.7427
 5899SOL     OW29329   1.031   2.484   4.361  0.1404 -0.2786  0.1221
 5899SOL    HW129330   1.115   2.529   4.373  0.7984 -0.9861 -1.9216
 5899SOL    HW229331   1.030   2.438   4.277  0.6634 -1.3636  0.7122
 5900SOL     OW29332   4.486   3.409   6.810 -0.4415  0.3446  0.4285
 5900SOL    HW129333   4.452   3.409   6.720 -1.8481 -1.3710  0.9572
 5900SOL    HW229334   4.546   3.484   6.814  1.1529 -0.8829 -0.4906
 5901SOL     OW29335   4.125   0.709   8.520 -0.3668  0.0305 -0.3531
 5901SOL    HW129336   4.081   0.681   8.600  0.8138  0.8197  0.5680
 5901SOL    HW229337   4.138   0.624   8.477  1.8693  0.2938 -0.2013
 5902SOL     OW29338   0.231   3.512   5.470  0.4139  0.0407 -0.1077
 5902SOL    HW129339   0.228   3.598   5.428 -1.2366  0.6573  1.2871
 5902SOL    HW229340   0.233   3.457   5.392  0.6245  2.0170 -1.4820
 5903SOL     OW29341   2.435   0.246  10.030  0.8238  0.2847 -0.5741
 5903SOL    HW129342   2.476   0.189   9.965 -1.0560 -2.4615  0.6353
 5903SOL    HW229343   2.346   0.212  10.041  0.7063  1.2555  1.4114
 5904SOL     OW29344   3.522   3.465   4.293  0.3151  0.5729  0.0214
 5904SOL    HW129345   3.593   3.527   4.312  2.2377 -1.6537  0.1049
 5904SOL    HW229346   3.554   3.390   4.343 -1.9068 -1.1597 -1.1546
 5905SOL     OW29347   1.488   3.727   9.782  0.0535 -0.2941  0.5835
 5905SOL    HW129348   1.465   3.817   9.805  1.8860  0.4077 -0.3143
 5905SOL    HW229349   1.484   3.683   9.867 -0.9603  0.4450  0.9219
 5906SOL     OW29350   3.217   4.279   4.615  0.3348  0.1492  0.1705
 5906SOL    HW129351   3.141   4.290   4.559 -0.3204 -1.2806  0.7891
 5906SOL    HW229352   3.225   4.366   4.655  3.2488 -0.0897  0.1278
 5907SOL     OW29353   4.535   2.540   1.441 -0.1406  0.0320 -0.1015
 5907SOL    HW129354   4.610   2.480   1.439 -0.3953 -0.3112  0.5315
 5907SOL    HW229355   4.508   2.543   1.350 -2.2579  0.1208  0.5250
 5908SOL     OW29356   4.043   3.044   8.229 -0.6242 -0.3749  0.6365
 5908SOL    HW129357   3.971   2.989   8.260  0.1009 -0.5034  2.1191
 5908SOL    HW229358   4.064   3.106   8.300  1.2820  1.3357 -1.4220
 5909SOL     OW29359   0.262   3.946   2.359 -0.1852  0.2024 -0.0191
 5909SOL    HW129360   0.339   3.893   2.382  0.7016  0.8772 -1.3979
 5909SOL    HW229361   0.232   3.983   2.442 -1.2447  0.4871 -0.5332
 5910SOL     OW29362   2.760   1.462   2.323 -0.6231  0.2645  0.3590
 5910SOL    HW129363   2.847   1.464   2.285  0.0684  1.7596  2.0386
 5910SOL    HW229364   2.794   1.459   2.413 -0.3189  1.2182  0.2692
 5911SOL     OW29365   4.275   3.082   1.822 -0.5379 -0.2563  0.6718
 5911SOL    HW129366   4.323   2.999   1.827 -0.4342 -0.2926 -0.8360
 5911SOL    HW229367   4.273   3.075   1.727  1.7935  0.3209  0.5791
 5912SOL     OW29368   2.238   1.536   0.881  0.0613  0.2387 -0.3615
 5912SOL    HW129369   2.333   1.546   0.875  0.1629 -2.1803 -2.6685
 5912SOL    HW229370   2.225   1.453   0.836 -2.0043  1.3250 -1.7574
 5913SOL     OW29371   4.494   3.167   4.441 -0.0345 -0.4050 -0.1020
 5913SOL    HW129372   4.468   3.198   4.354  2.2357  3.1822  0.4760
 5913SOL    HW229373   4.480   3.073   4.451  0.8079 -0.8535 -3.1041
 5914SOL     OW29374   2.914   3.054   4.997 -0.4173 -0.0195  0.7186
 5914SOL    HW129375   2.970   3.017   4.929  1.2772 -1.5268  2.9447
 5914SOL    HW229376   2.872   3.131   4.957 -1.3837 -0.2789  1.2497
 5915SOL     OW29377   4.319   0.516   6.500  0.2195  0.0464 -0.1081
 5915SOL    HW129378   4.328   0.473   6.585 -3.3375 -1.9899 -0.7616
 5915SOL    HW229379   4.402   0.500   6.455  0.9607 -0.2813  1.3768
 5916SOL     OW29380   0.189   1.780   2.444 -0.6174 -0.6965 -0.4078
 5916SOL    HW129381   0.155   1.823   2.523  0.5688  0.7914 -0.6980
 5916SOL    HW229382   0.164   1.842   2.375 -0.0635  0.0691  0.0753
 5917SOL     OW29383   0.289   4.453   7.580 -0.3574 -0.0727 -0.1784
 5917SOL    HW129384   0.193   4.449   7.580 -0.3416 -0.5026 -1.7016
 5917SOL    HW229385   0.289   4.539   7.537  2.5279  0.7322  1.4208
 5918SOL     OW29386   1.296   0.227   8.482  0.3305  0.0077 -0.6346
 5918SOL    HW129387   1.209   0.192   8.461 -0.0736 -0.8658  2.5705
 5918SOL    HW229388   1.296   0.283   8.404 -0.5681  1.2615  0.2702
 5919SOL     OW29389   2.442   4.343   8.879  0.2089  0.2338  0.2723
 5919SOL    HW129390   2.458   4.251   8.898  0.4486 -0.2840 -2.4680
 5919SOL    HW229391   2.527   4.371   8.846  0.1367 -0.6983 -0.6876
 5920SOL     OW29392   2.317   0.277   8.095  0.1917 -0.5147  0.1582
 5920SOL    HW129393   2.282   0.293   8.183  2.1241  1.7238  0.5170
 5920SOL    HW229394   2.267   0.341   8.044  0.1424 -1.2362 -0.7044
 5921SOL     OW29395   2.304   4.686   4.065  0.5135 -0.3493 -0.4103
 5921SOL    HW129396   2.265   0.036   4.067  3.1842  0.7251  2.8291
 5921SOL    HW229397   2.373   4.704   4.000 -0.1204  1.3470 -0.6231
 5922SOL     OW29398   2.077   3.643  16.544  0.1907 -0.3199  0.6725
 5922SOL    HW129399   2.043   3.732  16.543  1.4196  0.1626  3.7687
 5922SOL    HW229400   1.991   3.599  16.544 -1.0685  2.1179 -1.8172
 5923SOL     OW29401   3.815   0.585   4.473  0.5054  0.7765  0.1408
 5923SOL    HW129402   3.831   0.672   4.435 -1.1314 -0.0188 -2.3721
 5923SOL    HW229403   3.833   0.536   4.393 -0.3517  0.8526 -0.1084
 5924SOL     OW29404   2.827   0.951   1.941 -0.1150  0.0600  0.9405
 5924SOL    HW129405   2.734   0.973   1.938 -0.0378  0.3262  0.5400
 5924SOL    HW229406   2.863   1.016   2.002 -1.0077 -0.4426  2.0043
 5925SOL     OW29407   2.715   3.998   1.867  1.1671  0.2575 -0.2479
 5925SOL    HW129408   2.693   4.087   1.894  4.3171  1.5754 -2.0422
 5925SOL    HW229409   2.631   3.955   1.877  0.7914  0.2056 -3.8182
 5926SOL     OW29410   1.177   3.844   2.594  0.1467 -0.7139 -0.6206
 5926SOL    HW129411   1.149   3.833   2.504 -0.1458  1.1653 -0.7588
 5926SOL    HW229412   1.175   3.753   2.625 -0.4454 -0.5306 -0.1040
 5927SOL     OW29413   3.316   2.090   7.729 -0.9012 -0.2660 -0.4008
 5927SOL    HW129414   3.359   2.022   7.678  1.1102  1.1068 -0.5676
 5927SOL    HW229415   3.383   2.155   7.751 -0.0211 -1.2745 -0.0762
 5928SOL     OW29416   2.328   0.968   7.560 -0.3305  0.2596  0.0411
 5928SOL    HW129417   2.242   0.984   7.597 -0.3162 -1.9088  0.9988
 5928SOL    HW229418   2.316   0.873   7.563 -0.6327  0.2497 -1.6129
 5929SOL     OW29419   1.063   0.042   4.393  0.4037  0.6934  0.0485
 5929SOL    HW129420   1.154   0.038   4.365  0.0636  1.4834 -1.1745
 5929SOL    HW229421   1.033   0.096   4.319  0.1250  1.5169  0.7709
 5930SOL     OW29422   2.398   0.349  10.295 -0.1487  0.3123 -0.5928
 5930SOL    HW129423   2.377   0.258  10.312 -1.3223  0.3742 -1.7304
 5930SOL    HW229424   2.410   0.350  10.200  2.5292  0.5474 -0.2781
 5931SOL     OW29425   0.735   1.149   8.427 -0.1424  0.3432  0.1643
 5931SOL    HW129426   0.678   1.084   8.385 -1.6487  0.7197  1.6310
 5931SOL    HW229427   0.813   1.104   8.458  0.1728  1.0463  0.3908
 5932SOL     OW29428   3.512   1.478   9.516  0.2641 -0.0778  0.4943
 5932SOL    HW129429   3.460   1.555   9.538  0.1267  0.4685 -1.7295
 5932SOL    HW229430   3.535   1.440   9.601  0.8084  2.9869  1.6970
 5933SOL     OW29431   2.666   2.700   4.544 -0.0175  0.4120  0.2066
 5933SOL    HW129432   2.642   2.764   4.610 -2.7107 -2.5866  2.1790
 5933SOL    HW229433   2.649   2.623   4.599 -2.1348  0.6170 -0.1394
 5934SOL     OW29434   3.000   2.007  13.629  0.3909 -0.2175 -0.1947
 5934SOL    HW129435   3.086   2.001  13.671  0.6948  0.4955 -0.7078
 5934SOL    HW229436   2.969   2.094  13.654  1.5632  0.4945 -1.2034
 5935SOL     OW29437   1.570   3.486   7.182 -0.1314  0.2349 -0.8658
 5935SOL    HW129438   1.635   3.431   7.139  0.5344  1.8669 -1.9348
 5935SOL    HW229439   1.578   3.449   7.270 -1.4871 -0.9701 -1.2454
 5936SOL     OW29440   1.456   4.533   2.806 -0.2107  0.1833  0.3616
 5936SOL    HW129441   1.485   4.566   2.721  1.9283  0.5849  1.2520
 5936SOL    HW229442   1.362   4.525   2.788 -0.1378 -1.2901  0.6010
 5937SOL     OW29443   2.949   0.684   9.932 -0.1616 -0.9592 -0.5256
 5937SOL    HW129444   3.041   0.663   9.918  0.2441  0.7033 -0.4027
 5937SOL    HW229445   2.926   0.647  10.017  0.4865 -2.1883 -0.8930
 5938SOL     OW29446   2.825   1.457   3.916  0.8985  0.4676  0.1922
 5938SOL    HW129447   2.843   1.461   3.823 -0.8007 -0.4517 -0.1750
 5938SOL    HW229448   2.774   1.380   3.942 -0.5609  0.9915 -1.1908
 5939SOL     OW29449   1.107   0.947  16.939 -0.3614 -0.6729  0.0711
 5939SOL    HW129450   1.084   0.863  16.900  0.7007 -1.2373  0.6540
 5939SOL    HW229451   1.083   0.933  17.030 -0.1766 -0.4000  0.1617
 5940SOL     OW29452   3.907   0.129  12.574  0.2382  0.3204 -0.1099
 5940SOL    HW129453   3.903   0.137  12.669  1.0401 -1.1731  0.0621
 5940SOL    HW229454   3.815   0.109  12.560  0.0507 -0.5781  2.5061
 5941SOL     OW29455   0.508   3.668   5.585  0.0795 -0.4924 -0.2652
 5941SOL    HW129456   0.476   3.581   5.564  0.5148 -0.6660 -0.2015
 5941SOL    HW229457   0.446   3.733   5.551  2.0256  2.2125  1.3321
 5942SOL     OW29458   0.163   1.937   5.844 -0.6843 -0.4228  0.0846
 5942SOL    HW129459   0.223   1.886   5.789 -0.5848  0.7192 -0.8577
 5942SOL    HW229460   0.232   1.973   5.901 -0.8395 -0.5757  0.3706
 5943SOL     OW29461   1.881   2.583   4.003 -0.6132  0.3728  0.0383
 5943SOL    HW129462   1.974   2.606   4.012 -0.3278 -0.5978 -0.4339
 5943SOL    HW229463   1.886   2.488   4.014 -0.0506  0.3312 -0.5822
 5944SOL     OW29464   0.828   0.537   7.323 -0.1067 -0.2320  0.3428
 5944SOL    HW129465   0.738   0.520   7.353 -0.1419  1.0050  0.9284
 5944SOL    HW229466   0.810   0.577   7.238  0.6290  1.4407  0.9800
 5945SOL     OW29467   0.258   4.022  11.927 -0.2393  0.3768 -0.0425
 5945SOL    HW129468   0.279   4.079  12.001 -0.2905  0.4313 -0.0694
 5945SOL    HW229469   0.307   4.076  11.866  0.8304  1.0679  1.4363
 5946SOL     OW29470   0.138   2.981  14.669 -0.2375  0.1079 -0.1453
 5946SOL    HW129471   0.190   3.060  14.678 -0.2496  0.2482 -1.3749
 5946SOL    HW229472   0.102   3.012  14.586  0.3059  3.2563  0.8066
 5947SOL     OW29473   2.308   0.649   4.749  0.5180  0.5788 -0.0527
 5947SOL    HW129474   2.237   0.635   4.812  2.6177 -0.0902  2.1875
 5947SOL    HW229475   2.371   0.580   4.771  0.3187  0.9937  1.8035
 5948SOL     OW29476   4.381   3.450   9.350 -0.5392 -0.4109  0.0934
 5948SOL    HW129477   4.361   3.512   9.280  1.3762  0.0040 -0.0902
 5948SOL    HW229478   4.411   3.508   9.419 -0.8831  0.3777 -0.4161
 5949SOL     OW29479   4.141   1.713   6.252 -0.0997 -0.5014  0.3961
 5949SOL    HW129480   4.190   1.790   6.224 -1.9859  0.4221 -0.3981
 5949SOL    HW229481   4.143   1.739   6.344  3.2513  0.3422  0.0837
 5950SOL     OW29482   2.391   0.228   6.018  0.4982  0.1960  0.0116
 5950SOL    HW129483   2.317   0.169   6.026 -1.1876  2.2613 -0.2953
 5950SOL    HW229484   2.443   0.198   5.944 -1.2599  0.9596 -1.5275
 5951SOL     OW29485   0.677   2.063   0.368  0.1330 -0.7769  0.3014
 5951SOL    HW129486   0.716   2.099   0.288 -0.4491 -0.3709  0.2039
 5951SOL    HW229487   0.710   2.133   0.424 -0.9160 -0.3683  0.3898
 5952SOL     OW29488   1.281   1.282   8.109  0.4196  0.0822 -0.1742
 5952SOL    HW129489   1.243   1.224   8.175 -0.3647 -0.5570 -1.1811
 5952SOL    HW229490   1.335   1.338   8.163 -2.0936  0.3183  2.0669
 5953SOL     OW29491   4.360   2.046   4.913 -0.6585 -0.0747 -0.7624
 5953SOL    HW129492   4.334   2.089   4.994 -4.2926 -0.9230 -1.4769
 5953SOL    HW229493   4.455   2.045   4.928 -0.5561  2.0588 -1.2893
 5954SOL     OW29494   4.283   1.365  16.509 -0.0159 -0.0847  0.0456
 5954SOL    HW129495   4.324   1.449  16.491 -2.2040  0.2217 -3.3933
 5954SOL    HW229496   4.195   1.391  16.535 -0.7899 -2.3230 -0.3020
 5955SOL     OW29497   2.997   1.269  10.627  0.1854 -0.3856  0.3839
 5955SOL    HW129498   2.914   1.235  10.594  0.0912 -0.2933  0.5269
 5955SOL    HW229499   2.984   1.284  10.720  2.4190  0.9484  0.4805
 5956SOL     OW29500   0.850   2.487  14.260 -0.5059  0.1770  0.9395
 5956SOL    HW129501   0.807   2.412  14.302 -2.3911  0.4970 -0.4328
 5956SOL    HW229502   0.889   2.524  14.339  0.6701 -0.3121  0.5879
 5957SOL     OW29503   3.113   2.230  10.981 -0.2610  0.0515  0.0764
 5957SOL    HW129504   3.182   2.265  10.925  1.2986 -2.5761  0.3659
 5957SOL    HW229505   3.156   2.239  11.066 -1.3031 -0.9297  0.7119
 5958SOL     OW29506   0.413   0.425   6.787  0.3661  0.0141  0.3016
 5958SOL    HW129507   0.410   0.366   6.712  1.3066  0.4688 -0.0928
 5958SOL    HW229508   0.504   0.456   6.785  0.5697 -0.5460  0.6389
 5959SOL     OW29509   1.253   3.791   1.420  0.0377  0.2430 -0.0930
 5959SOL    HW129510   1.191   3.849   1.376 -2.7375 -1.4839  1.4829
 5959SOL    HW229511   1.326   3.852   1.415 -1.5556  2.1149 -0.2168
 5960SOL     OW29512   3.647   0.531   6.877 -0.0476 -0.3321 -0.3508
 5960SOL    HW129513   3.659   0.543   6.783  0.5029  2.6629  0.1176
 5960SOL    HW229514   3.575   0.593   6.890 -0.9982 -1.6909  0.8658
 5961SOL     OW29515   3.666   3.971   2.052 -0.6852 -0.4739 -0.1557
 5961SOL    HW129516   3.646   3.938   2.140  1.3783 -0.7241  0.2265
 5961SOL    HW229517   3.654   4.065   2.061  1.2081 -0.1114 -1.3546
 5962SOL     OW29518   2.915   2.766   1.834  0.0235  0.0017 -0.5974
 5962SOL    HW129519   2.968   2.836   1.796  0.1273  0.1345 -0.1982
 5962SOL    HW229520   2.860   2.823   1.887  2.4239  0.8718  0.9338
 5963SOL     OW29521   4.416   3.435   2.156 -0.0507  0.2909  0.1089
 5963SOL    HW129522   4.331   3.467   2.126 -0.2768  0.9038  1.4144
 5963SOL    HW229523   4.411   3.346   2.122 -0.8122 -0.0688  1.1933
 5964SOL     OW29524   1.583   3.216   4.246  0.5633 -0.0344 -0.4013
 5964SOL    HW129525   1.643   3.288   4.265  0.6453  0.2144 -1.6039
 5964SOL    HW229526   1.576   3.171   4.330 -1.6940 -0.0424 -0.5944
 5965SOL     OW29527   3.777   1.359   0.866 -0.1335  0.2535  0.4977
 5965SOL    HW129528   3.870   1.382   0.870 -0.0214  0.4430 -2.7151
 5965SOL    HW229529   3.757   1.359   0.772  0.4234  0.2739  0.3817
 5966SOL     OW29530   2.400   2.957   5.226 -0.4007 -0.4747 -0.3004
 5966SOL    HW129531   2.318   3.000   5.251 -1.2381 -0.7810 -2.5305
 5966SOL    HW229532   2.363   2.881   5.181 -0.2207 -1.0847  0.5942
 5967SOL     OW29533   1.611   0.805   1.427 -0.1816 -0.3855 -0.0112
 5967SOL    HW129534   1.706   0.808   1.436 -0.2539  1.6464  0.0814
 5967SOL    HW229535   1.595   0.818   1.333  0.0161 -2.1293 -0.2911
 5968SOL     OW29536   3.029   1.714   4.857  0.2236  0.1884 -0.1473
 5968SOL    HW129537   3.083   1.738   4.782  1.3915 -0.6388  0.4270
 5968SOL    HW229538   2.947   1.761   4.841  0.0944  0.3868  1.0426
 5969SOL     OW29539   4.654   4.032   6.414  0.2205 -0.2735 -0.5902
 5969SOL    HW129540   4.696   4.022   6.329  2.4925 -0.4272  0.5526
 5969SOL    HW229541   4.570   3.989   6.403 -0.1643 -0.2295  1.9983
 5970SOL     OW29542   3.680   0.370  10.074  0.5708  0.0684 -0.1473
 5970SOL    HW129543   3.592   0.407  10.069 -0.3201 -2.1810 -1.1637
 5970SOL    HW229544   3.722   0.443  10.028  0.5310 -0.0561 -0.3827
 5971SOL     OW29545   4.709   4.247   4.964 -0.1673 -0.1953  0.1761
 5971SOL    HW129546   4.729   4.339   4.983 -2.5462  0.7828 -2.1809
 5971SOL    HW229547   0.009   4.225   4.879 -0.5345 -0.9994  0.2168
 5972SOL     OW29548   4.402   1.506   1.591 -0.1848 -0.1305 -0.0841
 5972SOL    HW129549   4.331   1.500   1.655 -0.2991 -1.9044 -0.3856
 5972SOL    HW229550   4.483   1.490   1.639 -0.3931  1.5493  0.8170
 5973SOL     OW29551   1.186   0.617   8.938 -0.6947  0.0439  0.1317
 5973SOL    HW129552   1.258   0.604   8.875 -2.5310  1.3881 -2.2726
 5973SOL    HW229553   1.113   0.567   8.901 -0.5029  1.7794 -2.6505
 5974SOL     OW29554   4.678   4.710   4.295  0.2367 -0.0924  0.0148
 5974SOL    HW129555   4.657   4.669   4.212  3.9733 -0.0985 -0.9226
 5974SOL    HW229556   0.011   0.034   4.278  0.6816 -0.9361 -1.1700
 5975SOL     OW29557   1.082   0.412   7.184 -0.7026 -0.0274  0.2623
 5975SOL    HW129558   1.015   0.364   7.232 -0.3610 -1.0680 -0.2991
 5975SOL    HW229559   1.062   0.503   7.206 -0.7976 -0.5912  2.4602
 5976SOL     OW29560   4.277   3.074   1.061  0.3178  0.0116  0.3821
 5976SOL    HW129561   4.206   3.090   0.999  0.9638 -1.5197 -0.7550
 5976SOL    HW229562   4.352   3.108   1.011 -0.3504 -0.3644 -0.8834
 5977SOL     OW29563   0.521   0.207   5.799 -0.3879 -0.1912 -0.1162
 5977SOL    HW129564   0.547   0.219   5.707 -1.2149  0.4902 -0.2583
 5977SOL    HW229565   0.543   0.292   5.836 -0.4048 -0.3184  0.1872
 5978SOL     OW29566   1.005   1.472   9.231 -0.2180  0.1988 -0.6829
 5978SOL    HW129567   1.085   1.522   9.213  1.5089 -2.3962 -0.0484
 5978SOL    HW229568   1.005   1.403   9.165  0.8473  0.8869 -1.4068
 5979SOL     OW29569   3.051   2.238   3.401  0.1081  0.5879  0.6154
 5979SOL    HW129570   3.097   2.163   3.361  0.2670  1.9233 -1.7277
 5979SOL    HW229571   3.002   2.193   3.470  0.5757 -0.6422  0.1520
 5980SOL     OW29572   1.177   3.435   5.653  0.7082  0.3863  0.1289
 5980SOL    HW129573   1.142   3.401   5.571 -0.1633  1.4807  0.0464
 5980SOL    HW229574   1.214   3.518   5.622 -0.7787  0.7465 -0.6693
 5981SOL     OW29575   1.535   4.524  12.515 -0.4225  0.0009  0.7515
 5981SOL    HW129576   1.532   4.587  12.444 -1.9583 -1.1482 -0.2174
 5981SOL    HW229577   1.459   4.550  12.567  0.5737 -0.1873  2.3139
 5982SOL     OW29578   2.903   3.680   4.161  0.0360 -0.7136  0.1707
 5982SOL    HW129579   2.870   3.598   4.125 -1.0409 -0.4627  0.5670
 5982SOL    HW229580   2.993   3.673   4.131 -0.4393  0.8630 -1.6618
 5983SOL     OW29581   3.830   0.699   0.653 -0.0468 -0.2848  0.7708
 5983SOL    HW129582   3.739   0.681   0.672 -0.0681 -0.3014  0.6507
 5983SOL    HW229583   3.821   0.719   0.560  0.3348 -0.4846  0.6906
 5984SOL     OW29584   0.287   4.182   9.833 -0.2508  0.0422 -0.2061
 5984SOL    HW129585   0.248   4.261   9.870 -0.1756  0.2101 -0.4835
 5984SOL    HW229586   0.314   4.134   9.911  0.5653 -0.1065 -0.5792
 5985SOL     OW29587   1.248   4.433   3.099  0.5467  0.8295 -0.0329
 5985SOL    HW129588   1.296   4.460   3.177  1.8026  1.4150 -1.0120
 5985SOL    HW229589   1.300   4.359   3.067  0.7264  1.2134 -0.6380
 5986SOL     OW29590   1.408   2.251   6.731  0.1321  0.0203 -0.2320
 5986SOL    HW129591   1.329   2.204   6.702 -0.9349 -0.1563  2.9669
 5986SOL    HW229592   1.399   2.336   6.688 -2.3491 -1.1960 -2.1226
 5987SOL     OW29593   4.039   2.283  17.016 -0.4209 -0.1501  0.5750
 5987SOL    HW129594   4.039   2.341  17.092 -1.6830 -1.7653  1.8163
 5987SOL    HW229595   4.109   2.226  17.048  0.6853  0.7709 -0.1958
 5988SOL     OW29596   3.429   4.086  15.163 -0.0090  0.0467  0.0172
 5988SOL    HW129597   3.341   4.123  15.168 -0.0429  0.2428 -2.1767
 5988SOL    HW229598   3.480   4.162  15.137  0.1121 -0.2060 -0.4851
 5989SOL     OW29599   0.999   0.829   6.751  0.5597  0.0785  0.7444
 5989SOL    HW129600   1.005   0.832   6.656  1.1276 -1.3597  0.7368
 5989SOL    HW229601   1.048   0.749   6.767  0.7945  0.3311  1.3102
 5990SOL     OW29602   3.244   0.777  12.054 -0.4468  0.2820  0.0162
 5990SOL    HW129603   3.151   0.765  12.073 -0.4055 -1.0235 -0.6098
 5990SOL    HW229604   3.234   0.838  11.981  1.1957  1.3345  0.6538
 5991SOL     OW29605   1.477   0.947   2.502 -0.9877 -0.2289  0.2160
 5991SOL    HW129606   1.488   0.854   2.525  0.0278  0.8831  4.1474
 5991SOL    HW229607   1.514   0.946   2.413 -0.1648  1.1602  0.5473
 5992SOL     OW29608   0.288   0.611   6.919  0.0240 -0.5807  0.4023
 5992SOL    HW129609   0.349   0.549   6.878 -0.8966 -0.9995 -0.3276
 5992SOL    HW229610   0.269   0.667   6.843 -1.0526 -0.5986  0.6648
 5993SOL     OW29611   2.614   3.184   7.519 -0.1303  0.7145  0.8047
 5993SOL    HW129612   2.579   3.179   7.430  1.5731 -0.3475  0.1805
 5993SOL    HW229613   2.535   3.151   7.561 -0.7306  0.1801 -0.7453
 5994SOL     OW29614   1.245   1.320   5.063  0.3037 -0.0409  0.2837
 5994SOL    HW129615   1.223   1.346   5.153  0.9020  0.5079  0.2687
 5994SOL    HW229616   1.239   1.224   5.065 -1.1622  0.0189 -0.8453
 5995SOL     OW29617   2.423   0.268   5.526  0.2901 -0.1287 -0.2418
 5995SOL    HW129618   2.338   0.275   5.484  0.3499  3.9760  0.3387
 5995SOL    HW229619   2.426   0.348   5.578 -0.9941 -1.5145  1.9703
 5996SOL     OW29620   0.489   0.315  15.817 -0.4239 -0.4241 -0.2123
 5996SOL    HW129621   0.443   0.248  15.765 -1.5632  1.4278 -1.5746
 5996SOL    HW229622   0.489   0.382  15.749  1.6448 -1.2834 -1.0472
 5997SOL     OW29623   0.989   1.750   5.373  0.8619  0.3777 -0.2059
 5997SOL    HW129624   0.990   1.678   5.435 -0.5842  0.8578  0.3843
 5997SOL    HW229625   0.900   1.747   5.339 -0.0361 -3.0922  2.5503
 5998SOL     OW29626   0.179   4.625   7.326  0.0296  0.3415  0.2755
 5998SOL    HW129627   0.102   4.573   7.302  0.0350  0.4875 -0.0658
 5998SOL    HW229628   0.204   4.662   7.241  0.3373  0.4600  0.4207
 5999SOL     OW29629   0.375   0.174   3.888  0.1069 -0.2710  0.2850
 5999SOL    HW129630   0.305   0.215   3.837  0.0016  2.7010  2.8019
 5999SOL    HW229631   0.330   0.150   3.969  0.7881  0.5251  0.8932
 6000SOL     OW29632   3.609   2.046  12.552  0.2494  0.0876  0.2715
 6000SOL    HW129633   3.688   1.993  12.548  0.1586 -0.1408  1.5957
 6000SOL    HW229634   3.658   2.118  12.591  1.8222 -2.3319  2.7324
 6001SOL     OW29635   2.236   0.836  12.199 -0.0525  0.6863  0.0673
 6001SOL    HW129636   2.295   0.901  12.161  0.7345  0.7861  1.4407
 6001SOL    HW229637   2.258   0.760  12.145 -0.9010  1.2647 -1.0866
 6002SOL     OW29638   2.046   3.320   4.051 -0.7499  0.1086 -0.3467
 6002SOL    HW129639   2.132   3.279   4.054 -1.1412 -0.6378  0.7554
 6002SOL    HW229640   2.028   3.335   3.958 -0.7354  2.4250  0.0224
 6003SOL     OW29641   3.199   3.257  17.715 -0.7059 -0.2335  0.3950
 6003SOL    HW129642   3.157   3.237   0.049 -0.6499  0.1307  0.5107
 6003SOL    HW229643   3.230   3.346  17.731  0.5601 -1.0965  2.6317
 6004SOL     OW29644   2.906   4.303   3.158  0.3136 -0.3218 -0.4888
 6004SOL    HW129645   2.927   4.396   3.161  1.2631 -0.4603 -2.3120
 6004SOL    HW229646   2.840   4.295   3.227  0.1664  1.7583 -0.3852
 6005SOL     OW29647   0.761   1.220   9.662 -0.5505 -0.1528  0.1451
 6005SOL    HW129648   0.776   1.140   9.611  2.4600  0.2671  0.3272
 6005SOL    HW229649   0.801   1.180   9.740 -2.4807 -0.7692  0.8257
 6006SOL     OW29650   3.659   3.214   9.290 -0.2504  0.2985 -0.1127
 6006SOL    HW129651   3.706   3.146   9.243  0.4584  0.3692  0.4942
 6006SOL    HW229652   3.721   3.285   9.272  0.3948 -0.4304 -0.7529
 6007SOL     OW29653   0.914   2.214   4.440 -0.2974  0.2593  0.3449
 6007SOL    HW129654   0.997   2.189   4.398  0.0930  1.9651  0.0981
 6007SOL    HW229655   0.947   2.222   4.530  0.5926  0.7842 -0.0208
 6008SOL     OW29656   4.704   3.377   9.117  0.2144  0.4911 -0.6436
 6008SOL    HW129657   0.051   3.382   9.160 -0.8734  2.1683  1.3200
 6008SOL    HW229658   4.643   3.360   9.189  1.1440 -1.7058 -0.3786
 6009SOL     OW29659   1.207   2.025  13.190 -0.6399  0.2017 -0.6963
 6009SOL    HW129660   1.297   2.044  13.163 -0.5902 -1.2055 -1.5668
 6009SOL    HW229661   1.161   2.006  13.108 -3.1759  1.9060  0.3502
 6010SOL     OW29662   1.105   4.445   2.451  0.1768 -0.6601 -0.1978
 6010SOL    HW129663   1.104   4.398   2.368  0.7091  0.7268 -0.9832
 6010SOL    HW229664   1.015   4.439   2.483 -0.0358  0.1714 -0.6476
 6011SOL     OW29665   3.198   3.318   4.186 -0.4428  0.1758  0.5851
 6011SOL    HW129666   3.152   3.401   4.184 -0.9602 -0.0923  1.4569
 6011SOL    HW229667   3.161   3.271   4.261 -0.1735  2.4222  2.1086
 6012SOL     OW29668   3.174   2.500   8.755  0.4751 -0.2828 -0.0020
 6012SOL    HW129669   3.232   2.537   8.689  1.9905 -1.3567  0.7279
 6012SOL    HW229670   3.173   2.561   8.829 -1.6502  0.6349 -0.7843
 6013SOL     OW29671   2.910   1.419   8.835 -0.8118 -0.2614  0.2536
 6013SOL    HW129672   2.932   1.471   8.912  0.7204 -1.0263  0.3185
 6013SOL    HW229673   2.814   1.424   8.830 -0.6164 -1.6872 -4.6047
 6014SOL     OW29674   1.866   1.531   2.214 -0.0415 -0.1708 -0.6311
 6014SOL    HW129675   1.923   1.607   2.203  0.8333 -0.8626 -0.9378
 6014SOL    HW229676   1.871   1.517   2.309  0.2181 -1.4993 -0.8436
 6015SOL     OW29677   3.658   0.962   4.982  0.0873 -0.1969 -0.0313
 6015SOL    HW129678   3.658   0.867   4.967 -1.4725 -0.2731  0.4409
 6015SOL    HW229679   3.684   0.963   5.074  2.2048 -0.0759 -0.6193
 6016SOL     OW29680   1.149   0.413   4.392 -0.0936 -0.9405 -0.4083
 6016SOL    HW129681   1.168   0.468   4.468 -0.0255 -2.2852  0.5553
 6016SOL    HW229682   1.235   0.377   4.371  0.1969 -1.9668  2.4694
 6017SOL     OW29683   0.199   1.266  14.698  0.4674 -0.0968 -0.2829
 6017SOL    HW129684   0.172   1.181  14.732  1.6181 -0.1917  0.3937
 6017SOL    HW229685   0.136   1.273  14.627  0.4076 -3.4094 -0.5799
 6018SOL     OW29686   1.468   3.952   4.671  0.0447 -0.6168  0.4157
 6018SOL    HW129687   1.417   3.957   4.590 -0.5033 -2.8224  0.6255
 6018SOL    HW229688   1.552   3.915   4.643 -0.6581 -0.6681 -1.6450
 6019SOL     OW29689   3.469   1.042   0.615 -0.4251  0.0385 -0.5624
 6019SOL    HW129690   3.465   1.094   0.535 -0.2214  1.7946  0.5690
 6019SOL    HW229691   3.378   1.020   0.636  0.4714 -2.0213  1.2385
 6020SOL     OW29692   1.069   1.698  14.169  0.1085  0.0141 -0.4256
 6020SOL    HW129693   1.133   1.653  14.114  0.7150  0.3695 -0.0032
 6020SOL    HW229694   1.125   1.763  14.211  2.7890 -1.6905 -1.4142
 6021SOL     OW29695   2.258   4.294   5.037 -0.5509  0.3649 -0.2789
 6021SOL    HW129696   2.352   4.299   5.017 -0.7055 -1.2642 -1.3983
 6021SOL    HW229697   2.256   4.380   5.079 -0.2176 -0.3703  1.2550
 6022SOL     OW29698   1.898   4.158  15.121 -0.7958  0.3288  0.2261
 6022SOL    HW129699   1.880   4.076  15.166  3.5591 -0.3789  0.6967
 6022SOL    HW229700   1.950   4.211  15.181  0.8406 -0.5763 -0.3925
 6023SOL     OW29701   3.431   3.513   2.204 -0.2943 -0.0839 -0.1439
 6023SOL    HW129702   3.495   3.537   2.271  2.1669 -4.3572 -0.9277
 6023SOL    HW229703   3.456   3.566   2.128 -1.2715 -0.4027 -0.6947
 6024SOL     OW29704   3.541   4.482   0.518  0.1833  0.4752  0.0383
 6024SOL    HW129705   3.610   4.451   0.460  0.3082  0.7273  0.0542
 6024SOL    HW229706   3.491   4.401   0.530  0.2208  0.2955 -1.0782
 6025SOL     OW29707   3.816   0.107  17.167 -0.0144 -0.3852  0.0181
 6025SOL    HW129708   3.902   0.106  17.125 -0.1485  4.1364 -0.3305
 6025SOL    HW229709   3.778   0.188  17.134  0.8867 -0.8655 -2.2395
 6026SOL     OW29710   1.379   2.217   7.022  0.4305 -0.4254 -0.2415
 6026SOL    HW129711   1.409   2.227   6.932 -0.3286 -1.3301 -0.5973
 6026SOL    HW229712   1.392   2.307   7.052  0.1965 -0.0575 -1.2305
 6027SOL     OW29713   0.386   0.668   7.555  0.4818  0.3006  0.0959
 6027SOL    HW129714   0.398   0.611   7.478 -1.1975 -1.2571  0.9854
 6027SOL    HW229715   0.382   0.753   7.512  0.4650 -1.0374 -2.5647
 6028SOL     OW29716   1.338   3.202  11.501  0.2153  0.3959  0.5576
 6028SOL    HW129717   1.266   3.151  11.466  2.3195 -1.2569 -1.3707
 6028SOL    HW229718   1.330   3.199  11.596  0.6993  1.2368  0.6312
 6029SOL     OW29719   1.996   1.089   0.336 -0.6312 -0.2877 -0.2058
 6029SOL    HW129720   1.996   0.995   0.354 -2.6516  0.0049  1.4114
 6029SOL    HW229721   2.090   1.104   0.332 -0.6966  0.0148 -0.6010
 6030SOL     OW29722   4.446   0.740   3.740  0.3340 -0.3143 -0.1688
 6030SOL    HW129723   4.480   0.651   3.753  0.9326 -0.1499 -0.5943
 6030SOL    HW229724   4.353   0.721   3.734  0.1192  0.8051 -0.3202
 6031SOL     OW29725   4.410   4.681   6.891 -0.0731 -0.3710 -0.0219
 6031SOL    HW129726   4.490   4.629   6.898  0.0823 -0.3942 -2.0041
 6031SOL    HW229727   4.443   0.032   6.882  0.6341 -0.6580 -0.2251
 6032SOL     OW29728   2.794   2.490   3.175 -0.0820 -0.4867 -0.1793
 6032SOL    HW129729   2.886   2.505   3.198  0.4131 -0.4606 -2.1914
 6032SOL    HW229730   2.780   2.401   3.207  0.2836 -0.5591 -0.2141
 6033SOL     OW29731   4.186   1.278   2.405  0.0466 -0.1708 -0.2667
 6033SOL    HW129732   4.233   1.358   2.429 -1.9401  0.8459  0.2190
 6033SOL    HW229733   4.099   1.311   2.387 -0.2692 -1.8333 -1.7719
 6034SOL     OW29734   3.329   2.006   6.883  0.3353 -0.4340  0.4773
 6034SOL    HW129735   3.408   2.027   6.834  0.6606  0.2447  1.2909
 6034SOL    HW229736   3.348   2.029   6.974  1.8606  2.5160 -0.6190
 6035SOL     OW29737   3.262   1.827   7.533 -0.1518 -0.1850 -0.0090
 6035SOL    HW129738   3.303   1.902   7.490 -1.6679  1.2276  1.0232
 6035SOL    HW229739   3.341   1.784   7.566  0.7309  0.0403 -1.8304
 6036SOL     OW29740   3.182   1.271   6.390 -0.4285  0.4536  0.4215
 6036SOL    HW129741   3.122   1.345   6.397 -2.5238 -1.3312  1.1433
 6036SOL    HW229742   3.262   1.309   6.427  0.3784  1.1972 -2.0524
 6037SOL     OW29743   1.347   3.887   6.694 -0.1794 -0.1174  0.2381
 6037SOL    HW129744   1.290   3.810   6.700 -1.0022  0.6424  2.5950
 6037SOL    HW229745   1.285   3.948   6.734 -0.9311  0.6057 -2.0619
 6038SOL     OW29746   0.458   1.839   2.491  0.1072 -0.1050 -0.2608
 6038SOL    HW129747   0.459   1.886   2.575  1.8245  0.5756 -0.6656
 6038SOL    HW229748   0.367   1.834   2.463  0.2617 -2.7205 -0.2757
 6039SOL     OW29749   2.980   1.447   6.407  0.1041  0.4068 -0.2665
 6039SOL    HW129750   2.971   1.515   6.339 -1.2642  1.2537  0.7711
 6039SOL    HW229751   2.901   1.396   6.387  0.8436 -1.1454  0.8562
 6040SOL     OW29752   4.468   4.068   3.815 -0.0247 -0.4519  0.1341
 6040SOL    HW129753   4.401   4.000   3.827  1.2094 -1.5223  1.0559
 6040SOL    HW229754   4.546   4.015   3.829  0.3816  0.3252  0.8034
 6041SOL     OW29755   0.042   3.873   4.918 -0.0834 -0.6568 -0.0827
 6041SOL    HW129756   4.688   3.889   4.895  0.2087  2.5368  1.0147
 6041SOL    HW229757   0.018   3.801   4.976  1.6404 -1.4800 -0.3996
 6042SOL     OW29758   4.631   3.560   3.604  0.4976 -0.1220  0.0505
 6042SOL    HW129759   4.646   3.549   3.698 -0.4062 -0.0039  0.2065
 6042SOL    HW229760   4.701   3.504   3.571  1.6776  0.3409  1.7423
 6043SOL     OW29761   4.114   3.130   5.452 -0.0088  0.0452 -0.7682
 6043SOL    HW129762   4.051   3.179   5.399 -1.4109 -0.2589  0.6170
 6043SOL    HW229763   4.162   3.205   5.487 -1.1621  0.5434 -0.2576
 6044SOL     OW29764   1.894   2.050  15.501  0.3465 -0.2600  0.5226
 6044SOL    HW129765   1.958   1.996  15.548 -2.1692 -1.5502  2.4560
 6044SOL    HW229766   1.832   2.078  15.568 -0.6933 -0.2997 -0.4264
 6045SOL     OW29767   1.078   2.239   4.172  0.0278  0.2980  0.4555
 6045SOL    HW129768   1.081   2.272   4.082 -0.6169 -0.3174  0.2084
 6045SOL    HW229769   1.083   2.144   4.164  1.2325  0.5022 -1.3960
 6046SOL     OW29770   3.182   3.881   8.016  0.0642 -0.4236 -0.3770
 6046SOL    HW129771   3.264   3.919   8.045 -0.6378  1.2765 -0.6500
 6046SOL    HW229772   3.165   3.809   8.078 -0.3420 -0.4668 -0.5387
 6047SOL     OW29773   0.633   1.403   7.533 -0.6363  0.2353  0.4620
 6047SOL    HW129774   0.698   1.417   7.602 -1.3384 -0.0487  1.1866
 6047SOL    HW229775   0.646   1.309   7.520  2.0679  1.0703 -2.8024
 6048SOL     OW29776   2.678   3.674  10.173  0.1683  0.2975 -0.0251
 6048SOL    HW129777   2.698   3.692  10.081  0.1444  1.6948  0.2475
 6048SOL    HW229778   2.638   3.750  10.214  2.9305  1.3164  0.7901
 6049SOL     OW29779   2.706   4.529   3.579  0.3802  0.2404  0.3743
 6049SOL    HW129780   2.772   4.596   3.598  0.0410  0.3465  1.1685
 6049SOL    HW229781   2.645   4.537   3.652 -2.1687 -0.8512 -1.6579
 6050SOL     OW29782   0.033   3.359  16.632 -0.3616  0.7222 -0.7445
 6050SOL    HW129783   0.069   3.405  16.557 -2.4403  0.7325 -1.7371
 6050SOL    HW229784   4.678   3.379  16.618 -1.1419 -1.0280  1.9627
 6051SOL     OW29785   4.574   0.613  13.485 -0.1117 -0.6603  0.0583
 6051SOL    HW129786   4.504   0.610  13.420 -1.0454 -0.3908  1.0600
 6051SOL    HW229787   4.632   0.665  13.430 -2.9519  0.9754 -1.3737
 6052SOL     OW29788   1.113   3.573  17.206  0.2820  0.4706 -0.3788
 6052SOL    HW129789   1.163   3.558  17.287  1.2611  1.5869 -0.7845
 6052SOL    HW229790   1.160   3.510  17.152 -1.9493  0.0989 -1.8984
 6053SOL     OW29791   2.409   0.780   3.739 -0.0157 -0.2259 -0.1909
 6053SOL    HW129792   2.419   0.842   3.668  1.0121  0.3726  0.4852
 6053SOL    HW229793   2.313   0.775   3.739 -0.0047 -0.2067  4.0542
 6054SOL     OW29794   2.137   3.133   5.630 -0.0870 -0.5113 -0.4334
 6054SOL    HW129795   2.128   3.040   5.607 -0.9897 -0.4985 -0.1310
 6054SOL    HW229796   2.118   3.168   5.544 -2.1703  0.0448  0.2608
 6055SOL     OW29797   3.671   1.742   2.522  0.1762 -1.0814  0.0032
 6055SOL    HW129798   3.628   1.699   2.596  0.0445 -1.5464 -0.3450
 6055SOL    HW229799   3.764   1.732   2.543  0.6430  0.8602 -1.1149
 6056SOL     OW29800   0.526   3.406   9.937 -0.2001 -0.4454  0.4878
 6056SOL    HW129801   0.462   3.398  10.008 -2.3335  1.1702 -1.2589
 6056SOL    HW229802   0.465   3.437   9.870  0.1406 -1.1731 -0.1580
 6057SOL     OW29803   0.272   3.030  13.655  0.5105  0.2071 -0.1133
 6057SOL    HW129804   0.282   3.070  13.742  0.8454  0.6725 -0.3664
 6057SOL    HW229805   0.193   2.980  13.675 -0.3911  2.3779  1.7395
 6058SOL     OW29806   0.558   1.946  16.960  0.3450 -0.2071  0.1234
 6058SOL    HW129807   0.580   2.035  16.989 -0.6292  0.4126 -1.0560
 6058SOL    HW229808   0.636   1.911  17.003  0.7141  0.3126 -0.1245
 6059SOL     OW29809   2.796   1.942   5.929 -0.1426  0.4446  0.0337
 6059SOL    HW129810   2.844   1.917   6.008  0.0592  0.2494 -0.1528
 6059SOL    HW229811   2.850   1.900   5.862  0.1685 -1.2194  1.3248
 6060SOL     OW29812   0.563   2.906   5.706  0.2955  0.0769  0.2058
 6060SOL    HW129813   0.505   2.974   5.673 -0.7347 -0.8437  0.1452
 6060SOL    HW229814   0.643   2.944   5.669  0.0136  1.5435  1.0553
 6061SOL     OW29815   1.370   3.397   9.437 -0.4249  0.2593  0.1744
 6061SOL    HW129816   1.452   3.359   9.470  1.3364  4.2167  0.3594
 6061SOL    HW229817   1.314   3.411   9.513 -0.1393  1.1288  0.2202
 6062SOL     OW29818   2.836   1.352   1.961 -0.0014  0.0767  0.1763
 6062SOL    HW129819   2.872   1.431   2.001 -1.5920  0.8621  0.0507
 6062SOL    HW229820   2.865   1.284   2.021  0.8572 -0.1009 -0.4411
 6063SOL     OW29821   0.706   2.931   7.884 -0.0632 -0.3052 -0.3679
 6063SOL    HW129822   0.786   2.979   7.906 -0.4000 -0.3681  0.9619
 6063SOL    HW229823   0.641   2.994   7.851  0.2302  0.9584  1.4879
 6064SOL     OW29824   3.953   1.059   2.269 -0.8687 -0.0156 -0.2508
 6064SOL    HW129825   3.859   1.049   2.253 -1.0793  0.8449  0.4274
 6064SOL    HW229826   3.974   1.025   2.356  1.5811  0.1239 -0.7776
 6065SOL     OW29827   3.581   2.142   8.866 -0.9049  0.6298  0.0002
 6065SOL    HW129828   3.495   2.108   8.839  0.0748 -2.7308  1.0455
 6065SOL    HW229829   3.564   2.179   8.953 -0.7286  2.2475 -0.6735
 6066SOL     OW29830   4.393   0.954   3.114 -0.7548 -0.6682  0.0718
 6066SOL    HW129831   4.322   0.953   3.178  1.2528 -0.9982  2.2872
 6066SOL    HW229832   4.401   0.862   3.087 -0.6693 -0.3815 -0.8855
 6067SOL     OW29833   1.637   0.652   8.268 -0.2472 -0.5226  0.1521
 6067SOL    HW129834   1.639   0.727   8.327 -0.6431  0.2708 -0.8460
 6067SOL    HW229835   1.621   0.676   8.176  2.7365  1.1948  0.0755
 6068SOL     OW29836   4.606   0.242   5.427  0.0533 -0.0046  0.3623
 6068SOL    HW129837   4.594   0.245   5.522 -0.8452 -1.3179  0.2849
 6068SOL    HW229838   4.528   0.200   5.392  0.5372  0.7407 -1.6342
 6069SOL     OW29839   1.022   0.920   9.357  0.0025 -0.5691 -0.0183
 6069SOL    HW129840   0.944   0.912   9.303 -1.1042 -1.8133  1.7390
 6069SOL    HW229841   1.072   0.845   9.325  1.5303  0.5503 -0.2663
 6070SOL     OW29842   4.040   3.608  15.487 -0.2772  0.0352  0.3440
 6070SOL    HW129843   4.035   3.514  15.503 -2.2352 -0.3262 -2.3872
 6070SOL    HW229844   4.039   3.599  15.392  3.1340 -1.2692  0.4347
 6071SOL     OW29845   4.659   4.555   6.879  0.0270 -0.8653  0.0479
 6071SOL    HW129846   4.687   4.582   6.791  0.2760 -0.2021  0.3325
 6071SOL    HW229847   4.690   4.464   6.887  0.7828 -0.5081  1.1536
 6072SOL     OW29848   2.236   4.062  15.388 -0.3343  0.7167 -0.0043
 6072SOL    HW129849   2.210   4.042  15.298 -0.3840 -0.6765  0.3185
 6072SOL    HW229850   2.304   3.997  15.405  0.7304  1.2485 -2.1746
 6073SOL     OW29851   1.018   1.916   2.676 -0.0874  0.2934  0.6348
 6073SOL    HW129852   0.998   2.003   2.642 -0.0148  0.4816  1.0707
 6073SOL    HW229853   0.950   1.915   2.743 -1.4068  1.7386 -0.7008
 6074SOL     OW29854   3.112   3.882   6.457  0.3759  0.1279  0.5152
 6074SOL    HW129855   3.017   3.873   6.444  0.5412  0.5283 -0.9480
 6074SOL    HW229856   3.116   3.860   6.550 -0.7988 -0.8587  0.3394
 6075SOL     OW29857   2.792   2.532   8.039  0.3230  0.4837 -0.7016
 6075SOL    HW129858   2.864   2.576   8.083 -0.2234  1.0912 -0.4222
 6075SOL    HW229859   2.821   2.441   8.038 -1.2637 -0.0178 -1.4080
 6076SOL     OW29860   3.729   0.407   0.739  0.0781  0.1292 -0.2074
 6076SOL    HW129861   3.665   0.451   0.684 -0.7124 -1.3504 -0.4680
 6076SOL    HW229862   3.672   0.393   0.815  0.6963 -1.5415 -0.0631
 6077SOL     OW29863   0.187   4.073  15.282 -0.0174 -0.6933 -0.2450
 6077SOL    HW129864   0.181   4.116  15.197  0.5635 -1.7216 -0.8148
 6077SOL    HW229865   0.276   4.091  15.313  0.7583 -1.7322 -1.8887
 6078SOL     OW29866   0.357   0.101   5.218  0.2237  0.4512 -0.2627
 6078SOL    HW129867   0.283   0.108   5.277 -0.9137 -0.7348 -1.5381
 6078SOL    HW229868   0.333   0.017   5.179 -0.3000  1.0106 -1.1489
 6079SOL     OW29869   0.138   0.686   2.761  0.1440  0.1085  0.8107
 6079SOL    HW129870   0.229   0.674   2.736  1.0908  2.3665  3.1770
 6079SOL    HW229871   0.117   0.599   2.795  0.9017 -0.7365 -0.9076
 6080SOL     OW29872   0.182   3.104   8.822 -0.1329  0.3075  0.0872
 6080SOL    HW129873   0.210   3.116   8.731 -1.2463 -2.5553 -0.6417
 6080SOL    HW229874   0.205   3.189   8.860  1.8723  0.5187 -1.5807
 6081SOL     OW29875   0.261   1.574  11.321  0.4983 -0.0727  0.7080
 6081SOL    HW129876   0.293   1.631  11.390 -0.2809 -0.0198  1.0232
 6081SOL    HW229877   0.218   1.500  11.363 -1.1591 -0.1484 -1.1012
 6082SOL     OW29878   2.476   2.021   7.575 -0.2156 -0.1503 -0.4211
 6082SOL    HW129879   2.561   2.023   7.531 -1.9422  0.4290 -3.6935
 6082SOL    HW229880   2.485   2.094   7.637 -1.7173  0.2818 -0.7161
 6083SOL     OW29881   3.276   2.097   5.177 -0.1731  0.1663 -0.5103
 6083SOL    HW129882   3.183   2.077   5.163 -0.5818  1.4485  0.3520
 6083SOL    HW229883   3.259   2.191   5.169  2.7335  0.7628  0.2563
 6084SOL     OW29884   0.418   0.827   1.932  0.5533 -0.0218  0.5456
 6084SOL    HW129885   0.442   0.909   1.889  0.8917 -0.4096  0.0043
 6084SOL    HW229886   0.402   0.849   2.024  0.2107  2.0683 -0.0212
 6085SOL     OW29887   0.399   1.147   6.055  0.8101  0.2342  0.3764
 6085SOL    HW129888   0.466   1.100   6.005  0.9111  0.8262 -0.0435
 6085SOL    HW229889   0.457   1.177   6.125  0.7215  0.6238  0.2810
 6086SOL     OW29890   0.112   3.673  10.477 -0.0431  0.1604 -0.0657
 6086SOL    HW129891   0.047   3.603  10.481 -2.1680  2.2087  0.8043
 6086SOL    HW229892   0.180   3.650  10.540 -0.4456 -0.2692  0.2189
 6087SOL     OW29893   0.618   2.263   7.927 -0.0072 -0.3895 -0.1193
 6087SOL    HW129894   0.706   2.288   7.900  0.3676  0.4086  1.8772
 6087SOL    HW229895   0.632   2.255   8.021  1.7865  2.0726 -0.1714
 6088SOL     OW29896   1.004   2.426   6.663  0.4568  0.0734 -0.8806
 6088SOL    HW129897   0.958   2.482   6.726 -1.8051 -3.8775  0.9993
 6088SOL    HW229898   0.989   2.342   6.707 -1.5638  0.0482 -1.6330
 6089SOL     OW29899   2.126   0.427  10.412  0.6000  0.5537 -0.5515
 6089SOL    HW129900   2.177   0.501  10.444  2.1113 -1.5716  1.9163
 6089SOL    HW229901   2.195   0.381  10.364  1.8309  1.9679 -0.1452
 6090SOL     OW29902   1.004   0.991  14.796  0.2404  1.0497  0.1173
 6090SOL    HW129903   0.956   0.928  14.742  2.9477  1.0693 -2.2593
 6090SOL    HW229904   1.010   1.054  14.724  0.5856  0.6828 -0.1757
 6091SOL     OW29905   2.565   3.660   3.944  0.7819 -0.0218 -0.1602
 6091SOL    HW129906   2.614   3.583   3.915 -3.3823 -2.7652 -0.0853
 6091SOL    HW229907   2.519   3.625   4.021  1.8986  0.4546  0.7125
 6092SOL     OW29908   1.390   4.257   2.362  0.4977 -0.1570 -0.1003
 6092SOL    HW129909   1.355   4.256   2.451 -0.0446  0.4017 -0.2979
 6092SOL    HW229910   1.482   4.233   2.372  1.0830  0.9458 -2.8364
 6093SOL     OW29911   3.698   1.589   5.075 -0.5934 -0.1969 -0.1590
 6093SOL    HW129912   3.642   1.654   5.118 -0.0321  0.6445 -0.6976
 6093SOL    HW229913   3.787   1.607   5.103 -0.4978  2.3281 -2.0221
 6094SOL     OW29914   0.107   2.314   4.899  0.3009  0.1236 -0.0368
 6094SOL    HW129915   0.174   2.360   4.849 -0.5073  2.1025  0.7221
 6094SOL    HW229916   0.170   2.264   4.952  0.9690 -0.8086 -1.7210
 6095SOL     OW29917   2.608   1.250  14.767  0.5843  0.6789  0.1026
 6095SOL    HW129918   2.552   1.320  14.734 -0.0095 -1.0867 -2.5629
 6095SOL    HW229919   2.598   1.260  14.862  0.6702  2.0185 -0.0308
 6096SOL     OW29920   3.731   0.084   6.229 -0.0263 -0.3614 -0.2416
 6096SOL    HW129921   3.679   0.163   6.213 -0.6045 -0.6033  0.4430
 6096SOL    HW229922   3.778   0.106   6.309 -1.8552 -0.1262  0.7586
 6097SOL     OW29923   3.544   2.110  10.578 -0.0974  0.0326  0.1104
 6097SOL    HW129924   3.628   2.072  10.603  0.5101  1.0247 -0.4526
 6097SOL    HW229925   3.526   2.055  10.502  0.5868  0.2031 -0.1757
 6098SOL     OW29926   2.397   3.489   8.891  0.6672 -0.3855  0.0248
 6098SOL    HW129927   2.453   3.532   8.826 -2.0568  3.2968  0.0638
 6098SOL    HW229928   2.458   3.435   8.941  0.8123 -0.1800  0.0688
 6099SOL     OW29929   0.754   1.795   1.792 -0.0235  0.8806 -0.2681
 6099SOL    HW129930   0.804   1.775   1.713  0.0724  5.3596 -1.3393
 6099SOL    HW229931   0.820   1.795   1.860  0.1262  1.0967 -0.4126
 6100SOL     OW29932   4.707   1.718   3.017  0.2266  0.0381 -0.0930
 6100SOL    HW129933   4.710   1.809   3.049 -1.1635 -0.0014  0.1292
 6100SOL    HW229934   0.053   1.687   3.052  1.2069  1.9821 -0.6790
 6101SOL     OW29935   2.786   0.435  12.703  0.2901  0.3860  0.0514
 6101SOL    HW129936   2.851   0.500  12.730  0.9231  0.4100 -1.4950
 6101SOL    HW229937   2.717   0.467  12.761  0.8068 -1.5276  1.6953
 6102SOL     OW29938   0.424   3.308   2.292  0.1839  0.4945 -0.1752
 6102SOL    HW129939   0.439   3.214   2.284  1.6246  0.8131 -1.1666
 6102SOL    HW229940   0.460   3.320   2.380 -0.4181 -1.2281  0.2994
 6103SOL     OW29941   0.059   4.547  11.014 -0.1282  0.8690 -0.2272
 6103SOL    HW129942   0.061   4.634  11.054 -0.5484  0.3348  0.9637
 6103SOL    HW229943   0.124   4.506  11.072  0.8112  1.6169 -0.7557
 6104SOL     OW29944   2.370   3.493  12.230 -0.3684  0.5545 -0.2892
 6104SOL    HW129945   2.424   3.559  12.274 -4.4858  3.6655  0.1156
 6104SOL    HW229946   2.409   3.488  12.143  1.5638  3.0021  0.4234
 6105SOL     OW29947   3.153   2.579   0.390 -0.5577 -0.0567  0.5749
 6105SOL    HW129948   3.185   2.668   0.371 -0.4088 -0.0848  0.6905
 6105SOL    HW229949   3.079   2.581   0.329  0.3137  3.0530 -0.3917
 6106SOL     OW29950   1.471   0.674   8.581 -0.1688 -0.3813  0.5767
 6106SOL    HW129951   1.514   0.593   8.607  1.5770  0.7136  1.1108
 6106SOL    HW229952   1.487   0.722   8.662 -2.4966 -1.1409  1.5044
 6107SOL     OW29953   2.411   0.728   8.442  0.2056 -0.1973  0.5995
 6107SOL    HW129954   2.443   0.666   8.378 -0.3261  0.0106  0.1280
 6107SOL    HW229955   2.354   0.674   8.498 -1.2698  0.5255 -0.2057
 6108SOL     OW29956   2.852   1.185  10.314 -0.0988  0.4454  0.1038
 6108SOL    HW129957   2.813   1.114  10.365  0.5949  1.8902  2.6303
 6108SOL    HW229958   2.907   1.140  10.249 -0.6790  0.5791 -0.4801
 6109SOL     OW29959   0.525   3.394   6.319 -0.0337 -0.2118 -0.5770
 6109SOL    HW129960   0.575   3.365   6.396  0.0978 -0.3076 -0.6983
 6109SOL    HW229961   0.510   3.486   6.338 -1.5700 -0.5705 -0.1023
 6110SOL     OW29962   3.200   3.441   3.892  0.3320 -0.0036 -0.3080
 6110SOL    HW129963   3.230   3.399   3.812  0.1936 -0.0613 -0.3286
 6110SOL    HW229964   3.117   3.397   3.907  0.4913  0.2505  1.3516
 6111SOL     OW29965   4.293   1.832   2.898  0.0446  0.1014 -0.0549
 6111SOL    HW129966   4.198   1.830   2.896  0.0861  1.3318 -3.1766
 6111SOL    HW229967   4.313   1.885   2.976 -1.5849  1.3480 -0.4884
 6112SOL     OW29968   2.206   0.405  14.483  0.4730 -0.2920  0.6935
 6112SOL    HW129969   2.295   0.396  14.449  0.0538  0.5670 -0.6165
 6112SOL    HW229970   2.202   0.501  14.477  3.5468 -0.3901 -2.6101
 6113SOL     OW29971   3.807   4.215   2.849  0.5821  0.0233 -0.2618
 6113SOL    HW129972   3.798   4.267   2.928 -0.6211  1.1701 -1.1445
 6113SOL    HW229973   3.899   4.192   2.848  0.8138  0.9289  0.1652
 6114SOL     OW29974   4.336   3.427   6.571 -0.4004  0.6200 -0.0119
 6114SOL    HW129975   4.313   3.385   6.489  0.1057  0.0261  0.1509
 6114SOL    HW229976   4.248   3.433   6.609 -0.7679 -0.0112 -0.7606
 6115SOL     OW29977   1.903   0.131   1.631  0.2803  0.3895  0.0302
 6115SOL    HW129978   1.987   0.163   1.665  1.1365 -0.8271 -0.9199
 6115SOL    HW229979   1.839   0.184   1.678 -1.6570 -2.2146  0.3036
 6116SOL     OW29980   4.638   0.496   5.833  0.4938  0.0223  0.1990
 6116SOL    HW129981   4.556   0.542   5.850  1.0538  1.2290 -0.3938
 6116SOL    HW229982   4.610   0.405   5.822 -0.1590  0.0765  1.3383
 6117SOL     OW29983   1.050   2.801  17.710 -0.2346 -0.0360  0.1540
 6117SOL    HW129984   1.032   2.824   0.051  0.0991 -0.9090  0.4448
 6117SOL    HW229985   1.013   2.875  17.662 -0.5918 -0.2410  0.1085
 6118SOL     OW29986   1.811   0.091  17.532  0.4499 -0.0918  0.0873
 6118SOL    HW129987   1.850   0.157  17.474  4.1678 -2.1744  0.2044
 6118SOL    HW229988   1.834   0.011  17.484 -2.2219 -0.2743 -0.8676
 6119SOL     OW29989   2.228   1.474   4.583  0.0196 -0.3871  0.0818
 6119SOL    HW129990   2.147   1.464   4.633  0.9210  2.2030  2.0629
 6119SOL    HW229991   2.279   1.402   4.620  3.0346  1.3377 -0.7664
 6120SOL     OW29992   2.696   1.453   3.632  0.0896 -0.3499 -0.0769
 6120SOL    HW129993   2.608   1.468   3.668  0.6459 -0.3420  1.3066
 6120SOL    HW229994   2.716   1.536   3.589  0.1152 -0.3763 -0.1151
 6121SOL     OW29995   4.328   0.330  10.803  0.1174  0.3595  0.6751
 6121SOL    HW129996   4.270   0.255  10.787  0.1412  0.6133 -0.6722
 6121SOL    HW229997   4.269   0.404  10.788  0.6240  0.3392 -1.4233
 6122SOL     OW29998   3.122   2.841   6.272 -0.3107  0.3717  0.7175
 6122SOL    HW129999   3.187   2.909   6.255  0.4288 -0.0133  1.9659
 6122SOL    HW230000   3.134   2.827   6.366  1.1750  2.0807  0.7846
 6123SOL     OW30001   0.783   0.572  10.232 -0.3303  0.2217  0.4427
 6123SOL    HW130002   0.776   0.567  10.328 -1.4598 -3.7780  0.1762
 6123SOL    HW230003   0.875   0.587  10.210 -0.2144 -0.5060  0.4301
 6124SOL     OW30004   0.846   1.383   1.268  0.4132 -0.3395  0.6569
 6124SOL    HW130005   0.931   1.404   1.231 -0.6221 -1.4486 -2.3232
 6124SOL    HW230006   0.830   1.446   1.339  1.6510  2.4640 -1.5576
 6125SOL     OW30007   4.013   0.314   2.269 -0.3725  0.1140 -0.3881
 6125SOL    HW130008   4.041   0.336   2.358 -0.4598  3.3472 -1.1764
 6125SOL    HW230009   4.056   0.381   2.216 -0.1717 -1.7325 -2.5480
 6126SOL     OW30010   2.896   0.528   3.119  0.3616  0.1110  0.3352
 6126SOL    HW130011   2.882   0.474   3.197  1.0657  0.1466  0.4820
 6126SOL    HW230012   2.961   0.473   3.076  1.4963  1.0673  0.8047
 6127SOL     OW30013   1.074   4.121   3.124  0.2922  0.3779 -0.4107
 6127SOL    HW130014   0.994   4.107   3.072  0.3438 -2.1394  0.2005
 6127SOL    HW230015   1.146   4.129   3.061  0.7837  2.0256  0.3686
 6128SOL     OW30016   3.412   3.337   6.871 -0.2864 -0.0907  0.3337
 6128SOL    HW130017   3.505   3.316   6.873 -0.4652 -1.0463 -1.1435
 6128SOL    HW230018   3.395   3.392   6.947 -1.0249 -1.2204  0.9733
 6129SOL     OW30019   1.347   4.427   8.010  0.1426  0.3156 -0.4571
 6129SOL    HW130020   1.394   4.510   8.020  2.0858 -0.4970 -2.6984
 6129SOL    HW230021   1.285   4.437   8.082 -1.0501  1.3290 -1.6245
 6130SOL     OW30022   3.619   4.050   4.979  0.1202 -0.4212 -0.2754
 6130SOL    HW130023   3.573   4.009   5.052  0.3347  0.6296  0.4368
 6130SOL    HW230024   3.546   4.097   4.941 -0.6615  0.0199  1.7645
 6131SOL     OW30025   2.028   3.773   3.369  0.1149  0.1057 -0.1277
 6131SOL    HW130026   2.119   3.799   3.381  0.8047 -3.0624  1.5397
 6131SOL    HW230027   2.022   3.681   3.345  2.6017 -0.2618  0.6783
 6132SOL     OW30028   0.420   3.194  16.019 -0.5094  0.1719 -0.8309
 6132SOL    HW130029   0.401   3.183  15.926 -2.7777  0.1956 -0.3799
 6132SOL    HW230030   0.515   3.191  16.007 -0.3340  1.9173  0.0498
 6133SOL     OW30031   1.980   1.588   3.992 -0.1445  0.1694 -1.1050
 6133SOL    HW130032   1.890   1.557   3.985 -0.2469  0.1530  0.4558
 6133SOL    HW230033   1.985   1.602   4.086 -1.3930  1.6739 -1.2607
 6134SOL     OW30034   2.328   4.381   3.390 -0.5212  0.2578 -0.0194
 6134SOL    HW130035   2.258   4.318   3.373  0.3953 -1.4728  2.7864
 6134SOL    HW230036   2.367   4.353   3.472  2.1859 -0.2996 -1.4900
 6135SOL     OW30037   4.654   2.304  10.214 -0.0082  0.0283  0.6244
 6135SOL    HW130038   4.576   2.346  10.251 -0.5242 -0.4107  0.0270
 6135SOL    HW230039   4.635   2.325  10.123  2.3949  1.5683  0.4877
 6136SOL     OW30040   2.956   3.824   2.773 -0.3668 -0.3095  0.1411
 6136SOL    HW130041   2.877   3.870   2.803  0.4828 -0.9621  3.4761
 6136SOL    HW230042   2.985   3.797   2.861  1.2062  1.1794  0.0902
 6137SOL     OW30043   2.656   2.024   2.517 -0.3024  1.1410 -0.0838
 6137SOL    HW130044   2.569   2.021   2.477  0.0529  1.7039 -0.8941
 6137SOL    HW230045   2.703   2.072   2.449 -0.7555 -0.5378 -1.5831
 6138SOL     OW30046   1.103   3.607  17.664 -0.0728  0.0233 -0.5520
 6138SOL    HW130047   1.147   3.685  17.630 -1.5855  1.8275  1.6189
 6138SOL    HW230048   1.013   3.640  17.667 -0.5817 -1.3642 -0.7708
 6139SOL     OW30049   0.291   1.009  11.918  0.1971  0.2527  0.4272
 6139SOL    HW130050   0.293   0.914  11.901  1.2720 -0.0407  2.1948
 6139SOL    HW230051   0.199   1.032  11.915  0.1505  0.2556  2.0671
 6140SOL     OW30052   0.090   1.120   2.020  0.2095  0.5294 -0.0503
 6140SOL    HW130053   0.011   1.166   1.991  0.4933  0.1612 -1.4366
 6140SOL    HW230054   0.088   1.138   2.114 -0.4204  0.6544 -0.0904
 6141SOL     OW30055   3.671   3.471   3.078 -0.1079 -0.4738 -0.2146
 6141SOL    HW130056   3.698   3.563   3.079  2.3301 -1.1970 -0.7707
 6141SOL    HW230057   3.722   3.429   3.147  0.3912 -2.9727 -2.0860
 6142SOL     OW30058   3.840   1.720   7.248  0.2256  0.4176 -0.2639
 6142SOL    HW130059   3.922   1.684   7.280 -0.8486 -1.7418  0.0983
 6142SOL    HW230060   3.815   1.651   7.187 -1.3248  0.3516  0.4406
 6143SOL     OW30061   2.372   4.621   1.250 -0.0818 -0.0285 -0.2880
 6143SOL    HW130062   2.297   4.672   1.282 -0.3393 -0.0650 -0.8365
 6143SOL    HW230063   2.409   4.585   1.331 -0.5877  1.0891  0.4444
 6144SOL     OW30064   4.603   4.106   7.100  0.2843  0.4082 -0.1833
 6144SOL    HW130065   4.538   4.043   7.070  0.7462 -0.8153  1.3588
 6144SOL    HW230066   4.559   4.170   7.156  0.2655 -0.1447  0.4379
 6145SOL     OW30067   2.120   1.546   8.181 -0.0658  0.0538  0.1532
 6145SOL    HW130068   2.215   1.537   8.179  0.0174  1.1760 -0.9184
 6145SOL    HW230069   2.095   1.539   8.089  0.0829 -1.8602  0.2666
 6146SOL     OW30070   1.343   0.092   9.706 -0.6226  0.0295  0.1623
 6146SOL    HW130071   1.363   0.078   9.799  2.8256 -1.0642 -0.7691
 6146SOL    HW230072   1.248   0.083   9.699 -0.9547  1.4069  2.6166
 6147SOL     OW30073   0.285   3.125   8.572 -0.3528  0.8274  0.0475
 6147SOL    HW130074   0.273   3.039   8.533 -0.1542 -0.3295  2.5576
 6147SOL    HW230075   0.304   3.177   8.494  2.7808  1.1826  1.0436
 6148SOL     OW30076   4.189   0.185   7.736 -0.1601 -0.2953 -0.1095
 6148SOL    HW130077   4.267   0.203   7.684 -0.6508 -1.8895 -1.4034
 6148SOL    HW230078   4.135   0.261   7.715  1.5193  0.9451  0.0444
 6149SOL     OW30079   0.174   3.096  10.254  0.0363 -0.2653 -0.7164
 6149SOL    HW130080   0.135   3.044  10.184 -1.8036 -0.0326  0.1299
 6149SOL    HW230081   0.105   3.075  10.317 -0.0372  2.5615  0.1572
 6150SOL     OW30082   2.879   2.815  17.577 -1.2421 -0.0226 -0.2432
 6150SOL    HW130083   2.842   2.884  17.633  0.8254 -0.6570  1.9390
 6150SOL    HW230084   2.869   2.741  17.637 -2.0090 -0.4780 -0.9465
 6151SOL     OW30085   2.158   0.619   9.260 -0.5501  0.2617 -0.1823
 6151SOL    HW130086   2.087   0.656   9.313  0.7061  1.7999  0.4288
 6151SOL    HW230087   2.110   0.581   9.186 -1.8670  3.0413 -0.7698
 6152SOL     OW30088   0.221   0.034   1.772 -0.0815 -0.5237  0.7824
 6152SOL    HW130089   0.223   0.123   1.808 -0.7034  0.0041 -0.5133
 6152SOL    HW230090   0.210   4.724   1.855 -1.5829 -1.0766  0.2545
 6153SOL     OW30091   3.188   2.172  17.017 -0.3226 -0.5083  0.0994
 6153SOL    HW130092   3.228   2.244  16.969  0.8818 -0.8602  0.5748
 6153SOL    HW230093   3.113   2.226  17.042  0.2375  0.0371  0.5949
 6154SOL     OW30094   0.172   4.680   7.866  0.9623 -0.1338 -0.2615
 6154SOL    HW130095   0.151   4.588   7.884  0.5236  0.0091 -0.0404
 6154SOL    HW230096   0.164   4.674   7.771 -2.4189  2.8939 -0.1806
 6155SOL     OW30097   1.332   4.305   0.934 -0.0783  0.8166 -0.4249
 6155SOL    HW130098   1.334   4.388   0.983  3.3375  0.5341 -0.0675
 6155SOL    HW230099   1.282   4.333   0.857 -2.2718  0.0053  0.7193
 6156SOL     OW30100   1.349   0.605   7.003 -0.0983 -0.2509 -0.0824
 6156SOL    HW130101   1.373   0.648   6.921  0.7595 -0.7357 -0.0813
 6156SOL    HW230102   1.283   0.664   7.040 -0.1882 -0.4847  0.1322
 6157SOL     OW30103   1.866   3.276   4.503  0.2368 -0.1477  1.2275
 6157SOL    HW130104   1.791   3.330   4.477 -0.3105 -0.7979  1.4626
 6157SOL    HW230105   1.831   3.187   4.510 -1.3902  0.3449 -0.7471
 6158SOL     OW30106   0.705   2.921  15.057 -0.2978 -0.5461 -0.3063
 6158SOL    HW130107   0.649   2.910  14.980  0.0494 -0.8883 -0.5075
 6158SOL    HW230108   0.756   2.991  15.017 -2.8366  0.7822 -1.2602
 6159SOL     OW30109   2.501   2.487  16.777  0.1390 -0.1935 -0.4405
 6159SOL    HW130110   2.499   2.440  16.694  2.3101 -1.8323  0.4446
 6159SOL    HW230111   2.470   2.416  16.833  0.4167 -0.8931 -1.1636
 6160SOL     OW30112   1.503   1.078  12.892 -0.1093 -0.1054  0.7563
 6160SOL    HW130113   1.498   1.126  12.974 -1.3965  2.3216 -0.7347
 6160SOL    HW230114   1.466   0.994  12.920  0.7740 -0.5617  0.5809
 6161SOL     OW30115   4.274   3.320  14.837  0.0262  0.0037 -0.2275
 6161SOL    HW130116   4.204   3.259  14.811 -1.2717  0.4219  2.2557
 6161SOL    HW230117   4.351   3.271  14.809  1.0219  0.6920  1.2921
 6162SOL     OW30118   2.263   3.767   2.384  0.1633 -0.0767  0.6974
 6162SOL    HW130119   2.169   3.764   2.367  0.0567  2.5896  0.7224
 6162SOL    HW230120   2.293   3.704   2.319  1.9437  0.9650  0.4941
 6163SOL     OW30121   2.795   0.145   6.516 -0.0393  0.4544 -0.7859
 6163SOL    HW130122   2.772   0.115   6.428 -0.4829 -0.4903 -0.3424
 6163SOL    HW230123   2.784   0.238   6.496 -2.5989 -0.1275 -2.0384
 6164SOL     OW30124   1.950   1.751   8.485 -0.1001  0.3976  0.2321
 6164SOL    HW130125   1.936   1.827   8.427 -1.7204  0.7322  1.0402
 6164SOL    HW230126   1.896   1.767   8.563  2.8517 -0.4801  2.4428
 6165SOL     OW30127   1.965   0.761   2.423 -0.5010  0.0673  0.7317
 6165SOL    HW130128   1.918   0.746   2.505 -0.2196 -1.7380  0.5651
 6165SOL    HW230129   1.974   0.856   2.415  1.7247  0.0378  2.9282
 6166SOL     OW30130   2.714   3.425  16.991 -0.0395 -0.1071  0.4402
 6166SOL    HW130131   2.624   3.457  16.983 -0.3412 -1.1520 -0.4310
 6166SOL    HW230132   2.700   3.337  16.955  2.5335 -0.0972 -0.6069
 6167SOL     OW30133   3.733   3.044   7.353  0.0078  0.1471  0.1897
 6167SOL    HW130134   3.647   3.004   7.338  1.1287 -1.8897 -0.7185
 6167SOL    HW230135   3.721   3.099   7.431 -0.0333 -0.1642  0.4017
 6168SOL     OW30136   4.681   1.049  12.559 -0.2562 -0.1716 -0.0366
 6168SOL    HW130137   4.629   0.980  12.599  0.4588 -1.7376 -1.8278
 6168SOL    HW230138   0.026   1.037  12.606  0.3634  0.7081 -0.8928
 6169SOL     OW30139   1.760   3.855   4.719  0.1518 -0.7640 -0.5513
 6169SOL    HW130140   1.811   3.875   4.640  1.9519 -1.7592  0.3644
 6169SOL    HW230141   1.830   3.822   4.776 -0.5212 -2.7035 -0.8361
 6170SOL     OW30142   4.229   2.088   7.015 -0.6012  0.0240  0.3239
 6170SOL    HW130143   4.284   2.044   7.079  0.1328  0.4209 -0.0308
 6170SOL    HW230144   4.283   2.071   6.938 -1.1122  1.2851 -0.3273
 6171SOL     OW30145   3.744   0.109   3.404 -0.1590 -0.1784  0.0894
 6171SOL    HW130146   3.828   0.094   3.448 -0.5377  0.2940  0.9502
 6171SOL    HW230147   3.748   0.204   3.397  3.3623 -0.3469 -0.3508
 6172SOL     OW30148   2.973   2.820   9.507 -0.4067 -0.2693  0.4329
 6172SOL    HW130149   3.065   2.823   9.478 -0.1374  1.0902  1.4713
 6172SOL    HW230150   2.980   2.819   9.602  0.3781 -0.5896  0.3736
 6173SOL     OW30151   2.643   4.537   2.759  0.1826 -0.0315  0.2104
 6173SOL    HW130152   2.622   4.611   2.702 -0.4742  0.7975  1.5143
 6173SOL    HW230153   2.591   4.475   2.708 -0.1559 -0.5606  1.1868
 6174SOL     OW30154   0.043   1.670   7.665 -0.2705 -0.5437  0.0831
 6174SOL    HW130155   0.075   1.653   7.754 -1.2290 -1.1670  0.3217
 6174SOL    HW230156   0.117   1.711   7.621 -1.8234  0.0124 -2.0112
 6175SOL     OW30157   2.799   0.611   6.184  0.1988  0.5668 -0.6164
 6175SOL    HW130158   2.819   0.688   6.237 -2.1277 -0.3899  1.6504
 6175SOL    HW230159   2.707   0.623   6.163  0.3295  1.8231 -0.4856
 6176SOL     OW30160   3.331   3.763   6.621  0.8281 -0.0584  0.3886
 6176SOL    HW130161   3.355   3.824   6.551 -3.2473  1.2576  0.1657
 6176SOL    HW230162   3.289   3.706   6.557  1.1868 -1.1021  1.0820
 6177SOL     OW30163   0.055   2.342   7.567  0.0563 -0.0286 -0.4944
 6177SOL    HW130164   0.090   2.308   7.485  2.3053  0.0093  0.4546
 6177SOL    HW230165   0.088   2.432   7.564 -2.2831  0.8381 -0.1228
 6178SOL     OW30166   3.111   0.701   2.475  0.0701  0.6400  0.0247
 6178SOL    HW130167   3.101   0.663   2.562  0.9570  0.1988 -0.0682
 6178SOL    HW230168   3.147   0.633   2.418 -1.9605  0.5053 -1.1350
 6179SOL     OW30169   3.842   0.119  11.494 -0.2868 -0.1438 -0.6317
 6179SOL    HW130170   3.877   0.067  11.566  0.1885 -0.9277 -1.4347
 6179SOL    HW230171   3.909   0.106  11.427 -2.0790 -4.1192 -1.6087
 6180SOL     OW30172   2.309   4.702   4.827 -0.0275 -0.4698 -0.7618
 6180SOL    HW130173   2.231   4.665   4.870 -0.2689  1.0466  0.0966
 6180SOL    HW230174   2.336   0.033   4.888  1.3560 -0.7389 -1.0713
 6181SOL     OW30175   2.004   1.151   7.394  0.0868 -0.1265  0.2872
 6181SOL    HW130176   2.079   1.199   7.429  0.2327 -0.5959  0.6210
 6181SOL    HW230177   2.028   1.159   7.302  2.5771  2.3093  1.1587
 6182SOL     OW30178   0.805   1.724   3.102 -0.0218  0.1030  0.0751
 6182SOL    HW130179   0.785   1.767   3.186 -0.1504 -2.1466  1.2091
 6182SOL    HW230180   0.730   1.715   3.043  0.4000  1.0395 -0.5954
 6183SOL     OW30181   1.959   1.498   8.374 -0.4158 -0.5063  0.1311
 6183SOL    HW130182   2.014   1.506   8.296 -1.0765 -0.2859 -0.3103
 6183SOL    HW230183   1.956   1.591   8.399 -1.1417 -1.0695  2.1173
 6184SOL     OW30184   4.266   0.823   4.130  0.1982 -0.1029 -0.5211
 6184SOL    HW130185   4.203   0.876   4.181  3.1755  0.0496  2.9997
 6184SOL    HW230186   4.292   0.882   4.059  1.8075 -0.2073 -0.0116
 6185SOL     OW30187   4.355   0.832   6.877  0.2740  0.2283  0.1136
 6185SOL    HW130188   4.355   0.832   6.781 -1.0318  0.9029  0.1137
 6185SOL    HW230189   4.380   0.743   6.904  1.2149 -0.0327 -1.5889
 6186SOL     OW30190   1.559   1.608   7.510 -0.8909  0.3009 -0.5545
 6186SOL    HW130191   1.576   1.698   7.482  1.4702  0.7676  2.3668
 6186SOL    HW230192   1.512   1.621   7.593  0.8761  0.2150  0.4550
 6187SOL     OW30193   4.521   1.015   4.866 -0.3163 -0.1036 -0.5757
 6187SOL    HW130194   4.548   0.954   4.797  0.6608  2.3094 -2.3085
 6187SOL    HW230195   4.436   1.049   4.838 -0.1065  1.5283  0.7946
 6188SOL     OW30196   4.001   1.319   8.053 -0.1531 -0.0892 -0.2744
 6188SOL    HW130197   3.948   1.390   8.017 -0.2968  0.1951  0.4900
 6188SOL    HW230198   4.090   1.350   8.035  0.6049 -1.0888  1.7415
 6189SOL     OW30199   0.804   3.938   7.733 -0.1654  0.1526  0.0981
 6189SOL    HW130200   0.804   3.844   7.751 -2.0835  0.5333  2.1750
 6189SOL    HW230201   0.773   3.945   7.643  0.1638  0.7871  0.0372
 6190SOL     OW30202   1.067   2.034   3.088 -0.0261  0.9094 -0.2516
 6190SOL    HW130203   0.989   2.081   3.059 -0.7447 -0.7136 -0.9424
 6190SOL    HW230204   1.136   2.090   3.053  0.8716 -1.1549 -1.7753
 6191SOL     OW30205   1.646   1.382  13.181  0.3400  0.6731  0.2117
 6191SOL    HW130206   1.605   1.347  13.260 -0.3087 -1.6265 -1.1357
 6191SOL    HW230207   1.717   1.318  13.174 -0.8607 -0.6281 -0.1433
 6192SOL     OW30208   4.105   3.755  16.404  0.4855  0.1866  0.5931
 6192SOL    HW130209   4.045   3.788  16.471  1.0157 -0.0711  1.1984
 6192SOL    HW230210   4.055   3.690  16.353  0.6493  1.4231 -1.1410
 6193SOL     OW30211   1.216   1.472   1.895  0.5940  0.3100 -0.1010
 6193SOL    HW130212   1.248   1.389   1.929  0.7841  0.8685  1.0719
 6193SOL    HW230213   1.159   1.494   1.969 -0.1541 -0.9176 -0.3125
 6194SOL     OW30214   1.303   3.707   7.948 -0.2209  0.4203  0.2126
 6194SOL    HW130215   1.379   3.706   7.890  0.1141  0.4139  0.6531
 6194SOL    HW230216   1.327   3.777   8.008  0.8249 -1.1319  1.5887
 6195SOL     OW30217   1.939   3.224   8.840  0.0772 -0.0491  0.0187
 6195SOL    HW130218   1.977   3.290   8.897 -1.7241  0.1245  1.0195
 6195SOL    HW230219   1.958   3.148   8.895  0.6103  0.8559  1.0614
 6196SOL     OW30220   2.760   0.425   8.599  0.3983 -0.4639 -0.4734
 6196SOL    HW130221   2.699   0.407   8.671  1.3652  0.5057  0.5802
 6196SOL    HW230222   2.832   0.457   8.654  0.0042  0.8339 -0.7158
 6197SOL     OW30223   4.677   3.555   5.660  0.3812  0.1316  0.4013
 6197SOL    HW130224   0.033   3.543   5.648  0.2804  0.1423 -0.4101
 6197SOL    HW230225   4.660   3.633   5.606 -1.2403 -2.1090 -2.3503
 6198SOL     OW30226   3.923   0.480   5.933  0.0463  0.1203  0.2701
 6198SOL    HW130227   3.985   0.427   5.983  1.8436 -1.2140 -3.3799
 6198SOL    HW230228   3.873   0.409   5.892  0.1600 -0.2520  0.7739
 6199SOL     OW30229   2.056   4.653  15.639  0.0552  0.1095  0.6996
 6199SOL    HW130230   2.134   4.603  15.664 -0.3376 -0.7315  0.2305
 6199SOL    HW230231   1.976   4.625  15.684  0.3011 -1.0587  0.3883
 6200SOL     OW30232   3.274   4.509   3.230 -0.1061  0.1573 -0.0885
 6200SOL    HW130233   3.183   4.511   3.200 -0.9320 -1.4206  2.3614
 6200SOL    HW230234   3.288   4.599   3.261 -1.9117  0.1632  0.6849
 6201SOL     OW30235   1.400   0.064   6.293  0.0798  0.3645  1.0140
 6201SOL    HW130236   1.453   0.006   6.348  0.5303 -1.2228 -1.0683
 6201SOL    HW230237   1.461   0.065   6.219 -0.7872 -1.1599  0.2891
 6202SOL     OW30238   2.176   2.442  11.634  0.4558  0.4891 -0.1244
 6202SOL    HW130239   2.154   2.524  11.678 -1.9755 -0.0042 -0.3994
 6202SOL    HW230240   2.095   2.427  11.585  0.5211  0.3894 -0.2030
 6203SOL     OW30241   2.566   4.143  14.255 -0.1932 -0.0535  0.3061
 6203SOL    HW130242   2.522   4.226  14.235  2.2218  0.1669 -4.0353
 6203SOL    HW230243   2.655   4.157  14.223 -0.1126  0.5909  0.8016
 6204SOL     OW30244   3.322   4.635   4.445 -0.3345  0.8252  0.3530
 6204SOL    HW130245   3.256   4.649   4.377 -1.4412  1.8824  1.6379
 6204SOL    HW230246   3.315   4.718   4.493  0.9804  0.5356  1.0294
 6205SOL     OW30247   2.001   3.370   7.261  0.2523  0.0346 -0.0248
 6205SOL    HW130248   2.015   3.371   7.356 -1.3568  1.0698  0.2011
 6205SOL    HW230249   2.069   3.308   7.234  0.6019 -0.2201  1.3917
 6206SOL     OW30250   3.815   0.561   4.766  0.4822 -0.2169 -0.4098
 6206SOL    HW130251   3.861   0.482   4.793 -1.3954 -1.1080  0.2238
 6206SOL    HW230252   3.826   0.557   4.671  0.1279 -1.3514 -0.4148
 6207SOL     OW30253   1.767   0.950   8.324  0.0181  0.1446  0.3408
 6207SOL    HW130254   1.740   1.042   8.333 -1.8878 -0.4132  0.2557
 6207SOL    HW230255   1.861   0.970   8.314  0.0752  0.0791  0.7531
 6208SOL     OW30256   0.363   2.185   6.304 -0.4591  0.6776  0.3212
 6208SOL    HW130257   0.412   2.155   6.227  2.0350  0.1417  2.1071
 6208SOL    HW230258   0.273   2.193   6.271 -0.5343  2.7283  1.0367
 6209SOL     OW30259   4.204   4.646   5.316 -0.4874  0.1501 -0.1615
 6209SOL    HW130260   4.292   4.621   5.290  0.3080  1.7792  0.9310
 6209SOL    HW230261   4.155   4.566   5.297 -0.0794  0.0606 -0.8204
 6210SOL     OW30262   1.248   2.994   6.139 -0.5816  0.1110 -0.1350
 6210SOL    HW130263   1.164   2.952   6.154  0.1092 -0.9699  0.7825
 6210SOL    HW230264   1.247   3.056   6.213 -0.9273 -0.1573  0.0832
 6211SOL     OW30265   1.358   2.798   8.122 -0.2497 -0.2938  0.2620
 6211SOL    HW130266   1.449   2.778   8.100 -0.3316  1.3330 -1.5189
 6211SOL    HW230267   1.316   2.715   8.100 -1.1434  0.4351 -0.7390
 6212SOL     OW30268   1.343   0.971   7.867 -0.5482  0.0608  0.0342
 6212SOL    HW130269   1.353   0.880   7.837  0.3363  0.1686  0.0099
 6212SOL    HW230270   1.253   0.969   7.899 -0.8399  0.0940 -0.7735
 6213SOL     OW30271   1.830   3.238   8.062 -0.0088 -0.4430 -0.5574
 6213SOL    HW130272   1.917   3.204   8.083  0.8905  1.8992 -0.5578
 6213SOL    HW230273   1.807   3.298   8.133  0.1482 -0.1532 -0.7542
 6214SOL     OW30274   1.487   3.700   8.313 -0.0449  0.0628 -0.3511
 6214SOL    HW130275   1.447   3.758   8.248 -1.2440 -0.9098 -0.4842
 6214SOL    HW230276   1.540   3.770   8.350 -1.7113  1.2989 -0.2680
 6215SOL     OW30277   1.459   0.727   5.582 -0.1808 -0.0643  0.3373
 6215SOL    HW130278   1.512   0.649   5.562  2.0943  1.1748  1.4968
 6215SOL    HW230279   1.529   0.772   5.629  0.8660 -1.5231  0.1878
 6216SOL     OW30280   1.630   0.027   6.921 -0.0993 -0.1864  0.1689
 6216SOL    HW130281   1.539   0.055   6.934 -0.5343 -0.4916 -2.2419
 6216SOL    HW230282   1.649   4.733   7.009  1.1104 -0.4729 -0.1920
 6217SOL     OW30283   1.896   3.663   8.292  0.2950  0.3913  0.1808
 6217SOL    HW130284   1.843   3.710   8.227 -1.4704 -1.6108  0.1476
 6217SOL    HW230285   1.952   3.731   8.327 -1.2735  0.8602  1.7737
 6218SOL     OW30286   2.663   0.652   4.707 -0.0836  0.0867 -0.0491
 6218SOL    HW130287   2.693   0.694   4.788  0.5294  1.8512 -1.1951
 6218SOL    HW230288   2.729   0.693   4.651 -0.7942  0.3967 -0.6414
 6219SOL     OW30289   3.385   2.052   4.203  0.7493 -0.5568 -0.2423
 6219SOL    HW130290   3.404   2.005   4.285 -0.5172 -0.1869  0.2637
 6219SOL    HW230291   3.426   1.997   4.137  0.4910  0.1418 -0.9820
 6220SOL     OW30292   3.566   0.907   2.034 -0.2481 -0.3069  0.2594
 6220SOL    HW130293   3.633   0.840   2.024 -0.7833 -0.3260 -3.2450
 6220SOL    HW230294   3.489   0.859   2.006 -0.0943  0.2628 -1.1564
 6221SOL     OW30295   2.930   1.153   2.098  0.5654  0.2673  0.0269
 6221SOL    HW130296   3.015   1.112   2.083  0.6001 -0.0503  1.0940
 6221SOL    HW230297   2.931   1.174   2.192 -0.4454 -1.4180  0.4148
 6222SOL     OW30298   1.481   0.834  10.654 -0.2062 -0.2618 -0.5633
 6222SOL    HW130299   1.494   0.854  10.746 -2.1800 -1.5153 -0.0235
 6222SOL    HW230300   1.399   0.876  10.627 -0.7985  1.2197  3.5376
 6223SOL     OW30301   3.122   1.288  14.739 -0.2583 -0.5401  0.1413
 6223SOL    HW130302   3.076   1.366  14.771  2.4727  1.4499 -0.8631
 6223SOL    HW230303   3.201   1.278  14.792  0.9990  3.7667 -0.9162
 6224SOL     OW30304   0.307   0.737   5.144  0.3627  0.2360 -0.2564
 6224SOL    HW130305   0.312   0.826   5.177  0.4936  0.2892 -0.4259
 6224SOL    HW230306   0.386   0.731   5.092  0.7443 -0.9307  0.4568
 6225SOL     OW30307   2.786   3.525   4.979 -0.1108  0.6854 -0.5569
 6225SOL    HW130308   2.831   3.609   4.988  2.7824 -0.8268 -0.5827
 6225SOL    HW230309   2.861   3.466   4.989 -1.2976 -0.6979  0.2175
 6226SOL     OW30310   0.232   3.345   5.247 -0.4804 -0.1663  0.4147
 6226SOL    HW130311   0.224   3.317   5.156 -0.6236  0.2994  0.2820
 6226SOL    HW230312   0.184   3.278   5.297 -1.1549 -1.5846 -2.1109
 6227SOL     OW30313   3.099   2.355  14.931  1.1006  0.1189 -0.1295
 6227SOL    HW130314   3.167   2.294  14.904  1.1455 -0.0136  0.2785
 6227SOL    HW230315   3.115   2.352  15.026 -0.1948 -1.3446  0.0411
 6228SOL     OW30316   0.706   1.356   2.332 -0.7531 -0.2242  0.7031
 6228SOL    HW130317   0.700   1.370   2.426  3.2258 -0.3536  0.9962
 6228SOL    HW230318   0.729   1.263   2.331  0.1607  0.0166 -1.6405
 6229SOL     OW30319   2.000   0.619  13.580  0.0101 -0.3503  0.2653
 6229SOL    HW130320   2.026   0.538  13.537 -0.2933 -0.3902  0.1630
 6229SOL    HW230321   2.069   0.676  13.546 -0.2791 -0.9544 -1.2960
 6230SOL     OW30322   1.427   2.593  17.363  0.6214  0.3644  0.3254
 6230SOL    HW130323   1.357   2.628  17.419 -0.3567 -1.2235  0.1088
 6230SOL    HW230324   1.509   2.619  17.405  1.0452 -1.4771  0.6623
 6231SOL     OW30325   3.099   0.301  17.740  0.2500 -0.2955 -0.0243
 6231SOL    HW130326   3.123   0.252  17.662 -2.1356 -2.9873  0.9214
 6231SOL    HW230327   3.103   0.391  17.709 -0.3014 -0.3617 -0.2914
 6232SOL     OW30328   0.309   2.875  17.089 -0.1539  0.1048 -0.6701
 6232SOL    HW130329   0.351   2.813  17.029  0.7335 -1.0693  1.1264
 6232SOL    HW230330   0.294   2.948  17.030  1.4897  0.1249 -1.0625
 6233SOL     OW30331   4.505   3.837   8.579 -0.2411  0.5182 -0.0659
 6233SOL    HW130332   4.601   3.834   8.572 -0.1984 -0.7002  0.9811
 6233SOL    HW230333   4.497   3.902   8.648 -2.0047 -0.8726  1.0460
 6234SOL     OW30334   3.097   3.460  17.093  0.6036  0.1765  0.2772
 6234SOL    HW130335   3.184   3.477  17.129  0.0998  0.2738  1.4290
 6234SOL    HW230336   3.110   3.481  17.000  1.0502  1.3177  0.5935
 6235SOL     OW30337   3.526   1.026   4.577 -0.6797 -0.7979 -0.9871
 6235SOL    HW130338   3.582   1.033   4.500 -0.1991 -0.6096 -0.6183
 6235SOL    HW230339   3.563   0.946   4.614 -0.7413 -1.3691 -2.1717
 6236SOL     OW30340   0.717   0.383   8.170 -0.1708  0.0672 -0.1331
 6236SOL    HW130341   0.622   0.382   8.174 -0.1974 -2.9262 -1.6011
 6236SOL    HW230342   0.742   0.367   8.079  0.5247 -0.1402  0.0977
 6237SOL     OW30343   4.337   1.623   4.364 -1.3519  0.1296 -0.4201
 6237SOL    HW130344   4.305   1.609   4.453  1.4722  1.2212  0.7588
 6237SOL    HW230345   4.430   1.613   4.384 -1.4391  0.7035  0.2628
 6238SOL     OW30346   2.322   2.505   6.588  0.2362  0.5494  0.3975
 6238SOL    HW130347   2.257   2.568   6.556 -0.1098  0.1100  0.2495
 6238SOL    HW230348   2.355   2.465   6.507 -1.8327 -0.5698  0.1156
 6239SOL     OW30349   4.160   0.565   6.078  0.8697 -0.3676  0.1628
 6239SOL    HW130350   4.220   0.609   6.138  1.2943  1.0779 -1.3025
 6239SOL    HW230351   4.097   0.544   6.146  1.4439  1.9158  1.3959
 6240SOL     OW30352   1.831   4.664   9.896 -0.2461 -0.3331  0.0135
 6240SOL    HW130353   1.825   4.569   9.902 -1.3791 -0.2056  0.9008
 6240SOL    HW230354   1.867   4.676   9.808  0.0347 -1.4194 -0.0120
 6241SOL     OW30355   0.349   1.695   7.010 -0.0962 -0.4056 -0.2299
 6241SOL    HW130356   0.390   1.781   7.013 -0.0266 -0.4341 -0.3661
 6241SOL    HW230357   0.278   1.706   7.074  0.0020  0.5307 -0.2935
 6242SOL     OW30358   2.661   0.520   2.955 -0.7316 -0.3572 -0.7325
 6242SOL    HW130359   2.736   0.528   3.013 -1.2177 -0.5975 -0.0627
 6242SOL    HW230360   2.669   0.597   2.898  0.2831  0.2561  0.2273
 6243SOL     OW30361   1.570   4.327   6.770  0.4271 -0.7249  0.0069
 6243SOL    HW130362   1.628   4.365   6.837  0.6663  0.4055 -0.8516
 6243SOL    HW230363   1.568   4.235   6.798 -1.3640 -0.6421  0.1368
 6244SOL     OW30364   1.443   3.344   9.790 -0.6287 -0.1025 -0.1143
 6244SOL    HW130365   1.418   3.428   9.751  1.1787 -0.4921 -2.0970
 6244SOL    HW230366   1.512   3.371   9.850 -0.0620 -1.8696  0.0190
 6245SOL     OW30367   4.192   0.216   1.739 -0.4569 -0.5578  0.1913
 6245SOL    HW130368   4.175   0.141   1.795 -0.3638 -0.4094  0.4182
 6245SOL    HW230369   4.286   0.223   1.754 -0.2707  0.7908 -1.5739
 6246SOL     OW30370   0.110   0.415   4.419 -0.2339  0.1601  0.7720
 6246SOL    HW130371   0.030   0.463   4.395 -0.2117 -0.8045 -1.2025
 6246SOL    HW230372   0.149   0.423   4.333  0.5399 -0.6716  1.0465
 6247SOL     OW30373   4.485   0.273   8.266  0.3781 -0.8051 -0.0598
 6247SOL    HW130374   4.414   0.219   8.299 -1.4101  1.8938  0.5409
 6247SOL    HW230375   4.519   0.314   8.345 -0.5176 -0.2684  0.0536
 6248SOL     OW30376   0.975   2.756   4.154 -0.1729 -0.1069  0.2428
 6248SOL    HW130377   0.899   2.750   4.097  1.6828 -1.3582 -2.0981
 6248SOL    HW230378   0.993   2.850   4.151 -0.5518  0.0201  1.9784
 6249SOL     OW30379   4.110   0.890   8.229 -0.5258 -0.6445 -0.0958
 6249SOL    HW130380   4.018   0.865   8.237 -0.1739 -1.4120  1.4394
 6249SOL    HW230381   4.132   0.916   8.318  0.6192  2.1111 -1.1791
 6250SOL     OW30382   4.688   2.535   7.927 -0.1565 -0.1125  0.2446
 6250SOL    HW130383   0.005   2.606   7.961 -1.0516  1.3979 -1.4159
 6250SOL    HW230384   4.606   2.545   7.976  2.9637 -0.8009  5.5805
 6251SOL     OW30385   0.811   3.495   5.136 -0.5381  0.1800 -0.5964
 6251SOL    HW130386   0.750   3.547   5.083 -1.4678  2.9274  3.1472
 6251SOL    HW230387   0.755   3.426   5.171  0.4463 -0.0280  0.5632
 6252SOL     OW30388   0.181   2.402  16.339 -0.1053  0.0755 -0.7893
 6252SOL    HW130389   0.215   2.366  16.258 -0.3398  0.5396 -1.0951
 6252SOL    HW230390   0.254   2.388  16.400 -1.2729 -1.7848  0.1736
 6253SOL     OW30391   1.305   1.482   7.707  0.5360  0.0170  0.5468
 6253SOL    HW130392   1.267   1.417   7.766  3.0774 -0.3321  1.8287
 6253SOL    HW230393   1.362   1.429   7.652  1.3753  0.3941  1.0395
 6254SOL     OW30394   2.210   2.136   5.677  0.5778  0.1357 -0.2508
 6254SOL    HW130395   2.296   2.098   5.695 -0.0658 -0.1338  2.3406
 6254SOL    HW230396   2.226   2.187   5.598  3.0110 -1.1644 -0.5909
 6255SOL     OW30397   4.079   3.439   6.676  0.2343 -0.0389 -0.3556
 6255SOL    HW130398   4.033   3.355   6.670  0.7480 -0.4469  1.5732
 6255SOL    HW230399   4.017   3.509   6.694  0.0565 -0.2443 -0.1731
 6256SOL     OW30400   0.801   1.618   2.448  0.1706  0.0417  0.5317
 6256SOL    HW130401   0.750   1.581   2.521  2.1718 -0.9872  1.4084
 6256SOL    HW230402   0.732   1.598   2.385  0.7018 -0.4485  0.1180
 6257SOL     OW30403   3.654   0.984  17.372 -0.1459  0.6343  0.1042
 6257SOL    HW130404   3.708   0.910  17.344 -1.1441 -0.6306  1.5178
 6257SOL    HW230405   3.693   1.053  17.319  1.8307 -0.4058  0.2119
 6258SOL     OW30406   0.094   4.691  10.375 -0.2705  0.7584 -0.5083
 6258SOL    HW130407   0.051   0.027  10.417 -1.0762 -1.5607  2.7603
 6258SOL    HW230408   0.030   4.634  10.332  0.2738  1.1722 -1.8642
 6259SOL     OW30409   3.057   1.671  10.337  0.8004  0.1317  0.3400
 6259SOL    HW130410   3.007   1.631  10.408  0.4624 -1.1953 -0.6394
 6259SOL    HW230411   3.103   1.731  10.396 -0.3122 -0.7080  2.0493
 6260SOL     OW30412   4.289   1.207   1.901 -0.2459 -0.0043  0.4452
 6260SOL    HW130413   4.249   1.127   1.935 -1.2548  0.9746  1.5721
 6260SOL    HW230414   4.242   1.224   1.819  0.7192  0.1201 -0.0749
 6261SOL     OW30415   1.159   4.181   6.496 -0.1086 -0.4422 -0.2857
 6261SOL    HW130416   1.232   4.129   6.463  0.2835 -0.1307  0.0978
 6261SOL    HW230417   1.199   4.267   6.482 -1.0017  0.3958  2.3509
 6262SOL     OW30418   0.771   0.510   2.128  0.0694 -0.1387 -0.6148
 6262SOL    HW130419   0.722   0.531   2.048 -1.3348 -0.4195  0.1651
 6262SOL    HW230420   0.699   0.504   2.191  0.1559 -2.4995 -0.7315
 6263SOL     OW30421   2.981   0.227  15.062 -0.2483  0.0143  0.0543
 6263SOL    HW130422   2.994   0.223  14.967  2.8133 -0.1371  0.4867
 6263SOL    HW230423   3.071   0.221  15.092 -1.0016 -1.5754  1.9192
 6264SOL     OW30424   1.559   2.611  11.518  0.3854 -0.1285  0.4475
 6264SOL    HW130425   1.543   2.537  11.460  3.2834 -1.8282  1.8055
 6264SOL    HW230426   1.494   2.603  11.587 -1.0126  2.0270 -0.6016
 6265SOL     OW30427   2.100   2.836  15.471  0.6008 -0.2639 -0.3454
 6265SOL    HW130428   2.100   2.924  15.509 -2.1937 -0.0559 -0.8557
 6265SOL    HW230429   2.019   2.850  15.422  0.0971 -2.5264 -0.1674
 6266SOL     OW30430   4.254   2.141   6.659 -0.3972 -0.5136 -0.5109
 6266SOL    HW130431   4.268   2.229   6.694 -4.6272  0.5107 -1.4051
 6266SOL    HW230432   4.293   2.161   6.574  1.2976 -0.6676  0.2424
 6267SOL     OW30433   3.210   2.956  13.054  0.4787  0.3803  0.8361
 6267SOL    HW130434   3.188   2.975  13.145  0.3383 -2.3521  1.3706
 6267SOL    HW230435   3.214   3.047  13.027  3.1198  0.3453  1.0885
 6268SOL     OW30436   1.826   2.693   2.980  0.1528 -0.2035  0.5532
 6268SOL    HW130437   1.900   2.734   2.935 -0.0538 -0.9498 -0.4438
 6268SOL    HW230438   1.798   2.762   3.040 -0.3923 -0.5880  0.7430
 6269SOL     OW30439   1.247   3.548   9.756  0.0472 -0.3657  0.1756
 6269SOL    HW130440   1.232   3.626   9.810 -0.9419  0.1679 -0.8825
 6269SOL    HW230441   1.285   3.588   9.678  0.8714 -0.0509  0.7269
 6270SOL     OW30442   3.057   0.940   9.153  0.3614  0.3257  0.0867
 6270SOL    HW130443   3.143   0.970   9.123 -0.2659  0.8040 -1.2478
 6270SOL    HW230444   2.993   0.998   9.111 -1.1147 -0.9529  0.5643
 6271SOL     OW30445   1.880   0.120   5.422 -0.6815 -0.2888 -0.1344
 6271SOL    HW130446   1.927   0.042   5.451  0.6707 -0.1662 -1.9591
 6271SOL    HW230447   1.954   0.180   5.412 -0.3498 -0.7793 -0.6618
 6272SOL     OW30448   0.531   4.443  15.268  0.4721  0.4965  0.2618
 6272SOL    HW130449   0.614   4.421  15.225 -0.0181 -3.1666  1.1569
 6272SOL    HW230450   0.465   4.422  15.202 -0.0663  1.5672  0.4610
 6273SOL     OW30451   3.321   2.141   5.849 -0.2307  0.2027  0.4229
 6273SOL    HW130452   3.352   2.229   5.824  0.3811 -0.1792 -0.1809
 6273SOL    HW230453   3.402   2.097   5.874 -1.1435 -0.4318  2.2174
 6274SOL     OW30454   1.157   2.217  11.999  0.4181 -0.2703 -0.0023
 6274SOL    HW130455   1.084   2.257  12.046  0.2239 -1.6638  0.8555
 6274SOL    HW230456   1.207   2.297  11.979 -1.5902  1.3237  1.3610
 6275SOL     OW30457   0.891   4.723  11.893 -0.0923 -0.0596 -0.8360
 6275SOL    HW130458   0.907   4.667  11.969  0.6958  1.4618  0.1127
 6275SOL    HW230459   0.968   0.041  11.904 -0.5299  0.1275  1.2409
 6276SOL     OW30460   3.134   3.036   2.828 -0.3238  0.7421  0.0347
 6276SOL    HW130461   3.187   3.115   2.837 -0.6768  1.0095 -0.1967
 6276SOL    HW230462   3.174   2.999   2.906  0.9679  2.5366  0.2260
 6277SOL     OW30463   1.246   3.411   8.529 -0.2767  0.0803 -0.7588
 6277SOL    HW130464   1.192   3.489   8.543 -0.9699 -0.5545  0.1547
 6277SOL    HW230465   1.332   3.451   8.536 -0.7444  0.5196  2.7877
 6278SOL     OW30466   1.667   1.219   1.524  0.9554 -0.9051  0.3321
 6278SOL    HW130467   1.572   1.225   1.519  1.0686 -0.4088 -1.2910
 6278SOL    HW230468   1.680   1.169   1.605 -0.4061 -1.2004  0.3703
 6279SOL     OW30469   0.338   2.411   3.081 -0.1142  0.5565  0.4127
 6279SOL    HW130470   0.375   2.343   3.138  0.2131 -1.5799 -2.3039
 6279SOL    HW230471   0.337   2.486   3.140  1.0529  0.5272  0.4772
 6280SOL     OW30472   2.190   4.649   7.198  0.4193 -0.2510 -0.6298
 6280SOL    HW130473   2.196   4.707   7.122  0.6511  1.8199  0.9716
 6280SOL    HW230474   2.215   4.708   7.269  2.6145 -0.2564 -1.3776
 6281SOL     OW30475   4.276   0.389   4.464 -0.4802 -0.0303  0.2944
 6281SOL    HW130476   4.216   0.464   4.459 -2.2112 -1.2464  2.7049
 6281SOL    HW230477   4.306   0.390   4.555  1.6759 -4.8527 -0.3946
 6282SOL     OW30478   1.021   0.638   9.636 -0.1382 -0.2449 -0.3095
 6282SOL    HW130479   1.005   0.590   9.717  0.0456 -3.5203 -2.2111
 6282SOL    HW230480   0.935   0.673   9.615 -0.4440 -1.9730 -1.9696
 6283SOL     OW30481   2.429   4.085   8.657 -0.0672 -0.1016  0.5228
 6283SOL    HW130482   2.428   4.105   8.750 -0.6397 -0.4362  0.5846
 6283SOL    HW230483   2.507   4.123   8.616 -0.5265  0.5082  0.2169
 6284SOL     OW30484   1.363   4.617   9.076  0.2812  0.5088  0.4310
 6284SOL    HW130485   1.339   4.540   9.023  2.2495  1.7779 -2.3281
 6284SOL    HW230486   1.415   4.672   9.018 -2.8429  3.4697  0.4657
 6285SOL     OW30487   4.100   0.819   5.481  0.3306 -0.3462  0.1084
 6285SOL    HW130488   4.051   0.739   5.502  0.4119 -0.0105  1.6047
 6285SOL    HW230489   4.176   0.807   5.538 -0.6987 -0.9274  1.3775
 6286SOL     OW30490   2.613   0.842   7.204  0.1150  0.0299 -0.2573
 6286SOL    HW130491   2.536   0.899   7.213  1.7388  1.8280  2.1900
 6286SOL    HW230492   2.677   0.886   7.261  0.1702 -0.5915  0.1600
 6287SOL     OW30493   3.817   0.137   9.037  0.3934 -0.1869 -0.6818
 6287SOL    HW130494   3.897   0.094   9.068  0.0483  0.5851  1.2994
 6287SOL    HW230495   3.758   0.073   9.078 -0.1216  0.2477 -0.7471
 6288SOL     OW30496   0.120   1.653   7.206  0.1750 -0.3791  0.2574
 6288SOL    HW130497   0.056   1.696   7.149  0.9718 -0.5780 -0.7867
 6288SOL    HW230498   0.079   1.617   7.284 -0.3531 -0.4441 -0.0494
 6289SOL     OW30499   2.315   1.514  11.536  0.0490 -0.1785 -0.1863
 6289SOL    HW130500   2.368   1.494  11.459 -0.5655  1.6511 -1.0848
 6289SOL    HW230501   2.340   1.605  11.546 -3.7987  0.6973  1.4017
 6290SOL     OW30502   4.351   0.536   0.950 -0.2717 -0.1347 -0.3863
 6290SOL    HW130503   4.430   0.585   0.974 -0.4574  1.2540 -2.5915
 6290SOL    HW230504   4.319   0.576   0.869 -0.8546  1.2063  0.5192
 6291SOL     OW30505   3.991   4.176   3.429 -0.1605  0.5671  0.0759
 6291SOL    HW130506   4.033   4.253   3.467  0.2086  0.0182  0.7669
 6291SOL    HW230507   3.918   4.218   3.383 -0.2800  0.8125  0.4919
 6292SOL     OW30508   0.599   3.685   8.208  0.1110 -0.1549 -0.4653
 6292SOL    HW130509   0.631   3.696   8.119  1.8449  2.6610  0.5065
 6292SOL    HW230510   0.512   3.724   8.206 -0.0675 -0.5491 -0.2671
 6293SOL     OW30511   1.837   2.734  16.583 -0.0155  0.0247 -0.3528
 6293SOL    HW130512   1.929   2.759  16.584 -0.6386  2.2576  1.5678
 6293SOL    HW230513   1.837   2.682  16.503  2.1171 -0.8807  0.2488
 6294SOL     OW30514   1.167   1.355   4.700  0.2163 -0.1104 -0.4098
 6294SOL    HW130515   1.184   1.342   4.607 -2.1513  0.8460 -0.9629
 6294SOL    HW230516   1.252   1.382   4.736 -0.8698  1.7567  0.7890
 6295SOL     OW30517   4.471   1.729   6.413 -0.0496  0.5395  0.1738
 6295SOL    HW130518   4.546   1.722   6.473  2.1370  1.5027 -2.4555
 6295SOL    HW230519   4.519   1.717   6.331 -0.0299 -0.0366  0.2670
 6296SOL     OW30520   4.647   2.319   2.584  0.0963  0.1922  0.6698
 6296SOL    HW130521   4.727   2.347   2.540  0.2552 -0.4756  0.5395
 6296SOL    HW230522   4.630   2.397   2.638  0.0677 -0.4934  1.6604
 6297SOL     OW30523   1.616   2.067  12.882 -0.1784  0.1761  0.0499
 6297SOL    HW130524   1.706   2.096  12.899  0.1821 -1.2557  0.5109
 6297SOL    HW230525   1.622   1.998  12.816  0.8089  0.9740 -0.6984
 6298SOL     OW30526   2.775   1.857  10.444  0.1735 -0.5915 -0.2739
 6298SOL    HW130527   2.859   1.897  10.469  0.2307 -1.5846  1.1290
 6298SOL    HW230528   2.750   1.814  10.526  0.2628  0.5036  0.3414
 6299SOL     OW30529   1.830   1.795   9.767 -0.0338  0.2005 -0.2549
 6299SOL    HW130530   1.753   1.837   9.805  0.7374  2.0449 -0.7482
 6299SOL    HW230531   1.865   1.851   9.698  0.8836  0.0083  0.0528
 6300SOL     OW30532   1.733   1.801  11.399 -0.1582 -0.1865 -0.1220
 6300SOL    HW130533   1.758   1.732  11.337 -0.2714  0.9135 -1.3925
 6300SOL    HW230534   1.659   1.762  11.445 -0.1786 -0.4771 -0.4012
 6301SOL     OW30535   2.294   2.317   0.072  0.2303 -0.3579  0.7792
 6301SOL    HW130536   2.354   2.286   0.003 -0.1473  1.8540 -0.5709
 6301SOL    HW230537   2.327   2.391   0.123  1.2391  1.0247 -1.8514
 6302SOL     OW30538   3.763   4.527   1.902  0.3992  0.5817  0.3470
 6302SOL    HW130539   3.738   4.476   1.978  0.2050  0.8302  0.4488
 6302SOL    HW230540   3.674   4.551   1.875  0.8595  1.8853 -0.0002
 6303SOL     OW30541   1.173   3.806   3.992  0.1277 -0.3180  0.7636
 6303SOL    HW130542   1.154   3.823   3.900 -1.1600  0.6263  1.2055
 6303SOL    HW230543   1.264   3.776   3.987  0.8265  1.6421  1.2491
 6304SOL     OW30544   1.105   2.809   2.985  0.2736  0.1689 -0.1862
 6304SOL    HW130545   1.140   2.883   2.934  0.1268  0.9214  0.7941
 6304SOL    HW230546   1.148   2.727   2.963  1.5088  0.8955 -0.5154
 6305SOL     OW30547   3.788   4.012   7.233  0.2292  0.4615 -0.3581
 6305SOL    HW130548   3.776   4.073   7.305 -0.3023  1.6223 -1.4262
 6305SOL    HW230549   3.811   4.073   7.163 -0.7022  0.9284 -0.2612
 6306SOL     OW30550   0.947   0.885   8.476 -0.2934  0.0804 -0.5192
 6306SOL    HW130551   0.919   0.845   8.394  0.6484 -2.2299  0.2831
 6306SOL    HW230552   1.030   0.924   8.449 -1.5695  3.1673 -0.0756
 6307SOL     OW30553   3.849   3.796   8.141  0.0386  0.1072  0.3375
 6307SOL    HW130554   3.754   3.794   8.154  0.3347  0.4617  2.5378
 6307SOL    HW230555   3.872   3.716   8.188  1.0721 -0.1661 -0.6357
 6308SOL     OW30556   0.151   4.623  10.109 -0.2857 -0.4053 -0.0037
 6308SOL    HW130557   0.195   4.664  10.184  1.3938 -0.7468 -0.7984
 6308SOL    HW230558   0.183   4.685  10.043  0.8096 -1.5413 -0.5466
 6309SOL     OW30559   2.552   0.770   5.026  0.5975  0.2965  0.3596
 6309SOL    HW130560   2.545   0.679   5.057 -1.2129  0.3787  0.1724
 6309SOL    HW230561   2.482   0.814   5.073  0.6444  1.1578 -0.3831
 6310SOL     OW30562   2.892   4.482  16.735 -0.7420  0.4214 -0.3623
 6310SOL    HW130563   2.930   4.397  16.757 -1.3165  0.2404 -0.0730
 6310SOL    HW230564   2.805   4.458  16.703 -0.0281 -2.3887 -0.1261
 6311SOL     OW30565   3.181   2.379  13.165 -0.3146 -1.0089 -0.2802
 6311SOL    HW130566   3.271   2.385  13.198 -1.0797 -1.9291  1.9608
 6311SOL    HW230567   3.146   2.325  13.236 -1.4483 -0.5892 -0.5263
 6312SOL     OW30568   2.665   3.801   6.067 -0.6676  0.3482  0.0071
 6312SOL    HW130569   2.629   3.859   6.001  2.9899  1.5399 -0.9257
 6312SOL    HW230570   2.635   3.718   6.032 -2.3244  0.6980  0.5772
 6313SOL     OW30571   2.923   0.448   7.972  0.5053  0.0393 -0.4662
 6313SOL    HW130572   2.925   0.356   7.945 -1.5182 -0.0896 -0.2009
 6313SOL    HW230573   2.901   0.484   7.886  2.7405 -0.8469 -1.4015
 6314SOL     OW30574   3.123   3.206   7.264 -0.4930 -0.1652 -0.0846
 6314SOL    HW130575   3.047   3.263   7.277 -1.3942 -0.6633 -3.4312
 6314SOL    HW230576   3.164   3.262   7.198 -1.8971  1.3788  0.3416
 6315SOL     OW30577   4.277   4.476  15.764  0.8163  0.0008  0.4491
 6315SOL    HW130578   4.284   4.536  15.690 -2.5871  1.1881  1.0902
 6315SOL    HW230579   4.300   4.394  15.720 -3.4628 -0.6500 -0.5261
 6316SOL     OW30580   2.806   3.877   2.259  0.5545 -0.0930  0.1835
 6316SOL    HW130581   2.853   3.846   2.182  2.9404  2.1733  0.7412
 6316SOL    HW230582   2.827   3.970   2.269 -0.2096  0.3599 -2.6711
 6317SOL     OW30583   4.066   0.268   6.021  0.2931 -0.2975 -0.3427
 6317SOL    HW130584   4.141   0.311   5.979  1.0443 -0.1778  1.1402
 6317SOL    HW230585   4.100   0.178   6.019 -1.3866 -0.9373  0.2343
 6318SOL     OW30586   4.190   3.175   6.813  0.0275  0.1800  0.1456
 6318SOL    HW130587   4.126   3.173   6.742 -0.1098 -1.1738  0.2962
 6318SOL    HW230588   4.183   3.259   6.858  0.9939  0.4532 -0.2220
 6319SOL     OW30589   2.886   4.603  14.141  0.4082 -0.5104  0.1385
 6319SOL    HW130590   2.824   4.596  14.068  1.0376  0.2318 -0.4685
 6319SOL    HW230591   2.901   4.510  14.160  0.2276 -0.6225 -0.2580
 6320SOL     OW30592   2.897   3.243   5.694 -0.4144  0.8338  0.1789
 6320SOL    HW130593   2.853   3.159   5.708 -1.6702  1.1893 -1.6832
 6320SOL    HW230594   2.895   3.242   5.599 -0.0159 -2.1789  0.1887
 6321SOL     OW30595   1.269   2.330   5.944 -0.1551  0.1094  0.0070
 6321SOL    HW130596   1.294   2.399   5.883  0.0001  0.0959  0.0556
 6321SOL    HW230597   1.215   2.380   6.005 -1.7923 -0.4237 -1.0101
 6322SOL     OW30598   3.139   3.782   7.725 -0.5022 -0.4351 -0.1264
 6322SOL    HW130599   3.135   3.802   7.818  0.6931 -0.7397 -0.0162
 6322SOL    HW230600   3.229   3.756   7.706  0.0564  2.1024 -0.9436
 6323SOL     OW30601   4.234   0.483  17.640 -0.3218  0.3488 -0.1621
 6323SOL    HW130602   4.207   0.519  17.724  0.8285 -1.4393  0.9574
 6323SOL    HW230603   4.241   0.390  17.658  0.0988  0.6221  1.0498
 6324SOL     OW30604   4.641   0.301  13.538 -0.1149  0.2373 -0.0074
 6324SOL    HW130605   4.658   0.393  13.520  2.9664 -0.7104 -1.8640
 6324SOL    HW230606   4.720   0.276  13.585 -2.8956 -1.9256  3.5550
 6325SOL     OW30607   1.531   2.472  16.045 -0.0266 -0.0529  0.1630
 6325SOL    HW130608   1.600   2.448  16.107  0.6516 -1.5833 -1.1661
 6325SOL    HW230609   1.557   2.562  16.029  1.3732 -0.6088 -0.7814
 6326SOL     OW30610   1.401   4.239   9.533  0.0053  0.1837 -0.3087
 6326SOL    HW130611   1.333   4.254   9.467  0.2722  0.4386 -0.5255
 6326SOL    HW230612   1.459   4.315   9.530 -1.1442  1.0729  0.0306
 6327SOL     OW30613   4.234   0.595   1.644 -0.2330 -0.3140  0.3701
 6327SOL    HW130614   4.285   0.551   1.576  0.4055 -0.5361  0.9901
 6327SOL    HW230615   4.151   0.548   1.635  0.4470 -1.5194  0.4242
 6328SOL     OW30616   3.850   3.352   9.621 -0.7231  0.0500  0.3348
 6328SOL    HW130617   3.888   3.265   9.632  0.4489  0.2972 -1.7663
 6328SOL    HW230618   3.918   3.403   9.666  1.6866 -2.4248 -0.5182
 6329SOL     OW30619   1.442   2.426  13.262 -0.1517  0.1602  0.5909
 6329SOL    HW130620   1.436   2.511  13.305 -1.0936 -0.3041  1.3632
 6329SOL    HW230621   1.363   2.429  13.208 -0.3703 -0.0979  0.8952
 6330SOL     OW30622   2.709   2.177   5.793  0.1378  0.1272 -0.1264
 6330SOL    HW130623   2.755   2.117   5.851 -0.1721 -0.2171 -0.2385
 6330SOL    HW230624   2.734   2.259   5.836 -1.8264 -1.1449  3.4785
 6331SOL     OW30625   3.046   2.912   8.372 -0.1300  0.1921  0.0994
 6331SOL    HW130626   3.133   2.943   8.397  1.3435 -3.2717 -0.7872
 6331SOL    HW230627   3.064   2.874   8.286 -0.8435 -0.6848  0.3310
 6332SOL     OW30628   4.108   0.896  14.385 -0.3308  0.0778  0.4940
 6332SOL    HW130629   4.094   0.801  14.388 -0.8744  0.1104 -1.3209
 6332SOL    HW230630   4.172   0.887  14.316 -0.6278  0.1062  0.2140
 6333SOL     OW30631   4.705   3.162   5.542 -0.2156 -0.1890 -0.6003
 6333SOL    HW130632   4.650   3.216   5.486  1.5747  0.3524 -1.8189
 6333SOL    HW230633   4.652   3.173   5.622  0.8345  3.6148 -0.4596
 6334SOL     OW30634   1.066   0.611   1.694 -0.0663  0.1207  0.3244
 6334SOL    HW130635   1.056   0.704   1.716  1.8836  0.8616 -1.8558
 6334SOL    HW230636   1.050   0.565   1.776 -1.0620 -1.2894 -0.6679
 6335SOL     OW30637   1.147   3.600   2.685 -0.5537 -0.7243  0.6269
 6335SOL    HW130638   1.174   3.591   2.777  0.8781  3.5199  0.6169
 6335SOL    HW230639   1.097   3.518   2.678 -0.7737 -0.4946 -0.5341
 6336SOL     OW30640   3.972   2.297   4.959 -0.6388 -0.5399 -0.5514
 6336SOL    HW130641   3.974   2.249   4.876 -0.4689  0.5920 -1.2025
 6336SOL    HW230642   3.895   2.350   4.940  1.4792  2.0940 -1.6705
 6337SOL     OW30643   3.099   0.058   4.583 -0.0676 -0.3127 -0.6853
 6337SOL    HW130644   3.065   0.069   4.495  0.3946 -0.4492 -0.8803
 6337SOL    HW230645   3.024   0.094   4.630 -0.6293 -0.0653 -1.7776
 6338SOL     OW30646   0.284   1.064   6.842  0.6199 -0.4948 -0.2849
 6338SOL    HW130647   0.270   1.152   6.877 -1.8187 -0.3015 -1.7153
 6338SOL    HW230648   0.245   1.005   6.906 -0.6177  1.2507  0.5721
 6339SOL     OW30649   3.982   0.951   1.418  0.0174 -0.3458 -0.4564
 6339SOL    HW130650   4.003   0.906   1.336 -1.9211  0.5204 -1.4148
 6339SOL    HW230651   4.064   0.999   1.430 -0.5884 -0.5794  4.6290
 6340SOL     OW30652   3.567   3.145  14.444  0.4037 -0.1982 -0.0270
 6340SOL    HW130653   3.637   3.197  14.483  2.8813 -2.0547 -2.0253
 6340SOL    HW230654   3.501   3.196  14.491  0.4246  2.0861 -2.4626
 6341SOL     OW30655   2.166   4.429   2.584  0.6760  0.1234  0.0476
 6341SOL    HW130656   2.079   4.469   2.594  0.6238  0.3269 -1.3198
 6341SOL    HW230657   2.147   4.357   2.524 -0.1613  0.1525  0.2666
 6342SOL     OW30658   2.564   1.900   5.743  0.4516 -0.0974  0.2135
 6342SOL    HW130659   2.535   1.830   5.801 -1.0657  0.2418 -0.1453
 6342SOL    HW230660   2.598   1.967   5.803 -0.2254  0.7393 -0.3427
 6343SOL     OW30661   0.487   3.506   4.837  0.6520 -0.4248  0.4418
 6343SOL    HW130662   0.524   3.553   4.912  0.6817  0.1175  0.0887
 6343SOL    HW230663   0.458   3.581   4.784  0.1224  0.2302  1.6544
 6344SOL     OW30664   1.269   0.279   1.139 -0.3337  0.8149 -0.0526
 6344SOL    HW130665   1.195   0.222   1.160  0.1717  0.5283  0.9632
 6344SOL    HW230666   1.323   0.282   1.218 -0.4648 -1.8174  0.1483
 6345SOL     OW30667   2.415   1.515   8.226  1.0299 -0.0263  0.1990
 6345SOL    HW130668   2.467   1.490   8.150  0.0797  2.4201 -1.2578
 6345SOL    HW230669   2.424   1.438   8.282  0.6699  1.9221  2.9229
 6346SOL     OW30670   1.360   3.146   6.346 -0.5519  0.2428 -0.1111
 6346SOL    HW130671   1.362   3.224   6.291 -2.1968  0.7558  0.5535
 6346SOL    HW230672   1.455   3.130   6.345 -0.8003 -1.3188  1.4312
 6347SOL     OW30673   0.280   1.396   7.415  0.1695 -0.5112 -0.1112
 6347SOL    HW130674   0.332   1.466   7.375  1.1957  0.6948  3.3778
 6347SOL    HW230675   0.269   1.425   7.505  0.8887 -1.4090  0.2601
 6348SOL     OW30676   3.028   4.001   7.271 -0.0694  0.0626  0.1573
 6348SOL    HW130677   3.014   4.043   7.356 -0.9430 -0.2922  0.1926
 6348SOL    HW230678   3.010   4.074   7.213  2.5052 -0.0108 -0.7171
 6349SOL     OW30679   0.318   1.073   3.238 -1.0392 -0.0135  0.5474
 6349SOL    HW130680   0.320   1.053   3.144  0.4779  0.3193  0.5152
 6349SOL    HW230681   0.405   1.100   3.265 -0.2192 -0.0566 -2.0587
 6350SOL     OW30682   4.096   2.303   7.117  0.0355 -0.1941  0.4793
 6350SOL    HW130683   4.056   2.273   7.198 -0.8620 -0.6792 -0.1411
 6350SOL    HW230684   4.128   2.222   7.077 -0.3040 -0.2877  0.3985
 6351SOL     OW30685   1.441   1.495   2.375 -0.2206 -0.0799 -0.2655
 6351SOL    HW130686   1.511   1.430   2.367  0.5502  0.7762 -0.4678
 6351SOL    HW230687   1.374   1.454   2.431 -0.4010  1.4291  0.6461
 6352SOL     OW30688   1.923   1.674  16.230 -0.3403  0.4266  0.3399
 6352SOL    HW130689   1.864   1.748  16.228 -1.1952 -0.2679 -0.3940
 6352SOL    HW230690   1.868   1.613  16.280 -1.9371  1.8596  0.2951
 6353SOL     OW30691   4.315   4.223   1.756  0.1579  0.8150  0.2544
 6353SOL    HW130692   4.294   4.279   1.682  3.2485 -1.6255 -2.4476
 6353SOL    HW230693   4.263   4.149   1.725  1.0536  0.0692  0.5418
 6354SOL     OW30694   2.677   2.415   0.950  0.0210 -0.1816 -0.3067
 6354SOL    HW130695   2.758   2.421   1.002 -1.2065 -1.4415  1.7424
 6354SOL    HW230696   2.612   2.441   1.015  1.9635 -0.9741  1.9684
 6355SOL     OW30697   0.875   4.189   5.702  0.3413 -0.1729  0.6990
 6355SOL    HW130698   0.948   4.250   5.690  0.1493  0.3849  2.3385
 6355SOL    HW230699   0.837   4.207   5.788 -1.5137 -0.3232 -0.1005
 6356SOL     OW30700   4.228   0.127   4.005 -0.0689  0.1745  0.4535
 6356SOL    HW130701   4.216   0.103   3.913  0.3024 -1.7490  0.9182
 6356SOL    HW230702   4.308   0.076   4.019 -0.9787 -2.3982 -3.6997
 6357SOL     OW30703   4.466   2.619   9.549 -0.2279  0.0401 -0.4862
 6357SOL    HW130704   4.550   2.637   9.590 -1.2445  0.3855  1.4268
 6357SOL    HW230705   4.400   2.599   9.616  0.3166 -0.3132 -0.0630
 6358SOL     OW30706   3.529   2.810  12.869 -0.6326 -0.4660 -0.6750
 6358SOL    HW130707   3.596   2.828  12.935 -0.8086 -0.0211 -0.6178
 6358SOL    HW230708   3.549   2.876  12.803 -0.3027  1.0209  0.9403
 6359SOL     OW30709   0.350   1.629  16.294  0.2970 -0.4577  0.2343
 6359SOL    HW130710   0.426   1.611  16.238 -0.7905  1.9253 -2.0236
 6359SOL    HW230711   0.385   1.688  16.362 -1.1647  1.0137 -0.2834
 6360SOL     OW30712   1.231   1.736  10.223  0.2783 -0.2386  0.1283
 6360SOL    HW130713   1.264   1.716  10.311  0.4199 -0.3441  0.0513
 6360SOL    HW230714   1.137   1.747  10.239  0.7039  1.1525  1.6998
 6361SOL     OW30715   1.832   0.802  15.943 -0.3024 -0.2147  0.1963
 6361SOL    HW130716   1.841   0.707  15.951 -0.0219 -0.1336  0.8548
 6361SOL    HW230717   1.772   0.815  15.870 -2.0572  0.6194  1.7883
 6362SOL     OW30718   2.981   4.451   5.900  0.1234 -0.0620  0.3959
 6362SOL    HW130719   2.952   4.533   5.860  1.1888  0.3599  0.4889
 6362SOL    HW230720   2.941   4.396   5.833  0.0697  2.5487 -1.7321
 6363SOL     OW30721   3.173   0.183  17.511 -0.1701 -0.3090 -0.6945
 6363SOL    HW130722   3.234   0.163  17.439  0.4701  1.7342 -0.7135
 6363SOL    HW230723   3.096   0.132  17.488 -0.8482 -0.3073  1.6021
 6364SOL     OW30724   2.546   0.618   4.431 -0.2105  0.1358  0.0523
 6364SOL    HW130725   2.611   0.676   4.391  0.4999  0.3122  1.4756
 6364SOL    HW230726   2.558   0.616   4.526  1.9084 -0.7517 -0.2259
 6365SOL     OW30727   0.696   0.178   5.527  0.2709 -0.0634 -0.0213
 6365SOL    HW130728   0.756   0.111   5.560  0.0971  0.7466  1.9639
 6365SOL    HW230729   0.741   0.254   5.563  1.5411 -1.3956  1.2348
 6366SOL     OW30730   0.555   2.447  11.018  0.0913  0.0351  0.3670
 6366SOL    HW130731   0.602   2.396  11.083  0.8392  2.2913  1.6239
 6366SOL    HW230732   0.537   2.376  10.957  2.8491  1.5409 -2.1952
 6367SOL     OW30733   0.697   4.383   4.780  0.3921 -0.0637  0.3328
 6367SOL    HW130734   0.607   4.352   4.787  0.9928 -1.8122  0.4547
 6367SOL    HW230735   0.715   4.395   4.873  0.5619 -0.0068  0.2933
 6368SOL     OW30736   1.368   0.337   4.947  0.1178 -0.3582  0.1677
 6368SOL    HW130737   1.460   0.333   4.971  0.0649 -0.4123  0.3540
 6368SOL    HW230738   1.334   0.368   5.031  1.7109 -1.0133  1.0325
 6369SOL     OW30739   2.873   3.296   3.202 -0.2679  0.2859 -0.3422
 6369SOL    HW130740   2.879   3.270   3.294  1.1876 -1.8148 -1.0260
 6369SOL    HW230741   2.791   3.258   3.170 -1.3622  1.2726  1.2881
 6370SOL     OW30742   0.149   2.130   8.296  0.1662  0.6278  0.1149
 6370SOL    HW130743   0.060   2.107   8.270  0.0013  1.2648  0.1200
 6370SOL    HW230744   0.205   2.152   8.222  0.9262  0.6984  0.7040
 6371SOL     OW30745   3.034   3.902  16.586 -0.5106  0.5357  0.2186
 6371SOL    HW130746   3.048   3.983  16.635  3.1518 -0.1989  0.3676
 6371SOL    HW230747   2.954   3.918  16.536  0.3270  0.2588 -1.2038
 6372SOL     OW30748   2.059   4.640   9.602  0.1315  0.0544  0.3675
 6372SOL    HW130749   2.139   4.679   9.637  0.1051  0.7591 -0.3490
 6372SOL    HW230750   2.073   4.546   9.613 -2.6662 -0.3212  0.6544
 6373SOL     OW30751   4.342   1.574   8.949 -0.3740  0.1527  0.0693
 6373SOL    HW130752   4.246   1.569   8.954 -0.4596 -0.1989 -2.0379
 6373SOL    HW230753   4.365   1.626   9.026 -0.7238  0.8668 -0.3084
 6374SOL     OW30754   1.357   2.773  13.883  0.2682 -0.1964  0.0743
 6374SOL    HW130755   1.353   2.704  13.949 -0.8034 -0.5386 -0.3524
 6374SOL    HW230756   1.381   2.854  13.929  2.2093 -2.1238  2.4542
 6375SOL     OW30757   1.997   2.565   6.696  0.1499 -0.5778  0.0086
 6375SOL    HW130758   1.975   2.646   6.741 -3.2551 -0.5685 -1.7314
 6375SOL    HW230759   2.047   2.528   6.769  1.2946  1.9178  0.4782
 6376SOL     OW30760   1.817   2.245   8.514  0.4947 -0.6351 -0.0687
 6376SOL    HW130761   1.727   2.271   8.533  0.4621  0.3539 -1.5681
 6376SOL    HW230762   1.838   2.184   8.585 -1.8266 -0.0884  1.0843
 6377SOL     OW30763   3.398   1.252   4.505  0.8625 -0.5533 -0.1386
 6377SOL    HW130764   3.409   1.315   4.576  0.8541 -2.0627  1.2044
 6377SOL    HW230765   3.454   1.182   4.538 -0.3420 -0.7510  1.4727
 6378SOL     OW30766   0.275   2.867  10.953  0.2601  0.2819  0.1433
 6378SOL    HW130767   0.196   2.845  10.903  1.7550  1.6017 -2.7888
 6378SOL    HW230768   0.313   2.790  10.995  1.0771  1.8104  2.1888
 6379SOL     OW30769   3.017   4.666   9.746  0.3180 -0.0964  0.8344
 6379SOL    HW130770   2.974   0.005   9.785  0.4042  0.6987 -0.6603
 6379SOL    HW230771   3.042   4.631   9.832  0.8785 -1.1883  0.2176
 6380SOL     OW30772   0.369   3.957   3.311  0.4755 -0.7998  0.4218
 6380SOL    HW130773   0.405   3.897   3.377 -0.0461 -0.1923  1.2667
 6380SOL    HW230774   0.346   3.901   3.237  0.5019  0.8773 -0.8569
 6381SOL     OW30775   2.800   0.859  10.773  1.0770 -0.1849 -0.0922
 6381SOL    HW130776   2.776   0.768  10.787  0.7743  0.4728  3.6420
 6381SOL    HW230777   2.714   0.879  10.736  0.4170 -1.4983  0.7414
 6382SOL     OW30778   2.825   0.963   8.877  0.5972 -0.2690  0.0554
 6382SOL    HW130779   2.730   0.974   8.871  0.6615 -1.0192 -2.1642
 6382SOL    HW230780   2.833   0.871   8.903  0.1700 -0.0064  1.1274
 6383SOL     OW30781   0.302   2.494   5.811 -0.0197  0.2785 -0.0631
 6383SOL    HW130782   0.261   2.521   5.729  1.1661 -1.0049 -1.0698
 6383SOL    HW230783   0.368   2.561   5.826 -0.5474  0.7467  0.1734
 6384SOL     OW30784   4.159   0.585  16.995 -0.2374  0.0743  0.3255
 6384SOL    HW130785   4.178   0.502  16.951  0.5039 -0.3718  1.5175
 6384SOL    HW230786   4.106   0.629  16.928  1.0810  0.2089 -0.6233
 6385SOL     OW30787   2.376   0.140   2.135  0.0963 -0.2827  0.6334
 6385SOL    HW130788   2.399   0.076   2.067 -1.0447  0.6385 -0.6203
 6385SOL    HW230789   2.401   0.218   2.085 -0.7757 -1.2265 -1.2972
 6386SOL     OW30790   4.595   1.950   6.594  0.0587  0.3009 -0.5296
 6386SOL    HW130791   4.638   1.865   6.584 -0.9909 -0.3141  0.1777
 6386SOL    HW230792   4.499   1.943   6.585 -0.1798  2.8554  0.2185
 6387SOL     OW30793   1.571   0.812   8.801  0.1899  0.2582  0.5090
 6387SOL    HW130794   1.623   0.779   8.874  1.0952  1.7438  0.5393
 6387SOL    HW230795   1.578   0.907   8.806  2.2553  0.0678  1.0368
 6388SOL     OW30796   0.309   0.814  16.722 -0.3341  0.3049  0.0385
 6388SOL    HW130797   0.402   0.832  16.712 -0.2706 -0.0569  0.0090
 6388SOL    HW230798   0.289   0.725  16.695  2.4922 -0.7142  1.3941
 6389SOL     OW30799   0.661   3.241   2.784  0.4563 -0.1316  0.0020
 6389SOL    HW130800   0.704   3.192   2.854  1.1975  0.1078 -0.2870
 6389SOL    HW230801   0.705   3.320   2.815  1.3310  0.3210 -2.3994
 6390SOL     OW30802   1.141   1.247   1.104  0.6572  0.7200  0.0429
 6390SOL    HW130803   1.217   1.233   1.048  2.3981  0.6810  2.3954
 6390SOL    HW230804   1.074   1.209   1.049 -0.3394  0.0958  1.6837
 6391SOL     OW30805   2.609   3.059  12.043  0.2142 -0.1106 -0.2628
 6391SOL    HW130806   2.617   3.144  12.087 -2.6074  1.0983 -2.0661
 6391SOL    HW230807   2.700   3.029  12.051  0.2701  0.7503  2.3400
 6392SOL     OW30808   1.947   3.255   6.185  0.3269  0.5016 -0.5262
 6392SOL    HW130809   1.873   3.210   6.145  0.1412 -0.0614  0.4416
 6392SOL    HW230810   1.896   3.307   6.247  0.1818 -0.4310  0.1380
 6393SOL     OW30811   2.463   2.500   2.218 -0.0369  0.0870  0.0916
 6393SOL    HW130812   2.496   2.507   2.128 -0.3234  0.1344 -0.0098
 6393SOL    HW230813   2.512   2.570   2.261  1.0734 -0.6619  0.0313
 6394SOL     OW30814   4.556   2.267   0.607 -0.1241 -0.4297  0.1821
 6394SOL    HW130815   4.464   2.240   0.605  0.5822 -2.9069  1.1487
 6394SOL    HW230816   4.592   2.210   0.675 -1.2988 -1.4705 -0.0559
 6395SOL     OW30817   1.248   1.150  16.456 -0.0853  0.4092  0.5454
 6395SOL    HW130818   1.299   1.115  16.528 -1.1633  0.1245  1.1693
 6395SOL    HW230819   1.319   1.202  16.419  1.0281 -1.4459  0.0968
 6396SOL     OW30820   2.997   2.316  11.349 -0.2609 -0.1590 -0.0688
 6396SOL    HW130821   2.990   2.242  11.410 -0.8391 -1.7749 -2.0626
 6396SOL    HW230822   3.075   2.304  11.295  1.3007  3.3725  1.4659
 6397SOL     OW30823   0.535   2.655  15.488  0.1186  0.0057  0.5686
 6397SOL    HW130824   0.556   2.624  15.400  0.3251  0.6660  0.3866
 6397SOL    HW230825   0.610   2.628  15.540  0.1233  0.9153  1.0322
 6398SOL     OW30826   3.927   2.928   6.539 -0.4045  0.4593  0.4101
 6398SOL    HW130827   3.915   2.852   6.482  0.0650 -0.2097  1.1865
 6398SOL    HW230828   3.843   2.972   6.536 -0.5535  0.1240 -0.4029
 6399SOL     OW30829   0.504   4.657  13.990 -0.2176 -0.4155 -0.3442
 6399SOL    HW130830   0.537   4.650  13.900 -0.9534  5.1997 -1.0557
 6399SOL    HW230831   0.415   4.691  13.984  0.9795  2.4040 -2.3571
 6400SOL     OW30832   4.556   2.187   4.697 -0.0720 -0.4595  0.0234
 6400SOL    HW130833   4.651   2.188   4.690 -0.2903 -0.0812 -3.1366
 6400SOL    HW230834   4.545   2.094   4.719  1.9547 -0.8291 -0.5907
 6401SOL     OW30835   0.889   3.982   6.640 -0.5643  0.2723  0.2718
 6401SOL    HW130836   0.916   3.926   6.566 -0.7904  3.2804 -2.0699
 6401SOL    HW230837   0.871   4.064   6.594  1.6891  0.6065 -0.0125
 6402SOL     OW30838   3.936   2.853   2.170  0.6840  0.4023 -0.1104
 6402SOL    HW130839   4.017   2.826   2.213  1.1251 -4.3633 -3.9553
 6402SOL    HW230840   3.916   2.772   2.123  0.8080  0.2657  0.0713
 6403SOL     OW30841   3.456   3.918   8.372 -0.3620 -0.0404  0.0021
 6403SOL    HW130842   3.433   3.891   8.462  1.0044 -0.1674  0.3168
 6403SOL    HW230843   3.521   3.851   8.351 -0.7689  0.1047 -1.7244
 6404SOL     OW30844   0.897   0.118   2.593  0.5642 -0.0478 -0.1423
 6404SOL    HW130845   0.820   0.162   2.628  1.8006  0.2322  2.2024
 6404SOL    HW230846   0.940   0.187   2.543  2.4020 -0.5424  0.7382
 6405SOL     OW30847   3.507   1.323   1.308 -0.0401  0.1193  0.1589
 6405SOL    HW130848   3.583   1.327   1.251  0.6508  1.5971  1.1996
 6405SOL    HW230849   3.446   1.378   1.260  0.6161 -0.0616 -0.8699
 6406SOL     OW30850   3.234   4.464  16.059  0.4041 -0.4180  0.1676
 6406SOL    HW130851   3.268   4.523  15.992  1.2725  0.8822  1.7582
 6406SOL    HW230852   3.156   4.508  16.093  0.3706 -0.3429 -0.0043
 6407SOL     OW30853   2.908   4.293   8.005  0.3235 -0.0772  0.3202
 6407SOL    HW130854   2.963   4.255   8.074  1.9324  1.4269 -0.1417
 6407SOL    HW230855   2.827   4.243   8.015  0.0836  0.0116 -1.2663
 6408SOL     OW30856   4.639   2.235   8.764 -0.4892 -0.3553 -0.5227
 6408SOL    HW130857   4.725   2.262   8.733  0.6032 -2.0394  1.0431
 6408SOL    HW230858   4.604   2.161   8.715 -1.0549  0.7752 -1.8319
 6409SOL     OW30859   1.935   2.518   0.320 -0.2620  0.2307 -0.1975
 6409SOL    HW130860   1.913   2.531   0.412 -1.4044  1.3436 -0.6329
 6409SOL    HW230861   1.862   2.563   0.278 -0.8630 -0.1784  0.4252
 6410SOL     OW30862   3.066   1.667   6.263  0.2492  0.7009 -0.7240
 6410SOL    HW130863   3.117   1.745   6.244  0.2137  1.0223  0.5548
 6410SOL    HW230864   3.132   1.616   6.309 -1.1172  0.4295  0.9236
 6411SOL     OW30865   1.810   3.264  12.769  0.3514 -0.2541  0.2837
 6411SOL    HW130866   1.735   3.262  12.828 -1.8603 -2.0527 -2.6087
 6411SOL    HW230867   1.831   3.356  12.753 -1.8907  0.3362  0.6773
 6412SOL     OW30868   0.454   0.000   6.495  0.2150  0.2693  0.2523
 6412SOL    HW130869   0.416   4.651   6.481  0.0144  0.6081 -1.3575
 6412SOL    HW230870   0.522   0.002   6.428  0.1982  2.5265  0.2941
 6413SOL     OW30871   3.552   1.009   2.781  0.0039 -0.0534 -0.3476
 6413SOL    HW130872   3.597   1.017   2.697  2.5445  0.3993  1.0755
 6413SOL    HW230873   3.602   0.941   2.825 -0.6089  1.3985  2.5553
 6414SOL     OW30874   1.621   4.013  11.934  0.1450 -0.2156 -0.0310
 6414SOL    HW130875   1.677   4.073  11.885 -0.2591  0.7899  0.7248
 6414SOL    HW230876   1.539   4.064  11.938  0.2508  0.0179 -0.8138
 6415SOL     OW30877   0.135   3.095  11.199 -0.1096 -0.1575  0.7568
 6415SOL    HW130878   0.205   3.036  11.227  0.7439  0.9568  0.9978
 6415SOL    HW230879   0.184   3.176  11.186 -0.4416  0.6497  4.6055
 6416SOL     OW30880   1.414   1.276   0.476 -0.0574  0.7086 -0.2471
 6416SOL    HW130881   1.319   1.265   0.472  0.3632 -1.2061 -4.4664
 6416SOL    HW230882   1.421   1.365   0.511  0.2999  1.3868 -2.0742
 6417SOL     OW30883   2.821   1.005  13.500 -0.3574 -0.3784 -0.4331
 6417SOL    HW130884   2.738   1.052  13.497 -1.5880 -2.4986  0.9116
 6417SOL    HW230885   2.805   0.938  13.567 -1.2687  0.4374  0.1694
 6418SOL     OW30886   3.299   1.298  15.654 -0.2544 -0.6174 -0.8071
 6418SOL    HW130887   3.298   1.280  15.560 -0.7759  0.0201 -0.9262
 6418SOL    HW230888   3.226   1.360  15.649  0.2195  0.1475  2.1429
 6419SOL     OW30889   1.088   3.855   8.336 -0.2059  0.8341  0.3557
 6419SOL    HW130890   1.090   3.858   8.432  1.7189  2.1088  0.2732
 6419SOL    HW230891   0.997   3.825   8.330  0.3707 -0.7388 -0.5508
 6420SOL     OW30892   2.469   0.859  15.896  0.2116  0.6649  0.0935
 6420SOL    HW130893   2.464   0.876  15.802 -1.2551  0.1850  0.0767
 6420SOL    HW230894   2.460   0.764  15.896 -0.7382  0.7693  3.1032
 6421SOL     OW30895   0.584   0.255   0.695 -0.1279 -0.3970  1.1092
 6421SOL    HW130896   0.634   0.251   0.614 -0.6023 -2.5201  0.9216
 6421SOL    HW230897   0.577   0.167   0.732 -0.5532 -1.0225 -0.4687
 6422SOL     OW30898   4.389   1.605  17.215 -0.5170 -0.4781  0.2520
 6422SOL    HW130899   4.410   1.540  17.282  2.1974  2.4176  2.2273
 6422SOL    HW230900   4.367   1.546  17.143  3.5734 -0.3861 -1.0622
 6423SOL     OW30901   1.229   2.000   8.171  0.0613 -0.3136 -0.1753
 6423SOL    HW130902   1.317   2.001   8.133 -0.4101  3.3147 -1.1903
 6423SOL    HW230903   1.241   1.936   8.241 -2.4760  0.7130  1.1859
 6424SOL     OW30904   3.659   3.471   5.660  0.2270 -0.6601 -0.3660
 6424SOL    HW130905   3.593   3.536   5.637  0.7756  0.3916  1.0868
 6424SOL    HW230906   3.731   3.508   5.609  0.7041 -0.6554  0.3144
 6425SOL     OW30907   4.683   1.565  10.062 -0.0390 -0.1884  0.5913
 6425SOL    HW130908   4.665   1.491  10.120 -0.0769 -0.3323  0.3978
 6425SOL    HW230909   4.651   1.546   9.973 -1.2555  3.5676  0.2520
 6426SOL     OW30910   1.681   0.741   1.709 -0.1877 -0.4883 -0.0764
 6426SOL    HW130911   1.623   0.743   1.633 -0.9501  3.8465  0.6218
 6426SOL    HW230912   1.699   0.833   1.726 -0.3845 -0.8391  2.0939
 6427SOL     OW30913   1.013   4.041   2.301  0.1067 -0.1941  0.5106
 6427SOL    HW130914   1.035   3.952   2.329 -0.3058 -0.1841  0.8728
 6427SOL    HW230915   0.986   4.075   2.387 -2.7678  2.5929 -1.5195
 6428SOL     OW30916   3.679   1.267   5.889  0.1951  0.3817  0.0096
 6428SOL    HW130917   3.758   1.319   5.874  0.5473 -0.1662 -0.0085
 6428SOL    HW230918   3.716   1.191   5.933 -0.7403  0.0385  0.2002
 6429SOL     OW30919   1.790   3.606   6.029 -0.0693  0.1353 -0.0069
 6429SOL    HW130920   1.882   3.589   6.013 -0.7978 -2.2839 -1.5946
 6429SOL    HW230921   1.758   3.628   5.941 -0.3378  2.1631  0.6043
 6430SOL     OW30922   2.434   0.604   9.291  0.4829 -0.3923  0.2867
 6430SOL    HW130923   2.438   0.530   9.230  0.9356 -0.0149 -0.1455
 6430SOL    HW230924   2.339   0.616   9.291  0.2142 -2.4919 -0.4966
 6431SOL     OW30925   0.718   1.499  13.407  0.2154 -0.4368 -0.3079
 6431SOL    HW130926   0.654   1.430  13.393 -0.3117 -0.0441  0.1615
 6431SOL    HW230927   0.790   1.462  13.355  0.4638 -1.3595  0.7073
 6432SOL     OW30928   0.533   2.793   1.155 -0.5693 -0.6780 -0.0308
 6432SOL    HW130929   0.520   2.879   1.116  0.1549 -0.2453  0.7049
 6432SOL    HW230930   0.625   2.791   1.129 -0.8174  1.8708 -1.0423
 6433SOL     OW30931   4.185   1.614  12.627  0.0263 -0.5842  0.4210
 6433SOL    HW130932   4.252   1.675  12.595  0.4985 -2.2250 -1.7109
 6433SOL    HW230933   4.213   1.529  12.593 -3.0464 -2.5573  2.7354
 6434SOL     OW30934   0.453   4.684  12.563 -0.0858  0.5863  0.4913
 6434SOL    HW130935   0.364   4.680  12.596 -0.7933 -1.4174 -1.6328
 6434SOL    HW230936   0.459   0.041  12.552 -0.2871  0.7286  1.6690
 6435SOL     OW30937   1.871   0.560  13.804  0.2051 -0.3710  0.3244
 6435SOL    HW130938   1.927   0.556  13.882  0.2837 -0.4443  0.2632
 6435SOL    HW230939   1.928   0.591  13.735  0.0239 -0.0293  0.3244
 6436SOL     OW30940   4.502   0.894  12.751 -0.0277  0.5425 -0.1037
 6436SOL    HW130941   4.490   0.898  12.846 -0.4285  2.0308 -0.2229
 6436SOL    HW230942   4.413   0.916  12.723 -0.0401  0.4751 -0.1182
 6437SOL     OW30943   0.174   2.217   8.741  0.3399  0.5905  0.1248
 6437SOL    HW130944   0.153   2.164   8.818 -0.7862 -0.1236 -0.6572
 6437SOL    HW230945   0.247   2.168   8.702 -0.7149  0.2158 -1.3689
 6438SOL     OW30946   4.734   2.755  10.920  0.0138  0.0286 -0.5309
 6438SOL    HW130947   4.650   2.716  10.898  0.8863 -2.5385  0.6319
 6438SOL    HW230948   0.056   2.689  10.884  1.7094  0.6703  1.0929
 6439SOL     OW30949   4.352   0.973   1.018 -0.0860  0.4774 -0.4151
 6439SOL    HW130950   4.432   0.933   1.051 -1.1763  0.1725  1.8710
 6439SOL    HW230951   4.350   1.064   1.049 -0.3956  0.3516 -0.0658
 6440SOL     OW30952   0.867   3.936  15.491  0.5085 -0.4934  0.3154
 6440SOL    HW130953   0.908   3.850  15.494  0.4126 -0.5206  0.8068
 6440SOL    HW230954   0.880   3.960  15.399  0.4244 -0.5318  0.2943
 6441SOL     OW30955   4.484   1.669  12.326  0.2451 -0.1486 -0.0164
 6441SOL    HW130956   4.538   1.732  12.279  0.2487 -0.1642 -0.0334
 6441SOL    HW230957   4.412   1.654  12.265 -0.0543  0.1170  0.2725
 6442SOL     OW30958   3.969   0.426   0.447  0.0909  0.0838  0.2505
 6442SOL    HW130959   3.939   0.382   0.526 -1.5805 -0.0077 -0.4344
 6442SOL    HW230960   4.043   0.469   0.490 -0.3835  0.0472  1.0871
 6443SOL     OW30961   1.276   3.363   8.250 -0.4268 -0.0709  0.5158
 6443SOL    HW130962   1.252   3.453   8.226  0.9665 -0.1626 -1.2506
 6443SOL    HW230963   1.285   3.358   8.345  2.8375 -1.5508  0.1313
 6444SOL     OW30964   1.323   0.884   7.547  0.3019 -0.7052 -0.2343
 6444SOL    HW130965   1.238   0.858   7.583 -0.7346  0.6160 -1.7188
 6444SOL    HW230966   1.303   0.975   7.524  3.5590 -0.2258 -1.0859
 6445SOL     OW30967   0.526   1.003   3.019  0.0081 -0.3149  0.0433
 6445SOL    HW130968   0.563   1.023   3.104  0.2595 -0.0877 -0.1220
 6445SOL    HW230969   0.500   0.911   3.019  0.6411 -0.4742  2.4792
 6446SOL     OW30970   1.820   2.855   4.433 -0.4901  0.2784  0.1974
 6446SOL    HW130971   1.778   2.819   4.355 -1.5448 -1.0843  1.3991
 6446SOL    HW230972   1.909   2.836   4.405  0.2490 -0.1302  2.8912
 6447SOL     OW30973   4.222   0.436   9.920  1.0678  0.1843 -0.3416
 6447SOL    HW130974   4.182   0.523   9.919 -0.1019 -0.3450  1.1508
 6447SOL    HW230975   4.150   0.379   9.945  0.3144  0.4519 -1.9112
 6448SOL     OW30976   1.390   2.659   4.908 -0.4285 -0.0729 -0.1109
 6448SOL    HW130977   1.463   2.605   4.878  0.1389 -0.2360  1.5421
 6448SOL    HW230978   1.417   2.745   4.876 -2.1412  0.7802  0.7357
 6449SOL     OW30979   1.313   1.009  15.950  0.4412  0.1677  0.0597
 6449SOL    HW130980   1.265   0.957  16.014 -1.6845  1.2587 -0.6557
 6449SOL    HW230981   1.286   0.972  15.866 -2.6507  0.9037  0.7588
 6450SOL     OW30982   1.476   3.942   2.266  0.2850  0.1824 -0.0564
 6450SOL    HW130983   1.400   3.899   2.226 -0.8018  1.3525  0.7396
 6450SOL    HW230984   1.474   3.906   2.354 -2.0089 -0.6999 -0.4498
 6451SOL     OW30985   0.584   2.813  14.845  0.4055 -0.1530 -0.5367
 6451SOL    HW130986   0.559   2.738  14.898 -1.2300  0.5992 -0.2533
 6451SOL    HW230987   0.599   2.776  14.758 -1.3420 -1.3978 -0.2891
 6452SOL     OW30988   0.629   2.019   3.043 -0.2140  0.3153  0.1778
 6452SOL    HW130989   0.587   1.980   3.119 -0.7397 -1.1906 -0.8897
 6452SOL    HW230990   0.553   2.063   3.004  0.8303  3.4228  1.6738
 6453SOL     OW30991   0.448   4.371   5.498 -0.2955  0.5273 -0.2206
 6453SOL    HW130992   0.461   4.433   5.570  3.6433 -0.4040 -0.1554
 6453SOL    HW230993   0.516   4.388   5.433 -0.0686 -0.3675 -0.2106
 6454SOL     OW30994   1.092   2.769   6.895 -0.3053  0.7599  0.1458
 6454SOL    HW130995   1.077   2.722   6.977  1.0830 -1.2034 -0.7065
 6454SOL    HW230996   1.168   2.821   6.921  1.7045 -2.8720  1.6575
 6455SOL     OW30997   0.035   0.533   3.693  0.6429 -0.0768 -0.4314
 6455SOL    HW130998   0.069   0.620   3.713  0.3591  0.0263 -0.3995
 6455SOL    HW230999   4.684   0.545   3.728  0.4805  0.0338 -0.8893
 6456SOL     OW31000   1.484   2.554   7.612  0.5186  0.3894  0.1864
 6456SOL    HW131001   1.525   2.617   7.554  0.3482  0.5515  0.2424
 6456SOL    HW231002   1.451   2.604   7.687 -2.0260 -1.0612  0.0144
 6457SOL     OW31003   0.460   0.705   3.020 -0.5137  0.4867  0.2335
 6457SOL    HW131004   0.372   0.675   3.043 -0.0918 -2.3906 -2.0371
 6457SOL    HW231005   0.512   0.689   3.099  0.8434 -0.4486 -0.8604
 6458SOL     OW31006   2.441   0.964  14.827 -0.0768  0.0702  0.3599
 6458SOL    HW131007   2.457   0.990  14.918 -0.0212 -1.6019  0.8296
 6458SOL    HW231008   2.453   0.871  14.847  2.5065  0.6719  1.5614
 6459SOL     OW31009   3.239   4.053   5.788  0.9213  0.0401  0.6507
 6459SOL    HW131010   3.262   4.121   5.724 -1.3889  1.7519  1.6381
 6459SOL    HW231011   3.194   4.099   5.859 -0.1836  3.1469 -2.0192
 6460SOL     OW31012   1.161   1.260   2.274 -0.1319 -0.6236 -0.2942
 6460SOL    HW131013   1.119   1.323   2.332 -0.3524 -0.6948 -0.3766
 6460SOL    HW231014   1.201   1.197   2.334  0.6567 -0.7789 -0.9698
 6461SOL     OW31015   0.472   0.796  15.252  0.5371  0.4108 -0.4664
 6461SOL    HW131016   0.419   0.732  15.204  1.3411  0.1849 -1.0581
 6461SOL    HW231017   0.521   0.733  15.305  1.2484  1.3648  0.0062
 6462SOL     OW31018   4.700   0.590   3.045 -0.0901 -0.1175 -0.3738
 6462SOL    HW131019   4.725   0.521   2.985  0.8441 -2.4652  2.7112
 6462SOL    HW231020   0.022   0.663   3.027 -0.1175 -0.0171 -0.0658
 6463SOL     OW31021   3.191   2.407   9.188 -0.2408 -0.4069 -0.1500
 6463SOL    HW131022   3.113   2.404   9.132 -0.4592 -1.7108  0.2229
 6463SOL    HW231023   3.232   2.326   9.157 -0.8678 -0.1509 -1.6857
 6464SOL     OW31024   3.298   0.320   6.922  0.5228 -0.1226  0.0269
 6464SOL    HW131025   3.389   0.348   6.913  0.3700  0.2354 -0.4337
 6464SOL    HW231026   3.304   0.228   6.945 -1.2176 -0.0645  0.7158
 6465SOL     OW31027   0.532   3.214  11.451  0.1112 -0.3166  0.7502
 6465SOL    HW131028   0.591   3.149  11.488 -0.2843 -0.8775  0.3830
 6465SOL    HW231029   0.500   3.266  11.526 -1.3452 -0.0359 -0.0606
 6466SOL     OW31030   0.440   1.204   2.110 -0.5259  0.0615 -0.1052
 6466SOL    HW131031   0.412   1.121   2.149  2.5029 -1.3021 -0.7821
 6466SOL    HW231032   0.473   1.246   2.189 -0.8678 -0.3453  0.2527
 6467SOL     OW31033   3.757   4.152   6.312 -0.2171  0.5823  0.1731
 6467SOL    HW131034   3.736   4.072   6.264  1.4616  1.1498 -1.5344
 6467SOL    HW231035   3.760   4.210   6.236 -2.7593  0.6752  0.1533
 6468SOL     OW31036   4.090   2.931   3.885 -0.0733 -0.2027  0.2160
 6468SOL    HW131037   4.096   2.842   3.919 -0.3576 -0.1335  0.4388
 6468SOL    HW231038   4.159   2.967   3.941  0.0533 -0.0002 -0.0670
 6469SOL     OW31039   0.855   4.244   9.703 -0.7307 -0.0040  0.8562
 6469SOL    HW131040   0.884   4.249   9.794  1.3710 -0.8317  0.2479
 6469SOL    HW231041   0.773   4.198   9.721 -0.7281  0.0433  0.9873
 6470SOL     OW31042   1.995   4.304  15.330  0.3816 -0.2918 -0.0694
 6470SOL    HW131043   2.020   4.278  15.419  0.4037  0.1846  0.0588
 6470SOL    HW231044   2.037   4.390  15.326 -0.9926  0.3704 -0.1951
 6471SOL     OW31045   2.649   2.327   4.371 -0.2813 -0.2142 -0.1006
 6471SOL    HW131046   2.629   2.311   4.279  0.1561  0.9465 -0.4060
 6471SOL    HW231047   2.583   2.274   4.414 -0.6185  0.3810  0.1187
 6472SOL     OW31048   2.792   3.727  12.278  0.1030 -0.2342 -0.3635
 6472SOL    HW131049   2.865   3.666  12.293 -1.3785 -1.5147  1.6502
 6472SOL    HW231050   2.846   3.805  12.290 -1.2815  0.5651  0.7290
 6473SOL     OW31051   3.488   1.707   8.705 -0.4209  0.8834  0.4805
 6473SOL    HW131052   3.433   1.754   8.767 -2.3024  1.2724 -1.5098
 6473SOL    HW231053   3.440   1.699   8.623  1.8187 -0.3185 -0.7063
 6474SOL     OW31054   1.291   1.355  13.817 -0.2925  0.2917 -0.4426
 6474SOL    HW131055   1.330   1.398  13.741  0.3263 -1.0958 -0.9046
 6474SOL    HW231056   1.234   1.296  13.768 -1.4938  1.0495  0.0295
 6475SOL     OW31057   1.264   2.405   7.395  0.0229  0.0811 -0.1985
 6475SOL    HW131058   1.251   2.498   7.375  1.1224  0.1504 -0.5977
 6475SOL    HW231059   1.296   2.407   7.485 -3.2785 -0.9939  1.0108
 6476SOL     OW31060   3.475   3.873   2.899  0.1464 -0.2405 -0.0108
 6476SOL    HW131061   3.390   3.878   2.855  1.7722  1.7669 -2.9177
 6476SOL    HW231062   3.491   3.964   2.923 -1.2827  0.4410 -1.6719
 6477SOL     OW31063   2.061   3.821  12.685  0.1348  0.1127  0.3527
 6477SOL    HW131064   2.087   3.905  12.723 -1.9571  0.7146  0.4914
 6477SOL    HW231065   1.967   3.816  12.704  0.2968 -1.4790  0.7133
 6478SOL     OW31066   4.395   0.273   4.256  0.1642 -0.3515 -0.7824
 6478SOL    HW131067   4.414   0.352   4.205 -0.9122  1.1068  1.0782
 6478SOL    HW231068   4.353   0.312   4.333  0.7364  0.7295 -1.0095
 6479SOL     OW31069   2.915   2.398   2.820 -0.0270 -0.7491 -0.0075
 6479SOL    HW131070   2.870   2.317   2.794  0.9141 -1.1769 -0.2999
 6479SOL    HW231071   2.837   2.454   2.824  0.2306 -0.3311 -0.6998
 6480SOL     OW31072   3.477   2.771   4.952 -0.1721  0.3578  0.2939
 6480SOL    HW131073   3.408   2.834   4.974 -0.3082 -0.2519  1.5940
 6480SOL    HW231074   3.545   2.777   5.018  1.9610 -2.1941 -1.6675
 6481SOL     OW31075   2.985   1.617   8.603  0.1979  0.1862 -0.3584
 6481SOL    HW131076   2.969   1.558   8.676  1.8451 -0.5688 -0.6111
 6481SOL    HW231077   3.080   1.607   8.593  0.2078  1.5117 -1.6875
 6482SOL     OW31078   4.358   4.694   6.355 -0.4988  0.3676 -0.2973
 6482SOL    HW131079   4.270   4.656   6.354 -0.3719 -0.1039  3.3367
 6482SOL    HW231080   4.370   4.721   6.446 -3.4546 -0.6090  0.3893
 6483SOL     OW31081   1.861   3.053   3.623 -0.5487 -0.1836  0.6251
 6483SOL    HW131082   1.790   3.089   3.676 -0.4379  0.2649  0.4662
 6483SOL    HW231083   1.827   2.965   3.611  0.8864 -0.8394  1.3901
 6484SOL     OW31084   2.458   1.182   4.490 -0.3767 -0.2800  0.0415
 6484SOL    HW131085   2.456   1.111   4.426  1.2881 -0.1549 -0.1354
 6484SOL    HW231086   2.518   1.145   4.555  1.2781 -0.3758 -1.5408
 6485SOL     OW31087   1.446   4.011   7.564  0.0388 -0.4881 -0.0143
 6485SOL    HW131088   1.481   4.100   7.556  0.0268 -0.4910 -0.0903
 6485SOL    HW231089   1.483   3.965   7.489 -0.6837  0.5458 -0.9936
 6486SOL     OW31090   1.699   3.078   7.431  0.6211 -0.9729 -0.0089
 6486SOL    HW131091   1.763   3.008   7.441  0.0398 -1.7170 -1.3385
 6486SOL    HW231092   1.736   3.136   7.497  0.1982  1.6321 -2.0736
 6487SOL     OW31093   0.143   4.094   3.458  0.3690 -0.0634 -0.2611
 6487SOL    HW131094   0.224   4.089   3.407  0.0146  0.6492 -0.9026
 6487SOL    HW231095   0.178   4.088   3.546 -0.7277 -0.8898  0.1220
 6488SOL     OW31096   1.656   3.619   1.769  0.6021 -0.0392 -0.5576
 6488SOL    HW131097   1.698   3.686   1.715  1.1159  0.2700  0.2323
 6488SOL    HW231098   1.562   3.636   1.761  0.5207  0.1147  0.7472
 6489SOL     OW31099   4.329   2.931   2.097  0.0792 -0.3511  0.0723
 6489SOL    HW131100   4.376   2.904   2.018  0.9311  4.2967 -1.0635
 6489SOL    HW231101   4.259   2.867   2.103  0.7605 -1.1779 -0.8685
 6490SOL     OW31102   3.745   1.357   4.674  0.0198 -0.5116  0.2570
 6490SOL    HW131103   3.829   1.378   4.714 -0.6889  1.1983  0.8740
 6490SOL    HW231104   3.704   1.307   4.745  0.5442  2.5789  2.7677
 6491SOL     OW31105   1.510   3.457   5.816 -0.3664  0.2392  0.0551
 6491SOL    HW131106   1.500   3.362   5.819  0.4541  0.1376 -0.3811
 6491SOL    HW231107   1.489   3.475   5.724  0.9688  0.6640 -0.1662
 6492SOL     OW31108   2.647   3.765  13.289  0.3666  0.1218 -0.9118
 6492SOL    HW131109   2.729   3.750  13.241 -0.5293 -1.9487 -1.7851
 6492SOL    HW231110   2.671   3.838  13.347 -0.2158 -2.1207  2.1767
 6493SOL     OW31111   0.442   0.232  16.339 -0.8736 -0.4959  0.4290
 6493SOL    HW131112   0.500   0.296  16.382  0.1851 -0.1463 -1.5224
 6493SOL    HW231113   0.418   0.282  16.261 -0.6349 -0.3353  0.4559
 6494SOL     OW31114   3.624   0.532   3.616 -0.0971  0.1138 -0.0740
 6494SOL    HW131115   3.680   0.559   3.689  0.9134 -0.1751 -0.7544
 6494SOL    HW231116   3.668   0.583   3.549 -0.8372 -0.0957 -0.7218
 6495SOL     OW31117   1.589   0.027   8.992  0.2222  0.1664 -0.1903
 6495SOL    HW131118   1.655   0.039   8.923  0.3909  0.4484  0.0229
 6495SOL    HW231119   1.634   0.000   9.072  2.1770  0.5093 -1.1658
 6496SOL     OW31120   2.848   0.201   3.960 -0.5471 -0.2012 -0.5440
 6496SOL    HW131121   2.761   0.241   3.962 -0.5778 -0.2137 -1.5696
 6496SOL    HW231122   2.909   0.275   3.952  0.2359 -1.0303 -2.2668
 6497SOL     OW31123   2.479   3.379   1.420 -0.0200  0.1175  0.5001
 6497SOL    HW131124   2.559   3.411   1.464  0.4395 -1.7691  1.0420
 6497SOL    HW231125   2.465   3.446   1.354 -0.9149  0.3832  0.9626
 6498SOL     OW31126   1.745   2.105   3.436  0.4951 -0.6602  0.1108
 6498SOL    HW131127   1.839   2.098   3.451  0.2908 -1.0172  1.1769
 6498SOL    HW231128   1.742   2.096   3.340  2.8881  2.8426 -0.2786
 6499SOL     OW31129   3.592   3.812  16.008 -0.4761  0.0117 -0.4617
 6499SOL    HW131130   3.551   3.837  15.925  0.8323 -2.0537 -1.7122
 6499SOL    HW231131   3.549   3.866  16.075  0.0888  0.2970 -0.3259
 6500SOL     OW31132   0.687   3.823   9.177  0.0396 -0.0031 -0.1793
 6500SOL    HW131133   0.713   3.821   9.085 -0.1992  2.1553 -0.2908
 6500SOL    HW231134   0.771   3.802   9.219  0.0140  0.2455 -0.0060
 6501SOL     OW31135   4.256   2.700   0.679  0.0196  0.4288  0.2276
 6501SOL    HW131136   4.246   2.655   0.763 -1.3500  1.0573  0.4038
 6501SOL    HW231137   4.209   2.779   0.707 -1.5890 -0.4679  0.0844
 6502SOL     OW31138   3.484   0.133   8.993  0.3086  0.2497  0.7407
 6502SOL    HW131139   3.579   0.134   9.002  0.4096 -0.2127 -0.2433
 6502SOL    HW231140   3.459   0.058   9.046  2.6172 -1.0695 -0.0375
 6503SOL     OW31141   0.140   1.510   2.442  0.4194  0.0420 -0.1711
 6503SOL    HW131142   0.136   1.604   2.457  0.1804  0.1699 -1.0583
 6503SOL    HW231143   0.102   1.500   2.355  0.2500 -1.6259  0.0845
 6504SOL     OW31144   1.556   2.542   4.078 -0.6071 -0.2790 -0.3229
 6504SOL    HW131145   1.475   2.500   4.107  0.3371 -2.2982 -0.6092
 6504SOL    HW231146   1.578   2.493   3.999 -0.1118 -1.5032  0.5902
 6505SOL     OW31147   0.684   4.645  12.440  0.4922 -0.2029  0.2649
 6505SOL    HW131148   0.612   4.650  12.503  0.9372 -2.4341  0.9468
 6505SOL    HW231149   0.708   4.556  12.467 -1.1912 -0.9322 -0.6354
 6506SOL     OW31150   0.444   1.026   0.212  0.1618 -0.1265  0.5221
 6506SOL    HW131151   0.356   1.043   0.245  1.1602  1.8925  2.1756
 6506SOL    HW231152   0.474   1.093   0.150  1.1977 -1.1651 -0.0959
 6507SOL     OW31153   2.043   4.470   7.820  0.1910 -0.4924 -0.0419
 6507SOL    HW131154   2.063   4.455   7.912 -3.6465 -2.5760  0.4669
 6507SOL    HW231155   2.006   4.383   7.803  0.5378 -0.5282 -0.6307
 6508SOL     OW31156   0.888   3.376   8.746  0.7441 -0.6389 -0.3475
 6508SOL    HW131157   0.859   3.303   8.691  1.3900  0.5697 -2.2696
 6508SOL    HW231158   0.942   3.321   8.802 -1.0443  0.5157  2.4928
 6509SOL     OW31159   1.881   1.913  14.096 -0.0587  0.0938  0.4209
 6509SOL    HW131160   1.876   1.886  14.188 -0.7021  2.4473  1.0655
 6509SOL    HW231161   1.828   1.992  14.096  0.5588  0.5069  0.5889
 6510SOL     OW31162   0.722   2.537  12.368  0.1008  0.3294 -0.1201
 6510SOL    HW131163   0.757   2.620  12.334 -1.2692  1.3527  0.9480
 6510SOL    HW231164   0.722   2.478  12.292 -1.4378 -1.5528  1.3503
 6511SOL     OW31165   4.006   2.770   1.819  0.2414 -0.0411 -0.1742
 6511SOL    HW131166   4.037   2.861   1.815 -2.0624  0.8160  1.7127
 6511SOL    HW231167   3.914   2.781   1.795 -0.2916 -1.9773  0.9555
 6512SOL     OW31168   0.320   3.467   7.249 -0.1600  0.0249  0.1509
 6512SOL    HW131169   0.260   3.513   7.191  0.4163 -0.1061 -0.5500
 6512SOL    HW231170   0.360   3.407   7.186 -0.6807  0.5590 -0.6947
 6513SOL     OW31171   1.329   3.044   8.370 -0.1263  0.0847 -0.3437
 6513SOL    HW131172   1.279   3.056   8.289  0.2469  0.8099 -0.4677
 6513SOL    HW231173   1.386   3.121   8.365  0.6253 -0.6424 -3.3126
 6514SOL     OW31174   0.564   3.566   1.660 -0.3808  0.1876  0.0788
 6514SOL    HW131175   0.607   3.641   1.619 -3.7998  1.1766 -1.7403
 6514SOL    HW231176   0.534   3.601   1.744  4.6775  2.2884  0.9837
 6515SOL     OW31177   1.688   4.137   9.807  0.0003  0.3757  0.2486
 6515SOL    HW131178   1.772   4.118   9.849 -1.9263 -1.7921  3.0959
 6515SOL    HW231179   1.705   4.137   9.712  1.5171 -1.6332  0.5074
 6516SOL     OW31180   3.921   0.409   7.498  0.1517 -0.1305  0.3178
 6516SOL    HW131181   3.972   0.445   7.570 -1.9038  3.5855 -0.0970
 6516SOL    HW231182   3.889   0.329   7.541  0.9288 -0.9250 -0.5599
 6517SOL     OW31183   0.724   2.260   8.220 -0.4241 -0.1499 -0.2182
 6517SOL    HW131184   0.797   2.224   8.271 -0.1826  0.0655 -0.4091
 6517SOL    HW231185   0.723   2.351   8.249 -0.4788  0.7812 -3.1447
 6518SOL     OW31186   2.928   1.940   2.796  0.0426  0.0678  0.1700
 6518SOL    HW131187   2.972   1.883   2.733 -1.8403 -0.7386 -0.4093
 6518SOL    HW231188   2.995   1.950   2.864 -0.3603  0.1538  0.5557
 6519SOL     OW31189   3.118   4.053   9.408  0.4782  0.1826  0.0152
 6519SOL    HW131190   3.202   4.021   9.442  0.7282  0.8877  0.0518
 6519SOL    HW231191   3.105   4.004   9.327  0.6427  0.7378 -0.3399
 6520SOL     OW31192   2.700   2.893   0.217  0.0556  0.4237 -0.1158
 6520SOL    HW131193   2.727   2.944   0.140  0.6301  0.8008  0.3359
 6520SOL    HW231194   2.779   2.839   0.212 -0.9465 -1.2093  1.9350
 6521SOL     OW31195   2.884   1.996   3.188 -0.2833 -0.3726  0.0487
 6521SOL    HW131196   2.977   2.018   3.179 -0.1337 -0.5167  1.2110
 6521SOL    HW231197   2.887   1.917   3.241  0.6385 -0.1314  0.3656
 6522SOL     OW31198   3.050   3.613   9.284 -0.4195 -0.4412  0.7138
 6522SOL    HW131199   2.994   3.589   9.210 -0.0866 -0.5954  0.5169
 6522SOL    HW231200   3.036   3.541   9.346 -0.4270 -2.3245 -1.4834
 6523SOL     OW31201   1.258   3.766   6.278 -0.4154  0.0613  0.0130
 6523SOL    HW131202   1.306   3.828   6.332  1.6268 -1.5670  0.0587
 6523SOL    HW231203   1.303   3.767   6.193  0.5366 -3.8376  0.4932
 6524SOL     OW31204   0.737   3.090   7.339 -0.4550 -0.1052 -0.4411
 6524SOL    HW131205   0.681   3.019   7.311 -0.1963 -0.6722  0.4613
 6524SOL    HW231206   0.671   3.140   7.387 -1.6870 -1.5363 -0.6733
 6525SOL     OW31207   4.026   0.544   3.547 -0.3983 -0.8261  0.4324
 6525SOL    HW131208   4.110   0.538   3.500 -0.5877  0.7630 -0.0913
 6525SOL    HW231209   3.986   0.593   3.476  1.4287 -1.6383 -1.1610
 6526SOL     OW31210   4.733   1.745   4.677  0.5340  0.3925  0.2004
 6526SOL    HW131211   0.034   1.657   4.673 -2.0800 -0.8693  2.5013
 6526SOL    HW231212   0.071   1.796   4.706 -0.0151  0.6067  1.2864
 6527SOL     OW31213   2.458   0.912   4.404 -0.8707 -0.0869  0.3242
 6527SOL    HW131214   2.512   0.844   4.364 -1.2562  0.7947 -1.6907
 6527SOL    HW231215   2.381   0.865   4.436 -1.0755  0.1719  0.2100
 6528SOL     OW31216   2.213   3.229   9.523  0.4979 -0.0394 -0.3540
 6528SOL    HW131217   2.214   3.158   9.586 -0.6537 -1.5076 -1.9733
 6528SOL    HW231218   2.220   3.307   9.578 -0.4238  0.0726 -0.3924
 6529SOL     OW31219   2.676   1.650   8.335 -0.1271  0.7680 -0.1213
 6529SOL    HW131220   2.691   1.576   8.393 -0.4429  1.7767  1.2504
 6529SOL    HW231221   2.760   1.667   8.294  0.8679 -0.7601  1.2842
 6530SOL     OW31222   0.460   0.511  12.689  0.0024 -0.2085  0.1436
 6530SOL    HW131223   0.532   0.478  12.634 -0.6518 -1.6847  0.1787
 6530SOL    HW231224   0.495   0.483  12.773 -0.5028  1.5245  0.9299
 6531SOL     OW31225   1.260   2.103   9.057 -0.3651 -1.1359 -0.2608
 6531SOL    HW131226   1.217   2.104   9.142 -0.9600 -1.9151 -0.5598
 6531SOL    HW231227   1.229   2.186   9.021  1.1803 -0.4054  0.0498
 6532SOL     OW31228   3.048   3.081   4.743 -0.7016  0.2482 -0.2440
 6532SOL    HW131229   3.063   3.037   4.659 -1.0619 -1.0371  0.3553
 6532SOL    HW231230   3.113   3.150   4.730 -1.4498  0.8915 -0.5202
 6533SOL     OW31231   0.551   0.956  13.928  0.5779 -0.2028  0.4639
 6533SOL    HW131232   0.572   1.025  13.992  2.0436 -1.3561  1.2175
 6533SOL    HW231233   0.619   0.959  13.861 -0.8236 -0.8472 -0.9920
 6534SOL     OW31234   4.481   0.245   3.303  0.2945 -0.3263 -0.6987
 6534SOL    HW131235   4.504   0.170   3.358 -0.1670  0.1175  0.0853
 6534SOL    HW231236   4.563   0.268   3.259  1.3395  1.8056  2.3496
 6535SOL     OW31237   1.074   0.059   2.365  0.3273  0.3909 -0.4483
 6535SOL    HW131238   1.062   0.153   2.353 -0.2897 -0.0813 -3.4856
 6535SOL    HW231239   1.036   0.052   2.452  1.1812 -1.3597 -0.2126
 6536SOL     OW31240   0.595   0.726   3.675  0.4015  0.1885 -0.1712
 6536SOL    HW131241   0.684   0.693   3.686  0.6481  0.5116 -1.1631
 6536SOL    HW231242   0.562   0.736   3.764  0.0095  0.1994 -0.3143
 6537SOL     OW31243   2.620   0.320   3.899 -0.2314  0.1669  0.3320
 6537SOL    HW131244   2.574   0.378   3.959  1.0123 -0.2406  1.6639
 6537SOL    HW231245   2.618   0.372   3.818 -2.1947 -0.2384  0.1204
 6538SOL     OW31246   4.338   1.331   1.050 -0.2005  1.0512 -0.0539
 6538SOL    HW131247   4.411   1.382   1.018  0.3591 -0.6815 -1.5087
 6538SOL    HW231248   4.315   1.377   1.131 -0.2334  2.3803 -0.8162
 6539SOL     OW31249   2.945   4.697  16.892 -0.0803 -0.2374 -0.2775
 6539SOL    HW131250   2.941   4.636  16.818  0.7945  1.1666 -1.4941
 6539SOL    HW231251   2.972   0.040  16.848  0.8383 -0.4583 -0.1107
 6540SOL     OW31252   3.645   0.520   7.498 -0.3787 -0.5515  0.1717
 6540SOL    HW131253   3.736   0.498   7.475  0.2677 -2.2928  4.4559
 6540SOL    HW231254   3.646   0.553   7.588 -1.2593  1.0893 -0.4250
 6541SOL     OW31255   4.421   3.920   7.082 -0.2659 -0.7254  0.4598
 6541SOL    HW131256   4.332   3.910   7.049 -0.9688  1.0750  1.8726
 6541SOL    HW231257   4.421   3.843   7.139  0.2744 -1.7083 -0.8592
 6542SOL     OW31258   3.906   1.026   7.803  0.0420 -0.7588 -0.0362
 6542SOL    HW131259   3.948   1.109   7.778 -0.2204 -0.4910  0.4209
 6542SOL    HW231260   3.831   1.017   7.745 -2.0960  2.3365  2.2637
 6543SOL     OW31261   2.830   0.240   7.811 -0.3158 -0.0294  0.0845
 6543SOL    HW131262   2.753   0.260   7.758 -0.3686 -0.5031 -0.0148
 6543SOL    HW231263   2.866   0.155   7.786  0.5985 -0.1209  1.6995
 6544SOL     OW31264   4.417   1.623   7.218 -0.2776  0.5963  0.0652
 6544SOL    HW131265   4.392   1.645   7.308  1.5032 -2.0762  1.2105
 6544SOL    HW231266   4.505   1.660   7.215  0.6263 -1.8332 -3.4203
 6545SOL     OW31267   1.431   4.594  15.314  0.0192 -0.1872  0.2919
 6545SOL    HW131268   1.497   4.565  15.251 -0.5619  0.4817 -0.6238
 6545SOL    HW231269   1.444   4.523  15.377  3.7007  0.2151 -0.0099
 6546SOL     OW31270   0.702   0.497   0.754 -0.4957 -0.3832 -0.1985
 6546SOL    HW131271   0.639   0.491   0.826 -0.7301 -0.1132 -0.3796
 6546SOL    HW231272   0.667   0.422   0.707 -0.6016 -1.1923  1.1714
 6547SOL     OW31273   0.376   1.372  16.447 -0.1931 -0.1138  0.0653
 6547SOL    HW131274   0.361   1.376  16.541 -2.0099 -0.4079 -0.2137
 6547SOL    HW231275   0.382   1.464  16.422  1.6351  0.4581  2.6509
 6548SOL     OW31276   0.114   2.128   6.202  0.1749 -0.4618  0.0603
 6548SOL    HW131277   0.097   2.147   6.110  1.2259  2.5169  0.4539
 6548SOL    HW231278   0.140   2.036   6.197 -1.3678 -0.9652  1.3065
 6549SOL     OW31279   1.622   0.382   4.281  0.1760  0.9263  0.1271
 6549SOL    HW131280   1.690   0.319   4.305 -0.3555  0.6540  0.9124
 6549SOL    HW231281   1.551   0.348   4.335  1.6488  2.4027  3.0520
 6550SOL     OW31282   1.692   0.404   0.462 -0.4572 -0.2303 -0.2604
 6550SOL    HW131283   1.711   0.469   0.530  0.8153  0.0108 -0.8549
 6550SOL    HW231284   1.599   0.379   0.468  0.2368 -2.4852  1.6040
 6551SOL     OW31285   1.368   4.117  11.932  0.1319 -0.2254  0.0588
 6551SOL    HW131286   1.372   4.040  11.875 -0.8981  0.1627 -0.5308
 6551SOL    HW231287   1.330   4.182  11.873  0.9163  0.5605  0.4089
 6552SOL     OW31288   2.910   4.268   5.652 -0.0477 -0.0957 -0.1695
 6552SOL    HW131289   2.850   4.204   5.691 -0.7093 -0.3794 -1.6578
 6552SOL    HW231290   2.955   4.211   5.589  1.4577  1.8470 -0.8585
 6553SOL     OW31291   0.629   2.662   5.601 -0.3238 -0.8315 -0.1567
 6553SOL    HW131292   0.627   2.700   5.513  0.3750 -1.4088 -0.4258
 6553SOL    HW231293   0.582   2.726   5.655  1.5402 -0.0392  0.5152
 6554SOL     OW31294   2.186   4.264   0.752  0.2401  0.4418 -0.8785
 6554SOL    HW131295   2.271   4.299   0.778 -0.4742  2.7363 -1.7214
 6554SOL    HW231296   2.154   4.327   0.688 -0.1623  1.9324  0.7811
 6555SOL     OW31297   2.776   4.596   9.652 -0.2023  0.1051  0.0441
 6555SOL    HW131298   2.854   4.620   9.702 -0.9114  3.2604 -0.3805
 6555SOL    HW231299   2.724   4.551   9.718 -1.7567  1.8032 -0.0356
 6556SOL     OW31300   4.420   1.437   5.335 -0.5275 -0.2444  0.3962
 6556SOL    HW131301   4.471   1.356   5.333 -0.0875  0.0992 -1.7838
 6556SOL    HW231302   4.450   1.485   5.412  0.9862 -0.5069 -0.0276
 6557SOL     OW31303   3.083   4.289   1.566 -0.0987 -0.3419 -0.2793
 6557SOL    HW131304   2.998   4.273   1.606  0.9556 -0.3436  1.9743
 6557SOL    HW231305   3.067   4.279   1.472 -0.9975 -3.0254  0.1474
 6558SOL     OW31306   3.879   4.256   7.094  0.1305  0.3170 -0.1496
 6558SOL    HW131307   3.826   4.210   7.029 -1.2587  1.9807 -0.2071
 6558SOL    HW231308   3.811   4.308   7.139 -0.8877 -1.1010 -0.0531
 6559SOL     OW31309   3.182   1.996   3.384  0.1377 -0.4520  0.3160
 6559SOL    HW131310   3.268   2.016   3.347  1.2776 -2.3746  1.9596
 6559SOL    HW231311   3.205   1.976   3.475 -0.7598 -1.0155  0.4262
 6560SOL     OW31312   0.985   0.985   3.300  0.0861 -0.1808 -0.5778
 6560SOL    HW131313   0.980   1.080   3.296 -0.9040 -0.0923  3.2130
 6560SOL    HW231314   1.074   0.956   3.279 -0.3371  0.0460 -2.7022
 6561SOL     OW31315   0.508   0.557  16.446  0.1039 -0.1512 -0.0281
 6561SOL    HW131316   0.449   0.623  16.410 -1.4408 -0.5416  1.8438
 6561SOL    HW231317   0.592   0.602  16.436 -1.2911  2.7779  1.2007
 6562SOL     OW31318   1.663   4.230   4.809 -0.0291  0.3001  0.4420
 6562SOL    HW131319   1.665   4.203   4.717 -0.5335  0.4743  0.3834
 6562SOL    HW231320   1.683   4.323   4.801  0.4395  0.1641  0.0267
 6563SOL     OW31321   4.040   2.610   4.111  0.3476  0.2553  0.1247
 6563SOL    HW131322   4.089   2.604   4.029 -2.9382  0.2244 -1.8206
 6563SOL    HW231323   4.008   2.519   4.112  0.0465  0.3697  0.6019
 6564SOL     OW31324   1.262   4.593  12.589  0.2014 -0.2070 -0.5380
 6564SOL    HW131325   1.177   4.633  12.602 -0.6890 -2.6346  0.9360
 6564SOL    HW231326   1.284   4.579  12.681  2.0562  1.7844 -0.6554
 6565SOL     OW31327   1.621   1.415   0.333 -0.1111 -0.6058 -0.5387
 6565SOL    HW131328   1.545   1.370   0.370 -0.7680  0.2572 -0.8527
 6565SOL    HW231329   1.688   1.382   0.393  0.4845  1.1052 -0.2611
 6566SOL     OW31330   4.038   1.809   4.067 -0.0562 -0.1718 -0.2748
 6566SOL    HW131331   4.051   1.727   4.116  1.2672  0.2968  0.1705
 6566SOL    HW231332   4.119   1.855   4.089  1.2048 -1.5269 -2.1244
 6567SOL     OW31333   1.585   0.830   2.265  0.2608 -0.2954 -0.3155
 6567SOL    HW131334   1.578   0.734   2.264 -0.7678 -0.2165 -0.5518
 6567SOL    HW231335   1.670   0.846   2.224  0.1653 -0.2337 -0.4868
 6568SOL     OW31336   0.636   3.445   8.354 -0.2237 -0.4629  0.4847
 6568SOL    HW131337   0.573   3.380   8.323  1.3614 -1.8243  0.0902
 6568SOL    HW231338   0.611   3.523   8.305 -1.0359  0.6030  2.5770
 6569SOL     OW31339   3.346   2.686   8.322 -1.0286 -0.2893 -0.2543
 6569SOL    HW131340   3.399   2.684   8.242 -1.5565 -2.2078 -0.5432
 6569SOL    HW231341   3.261   2.654   8.294 -1.0411 -0.9109  0.5098
 6570SOL     OW31342   2.730   4.502   6.379 -0.1915  0.4660  0.6768
 6570SOL    HW131343   2.698   4.551   6.455 -0.4883 -0.1435  0.9420
 6570SOL    HW231344   2.805   4.464   6.424 -1.0703 -0.7756  1.0836
 6571SOL     OW31345   0.341   2.850   5.348 -0.3789 -0.3760  0.1668
 6571SOL    HW131346   0.297   2.765   5.358  0.5053 -1.1651 -2.6827
 6571SOL    HW231347   0.434   2.831   5.353 -0.1883  0.4459 -0.2775
 6572SOL     OW31348   2.599   3.713   4.760 -0.1673  0.0952  0.4794
 6572SOL    HW131349   2.611   3.640   4.698 -0.3924 -0.4272  1.0494
 6572SOL    HW231350   2.671   3.764   4.724  0.0181 -0.9227 -0.5996
 6573SOL     OW31351   0.214   3.406   0.846  0.3191 -0.3022  0.0782
 6573SOL    HW131352   0.169   3.437   0.925 -1.4000  3.5898 -2.4221
 6573SOL    HW231353   0.268   3.339   0.887 -0.6531 -2.0607 -1.5739
 6574SOL     OW31354   3.441   2.638  15.959  0.0610  0.3661 -0.1558
 6574SOL    HW131355   3.472   2.624  16.048 -0.9451 -0.5955  0.0480
 6574SOL    HW231356   3.512   2.595  15.911  0.8104  1.0708  0.3303
 6575SOL     OW31357   4.139   2.587  14.012  0.0950  0.3400  0.1015
 6575SOL    HW131358   4.079   2.512  14.022  1.3817 -0.5227  1.3386
 6575SOL    HW231359   4.163   2.595  14.104  1.9066  0.5393 -0.4051
 6576SOL     OW31360   1.674   1.854   9.420  0.2960  0.2137 -0.0396
 6576SOL    HW131361   1.682   1.768   9.462 -2.2068  0.4154  0.8492
 6576SOL    HW231362   1.584   1.871   9.447  0.7924  1.7593  0.6291
 6577SOL     OW31363   4.195   4.602  17.715  0.3288  0.3532  0.0659
 6577SOL    HW131364   4.203   4.566   0.054 -2.6200  0.3202  0.3019
 6577SOL    HW231365   4.206   4.697  17.717 -0.3264  0.5036 -4.0709
 6578SOL     OW31366   0.600   2.319   8.557 -0.5203  0.6988 -0.0665
 6578SOL    HW131367   0.622   2.405   8.521 -0.6468  0.4650 -0.7018
 6578SOL    HW231368   0.683   2.304   8.603 -0.8173  0.4317  0.3817
 6579SOL     OW31369   2.701   4.659  14.562  0.1939  0.2735 -0.2148
 6579SOL    HW131370   2.763   4.713  14.611 -1.6042  0.2743  2.0546
 6579SOL    HW231371   2.661   4.611  14.634  0.0712 -0.8434 -1.0285
 6580SOL     OW31372   4.003   4.702   9.152 -0.0932 -0.1507  0.9336
 6580SOL    HW131373   4.039   4.718   9.239 -0.2602  0.8061  0.8285
 6580SOL    HW231374   4.083   4.678   9.104 -1.8177  1.9467 -2.9739
 6581SOL     OW31375   3.019   3.321   8.457 -0.3210 -0.0696  0.3822
 6581SOL    HW131376   3.075   3.244   8.456 -0.1268  0.0421  2.6068
 6581SOL    HW231377   3.082   3.390   8.477  0.9420 -0.7159 -1.3420
 6582SOL     OW31378   1.982   0.541   2.995  0.6891 -0.1971  0.0744
 6582SOL    HW131379   1.981   0.452   3.030 -1.2139 -0.1988  0.0173
 6582SOL    HW231380   2.011   0.603   3.061 -0.6018  0.2428  0.2362
 6583SOL     OW31381   0.293   3.071  11.806  0.0164 -0.1270  0.8023
 6583SOL    HW131382   0.210   3.095  11.767 -0.2324 -2.2454  0.0107
 6583SOL    HW231383   0.343   3.143  11.767 -1.0404  0.9300  1.4125
 6584SOL     OW31384   4.616   1.995   2.285  0.1677 -0.3248 -0.4189
 6584SOL    HW131385   4.704   2.016   2.315 -0.6922  2.2954  0.2590
 6584SOL    HW231386   4.609   2.029   2.196 -0.6971  3.1198  0.9899
 6585SOL     OW31387   2.530   3.275   1.807 -0.5685 -0.1252  0.5384
 6585SOL    HW131388   2.457   3.325   1.770 -0.4600 -0.3475  0.0284
 6585SOL    HW231389   2.570   3.335   1.870 -0.3873 -0.2776  0.5683
 6586SOL     OW31390   4.679   1.887   8.825 -0.3054 -0.4605  0.0031
 6586SOL    HW131391   4.588   1.874   8.796 -0.8808 -0.4475  1.8564
 6586SOL    HW231392   4.655   1.923   8.910  1.1280 -0.0305  0.2195
 6587SOL     OW31393   2.452   2.271   3.798 -0.2579  0.0323  0.0683
 6587SOL    HW131394   2.520   2.276   3.731 -0.8637 -0.5672 -0.5942
 6587SOL    HW231395   2.489   2.204   3.856  1.3410 -1.7268 -3.0097
 6588SOL     OW31396   4.009   0.723   3.327  0.1029 -0.1888  0.0929
 6588SOL    HW131397   3.998   0.681   3.241  0.6286  0.4099 -0.2663
 6588SOL    HW231398   4.071   0.792   3.306  0.4327 -1.0258 -1.6787
 6589SOL     OW31399   4.506   4.662   1.275 -0.0709 -0.3475  0.4298
 6589SOL    HW131400   4.581   4.678   1.331  0.3132  1.5883 -0.6449
 6589SOL    HW231401   4.530   4.723   1.205  1.6575 -0.9979  0.4825
 6590SOL     OW31402   2.370   1.858   6.420  0.2863 -0.3649  0.1166
 6590SOL    HW131403   2.309   1.824   6.485 -1.8552 -0.4154 -1.9113
 6590SOL    HW231404   2.338   1.946   6.401  0.5653 -0.1398  0.7028
 6591SOL     OW31405   4.682   1.458   6.933 -0.2537 -0.7859  0.0057
 6591SOL    HW131406   4.686   1.391   6.866 -0.1522  0.4441 -1.2107
 6591SOL    HW231407   0.006   1.428   7.000  0.7799 -0.8770 -1.0107
 6592SOL     OW31408   4.701   0.533   7.795  0.0385 -0.0090  0.4127
 6592SOL    HW131409   4.707   0.587   7.874  0.3136 -0.1443  0.4852
 6592SOL    HW231410   0.058   0.524   7.783 -0.0304 -3.1438  2.2452
 6593SOL     OW31411   3.438   2.359   2.141 -0.7081 -0.2738  0.5375
 6593SOL    HW131412   3.426   2.303   2.065 -0.1311  0.4084 -0.0516
 6593SOL    HW231413   3.456   2.301   2.215 -2.2010 -2.9359 -1.1856
 6594SOL     OW31414   0.927   3.224   2.621 -0.8080 -0.2124  0.3130
 6594SOL    HW131415   0.894   3.264   2.702  1.2264  1.8887  0.1176
 6594SOL    HW231416   0.861   3.258   2.561 -0.2193 -0.8082 -0.6645
 6595SOL     OW31417   2.786   1.464  10.343 -0.0982 -0.1856  0.0784
 6595SOL    HW131418   2.821   1.375  10.334  1.5570  0.2868  1.7865
 6595SOL    HW231419   2.818   1.489  10.430 -1.4231 -0.2922  0.5919
 6596SOL     OW31420   3.188   1.924   4.504  0.3849  0.2997  0.4480
 6596SOL    HW131421   3.111   1.867   4.498  0.0172  1.0184 -1.7863
 6596SOL    HW231422   3.152   2.012   4.491 -0.2483  0.0443  0.4636
 6597SOL     OW31423   3.088   4.055   9.710 -0.2508 -0.7049  0.5885
 6597SOL    HW131424   3.090   4.133   9.766  2.1907 -0.9121  0.7865
 6597SOL    HW231425   3.046   4.091   9.631  1.1715  0.4608  0.3552
 6598SOL     OW31426   0.362   2.573   4.015 -0.1429  0.8396  0.1730
 6598SOL    HW131427   0.311   2.653   4.022  1.7415  1.9446  1.3366
 6598SOL    HW231428   0.299   2.532   3.956  0.1042 -1.2884  1.3766
 6599SOL     OW31429   1.925   1.781   5.451  0.2920  0.1774 -0.1348
 6599SOL    HW131430   2.020   1.785   5.439  0.1726 -0.3526 -1.3147
 6599SOL    HW231431   1.907   1.814   5.539 -1.1671  0.6995 -0.6314
 6600SOL     OW31432   2.509   0.369  12.253 -0.3755  0.6552 -0.7829
 6600SOL    HW131433   2.504   0.340  12.162 -0.6953 -3.1124  0.4371
 6600SOL    HW231434   2.592   0.416  12.253  0.3768 -0.6820  2.0531
 6601SOL     OW31435   3.219   2.771  12.209  0.0228  0.7589  0.0445
 6601SOL    HW131436   3.270   2.693  12.227 -0.9686  0.1459  0.2229
 6601SOL    HW231437   3.164   2.743  12.136 -0.2062  0.4739  0.3270
 6602SOL     OW31438   4.155   0.688   4.930 -0.2830 -0.3266 -0.9544
 6602SOL    HW131439   4.168   0.672   4.837  0.6909 -0.6936 -0.7548
 6602SOL    HW231440   4.062   0.670   4.940 -0.7141  1.3511 -1.9078
 6603SOL     OW31441   1.902   1.649   3.398  0.0365  0.2004 -0.4475
 6603SOL    HW131442   1.938   1.734   3.371  0.6073 -0.2383 -1.0644
 6603SOL    HW231443   1.905   1.609   3.312 -0.9120 -0.9698  0.0669
 6604SOL     OW31444   4.195   2.939  16.047 -0.4340 -0.1891  0.0714
 6604SOL    HW131445   4.151   2.918  15.965 -0.7429 -0.5342  0.3277
 6604SOL    HW231446   4.148   2.887  16.112 -0.5338 -1.9774 -1.4153
 6605SOL     OW31447   1.945   1.909   8.266 -0.4878  0.1122 -0.2070
 6605SOL    HW131448   1.873   1.971   8.258  1.2773  2.2139  0.2908
 6605SOL    HW231449   1.941   1.873   8.177  1.2763 -0.3807 -0.0930
 6606SOL     OW31450   1.308   2.534   4.466 -0.4319 -0.2385  0.1983
 6606SOL    HW131451   1.284   2.608   4.409  2.1865  0.4591 -0.0096
 6606SOL    HW231452   1.384   2.490   4.426  0.1653 -2.4097  3.6981
 6607SOL     OW31453   1.161   4.467   4.236  0.2257  0.5226 -0.2501
 6607SOL    HW131454   1.146   4.429   4.149 -0.9218  2.7896 -1.0450
 6607SOL    HW231455   1.196   4.553   4.212 -0.1756  1.4005  2.3374
 6608SOL     OW31456   2.273   1.889  14.237  0.1959  0.2298 -0.1467
 6608SOL    HW131457   2.263   1.982  14.217  0.3804  0.1807 -0.4640
 6608SOL    HW231458   2.229   1.878  14.321  0.6948  0.3262  0.1297
 6609SOL     OW31459   0.045   0.167   2.915 -0.0926  0.3676  0.0276
 6609SOL    HW131460   0.048   0.185   3.009  2.5372 -2.1734  0.4241
 6609SOL    HW231461   0.133   0.132   2.902 -0.2287  0.6660 -1.6658
 6610SOL     OW31462   4.509   3.229   8.503  0.2954 -0.1690 -0.1365
 6610SOL    HW131463   4.560   3.287   8.558 -1.1614  0.6793  0.3160
 6610SOL    HW231464   4.569   3.218   8.429 -0.5525 -0.9549 -0.7017
 6611SOL     OW31465   1.479   1.737   4.132  0.1273  0.0548  0.0229
 6611SOL    HW131466   1.479   1.723   4.227  0.3280 -1.8897 -0.2603
 6611SOL    HW231467   1.386   1.736   4.109  0.4581  1.6016 -1.3487
 6612SOL     OW31468   1.285   1.549   6.860 -0.3893 -0.3082 -0.1757
 6612SOL    HW131469   1.199   1.577   6.829  0.0735  1.1506 -0.1732
 6612SOL    HW231470   1.270   1.463   6.899 -0.4493  0.2836  1.1063
 6613SOL     OW31471   3.230   1.823  10.537 -0.5530  0.1828  0.9165
 6613SOL    HW131472   3.298   1.778  10.588 -1.7141 -3.5048 -0.7706
 6613SOL    HW231473   3.247   1.916  10.548  0.6635  0.2030 -1.1528
 6614SOL     OW31474   3.053   0.043   4.920 -0.0443 -0.2944  0.5672
 6614SOL    HW131475   2.984   0.058   4.856  0.8802 -1.2815 -0.6455
 6614SOL    HW231476   3.104   0.124   4.926  1.7550 -1.3768  0.0579
 6615SOL     OW31477   4.063   0.445   6.721  0.4919 -0.1427 -0.2733
 6615SOL    HW131478   4.020   0.369   6.761  0.0024 -0.2671 -1.0362
 6615SOL    HW231479   4.005   0.518   6.738  0.9399  0.8781 -3.1370
 6616SOL     OW31480   0.603   4.022   6.202  0.1224 -0.0892  0.3361
 6616SOL    HW131481   0.575   3.930   6.206  1.3834 -0.5767 -1.7904
 6616SOL    HW231482   0.698   4.021   6.216  0.0068 -2.9025  0.9167
 6617SOL     OW31483   2.124   2.856   4.668  0.1067  0.3604 -0.5799
 6617SOL    HW131484   2.154   2.771   4.634 -3.9600 -0.8424 -1.1946
 6617SOL    HW231485   2.177   2.922   4.623  0.0177 -0.1844 -1.4843
 6618SOL     OW31486   0.877   2.916   3.770 -0.5795 -0.2509 -0.0192
 6618SOL    HW131487   0.926   2.840   3.740 -0.2429 -0.6226  1.4825
 6618SOL    HW231488   0.826   2.873   3.839 -0.3496 -1.4378 -0.5923
 6619SOL     OW31489   2.659   4.723  16.864 -0.3855  0.7339 -0.1550
 6619SOL    HW131490   2.685   0.073  16.890 -0.9648  0.6424  0.7200
 6619SOL    HW231491   2.747   4.684  16.860  0.2737  2.3971 -2.1028
 6620SOL     OW31492   2.746   0.763   5.388 -0.1557 -0.2621 -0.2814
 6620SOL    HW131493   2.660   0.797   5.412  0.2546  0.2099  0.5417
 6620SOL    HW231494   2.762   0.681   5.435 -2.7901 -0.3753  0.4104
 6621SOL     OW31495   0.140   3.493   3.796 -0.4621 -0.3308 -0.2862
 6621SOL    HW131496   0.103   3.498   3.885  1.2656  3.2948  0.2412
 6621SOL    HW231497   0.174   3.404   3.796  2.4024  0.7571 -0.2220
 6622SOL     OW31498   2.169   2.234   8.235  0.3157  0.2380 -0.4033
 6622SOL    HW131499   2.206   2.148   8.256  0.6028  0.1445 -1.2921
 6622SOL    HW231500   2.249   2.283   8.218  0.3604 -0.1461 -1.3185
 6623SOL     OW31501   1.662   3.525   6.254 -0.4841  0.4729  0.2219
 6623SOL    HW131502   1.724   3.540   6.183  1.1546 -2.2031  1.0884
 6623SOL    HW231503   1.616   3.609   6.260 -0.2221  0.7781 -1.8428
 6624SOL     OW31504   3.394   2.178  15.012 -0.5699  0.5462 -0.2844
 6624SOL    HW131505   3.413   2.183  14.918 -1.1522  0.7305 -0.3959
 6624SOL    HW231506   3.470   2.228  15.040  0.3640 -0.3066 -1.2446
 6625SOL     OW31507   2.752   0.442   5.847  0.0863 -0.0326 -0.0143
 6625SOL    HW131508   2.782   0.517   5.898 -0.4131 -1.6052  2.6212
 6625SOL    HW231509   2.737   0.481   5.761 -2.9011  0.4412  0.7218
 6626SOL     OW31510   0.729   3.928   3.477  0.9519 -0.3226  0.0044
 6626SOL    HW131511   0.711   3.982   3.554  2.4543  0.0266  0.1208
 6626SOL    HW231512   0.714   3.990   3.405  1.7087  0.8302  0.8328
 6627SOL     OW31513   3.035   2.234   6.971  0.0941 -0.0137  0.0913
 6627SOL    HW131514   3.035   2.213   6.877 -0.8159 -0.1390  0.1176
 6627SOL    HW231515   3.045   2.146   7.006  0.1973  0.3367  0.9351
 6628SOL     OW31516   1.124   4.409   8.179  0.2501  0.6865  0.2636
 6628SOL    HW131517   1.081   4.420   8.095 -1.1753  1.4629  1.0938
 6628SOL    HW231518   1.081   4.329   8.210 -2.2544  2.5592  1.6653
 6629SOL     OW31519   4.415   4.453   8.163 -0.3912  0.0808  0.0264
 6629SOL    HW131520   4.399   4.486   8.251  0.4836  3.3552 -1.0018
 6629SOL    HW231521   4.362   4.373   8.168 -2.0643  1.3137  2.2081
 6630SOL     OW31522   1.061   3.384  11.538 -0.4254  0.1860  0.2571
 6630SOL    HW131523   1.126   3.387  11.609  1.9394 -0.2162 -1.8615
 6630SOL    HW231524   1.097   3.457  11.488 -2.7437  1.7636  0.9293
 6631SOL     OW31525   4.109   1.823   2.373  0.3503 -0.4498  0.3231
 6631SOL    HW131526   4.203   1.824   2.357  0.5997 -0.5949  1.7145
 6631SOL    HW231527   4.098   1.917   2.385 -3.0043 -0.6279 -1.4187
 6632SOL     OW31528   0.045   1.209   3.960  0.2507  0.7477 -0.4908
 6632SOL    HW131529   0.016   1.195   3.870  1.2880  0.4176 -0.7692
 6632SOL    HW231530   0.110   1.276   3.942  0.2933  1.0639  0.8377
 6633SOL     OW31531   2.612   1.397   7.735 -0.0321 -0.2229 -0.0684
 6633SOL    HW131532   2.546   1.334   7.705 -0.9016  1.3161 -1.4279
 6633SOL    HW231533   2.640   1.422   7.647 -0.2654 -0.3655 -0.1850
 6634SOL     OW31534   4.014   0.910   5.238  0.5696  0.2532 -0.1014
 6634SOL    HW131535   4.044   0.865   5.317 -1.8310 -1.2174 -0.0395
 6634SOL    HW231536   3.919   0.910   5.236  0.5407  0.6946  1.1434
 6635SOL     OW31537   2.953   0.002   7.741 -0.0819 -0.0150  0.2119
 6635SOL    HW131538   2.929   4.660   7.789 -0.6386 -0.9236 -1.5890
 6635SOL    HW231539   2.951   4.711   7.650  0.7353  0.1347  0.1447
 6636SOL     OW31540   3.233   0.094   2.765  0.3297 -0.5605  0.1631
 6636SOL    HW131541   3.236   0.062   2.675 -0.7104  3.1401 -1.2092
 6636SOL    HW231542   3.227   0.188   2.748  0.9910 -0.9037 -1.9704
 6637SOL     OW31543   3.927   0.457  10.848  0.3950 -0.4579  0.1822
 6637SOL    HW131544   3.854   0.423  10.900  0.7107 -0.2520  0.7706
 6637SOL    HW231545   3.921   0.552  10.859  2.5949 -0.1950 -0.8774
 6638SOL     OW31546   4.487   4.119  17.236  0.3344  0.0424  0.1896
 6638SOL    HW131547   4.430   4.092  17.308  0.5639 -0.0095  0.3518
 6638SOL    HW231548   4.442   4.064  17.170 -0.6046  1.2265 -0.1544
 6639SOL     OW31549   4.574   2.064   2.608  0.3528 -0.0644  0.0716
 6639SOL    HW131550   4.618   2.148   2.625 -1.1077  0.6676  0.2462
 6639SOL    HW231551   4.651   2.009   2.594 -0.4429 -0.7917 -1.3177
 6640SOL     OW31552   4.277   0.520   3.478 -0.0144  0.2194 -0.3035
 6640SOL    HW131553   4.368   0.544   3.460 -0.3576  2.5573  1.0476
 6640SOL    HW231554   4.284   0.448   3.541  0.0351  1.0192  0.6145
 6641SOL     OW31555   3.548   3.574   9.421 -0.2290 -0.5635  0.3106
 6641SOL    HW131556   3.458   3.585   9.392 -0.3392 -0.5508  0.6540
 6641SOL    HW231557   3.536   3.602   9.512  0.7677 -2.2320  0.9473
 6642SOL     OW31558   4.351   4.522   8.452 -0.0572  0.0588  0.1189
 6642SOL    HW131559   4.336   4.450   8.512  3.0589 -2.2286 -1.8372
 6642SOL    HW231560   4.262   4.544   8.425 -0.6328 -0.3724  1.6776
 6643SOL     OW31561   0.045   3.018  16.023  0.3475 -0.1164  0.3366
 6643SOL    HW131562   0.038   3.079  16.096 -0.9867 -0.9003  0.8606
 6643SOL    HW231563   0.082   2.941  16.067 -0.8872 -0.5902  0.5488
 6644SOL     OW31564   3.392   3.488   3.170 -0.0598 -0.3653  0.3507
 6644SOL    HW131565   3.472   3.493   3.118  1.2563 -0.9245  2.3205
 6644SOL    HW231566   3.356   3.576   3.158 -0.1013 -0.6486 -1.5368
 6645SOL     OW31567   4.556   1.464   0.924 -0.2665 -0.3303  0.0766
 6645SOL    HW131568   4.553   1.558   0.945  1.0100 -0.1021 -0.7629
 6645SOL    HW231569   4.625   1.464   0.858 -1.8432 -0.6441 -1.5891
 6646SOL     OW31570   1.046   3.130   3.099 -0.5070  0.1130 -0.0293
 6646SOL    HW131571   1.142   3.138   3.094 -0.2672 -2.2642  0.4962
 6646SOL    HW231572   1.031   3.131   3.193  2.4610  0.5467  0.4612
 6647SOL     OW31573   1.966   3.153  17.246  0.9273 -0.4143 -0.0716
 6647SOL    HW131574   1.881   3.146  17.290  1.2177  0.2014  0.5814
 6647SOL    HW231575   2.018   3.203  17.309  1.6201  0.5814 -1.4513
 6648SOL     OW31576   2.650   1.772   2.582 -0.1839  0.1294  0.2499
 6648SOL    HW131577   2.702   1.749   2.505  0.4362 -0.4435  0.8474
 6648SOL    HW231578   2.645   1.866   2.563 -0.4773  0.2638  0.9707
 6649SOL     OW31579   4.621   0.923   1.301  0.0269  0.3085  0.4751
 6649SOL    HW131580   4.592   0.833   1.317  1.9076 -0.1838  1.1670
 6649SOL    HW231581   4.716   0.911   1.293  0.3606  1.9038  2.1176
 6650SOL     OW31582   0.303   1.575  16.893 -0.2533 -0.2742 -0.1493
 6650SOL    HW131583   0.311   1.625  16.974  0.7213  0.0766 -0.4548
 6650SOL    HW231584   0.211   1.579  16.870 -0.3822  0.3587  0.4869
 6651SOL     OW31585   4.719   1.292   3.447 -0.3445  0.0932 -0.4251
 6651SOL    HW131586   4.680   1.344   3.376  1.3214  0.7301 -0.8690
 6651SOL    HW231587   4.731   1.210   3.399  1.5126  0.4526 -0.5781
 6652SOL     OW31588   0.852   0.822   8.227 -0.7064  0.3718 -0.5265
 6652SOL    HW131589   0.777   0.863   8.183  1.2083  1.9573 -2.3293
 6652SOL    HW231590   0.880   0.760   8.159 -0.9379  0.9512 -1.1485
 6653SOL     OW31591   1.123   0.727   7.705  0.0268 -0.1597  0.0474
 6653SOL    HW131592   1.056   0.677   7.657 -0.1877 -1.4584  1.7184
 6653SOL    HW231593   1.073   0.773   7.771 -2.1813 -2.9375  0.3163
 6654SOL     OW31594   3.973   2.855   6.180 -0.0500 -0.3678 -0.2539
 6654SOL    HW131595   4.048   2.806   6.217  0.8647  1.4529  0.3086
 6654SOL    HW231596   3.904   2.839   6.244 -0.2121 -1.3698 -0.6832
 6655SOL     OW31597   3.047   1.984   7.083 -0.0792 -0.1699 -0.2996
 6655SOL    HW131598   2.977   1.939   7.130 -1.3325  2.2188  0.1419
 6655SOL    HW231599   3.129   1.956   7.122  0.5476  2.8040  0.4828
 6656SOL     OW31600   0.909   1.450   6.996 -0.1279 -0.3354  0.3175
 6656SOL    HW131601   0.831   1.475   6.947 -0.0411  0.9301  0.8276
 6656SOL    HW231602   0.964   1.409   6.929  0.0425 -0.0064  0.2529
 6657SOL     OW31603   2.495   4.102   8.926  0.8696  0.2832 -0.0516
 6657SOL    HW131604   2.569   4.085   8.985 -0.6107 -0.9005  1.4420
 6657SOL    HW231605   2.435   4.032   8.950  1.1625 -0.6787 -2.0980
 6658SOL     OW31606   3.200   0.433   4.297  0.4198  0.0882  0.5714
 6658SOL    HW131607   3.274   0.415   4.240 -1.6984 -0.2602 -2.0944
 6658SOL    HW231608   3.246   0.411   4.378  1.0397 -1.6985 -0.2568
 6659SOL     OW31609   2.549   1.307   3.382 -0.1870  0.3366  0.5990
 6659SOL    HW131610   2.480   1.242   3.370  1.9394 -1.7888 -0.2018
 6659SOL    HW231611   2.624   1.259   3.417  0.7596  2.9573  2.1867
 6660SOL     OW31612   3.837   2.694   9.009  0.3741 -0.0742 -0.0264
 6660SOL    HW131613   3.795   2.771   8.968  1.0956 -0.0129 -0.6489
 6660SOL    HW231614   3.821   2.622   8.948  1.5955 -0.7654  0.4663
 6661SOL     OW31615   2.350   0.381   8.646 -0.1885  0.0026 -0.2471
 6661SOL    HW131616   2.293   0.456   8.631 -0.7840 -0.3664  0.1814
 6661SOL    HW231617   2.304   0.351   8.724  1.7394  0.7777  1.1863
 6662SOL     OW31618   3.962   2.568   4.724 -0.3427  0.0575  0.7298
 6662SOL    HW131619   3.979   2.649   4.675  1.5754 -1.1100 -0.5645
 6662SOL    HW231620   4.051   2.538   4.744 -0.6639 -2.8488 -2.2471
 6663SOL     OW31621   2.314   3.720   9.027  0.3864  0.2267 -0.2302
 6663SOL    HW131622   2.327   3.669   8.947 -2.2633 -0.7246 -0.0630
 6663SOL    HW231623   2.301   3.810   8.997  0.9463  1.2548  2.5900
 6664SOL     OW31624   0.655   4.540  15.712  0.2183 -0.0451  0.4563
 6664SOL    HW131625   0.638   4.627  15.748 -0.5690  0.5545 -1.3466
 6664SOL    HW231626   0.664   4.481  15.786 -0.7794 -1.2400 -0.3597
 6665SOL     OW31627   0.619   4.384   4.468  0.6062  0.4024 -0.1938
 6665SOL    HW131628   0.526   4.391   4.446  0.3395 -0.1857  0.7843
 6665SOL    HW231629   0.609   4.374   4.563 -0.9991  0.6521 -0.3303
 6666SOL     OW31630   3.303   1.130   6.904  0.0758 -0.3460 -0.0831
 6666SOL    HW131631   3.248   1.082   6.843 -0.1253 -1.1898  0.7724
 6666SOL    HW231632   3.300   1.208   6.848  2.0612  0.4079  0.8591
 6667SOL     OW31633   1.479   3.386   7.649 -0.2258  0.0397  0.2654
 6667SOL    HW131634   1.517   3.328   7.715 -1.4445 -1.4271 -0.3105
 6667SOL    HW231635   1.386   3.396   7.672  0.0978  1.9243  0.7049
 6668SOL     OW31636   1.226   3.107   7.254 -0.5843  0.0056 -0.5632
 6668SOL    HW131637   1.302   3.161   7.233 -0.5300  0.0134 -0.3428
 6668SOL    HW231638   1.204   3.143   7.339  0.1766 -1.5655  0.3130
 6669SOL     OW31639   0.840   3.217  10.017  0.0935 -0.2256  0.2308
 6669SOL    HW131640   0.811   3.229   9.927 -0.9418  4.1191  1.1320
 6669SOL    HW231641   0.880   3.303  10.034 -0.7447  0.8914 -3.4935
 6670SOL     OW31642   0.662   0.873  12.578  0.3535  0.3832  0.5309
 6670SOL    HW131643   0.615   0.821  12.642 -2.9100  0.3603 -1.8778
 6670SOL    HW231644   0.591   0.928  12.545  1.6336  3.0214  2.1680
 6671SOL     OW31645   0.405   2.056  12.516  0.2753  0.2092 -0.2106
 6671SOL    HW131646   0.428   2.080  12.606 -0.1039  1.5318 -0.4605
 6671SOL    HW231647   0.410   1.961  12.523  0.7890  0.1233 -1.8857
 6672SOL     OW31648   3.496   3.577   7.915 -0.1679  0.8676 -0.0690
 6672SOL    HW131649   3.514   3.648   7.977  0.1638  1.4475 -0.8225
 6672SOL    HW231650   3.476   3.630   7.837  2.1040  1.8858  0.0470
 6673SOL     OW31651   3.865   3.020  13.813  0.0325 -0.3078  0.1018
 6673SOL    HW131652   3.787   3.026  13.758  0.8632 -2.0100 -1.2712
 6673SOL    HW231653   3.863   3.091  13.877 -1.6554 -0.0532 -0.2260
 6674SOL     OW31654   4.286   2.122   5.461 -0.1475  0.2170 -0.4767
 6674SOL    HW131655   4.198   2.156   5.447  0.0494  1.5354  1.6002
 6674SOL    HW231656   4.298   2.147   5.552 -0.5218  0.4885 -0.5045
 6675SOL     OW31657   0.008   3.148   6.607 -0.0274 -0.6193  0.0801
 6675SOL    HW131658   4.691   3.171   6.532 -2.0196  2.4553  2.4452
 6675SOL    HW231659   0.092   3.128   6.565  0.2755  2.5259 -0.7832
 6676SOL     OW31660   1.605   2.587   6.841 -0.0604 -0.2588 -0.1715
 6676SOL    HW131661   1.592   2.676   6.806 -0.9122 -0.5813 -0.6611
 6676SOL    HW231662   1.661   2.542   6.777 -0.2074  0.3944 -0.7703
 6677SOL     OW31663   3.258   4.544   5.356 -0.4057 -0.1627 -0.1463
 6677SOL    HW131664   3.213   4.460   5.363 -1.9969  0.7373  0.3282
 6677SOL    HW231665   3.187   4.605   5.378  1.1383  1.2964  0.7746
 6678SOL     OW31666   3.533   1.124  15.432  0.5319 -0.8844 -0.5122
 6678SOL    HW131667   3.463   1.095  15.374 -0.3274  0.2493 -0.0604
 6678SOL    HW231668   3.558   1.204  15.386  0.2972 -0.5783 -0.1149
 6679SOL     OW31669   2.270   2.178   5.258 -0.7273 -0.0567 -0.0496
 6679SOL    HW131670   2.288   2.164   5.351 -1.8007 -3.5657 -0.3807
 6679SOL    HW231671   2.176   2.162   5.256 -0.7757  0.4765 -2.0066
 6680SOL     OW31672   2.893   4.215   7.468  0.2632 -0.5433  0.0103
 6680SOL    HW131673   2.842   4.157   7.526 -0.4018 -0.2237 -0.2619
 6680SOL    HW231674   2.819   4.239   7.412 -0.1057 -0.2998  0.5959
 6681SOL     OW31675   2.054   0.376  13.506 -0.6810 -0.0819  0.2468
 6681SOL    HW131676   2.126   0.360  13.567 -2.3484  3.0771  3.0747
 6681SOL    HW231677   2.088   0.333  13.428 -1.6924 -0.3715 -0.0378
 6682SOL     OW31678   2.371   4.488   7.452 -0.0246  0.3617 -0.3663
 6682SOL    HW131679   2.329   4.413   7.412 -1.4085  0.6614  0.5309
 6682SOL    HW231680   2.373   4.483   7.548  2.5949  0.4051 -0.4201
 6683SOL     OW31681   2.670   3.916   6.554  0.0741  0.6076  0.3286
 6683SOL    HW131682   2.650   3.875   6.638  0.2682  1.0188  0.5759
 6683SOL    HW231683   2.590   3.897   6.506 -1.2619 -0.0381  2.8295
 6684SOL     OW31684   4.183   0.933   7.315 -0.8517 -0.0103 -0.2321
 6684SOL    HW131685   4.139   0.849   7.323 -0.0433 -0.5770 -1.5918
 6684SOL    HW231686   4.168   0.955   7.223  1.0531 -1.5206 -0.9204
 6685SOL     OW31687   2.597   1.734  15.572  0.5238  0.0378 -0.3781
 6685SOL    HW131688   2.505   1.719  15.549 -0.3550  2.4934  1.5428
 6685SOL    HW231689   2.640   1.651  15.552  1.6063 -0.3066  3.3034
 6686SOL     OW31690   4.546   2.291   7.183  0.0915  0.2519 -0.2253
 6686SOL    HW131691   4.505   2.376   7.167 -0.7501  0.2496  1.9978
 6686SOL    HW231692   4.527   2.261   7.094  2.2185  0.0934 -0.6267
 6687SOL     OW31693   0.264   4.380  17.332 -0.0985 -0.4240  0.3478
 6687SOL    HW131694   0.323   4.377  17.257 -0.0546  0.6140  0.3434
 6687SOL    HW231695   0.275   4.294  17.371  3.3914  0.3181  0.9564
 6688SOL     OW31696   0.196   0.709   3.131 -0.0126  0.1816  0.5381
 6688SOL    HW131697   0.138   0.667   3.194 -0.8138  1.0022  0.3635
 6688SOL    HW231698   0.167   0.801   3.129 -0.3261  0.1023  1.4809
 6689SOL     OW31699   1.203   3.698   8.751 -0.0777 -0.6992 -0.3151
 6689SOL    HW131700   1.288   3.655   8.762 -1.0272 -1.1245  4.9261
 6689SOL    HW231701   1.215   3.782   8.795 -1.4966 -0.0200 -1.2393
 6690SOL     OW31702   1.459   4.461  11.774 -0.2177  0.2008 -0.3389
 6690SOL    HW131703   1.473   4.384  11.829 -1.0155 -0.6665 -1.3586
 6690SOL    HW231704   1.366   4.445  11.757 -0.3599  1.7408 -1.0191
 6691SOL     OW31705   1.846   0.035   4.951  0.0445 -0.6751 -0.1577
 6691SOL    HW131706   1.788   4.701   4.976  1.3613 -1.8046 -0.3636
 6691SOL    HW231707   1.814   0.107   5.004 -0.5004 -1.7456  0.9747
 6692SOL     OW31708   2.988   2.881   3.183  0.3129 -0.3399 -0.2005
 6692SOL    HW131709   3.059   2.920   3.132 -0.7311  1.4088 -0.3115
 6692SOL    HW231710   2.937   2.843   3.111  1.4257 -0.3249 -1.0038
 6693SOL     OW31711   0.998   3.271   9.412  0.5704  0.3654 -0.3577
 6693SOL    HW131712   1.043   3.293   9.494 -0.9065  1.0437  0.2789
 6693SOL    HW231713   1.047   3.192   9.391  0.6347 -0.1767  1.8046
 6694SOL     OW31714   4.140   0.866   7.839 -0.0853 -0.3424 -0.4174
 6694SOL    HW131715   4.046   0.885   7.844 -0.0093 -0.1264  0.1447
 6694SOL    HW231716   4.172   0.956   7.847 -0.5647 -0.0917 -1.3471
 6695SOL     OW31717   4.617   3.276  14.748 -0.0341  0.6344 -0.2849
 6695SOL    HW131718   4.621   3.191  14.791 -3.8712 -0.2539 -1.6406
 6695SOL    HW231719   4.692   3.324  14.783 -0.4239  0.8340  0.2756
 6696SOL     OW31720   4.130   3.619   5.754 -0.1881 -0.0544  0.5790
 6696SOL    HW131721   4.214   3.654   5.723 -0.6168 -1.2678 -1.8674
 6696SOL    HW231722   4.084   3.670   5.687 -1.4806  0.2901  1.7304
 6697SOL     OW31723   0.207   1.608   9.765 -0.4131 -0.4095  0.1822
 6697SOL    HW131724   0.288   1.611   9.715 -0.5164 -0.1834  0.0268
 6697SOL    HW231725   0.141   1.605   9.695 -0.4233  1.0138  0.1109
 6698SOL     OW31726   3.541   3.726   2.026  1.0847  0.3553  0.3132
 6698SOL    HW131727   3.595   3.800   2.053 -1.6013  1.6878  2.0496
 6698SOL    HW231728   3.608   3.697   1.965 -2.1891 -3.2542 -1.5919
 6699SOL     OW31729   0.896   0.708   3.760  0.2158 -0.0836 -0.3410
 6699SOL    HW131730   0.880   0.740   3.849  2.1339 -1.9504  0.6994
 6699SOL    HW231731   0.857   0.621   3.760  2.1955 -0.9810  1.4964
 6700SOL     OW31732   0.961   2.697   8.341 -0.3253 -0.4116  0.2675
 6700SOL    HW131733   0.941   2.716   8.249 -1.4452  1.8658  0.9633
 6700SOL    HW231734   1.050   2.666   8.330 -0.3590 -0.2439 -0.4846
 6701SOL     OW31735   1.032   3.779   2.372 -0.0117  0.0310  0.3033
 6701SOL    HW131736   1.068   3.690   2.380  0.1072  0.1765  1.3647
 6701SOL    HW231737   0.945   3.773   2.413  0.4360  0.1684  1.2585
 6702SOL     OW31738   1.670   1.954   7.934 -0.2713  0.3894  0.2725
 6702SOL    HW131739   1.610   1.933   7.862 -1.6459 -1.1476  1.8398
 6702SOL    HW231740   1.615   1.955   8.012  0.9031  0.2729  1.0974
 6703SOL     OW31741   2.943   3.741   4.989 -0.2311 -0.2140  0.2745
 6703SOL    HW131742   2.994   3.804   4.939 -1.1676 -0.2440 -0.7184
 6703SOL    HW231743   3.000   3.742   5.066 -0.9692 -0.3305  0.8227
 6704SOL     OW31744   2.275   0.084   9.679  0.1613  0.0365 -0.0743
 6704SOL    HW131745   2.345   0.149   9.679 -0.1730  0.3885  1.5719
 6704SOL    HW231746   2.240   0.096   9.767 -0.3942 -0.1201 -0.2695
 6705SOL     OW31747   0.426   2.695  16.911 -0.2002 -0.0344  0.0401
 6705SOL    HW131748   0.345   2.645  16.901  0.4440 -0.8861 -0.9018
 6705SOL    HW231749   0.434   2.722  16.819  1.8722 -2.4272 -0.4916
 6706SOL     OW31750   1.761   1.930   4.294  0.3828 -0.3055 -0.0451
 6706SOL    HW131751   1.816   1.949   4.370  0.7090 -0.3541 -0.2689
 6706SOL    HW231752   1.680   1.930   4.344  1.2953 -0.4396  1.4298
 6707SOL     OW31753   0.727   4.130   3.663 -0.1936  0.3036 -0.3408
 6707SOL    HW131754   0.709   4.100   3.752  1.7741  1.3919  0.4204
 6707SOL    HW231755   0.820   4.147   3.671  0.2374 -1.1581 -2.3095
 6708SOL     OW31756   1.574   0.944   4.508 -0.5877 -0.2625 -0.1327
 6708SOL    HW131757   1.479   0.956   4.516 -0.3844  1.1056  0.2215
 6708SOL    HW231758   1.583   0.998   4.429 -0.7733 -1.1393 -0.7496
 6709SOL     OW31759   1.006   0.187   8.452  0.2088  0.0621 -0.0985
 6709SOL    HW131760   1.022   0.161   8.543  4.2500  0.0595 -0.7992
 6709SOL    HW231761   0.917   0.222   8.454 -0.7712 -2.4499  0.4074
 6710SOL     OW31762   1.607   1.131  16.564  0.3246 -0.0205 -0.3414
 6710SOL    HW131763   1.531   1.093  16.609 -0.3234  1.7426  0.0267
 6710SOL    HW231764   1.658   1.144  16.644 -0.0455  0.4041 -0.1726
 6711SOL     OW31765   4.116   3.798   2.421 -0.4352  0.6230  0.2639
 6711SOL    HW131766   4.026   3.810   2.450 -0.4723  1.8304 -0.3724
 6711SOL    HW231767   4.140   3.885   2.389 -1.9393  0.4105 -1.4207
 6712SOL     OW31768   1.816   0.281   2.173  0.3018  0.1889  0.2859
 6712SOL    HW131769   1.855   0.226   2.106  0.5306 -1.2562  1.5915
 6712SOL    HW231770   1.892   0.320   2.216  0.2347  0.6101  0.0161
 6713SOL     OW31771   1.815   2.986  13.298 -0.5587  0.5996 -0.4125
 6713SOL    HW131772   1.896   2.955  13.258 -0.7580  0.3534 -0.6319
 6713SOL    HW231773   1.841   3.011  13.386 -1.0005 -0.4028  0.0003
 6714SOL     OW31774   3.864   2.896   8.410  0.3510  0.3997  0.0638
 6714SOL    HW131775   3.937   2.860   8.460  0.6409 -0.8831 -1.2825
 6714SOL    HW231776   3.852   2.972   8.468  2.0340  0.6247  0.0967
 6715SOL     OW31777   4.053   0.423   3.271 -0.3857  0.1592  0.0312
 6715SOL    HW131778   4.127   0.482   3.257  0.4155 -0.8469  0.0122
 6715SOL    HW231779   3.987   0.468   3.218 -1.0062  1.0446  1.5368
 6716SOL     OW31780   2.169   3.616  12.855 -0.6422 -0.5992  0.2136
 6716SOL    HW131781   2.162   3.540  12.797  0.5187  0.1405 -0.9118
 6716SOL    HW231782   2.137   3.690  12.804  1.2107  0.0939  0.0435
 6717SOL     OW31783   0.376   1.752   3.628  0.0533  0.2794  0.0395
 6717SOL    HW131784   0.459   1.750   3.676  0.3467 -0.0698 -0.4793
 6717SOL    HW231785   0.347   1.660   3.631 -1.1032  0.5978 -1.5390
 6718SOL     OW31786   3.226   3.294   4.702 -0.5033 -0.3545 -0.0523
 6718SOL    HW131787   3.265   3.365   4.652 -0.7388 -1.2233 -1.4689
 6718SOL    HW231788   3.296   3.261   4.758  1.7937 -1.4210 -3.5852
 6719SOL     OW31789   0.954   2.780  14.121 -0.0074  0.2369  0.0362
 6719SOL    HW131790   0.865   2.792  14.088 -0.7992 -0.5464  1.8691
 6719SOL    HW231791   0.975   2.872  14.137 -1.4511 -0.0686  3.8607
 6720SOL     OW31792   2.782   2.719   3.031 -0.1042  0.0290  0.1824
 6720SOL    HW131793   2.770   2.634   3.073 -1.2204  0.3635  0.5535
 6720SOL    HW231794   2.775   2.690   2.940  1.4109  3.0645 -0.8894
 6721SOL     OW31795   2.843   0.506   1.702  0.1735 -0.2032  0.0480
 6721SOL    HW131796   2.899   0.553   1.640 -0.0179  1.3467  1.0417
 6721SOL    HW231797   2.884   0.533   1.785  1.3125  3.5565 -1.7242
 6722SOL     OW31798   2.266   0.142   2.728 -0.1574 -0.2610 -0.3453
 6722SOL    HW131799   2.249   0.207   2.660 -1.3995  0.3808  0.5518
 6722SOL    HW231800   2.246   0.202   2.801  0.0267 -0.2496 -0.3059
 6723SOL     OW31801   0.470   0.192   8.122 -0.3175  0.0028 -0.1146
 6723SOL    HW131802   0.400   0.127   8.128  0.4068 -0.7976 -0.2779
 6723SOL    HW231803   0.535   0.142   8.072 -1.2754 -1.1904 -0.1774
 6724SOL     OW31804   1.359   1.058  16.708 -0.4099  0.2129  0.0619
 6724SOL    HW131805   1.297   0.988  16.727  1.7147 -1.2821  1.3874
 6724SOL    HW231806   1.319   1.120  16.769  0.4426  3.0103 -2.1868
 6725SOL     OW31807   1.450   0.589   5.877  0.3612  0.2780  0.4787
 6725SOL    HW131808   1.438   0.665   5.934 -1.1220  0.1433  0.3584
 6725SOL    HW231809   1.492   0.625   5.798  2.6628 -0.3357  1.4391
 6726SOL     OW31810   1.628   2.689   2.353  0.2012  0.2606 -0.1543
 6726SOL    HW131811   1.702   2.630   2.364  1.0181  1.1028 -1.1532
 6726SOL    HW231812   1.557   2.625   2.359  0.7179 -0.5291 -2.2646
 6727SOL     OW31813   0.290   4.288  14.861  0.0756  0.6225 -0.1733
 6727SOL    HW131814   0.317   4.357  14.801  1.2420  0.8009  0.5475
 6727SOL    HW231815   0.284   4.224  14.790  0.2977  0.7984 -0.3531
 6728SOL     OW31816   1.029   4.168   0.934 -0.3485  0.3228  0.0156
 6728SOL    HW131817   1.075   4.209   1.007  0.2007 -0.7437  0.2659
 6728SOL    HW231818   0.947   4.148   0.980  1.1596 -0.7604  2.2311
 6729SOL     OW31819   2.047   3.238   5.875 -0.3010  0.0462 -0.1185
 6729SOL    HW131820   2.065   3.201   5.788 -2.0069 -0.5638 -0.2153
 6729SOL    HW231821   1.952   3.249   5.875 -0.0464  2.1033 -0.3446
 6730SOL     OW31822   2.821   3.564   3.176  0.5649  0.2588  0.4443
 6730SOL    HW131823   2.851   3.475   3.194  0.9413 -0.2398 -2.6158
 6730SOL    HW231824   2.780   3.549   3.091 -2.5724  0.9315  1.8402
 6731SOL     OW31825   4.097   3.407   8.187 -0.3801  0.0475 -0.4573
 6731SOL    HW131826   4.148   3.466   8.131  0.5841 -0.0801  0.2916
 6731SOL    HW231827   4.143   3.425   8.269 -0.4313 -1.8629 -0.0124
 6732SOL     OW31828   2.903   3.416   9.415 -0.6963  0.3374  0.0731
 6732SOL    HW131829   2.861   3.360   9.480 -1.4344  0.2126 -0.5008
 6732SOL    HW231830   2.833   3.432   9.351 -0.4162 -4.6496 -1.5291
 6733SOL     OW31831   2.998   2.079  10.504  0.0863 -0.1452  0.0125
 6733SOL    HW131832   3.003   2.174  10.496 -1.7585 -0.1858 -1.5266
 6733SOL    HW231833   3.079   2.068  10.555  1.0309 -0.8285 -1.6389
 6734SOL     OW31834   3.650   0.488   1.027  0.1772 -0.5528 -0.0445
 6734SOL    HW131835   3.729   0.515   1.074  0.7680 -0.5230 -1.0541
 6734SOL    HW231836   3.590   0.563   1.024 -1.9869 -2.2655  1.0001
 6735SOL     OW31837   1.001   2.436   7.894 -0.4324 -0.5671 -0.3606
 6735SOL    HW131838   0.947   2.358   7.902 -0.7940 -0.2536  0.2160
 6735SOL    HW231839   1.066   2.399   7.834  0.4436  0.5526 -0.1023
 6736SOL     OW31840   2.524   3.108   7.269  0.2524 -0.0691 -0.4043
 6736SOL    HW131841   2.508   3.162   7.191 -0.0954  1.4302  0.7073
 6736SOL    HW231842   2.491   3.023   7.238  1.2932 -1.4987  2.3557
 6737SOL     OW31843   0.711   0.534  15.658 -0.3776 -0.4741 -0.2896
 6737SOL    HW131844   0.718   0.444  15.624 -1.6823 -0.3807 -0.8245
 6737SOL    HW231845   0.619   0.533  15.686 -0.2694 -1.6779  0.0271
 6738SOL     OW31846   2.736   1.299   6.397 -0.1392 -1.3324  0.4829
 6738SOL    HW131847   2.725   1.336   6.485 -3.6630 -1.2207 -0.0112
 6738SOL    HW231848   2.649   1.299   6.358  0.2420 -2.1132 -0.3647
 6739SOL     OW31849   2.951   0.340   1.456  0.4679 -0.2240  0.1886
 6739SOL    HW131850   2.867   0.331   1.501 -0.6318  0.1825 -1.7704
 6739SOL    HW231851   3.010   0.324   1.530  0.6259  3.7099  0.9047
 6740SOL     OW31852   2.843   0.259   0.960 -0.0865  0.5087 -0.4377
 6740SOL    HW131853   2.875   0.208   1.034  1.4863 -0.3744 -1.7253
 6740SOL    HW231854   2.810   0.331   1.013  2.1350  0.3375  1.1458
 6741SOL     OW31855   3.250   1.308  16.862  0.0232 -0.0983 -0.2272
 6741SOL    HW131856   3.240   1.353  16.945  2.0784 -0.1807  0.0620
 6741SOL    HW231857   3.166   1.339  16.827  0.1911 -0.1820 -0.7014
 6742SOL     OW31858   3.456   3.300   5.797  0.2741  0.4603 -0.1714
 6742SOL    HW131859   3.406   3.366   5.749  0.9622  0.4055 -0.9516
 6742SOL    HW231860   3.535   3.277   5.748 -0.1639 -1.0001 -0.1929
 6743SOL     OW31861   3.556   2.348   5.397 -0.2300  0.8306  0.7381
 6743SOL    HW131862   3.558   2.366   5.303  2.8004  1.3181  0.8989
 6743SOL    HW231863   3.489   2.280   5.392  1.1529 -0.4829  0.2132
 6744SOL     OW31864   3.392   2.007   8.154  0.9330 -0.1885 -0.2727
 6744SOL    HW131865   3.304   2.038   8.174  0.4094 -1.0992 -1.2106
 6744SOL    HW231866   3.413   1.936   8.213  1.6899 -0.4648 -0.8649
 6745SOL     OW31867   0.776   0.891  15.528  0.0099 -0.0938  0.2654
 6745SOL    HW131868   0.764   0.986  15.529 -1.7437 -0.2722 -3.2744
 6745SOL    HW231869   0.787   0.881  15.623  0.2709 -2.1297  0.0241
 6746SOL     OW31870   1.831   3.864  16.478 -0.1749 -0.2747 -0.1787
 6746SOL    HW131871   1.882   3.944  16.489 -1.8022  0.6231  0.8222
 6746SOL    HW231872   1.787   3.846  16.561  0.2417 -3.7787 -0.7055
 6747SOL     OW31873   3.566   3.696   4.991 -0.3056  0.2089  0.0087
 6747SOL    HW131874   3.621   3.774   5.000  1.4127 -0.6989 -2.6134
 6747SOL    HW231875   3.612   3.661   4.914  1.0042 -0.5117  1.1079
 6748SOL     OW31876   1.842   4.376   5.887  0.0211 -0.4153  0.2442
 6748SOL    HW131877   1.781   4.312   5.924  1.8482 -3.2190 -1.6267
 6748SOL    HW231878   1.898   4.411   5.957  1.9553  0.3289 -1.7007
 6749SOL     OW31879   3.809   2.378   3.760  0.1814  0.4165 -0.0848
 6749SOL    HW131880   3.883   2.321   3.742 -1.4992 -1.0684 -2.2332
 6749SOL    HW231881   3.840   2.447   3.702 -2.1322  0.5170 -1.1902
 6750SOL     OW31882   2.853   1.618   3.289 -0.2991  0.4801 -0.2790
 6750SOL    HW131883   2.934   1.656   3.257 -0.0727  1.1289  1.0406
 6750SOL    HW231884   2.877   1.525   3.287 -0.0587  0.5605 -1.0321
 6751SOL     OW31885   0.620   4.030   7.471 -0.1521 -1.2899 -0.8660
 6751SOL    HW131886   0.556   4.101   7.479  2.3134  0.9684 -1.2533
 6751SOL    HW231887   0.702   4.078   7.480  0.6548 -3.3033  2.2133
 6752SOL     OW31888   1.031   1.123  13.500  0.8198  0.6574  0.0041
 6752SOL    HW131889   1.010   1.083  13.584  2.6262  3.2697  1.6842
 6752SOL    HW231890   1.047   1.215  13.523  2.5156  0.4999 -0.5784
 6753SOL     OW31891   3.220   1.129   0.944 -0.5116  0.1586 -0.3186
 6753SOL    HW131892   3.207   1.037   0.970 -1.9804  0.7073  0.8675
 6753SOL    HW231893   3.314   1.143   0.938 -0.8299  1.1632 -2.8797
 6754SOL     OW31894   2.202   1.786   6.652 -0.3055  0.3581 -0.4323
 6754SOL    HW131895   2.128   1.844   6.672  2.0021  3.7757 -1.7735
 6754SOL    HW231896   2.233   1.791   6.743 -0.1820 -1.0203 -0.3962
 6755SOL     OW31897   0.410   4.156   5.070  0.2739 -0.9006 -0.9105
 6755SOL    HW131898   0.319   4.128   5.081 -0.0973  1.3249  1.5230
 6755SOL    HW231899   0.455   4.147   5.155 -0.5823 -1.0894 -0.4829
 6756SOL     OW31900   1.467   1.004   2.805 -0.6289 -0.3276  0.2178
 6756SOL    HW131901   1.456   0.998   2.710 -2.0317  1.7873  0.2467
 6756SOL    HW231902   1.480   1.099   2.807  0.2428 -0.4324 -0.6665
 6757SOL     OW31903   0.572   3.749   3.062 -0.4716  0.8417  0.6327
 6757SOL    HW131904   0.597   3.839   3.042 -0.0690  0.7417  0.6896
 6757SOL    HW231905   0.584   3.702   2.980 -0.2223  3.0103 -0.5866
 6758SOL     OW31906   2.363   2.579  12.652  0.6857  0.2693 -0.1469
 6758SOL    HW131907   2.367   2.675  12.646 -0.8321  0.2844 -0.6931
 6758SOL    HW231908   2.272   2.563  12.677  0.3641 -0.0174 -1.5316
 6759SOL     OW31909   3.830   4.490   9.240  0.1180  0.3302  0.1580
 6759SOL    HW131910   3.904   4.468   9.297  0.0333 -0.4046 -0.0176
 6759SOL    HW231911   3.867   4.547   9.172 -0.6132  1.5723  0.7927
 6760SOL     OW31912   2.300   1.447   8.493  0.2337 -0.5230 -0.1718
 6760SOL    HW131913   2.368   1.415   8.553  0.7392  0.0196 -0.4498
 6760SOL    HW231914   2.350   1.508   8.438  1.0694  0.3909  1.5962
 6761SOL     OW31915   2.967   4.714   6.904 -0.3503  0.5425 -0.2287
 6761SOL    HW131916   3.060   4.736   6.902 -0.0765 -0.6022 -0.1482
 6761SOL    HW231917   2.961   4.736   6.811  0.0916  0.3709 -0.2985
 6762SOL     OW31918   1.514   3.943  14.222  0.3208  0.1170  0.0046
 6762SOL    HW131919   1.491   3.892  14.300  0.1826 -1.0465 -0.8054
 6762SOL    HW231920   1.607   3.920  14.221  0.8037  1.9664  3.3518
 6763SOL     OW31921   3.233   1.297  15.933 -0.5092 -0.0073  0.2876
 6763SOL    HW131922   3.301   1.355  15.968 -0.1876 -1.2629  1.7302
 6763SOL    HW231923   3.260   1.271  15.845 -1.9744  0.7329 -0.3756
 6764SOL     OW31924   2.759   2.707   4.059  0.2043 -0.5964  0.2517
 6764SOL    HW131925   2.703   2.784   4.051 -2.0607 -2.1766  0.9844
 6764SOL    HW231926   2.699   2.651   4.108 -0.3381  0.5864  0.9449
 6765SOL     OW31927   0.347   3.355  15.753 -0.2751  0.0144 -0.2645
 6765SOL    HW131928   0.266   3.383  15.711  0.9992  1.1792 -1.9409
 6765SOL    HW231929   0.370   3.428  15.809 -1.3297  1.0213 -1.1405
 6766SOL     OW31930   1.058   3.288  16.733  0.4165 -0.0833  0.2104
 6766SOL    HW131931   1.045   3.364  16.677  1.3251 -0.6674 -0.8033
 6766SOL    HW231932   1.117   3.234  16.679 -1.6240 -0.7400 -1.3704
 6767SOL     OW31933   1.617   2.675   8.047  0.2855 -0.1925 -0.3695
 6767SOL    HW131934   1.669   2.719   7.980  0.3247 -1.5173 -1.2087
 6767SOL    HW231935   1.630   2.586   8.014 -0.5354  0.4036 -2.2911
 6768SOL     OW31936   3.179   0.597   6.135  0.0679 -0.2146  0.2413
 6768SOL    HW131937   3.252   0.647   6.170  1.2985 -0.1977 -2.3412
 6768SOL    HW231938   3.214   0.515   6.099  0.5262  1.2276 -2.5545
 6769SOL     OW31939   2.500   1.876   8.189 -0.4063 -0.4925  0.4343
 6769SOL    HW131940   2.407   1.860   8.172 -0.4358 -0.3729  0.4878
 6769SOL    HW231941   2.539   1.849   8.106  0.0077 -0.1535  0.5194
 6770SOL     OW31942   4.436   3.860   6.289  0.1156 -0.2608  0.2160
 6770SOL    HW131943   4.401   3.894   6.371  0.8175  0.9568  0.0098
 6770SOL    HW231944   4.419   3.768   6.310 -0.5558  0.4673  2.7760
 6771SOL     OW31945   2.964   3.519   9.050  0.1714 -0.2134  0.3725
 6771SOL    HW131946   3.038   3.471   9.011  1.1446  2.6864 -1.3656
 6771SOL    HW231947   2.963   3.589   8.984 -0.7658 -0.6395 -0.0667
 6772SOL     OW31948   2.098   3.427  12.639 -0.1074 -0.1949  0.2084
 6772SOL    HW131949   2.120   3.442  12.547 -0.8144  1.0360  0.2355
 6772SOL    HW231950   2.011   3.466  12.637  0.6082  1.4784  0.9207
 6773SOL     OW31951   4.087   1.152   3.968 -0.3301  0.3445 -0.4710
 6773SOL    HW131952   4.160   1.214   3.975 -0.6980  0.6651  0.5326
 6773SOL    HW231953   4.124   1.101   3.896  1.8091 -0.2934  1.0877
 6774SOL     OW31954   3.964   0.900  10.971  0.0831 -0.0611  0.5201
 6774SOL    HW131955   4.035   0.851  11.012  0.4443 -0.0021 -0.0322
 6774SOL    HW231956   4.014   0.963  10.918 -1.0349  0.0735 -0.3711
 6775SOL     OW31957   4.219   2.801   6.699  0.0192 -0.2329  0.4730
 6775SOL    HW131958   4.262   2.724   6.662  0.7417  1.2059 -1.7376
 6775SOL    HW231959   4.132   2.764   6.717  0.2057 -0.3432  1.1245
 6776SOL     OW31960   0.897   1.312   8.966 -0.2840  0.2264  0.4474
 6776SOL    HW131961   0.871   1.270   8.884  0.6020  0.4712  0.0400
 6776SOL    HW231962   0.892   1.405   8.946  2.0021  0.6204  1.7288
 6777SOL     OW31963   0.395   3.661  14.530  0.3090  0.0437 -0.0754
 6777SOL    HW131964   0.386   3.756  14.542  0.1908 -0.1465  1.2716
 6777SOL    HW231965   0.319   3.641  14.475  0.8416  0.3332 -0.9109
 6778SOL     OW31966   2.033   3.179  15.455 -0.1936  0.7296  0.0116
 6778SOL    HW131967   1.973   3.120  15.409 -0.3916  0.7678  0.2216
 6778SOL    HW231968   2.115   3.130  15.466 -1.6515 -1.3215  1.6053
 6779SOL     OW31969   0.469   3.006   7.093  0.3963 -0.2484  0.2707
 6779SOL    HW131970   0.441   3.095   7.117  1.9215  0.4891 -0.6891
 6779SOL    HW231971   0.512   3.030   7.011 -0.1114  4.0654  1.2535
 6780SOL     OW31972   3.611   1.990   2.441 -0.4635 -0.3185 -0.5016
 6780SOL    HW131973   3.641   1.899   2.451  2.0243  0.7025  1.4501
 6780SOL    HW231974   3.553   2.004   2.516  1.2452 -1.1462  0.9728
 6781SOL     OW31975   4.131   3.064  10.243 -0.0421  0.0113  0.6056
 6781SOL    HW131976   4.083   3.007  10.183  0.9331 -0.9081  0.7060
 6781SOL    HW231977   4.092   3.049  10.329  0.5018 -1.6746  0.5666
 6782SOL     OW31978   2.721   2.585   2.811 -0.3090  0.1421  0.0066
 6782SOL    HW131979   2.717   2.603   2.717  2.1028 -2.6115 -0.6233
 6782SOL    HW231980   2.631   2.609   2.833 -0.8573 -1.0353 -0.9257
 6783SOL     OW31981   0.708   1.537  16.602  0.2883  0.1682 -0.2761
 6783SOL    HW131982   0.758   1.618  16.606 -1.5311  1.3727 -2.5503
 6783SOL    HW231983   0.665   1.549  16.687  1.8595  2.9404  0.1139
 6784SOL     OW31984   3.479   1.494   1.572 -0.0028 -0.1236 -0.0762
 6784SOL    HW131985   3.432   1.424   1.617 -0.2991  0.1668  0.0689
 6784SOL    HW231986   3.503   1.454   1.489  0.1070 -0.6890  0.2295
 6785SOL     OW31987   4.332   4.165   6.746  0.3432 -0.0143 -0.2377
 6785SOL    HW131988   4.242   4.160   6.714 -0.0656  0.1873  0.8822
 6785SOL    HW231989   4.314   4.174   6.840 -1.2347 -1.2244 -0.4176
 6786SOL     OW31990   2.683   0.168   3.110 -0.7018  0.2820  0.2235
 6786SOL    HW131991   2.648   0.083   3.083 -0.6904  0.7529 -1.3161
 6786SOL    HW231992   2.739   0.186   3.034 -2.1000  0.9011 -0.6629
 6787SOL     OW31993   2.238   2.715   8.438 -0.3402 -0.1499 -0.1821
 6787SOL    HW131994   2.162   2.713   8.496  0.1035 -0.3563  0.3929
 6787SOL    HW231995   2.204   2.782   8.380 -0.7534 -0.5393 -0.3917
 6788SOL     OW31996   2.905   3.262   5.422 -0.3811 -0.3979 -0.4509
 6788SOL    HW131997   2.834   3.261   5.358  0.1742 -2.0320 -1.0465
 6788SOL    HW231998   2.960   3.321   5.371 -2.0266  0.6852 -0.9585
 6789SOL     OW31999   1.381   3.901  11.776  0.1117 -0.1004 -0.0909
 6789SOL    HW132000   1.448   3.836  11.795  1.4687  1.3444  0.1337
 6789SOL    HW232001   1.409   3.924  11.687  2.4191  1.0171  0.9178
 6790SOL     OW32002   2.863   3.960   3.472  0.0538 -0.0439  0.0772
 6790SOL    HW132003   2.875   3.866   3.455 -0.6189 -0.3275  1.1516
 6790SOL    HW232004   2.790   3.975   3.412 -0.4561 -0.2141  0.6584
 6791SOL     OW32005   2.833   3.286   3.684  0.0591 -0.1473 -0.2434
 6791SOL    HW132006   2.889   3.358   3.656  1.5085 -0.7347  1.1486
 6791SOL    HW232007   2.839   3.226   3.609 -1.6055 -1.8860  1.0138
 6792SOL     OW32008   1.432   2.033  15.719  0.4511 -0.3242 -0.0652
 6792SOL    HW132009   1.385   2.020  15.801  2.1669  0.7862  1.0770
 6792SOL    HW232010   1.359   2.020  15.658  0.2607 -1.9104  0.5018
 6793SOL     OW32011   0.670   2.446   1.888 -0.2646 -0.0182  0.3380
 6793SOL    HW132012   0.693   2.502   1.814  1.4886 -0.4793  0.5340
 6793SOL    HW232013   0.748   2.392   1.889  0.9496  1.7344  0.7958
 6794SOL     OW32014   2.437   0.792   3.347 -0.0183 -0.1179 -0.0696
 6794SOL    HW132015   2.362   0.801   3.407 -1.0806  0.4838 -1.5056
 6794SOL    HW232016   2.422   0.705   3.311  2.7170 -1.3943  1.8600
 6795SOL     OW32017   1.365   4.123   8.309 -0.1382 -0.2247 -0.5990
 6795SOL    HW132018   1.336   4.168   8.388  0.9782  0.1637 -0.4116
 6795SOL    HW232019   1.410   4.195   8.263  3.5879 -1.8689  0.4403
 6796SOL     OW32020   2.239   0.480   9.529  0.1097 -0.4243  0.0865
 6796SOL    HW132021   2.309   0.502   9.591 -1.2560  1.4192  0.9988
 6796SOL    HW232022   2.224   0.566   9.490 -0.4793 -1.7618 -2.5784
 6797SOL     OW32023   3.006   1.136   2.374  0.2645  0.0105  0.0015
 6797SOL    HW132024   2.993   1.042   2.362 -1.3289  0.0253  1.5412
 6797SOL    HW232025   3.026   1.144   2.467  0.3839 -1.9218  0.1452
 6798SOL     OW32026   4.264   0.425   5.343  0.0230  0.8315  0.2124
 6798SOL    HW132027   4.285   0.439   5.251  0.2351  0.2652  0.1779
 6798SOL    HW232028   4.245   0.517   5.363  3.0641  1.0681  1.9582
 6799SOL     OW32029   2.317   2.365   4.187 -0.0788  0.1239 -0.0999
 6799SOL    HW132030   2.402   2.321   4.176  0.1667  0.3715  0.8742
 6799SOL    HW232031   2.331   2.448   4.233 -0.8561 -0.0442  0.4357
 6800SOL     OW32032   1.167   1.753   5.976  0.5267  0.3954  0.3284
 6800SOL    HW132033   1.246   1.748   6.029  1.2163  0.7851 -0.6612
 6800SOL    HW232034   1.175   1.847   5.961 -0.0402  0.4360  0.2900
 6801SOL     OW32035   1.965   0.477   0.512 -0.6338 -0.0913 -0.2574
 6801SOL    HW132036   1.927   0.527   0.440 -2.9595  2.3066  2.6555
 6801SOL    HW232037   2.054   0.471   0.477 -0.2742 -0.2461  0.6895
 6802SOL     OW32038   2.514   2.857   3.210  0.0265 -0.0185 -0.1395
 6802SOL    HW132039   2.452   2.785   3.213  0.1546 -0.0511  1.6512
 6802SOL    HW232040   2.492   2.898   3.127  0.2265  2.6101  1.0935
 6803SOL     OW32041   0.021   3.512   4.052  0.4894 -0.1163 -0.5551
 6803SOL    HW132042   4.686   3.457   4.023  0.0423 -0.5105  1.3068
 6803SOL    HW232043   0.030   3.478   4.141 -0.7139  1.3505  0.1193
 6804SOL     OW32044   4.227   0.029   4.313  0.6232  0.1473 -0.1268
 6804SOL    HW132045   4.186   0.057   4.395 -0.4300  0.3489 -0.7297
 6804SOL    HW232046   4.276   0.106   4.285 -0.9546  1.0848 -0.2733
 6805SOL     OW32047   3.092   0.491   3.627 -0.0715 -0.2952  0.0759
 6805SOL    HW132048   3.185   0.478   3.644 -0.1389  0.4051  0.9762
 6805SOL    HW232049   3.078   0.529   3.540  1.3426  1.2424  0.5228
 6806SOL     OW32050   0.281   0.588   8.632  0.2787  0.3756 -0.0735
 6806SOL    HW132051   0.243   0.658   8.686 -3.0911 -0.9477 -0.7218
 6806SOL    HW232052   0.373   0.607   8.652  0.4265 -1.3871  0.9344
 6807SOL     OW32053   1.091   1.563   4.930 -0.1984  0.2862  0.1081
 6807SOL    HW132054   1.058   1.474   4.943 -1.2303  0.4529 -1.3569
 6807SOL    HW232055   1.139   1.564   4.847 -0.0921  0.9213  0.1801
 6808SOL     OW32056   0.577   3.115   9.997 -0.0592 -0.4627 -0.0649
 6808SOL    HW132057   0.657   3.166  10.014 -0.4908  0.9600 -2.3782
 6808SOL    HW232058   0.530   3.105  10.079  2.2278  0.5487  1.3688
 6809SOL     OW32059   2.235   0.794   4.486 -0.0253  0.0614 -0.2523
 6809SOL    HW132060   2.172   0.844   4.537  0.3519  0.4519 -0.1700
 6809SOL    HW232061   2.269   0.739   4.557 -1.3604 -0.0623  0.2821
 6810SOL     OW32062   2.614   3.100  11.135 -0.5836 -0.3085 -0.1739
 6810SOL    HW132063   2.677   3.099  11.207 -1.4932  1.6879  0.6427
 6810SOL    HW232064   2.649   3.029  11.081  0.2038 -0.5588  0.6707
 6811SOL     OW32065   4.609   0.727   6.406  0.0490 -0.3771 -0.5292
 6811SOL    HW132066   4.697   0.733   6.368  0.0923 -0.3175 -0.4207
 6811SOL    HW232067   4.631   0.743   6.498 -1.6342 -0.1432 -0.1664
 6812SOL     OW32068   0.302   3.564   7.753 -0.1985  0.1727 -0.3935
 6812SOL    HW132069   0.344   3.613   7.682 -0.1843  2.0282  0.9066
 6812SOL    HW232070   0.225   3.541   7.701  1.4435 -0.7243 -2.4361
 6813SOL     OW32071   4.285   0.201  12.012 -0.3833  0.5663  0.2849
 6813SOL    HW132072   4.305   0.146  11.936 -2.9134  0.0026  0.0037
 6813SOL    HW232073   4.371   0.231  12.040  0.0246  0.2973 -0.6953
 6814SOL     OW32074   0.417   2.793  16.359  0.0476 -0.1048  0.5821
 6814SOL    HW132075   0.413   2.889  16.360 -0.7961 -0.1594  2.6633
 6814SOL    HW232076   0.453   2.761  16.276 -1.6940 -1.6028  0.4023
 6815SOL     OW32077   2.656   1.537   7.083 -0.6090 -0.3450  0.2632
 6815SOL    HW132078   2.724   1.605   7.087  0.5498 -1.5201  0.5178
 6815SOL    HW232079   2.577   1.588   7.102 -0.7230 -0.8242  1.0718
 6816SOL     OW32080   0.974   0.201   4.665  0.2377 -0.5909  0.0532
 6816SOL    HW132081   0.916   0.125   4.673 -1.3202  0.6811  0.8876
 6816SOL    HW232082   1.063   0.169   4.651  0.5103 -0.4658  1.5080
 6817SOL     OW32083   2.076   1.766  16.015  0.4469 -0.1928  0.4277
 6817SOL    HW132084   2.025   1.775  16.096 -0.2953  2.5000 -0.3560
 6817SOL    HW232085   2.071   1.672  15.997 -2.8347  0.2858 -1.1002
 6818SOL     OW32086   3.663   3.807   3.853 -0.2515 -0.5304  0.5376
 6818SOL    HW132087   3.698   3.717   3.852 -0.9350 -0.7823 -0.2656
 6818SOL    HW232088   3.616   3.806   3.769 -0.1847  1.8835  0.4988
 6819SOL     OW32089   3.234   2.355   7.819 -0.1886  0.6400 -0.0691
 6819SOL    HW132090   3.243   2.374   7.912  1.6278 -0.0351 -0.0979
 6819SOL    HW232091   3.325   2.348   7.789 -0.4487  0.9173 -0.9180
 6820SOL     OW32092   0.423   4.368   5.934 -0.5722  0.0196  0.3261
 6820SOL    HW132093   0.411   4.274   5.945  0.6338  0.0043  1.5817
 6820SOL    HW232094   0.418   4.379   5.839 -1.3634 -0.2500  0.3347
 6821SOL     OW32095   2.412   4.614  15.294 -0.3041  0.1266 -0.6702
 6821SOL    HW132096   2.387   4.705  15.314  0.3972  0.1166  0.2810
 6821SOL    HW232097   2.460   4.585  15.372 -0.2249 -1.3669 -1.2785
 6822SOL     OW32098   0.154   0.944   8.587 -0.0920 -0.0298  0.4834
 6822SOL    HW132099   0.085   0.928   8.523  0.1915  1.3422 -0.1576
 6822SOL    HW232100   0.167   0.859   8.629 -1.0923 -0.3643  0.1139
 6823SOL     OW32101   2.016   2.030   6.582 -0.3943 -0.0334 -0.4894
 6823SOL    HW132102   2.046   2.118   6.605 -0.1122 -0.0061 -0.9618
 6823SOL    HW232103   1.921   2.041   6.572 -0.8827 -1.0313  2.8854
 6824SOL     OW32104   0.385   1.520   6.819  0.1221  0.2621  0.8287
 6824SOL    HW132105   0.351   1.436   6.852 -0.9452  1.1120  1.8912
 6824SOL    HW232106   0.357   1.578   6.890  0.2206  1.9133 -0.4806
 6825SOL     OW32107   3.136   1.125  14.489  0.1258 -0.0223  0.3138
 6825SOL    HW132108   3.141   1.181  14.567 -1.5962 -0.5832  0.8257
 6825SOL    HW232109   3.050   1.086  14.504 -0.8243  1.9309 -0.0535
 6826SOL     OW32110   0.983   2.714   9.897 -0.1383 -0.0490  0.1461
 6826SOL    HW132111   1.073   2.742   9.912 -0.5416  0.4915  1.4976
 6826SOL    HW232112   0.943   2.793   9.933 -0.7904 -0.7186  0.8982
 6827SOL     OW32113   4.666   2.356   2.152 -0.1697  0.1075  0.0001
 6827SOL    HW132114   4.627   2.278   2.113 -0.0217 -0.8972  1.9012
 6827SOL    HW232115   0.023   2.345   2.159 -0.2500 -0.6252 -0.1218
 6828SOL     OW32116   3.494   3.195   3.796  0.4966 -0.3949 -0.4813
 6828SOL    HW132117   3.423   3.237   3.749  1.7226  3.3518  0.9905
 6828SOL    HW232118   3.515   3.241   3.878 -2.2835  0.0672 -0.0467
 6829SOL     OW32119   2.177   4.376   8.746  0.3710 -0.5387  0.4043
 6829SOL    HW132120   2.110   4.374   8.814 -0.0052  0.8792  0.0629
 6829SOL    HW232121   2.259   4.350   8.790  2.0159  0.6936 -1.9378
 6830SOL     OW32122   0.563   2.411   6.680  0.0145 -0.1958 -0.0877
 6830SOL    HW132123   0.534   2.447   6.764 -2.3573 -1.4940 -0.3361
 6830SOL    HW232124   0.511   2.465   6.620 -0.6075 -1.6408 -0.8465
 6831SOL     OW32125   4.431   3.384  16.251 -0.0275 -0.5846  0.3949
 6831SOL    HW132126   4.486   3.307  16.263  0.5921 -0.8334 -4.0311
 6831SOL    HW232127   4.484   3.457  16.283  0.1324  0.3098 -1.9003
 6832SOL     OW32128   3.978   3.282   2.274  0.3368  0.0324  0.4006
 6832SOL    HW132129   3.987   3.218   2.203 -1.6150 -0.1378  0.3221
 6832SOL    HW232130   3.893   3.255   2.308  0.4574  0.0481  0.7119
 6833SOL     OW32131   1.190   3.531  12.889 -0.1283 -0.2795  0.1630
 6833SOL    HW132132   1.243   3.456  12.864 -2.2629 -1.4079 -1.0040
 6833SOL    HW232133   1.254   3.588  12.930  0.2461 -0.0223 -0.8087
 6834SOL     OW32134   3.200   2.564  10.810 -0.3535 -0.5670  0.0322
 6834SOL    HW132135   3.171   2.601  10.727 -0.4383 -0.2966  0.1825
 6834SOL    HW232136   3.178   2.640  10.864  0.8104 -0.9792  1.0804
 6835SOL     OW32137   0.950   0.534   7.583 -0.3009  0.1796  0.5771
 6835SOL    HW132138   0.911   0.530   7.496 -1.3640 -1.8660  1.1501
 6835SOL    HW232139   0.989   0.447   7.593 -1.8990 -0.9218 -2.8015
 6836SOL     OW32140   1.225   0.167   5.330 -0.3877  0.2809 -0.3809
 6836SOL    HW132141   1.241   0.123   5.414 -1.2430 -1.3763 -1.0793
 6836SOL    HW232142   1.313   0.205   5.321  0.4573 -0.7946  3.4699
 6837SOL     OW32143   3.204   2.736  15.872  0.4138 -0.6494  0.5444
 6837SOL    HW132144   3.249   2.797  15.813 -0.0084  0.9953  1.9185
 6837SOL    HW232145   3.278   2.681  15.897  1.4135 -0.0889 -1.1856
 6838SOL     OW32146   1.697   2.450   7.888  1.0054 -0.2080 -0.2397
 6838SOL    HW132147   1.730   2.362   7.904  0.8090 -0.6020 -2.0016
 6838SOL    HW232148   1.615   2.422   7.849 -0.6664  4.1523  0.1825
 6839SOL     OW32149   1.597   0.124  16.999 -0.1366  0.1056  0.3904
 6839SOL    HW132150   1.525   0.185  17.019 -1.9479 -1.3710 -1.6986
 6839SOL    HW232151   1.554   0.062  16.941 -3.0344 -0.0684  2.7072
 6840SOL     OW32152   1.283   2.595   5.847  0.4731  0.2658 -0.0694
 6840SOL    HW132153   1.304   2.679   5.890  1.6613 -1.2057  2.2296
 6840SOL    HW232154   1.217   2.624   5.785 -0.2216 -2.1457 -0.4428
 6841SOL     OW32155   2.033   4.429   6.905 -0.3574  0.4766 -0.2347
 6841SOL    HW132156   2.040   4.473   6.989  0.1469  1.4127 -0.7628
 6841SOL    HW232157   2.083   4.487   6.847  2.2825 -1.2905  0.2912
 6842SOL     OW32158   2.184   3.286   6.099  0.0278  0.4503  0.0349
 6842SOL    HW132159   2.109   3.294   6.158 -0.6669 -0.4369 -0.7269
 6842SOL    HW232160   2.147   3.239   6.024  0.5287 -0.8867  0.6220
 6843SOL     OW32161   4.622   2.774   2.421  0.0892 -0.7288  0.0030
 6843SOL    HW132162   4.703   2.733   2.393  0.5160  0.6821 -0.8492
 6843SOL    HW232163   4.652   2.864   2.407  0.2295 -0.8236 -0.3097
 6844SOL     OW32164   4.215   4.697   8.980 -0.1021  0.7187  0.6477
 6844SOL    HW132165   4.307   4.707   9.003  0.4683  0.5839 -1.5552
 6844SOL    HW232166   4.186   0.051   8.984 -0.8099  0.5423 -0.4845
 6845SOL     OW32167   4.628   0.377   1.053 -0.1468  0.4802 -0.0920
 6845SOL    HW132168   4.600   0.466   1.075 -0.8665  0.2703 -0.1464
 6845SOL    HW232169   4.712   0.399   1.012 -0.4518  0.4546 -0.7406
 6846SOL     OW32170   2.817   4.437   6.823  0.7613 -0.1429  0.7307
 6846SOL    HW132171   2.776   4.408   6.904 -1.0789 -1.3005 -0.6257
 6846SOL    HW232172   2.823   4.533   6.829 -0.0368 -0.1139  1.0401
 6847SOL     OW32173   4.348   1.822  12.529 -0.5441  0.3437  0.6203
 6847SOL    HW132174   4.296   1.822  12.448 -1.6426 -0.4392  1.3276
 6847SOL    HW232175   4.439   1.818  12.498 -0.0211 -1.1077  2.3417
 6848SOL     OW32176   0.407   0.198   7.621 -0.9290  0.7497  0.3465
 6848SOL    HW132177   0.387   0.283   7.581  0.1350  0.2413 -1.2726
 6848SOL    HW232178   0.329   0.146   7.600 -1.7160  1.7837  0.7302
 6849SOL     OW32179   3.548   2.438   6.085  0.0988 -0.0069  0.2521
 6849SOL    HW132180   3.543   2.348   6.118  0.3050  0.0946  0.5530
 6849SOL    HW232181   3.643   2.449   6.077  0.1137 -0.2291  0.1339
 6850SOL     OW32182   4.483   0.114   6.145  0.6919 -0.6427 -0.1025
 6850SOL    HW132183   4.442   0.057   6.211  0.9568 -0.1583  0.4839
 6850SOL    HW232184   4.434   0.087   6.067 -1.7476  1.8152  0.5809
 6851SOL     OW32185   2.801   1.718   1.908 -0.2857  0.2355  0.1389
 6851SOL    HW132186   2.854   1.670   1.971  1.0075 -0.0310 -1.1702
 6851SOL    HW232187   2.845   1.803   1.902  1.3262 -0.4859  1.8861
 6852SOL     OW32188   4.368   0.161   0.386  0.1111  0.0439 -0.0478
 6852SOL    HW132189   4.368   0.239   0.330 -3.8394 -0.2163 -0.3987
 6852SOL    HW232190   4.372   0.210   0.468  2.4441 -0.9936  0.4627
 6853SOL     OW32191   1.638   3.224   7.867 -0.3133  1.0896  0.0040
 6853SOL    HW132192   1.563   3.234   7.925  0.5811 -1.1539  1.5490
 6853SOL    HW232193   1.709   3.241   7.929 -0.1613  2.7820 -0.6491
 6854SOL     OW32194   3.862   2.965   5.748 -0.4479  0.3671  0.2017
 6854SOL    HW132195   3.796   2.922   5.802 -0.2733 -0.9615 -0.6227
 6854SOL    HW232196   3.932   2.977   5.812  1.3183  2.6230 -2.1848
 6855SOL     OW32197   1.952   4.406   0.378  0.0953  0.7063 -0.5261
 6855SOL    HW132198   1.872   4.454   0.359 -0.3468  0.1641 -0.0209
 6855SOL    HW232199   1.977   4.361   0.298  2.0579 -0.1454  0.5437
 6856SOL     OW32200   0.252   0.698   4.886 -0.1265 -0.0564 -0.2118
 6856SOL    HW132201   0.326   0.640   4.867  0.5877  0.9124 -0.3735
 6856SOL    HW232202   0.249   0.712   4.981  0.2104  1.2839 -0.3960
 6857SOL     OW32203   1.515   2.798   8.777  1.0060 -0.5937  0.1388
 6857SOL    HW132204   1.582   2.856   8.814  1.9382 -1.2116 -0.5729
 6857SOL    HW232205   1.526   2.821   8.684  0.1875  0.8205  0.3835
 6858SOL     OW32206   0.176   2.369   2.520 -0.2461  0.1827  0.2834
 6858SOL    HW132207   0.239   2.406   2.582  1.0847  1.3041 -1.7544
 6858SOL    HW232208   0.232   2.300   2.483  0.1846 -0.2847  1.8078
 6859SOL     OW32209   1.595   4.734   4.690  0.4868 -0.1678 -0.0709
 6859SOL    HW132210   1.506   0.015   4.660 -0.2434 -1.9522  0.9755
 6859SOL    HW232211   1.603   4.639   4.699 -2.2653 -0.4478 -0.4568
 6860SOL     OW32212   0.123   1.927  15.415  0.6126 -0.2978  0.5279
 6860SOL    HW132213   0.156   1.894  15.498 -0.7704 -1.3790  0.6478
 6860SOL    HW232214   0.179   1.886  15.350 -0.4068  1.0102 -1.1930
 6861SOL     OW32215   3.220   2.306   3.712 -0.2082  0.5694  0.3643
 6861SOL    HW132216   3.139   2.261   3.688 -0.7907  1.5040  0.5832
 6861SOL    HW232217   3.205   2.392   3.673 -0.8912  0.3139  0.0569
 6862SOL     OW32218   0.114   0.914   2.936 -0.2103 -0.0794  0.3126
 6862SOL    HW132219   0.095   0.958   2.854  0.0910 -0.7265 -0.1037
 6862SOL    HW232220   0.131   0.827   2.899 -0.2672  0.0176  0.0651
 6863SOL     OW32221   2.191   3.847  12.450 -0.1119  0.2535 -0.0097
 6863SOL    HW132222   2.154   3.832  12.537 -0.1669 -0.9491 -0.2356
 6863SOL    HW232223   2.125   3.911  12.424  1.0776  1.1057 -0.9124
 6864SOL     OW32224   0.705   3.676   3.610 -0.0311 -0.2459  0.1573
 6864SOL    HW132225   0.753   3.605   3.568  2.0987  0.7017  0.9647
 6864SOL    HW232226   0.715   3.758   3.561  2.1936 -0.3349  0.4596
 6865SOL     OW32227   2.771   2.921  16.946  0.1655  0.0314 -0.4865
 6865SOL    HW132228   2.699   2.870  16.907 -0.8959  1.8207 -0.8625
 6865SOL    HW232229   2.769   2.883  17.034 -2.1377 -1.2652 -1.0928
 6866SOL     OW32230   3.100   2.250  13.403  0.2453 -1.0589  0.1526
 6866SOL    HW132231   3.048   2.201  13.466 -1.5625  0.3964 -0.2136
 6866SOL    HW232232   3.137   2.319  13.459 -2.2006 -1.3985  2.1712
 6867SOL     OW32233   2.082   4.510   4.576 -0.1456  0.0771  0.4162
 6867SOL    HW132234   1.994   4.496   4.542  0.0263  0.4501 -0.1775
 6867SOL    HW232235   2.093   4.597   4.537  1.6253 -0.8078 -1.0572
 6868SOL     OW32236   0.091   0.323   4.774  0.4933 -0.0644  0.7562
 6868SOL    HW132237   0.002   0.352   4.754  0.5838 -0.1122  0.2829
 6868SOL    HW232238   0.098   0.372   4.856 -0.5082  2.0545 -0.4322
 6869SOL     OW32239   0.810   3.149   8.620  0.0377 -0.2788  0.4231
 6869SOL    HW132240   0.857   3.095   8.683  0.5107 -0.1626  0.1737
 6869SOL    HW232241   0.839   3.107   8.539 -0.3547 -0.1300  0.2044
 6870SOL     OW32242   4.380   3.954   6.543  0.1385 -0.1494  0.5294
 6870SOL    HW132243   4.361   4.033   6.594 -0.7601  0.5571 -0.9085
 6870SOL    HW232244   4.347   3.890   6.607  0.8417  0.9061  1.9495
 6871SOL     OW32245   2.147   3.898   9.915 -0.1140 -0.2699 -0.3394
 6871SOL    HW132246   2.110   3.830   9.972 -0.8177  0.6597  0.3185
 6871SOL    HW232247   2.210   3.934   9.978  1.5752 -3.3720 -0.2507
 6872SOL     OW32248   1.916   4.114   9.953 -0.4606 -0.5789 -0.0351
 6872SOL    HW132249   1.951   4.092  10.040  1.5017 -1.6080 -1.0933
 6872SOL    HW232250   1.977   4.073   9.892 -0.8510 -0.2781 -0.6270
 6873SOL     OW32251   1.414   1.421   1.162 -0.1453 -0.0762 -0.1307
 6873SOL    HW132252   1.359   1.349   1.191 -1.1955  1.1055  0.8444
 6873SOL    HW232253   1.402   1.472   1.243 -1.1238 -1.2889  0.4736
 6874SOL     OW32254   3.358   2.141   7.108  0.4718  0.2678  0.3042
 6874SOL    HW132255   3.324   2.216   7.157 -0.4354  0.4655 -0.6331
 6874SOL    HW232256   3.357   2.069   7.171  2.3392  1.0904  1.2939
 6875SOL     OW32257   1.322   3.069   2.991 -0.1959 -0.1751  0.1206
 6875SOL    HW132258   1.277   3.118   2.922 -1.3015  0.6738  1.4301
 6875SOL    HW232259   1.378   3.132   3.036 -0.4619 -0.9133  1.5018
 6876SOL     OW32260   1.169   2.083   6.777 -0.1773  0.0362  0.3843
 6876SOL    HW132261   1.078   2.106   6.762 -0.0348  2.2598  2.8938
 6876SOL    HW232262   1.159   2.030   6.856  0.0390 -0.7462 -0.1123
 6877SOL     OW32263   3.251   4.125   5.131  0.4149 -0.1285  0.2393
 6877SOL    HW132264   3.340   4.099   5.154  0.5346 -0.9326 -1.1669
 6877SOL    HW232265   3.218   4.037   5.111 -0.3714  0.7605 -2.3961
 6878SOL     OW32266   2.336   1.240  15.209  0.0039 -0.3948  0.0123
 6878SOL    HW132267   2.310   1.169  15.268  2.2300 -0.8844  0.4375
 6878SOL    HW232268   2.365   1.301  15.277 -1.7271  0.3422  0.0894
 6879SOL     OW32269   1.551   4.050   5.351 -0.2714  0.4022 -0.1143
 6879SOL    HW132270   1.528   3.995   5.277 -1.6616 -0.4533  0.9662
 6879SOL    HW232271   1.639   4.085   5.335  0.1601  0.0213  1.3921
 6880SOL     OW32272   3.121   1.242   5.748  0.1533 -0.8588 -0.1684
 6880SOL    HW132273   3.156   1.328   5.725 -1.9374  0.3496  1.1964
 6880SOL    HW232274   3.178   1.198   5.685  0.8563  0.6930 -0.6158
 6881SOL     OW32275   4.103   1.702   9.256  0.5438 -0.0703 -1.1036
 6881SOL    HW132276   4.190   1.664   9.244  1.1494  0.9127  0.1597
 6881SOL    HW232277   4.090   1.743   9.170  0.2727  0.1117 -0.9781
 6882SOL     OW32278   2.823   2.987   8.085 -0.0354 -0.3628  0.6030
 6882SOL    HW132279   2.818   2.951   7.996 -0.5558  0.4707  0.3038
 6882SOL    HW232280   2.833   3.081   8.069 -1.1429 -0.2667  0.4538
 6883SOL     OW32281   3.086   3.605  17.701 -0.2342 -0.2296 -0.1292
 6883SOL    HW132282   3.147   3.580   0.021 -0.4728  1.0076  0.5285
 6883SOL    HW232283   3.043   3.683  17.737  0.7064  0.0796  0.3270
 6884SOL     OW32284   4.642   4.535   5.106 -0.0746 -0.0419 -0.1952
 6884SOL    HW132285   4.708   4.548   5.175 -0.7544 -1.7709  0.7717
 6884SOL    HW232286   4.690   4.570   5.031 -1.6105 -0.7142 -1.4794
 6885SOL     OW32287   4.566   1.811   9.639 -0.4222  0.0497  0.0272
 6885SOL    HW132288   4.588   1.897   9.603  0.1712  0.1344  0.5842
 6885SOL    HW232289   4.615   1.753   9.581 -0.8867 -0.6679  0.3527
 6886SOL     OW32290   4.715   3.451   1.934  0.3923 -0.0591 -0.2824
 6886SOL    HW132291   4.728   3.545   1.941  2.8614 -0.4438  0.0633
 6886SOL    HW232292   4.659   3.441   2.011 -0.0929 -2.5015 -0.9422
 6887SOL     OW32293   1.578   2.182  15.998  0.1855  0.5275 -0.1762
 6887SOL    HW132294   1.620   2.112  15.948 -0.8976  0.5295 -1.1070
 6887SOL    HW232295   1.611   2.268  15.974 -0.4101  0.4288 -1.3702
 6888SOL     OW32296   0.437   0.979  13.077 -0.0812  0.1106  0.0755
 6888SOL    HW132297   0.471   0.892  13.101  1.3947  0.2491 -1.5161
 6888SOL    HW232298   0.506   0.997  13.013  0.2328  0.3588  0.4832
 6889SOL     OW32299   3.195   2.730   5.707 -0.1734  0.2737 -0.3554
 6889SOL    HW132300   3.124   2.787   5.736 -0.2185  0.8477 -1.5648
 6889SOL    HW232301   3.195   2.753   5.614 -0.5883  1.5128 -0.0531
 6890SOL     OW32302   3.657   2.192   7.882 -0.0203 -0.4784  0.5969
 6890SOL    HW132303   3.673   2.248   7.958  2.2662  0.6660 -0.7484
 6890SOL    HW232304   3.737   2.204   7.832 -0.1417  0.4698  0.6167
 6891SOL     OW32305   0.643   2.664   7.986  0.4903  0.0417  0.4886
 6891SOL    HW132306   0.673   2.742   7.940  0.5760 -0.6267 -0.5867
 6891SOL    HW232307   0.558   2.642   7.950  1.2323 -0.8675 -0.6973
 6892SOL     OW32308   0.915   1.503  14.065 -0.4496  0.8678  0.0547
 6892SOL    HW132309   0.958   1.418  14.069 -2.3191 -0.2221 -2.2884
 6892SOL    HW232310   0.985   1.557  14.101 -1.8805  0.6820  3.1105
 6893SOL     OW32311   3.786   0.112   1.754  0.5126 -0.1732  0.3518
 6893SOL    HW132312   3.846   0.094   1.827  0.9349 -1.3937 -0.2959
 6893SOL    HW232313   3.837   0.162   1.691 -1.7508  1.4246 -0.2173
 6894SOL     OW32314   0.952   3.631   4.402  0.0379  0.0216  0.5273
 6894SOL    HW132315   1.009   3.684   4.347  0.7910 -0.1050  1.1732
 6894SOL    HW232316   0.883   3.607   4.341  2.2377 -0.8568 -1.6166
 6895SOL     OW32317   1.795   4.384   6.252  0.5422  0.3717  0.2140
 6895SOL    HW132318   1.743   4.361   6.329  2.5928 -1.1150  1.1556
 6895SOL    HW232319   1.877   4.421   6.284  0.4651  0.3597  0.4263
 6896SOL     OW32320   2.131   2.459   5.934  0.3201  0.2676  0.0641
 6896SOL    HW132321   2.138   2.550   5.906  0.7676  0.2477  0.1156
 6896SOL    HW232322   2.175   2.464   6.019 -0.1055 -0.1349  0.3086
 6897SOL     OW32323   0.858   4.463   1.673  0.1792 -0.0975 -0.0132
 6897SOL    HW132324   0.783   4.404   1.663 -0.5978  0.7208  0.9916
 6897SOL    HW232325   0.823   4.551   1.661  1.9829  0.7133  0.7767
 6898SOL     OW32326   2.809   3.395  17.224  0.6569  0.0382  0.5880
 6898SOL    HW132327   2.903   3.414  17.222  0.6429 -0.0305 -0.5309
 6898SOL    HW232328   2.775   3.419  17.138 -0.9807  1.9022  1.7411
 6899SOL     OW32329   4.430   1.859   9.888  0.0631 -0.3134 -0.2579
 6899SOL    HW132330   4.505   1.829   9.836 -0.5734 -0.6581 -0.9838
 6899SOL    HW232331   4.476   1.929   9.934 -0.3183 -0.8946  1.0003
 6900SOL     OW32332   2.967   4.212   7.095  0.5268 -0.1964 -0.1287
 6900SOL    HW132333   2.898   4.207   7.028  0.4270  0.5352 -0.0747
 6900SOL    HW232334   2.976   4.307   7.098  1.8077 -0.3367  0.1455
 6901SOL     OW32335   2.725   2.186  15.657  0.0340 -0.6448 -0.1673
 6901SOL    HW132336   2.702   2.146  15.573  0.8481  2.6632 -1.9605
 6901SOL    HW232337   2.794   2.252  15.643  1.6623 -1.8649  2.1427
 6902SOL     OW32338   4.736   0.445  15.372  0.1746  0.3847 -0.1277
 6902SOL    HW132339   0.021   0.448  15.279 -2.8084  0.8164 -0.8533
 6902SOL    HW232340   4.660   0.502  15.367  0.5887  1.1648  2.3241
 6903SOL     OW32341   2.991   4.039   1.853  0.7373 -0.1897  0.0244
 6903SOL    HW132342   3.039   3.997   1.924 -0.8296 -1.2769  0.4576
 6903SOL    HW232343   2.900   4.011   1.866  1.3934 -2.8793 -1.0733
 6904SOL     OW32344   2.907   0.800   7.894 -0.0638  0.2562  0.2576
 6904SOL    HW132345   2.897   0.883   7.940  0.3887 -0.6434  1.9621
 6904SOL    HW232346   2.950   0.746   7.960  1.3993  0.5648 -0.4358
 6905SOL     OW32347   3.608   0.281   3.672 -0.8343 -0.1738 -0.1272
 6905SOL    HW132348   3.607   0.340   3.597 -0.2205  1.2745  0.9978
 6905SOL    HW232349   3.551   0.332   3.729 -1.0668  0.8388 -1.2810
 6906SOL     OW32350   4.361   2.889   4.438 -0.1182  0.4405  0.4565
 6906SOL    HW132351   4.298   2.954   4.405 -0.8874 -0.6888 -0.3041
 6906SOL    HW232352   4.311   2.810   4.416  0.4212  0.7646 -1.9433
 6907SOL     OW32353   2.927   2.503  17.542  0.4999  0.3937  0.5941
 6907SOL    HW132354   2.856   2.439  17.533  0.2217  0.4585  2.2316
 6907SOL    HW232355   3.001   2.464  17.496  1.1156 -0.4122  2.2602
 6908SOL     OW32356   0.333   3.325  11.275  0.0500  0.0426  0.0066
 6908SOL    HW132357   0.262   3.380  11.308 -1.1606 -2.8398  2.2667
 6908SOL    HW232358   0.387   3.323  11.354 -0.5977  0.7612  0.4722
 6909SOL     OW32359   2.706   1.758   7.402  0.2341 -0.5665 -0.2606
 6909SOL    HW132360   2.646   1.832   7.395  0.8731  0.1295  1.7270
 6909SOL    HW232361   2.754   1.786   7.480  2.3612 -1.2923 -1.3210
 6910SOL     OW32362   2.707   0.308   1.579 -0.1340  0.0151 -0.0683
 6910SOL    HW132363   2.766   0.346   1.645  2.2599 -2.1826 -0.9453
 6910SOL    HW232364   2.639   0.376   1.573  1.4155  1.3765 -2.1842
 6911SOL     OW32365   1.021   2.128  10.769 -0.1352  0.0141  0.3777
 6911SOL    HW132366   1.106   2.166  10.745 -0.2070 -1.0675 -1.5371
 6911SOL    HW232367   1.049   2.081  10.847  3.8123  0.0205 -1.0245
 6912SOL     OW32368   4.588   3.905   2.944 -0.4495 -0.5308 -0.1505
 6912SOL    HW132369   4.650   3.945   3.005 -1.8688  1.5181 -0.0669
 6912SOL    HW232370   4.525   3.978   2.945 -0.0947 -0.2402  0.5487
 6913SOL     OW32371   3.692   3.409   8.346 -0.6558  0.2070 -0.4145
 6913SOL    HW132372   3.647   3.357   8.413  0.1614  3.0647  2.3498
 6913SOL    HW232373   3.780   3.407   8.383 -0.2400  0.2570 -1.3938
 6914SOL     OW32374   1.686   4.608   9.604 -0.2024  0.1862  0.0338
 6914SOL    HW132375   1.614   4.647   9.554  0.6304 -1.9645 -2.8279
 6914SOL    HW232376   1.640   4.592   9.686  1.2709 -1.7512  0.4665
 6915SOL     OW32377   0.583   1.752  13.495 -0.2291  0.1832 -0.3811
 6915SOL    HW132378   0.603   1.660  13.475  0.8351  0.5302 -0.8531
 6915SOL    HW232379   0.579   1.786  13.406  0.8169  1.2448 -0.0057
 6916SOL     OW32380   3.491   2.519   9.081 -0.0718  0.6654  0.1562
 6916SOL    HW132381   3.477   2.611   9.106  1.6535  0.2571  2.5640
 6916SOL    HW232382   3.403   2.485   9.065  0.8394 -1.4970 -0.1303
 6917SOL     OW32383   2.170   1.048   8.074 -0.6433 -0.6219 -0.5031
 6917SOL    HW132384   2.230   1.119   8.053 -1.8538  0.8810  1.0695
 6917SOL    HW232385   2.235   0.980   8.061 -0.0781 -0.3310  0.8211
 6918SOL     OW32386   2.914   1.632  15.617 -0.2101  0.1325  0.2297
 6918SOL    HW132387   2.963   1.619  15.535  0.7633 -2.6387  1.2474
 6918SOL    HW232388   2.918   1.542  15.651  2.5530 -0.1146 -0.7258
 6919SOL     OW32389   1.610   0.892  17.019  0.0783 -0.2217 -0.3717
 6919SOL    HW132390   1.613   0.987  17.032 -1.2038 -0.2308  0.0278
 6919SOL    HW232391   1.521   0.865  17.040 -0.0453 -0.3020 -1.0215
 6920SOL     OW32392   1.162   4.088   7.932  0.4809  0.2748  0.2088
 6920SOL    HW132393   1.137   4.130   8.014  0.6493  2.0730 -0.6600
 6920SOL    HW232394   1.092   4.025   7.914 -0.1889  0.6044  1.7046
 6921SOL     OW32395   1.476   3.973   9.849  0.6162  0.6203 -0.8557
 6921SOL    HW132396   1.426   4.052   9.870  1.1112  0.3928  1.1769
 6921SOL    HW232397   1.562   4.014   9.835  1.1695 -0.8097 -1.5572
 6922SOL     OW32398   0.956   3.687   2.980 -0.3479  0.7143  0.0703
 6922SOL    HW132399   0.937   3.609   3.032 -0.2725  1.4223  1.1769
 6922SOL    HW232400   1.024   3.722   3.038 -0.0258 -1.5608  1.0829
 6923SOL     OW32401   0.082   0.164   2.040 -0.1074 -0.1337  0.3020
 6923SOL    HW132402   0.109   0.160   2.132 -0.6585 -0.8329  0.4344
 6923SOL    HW232403   0.028   0.238   2.069  1.1618  0.9196 -0.0379
 6924SOL     OW32404   3.178   4.607   4.221 -0.2160  0.7822  0.1636
 6924SOL    HW132405   3.102   4.600   4.162 -2.2127 -0.4129  2.8488
 6924SOL    HW232406   3.221   4.688   4.194 -0.9652  2.2880  3.4169
 6925SOL     OW32407   3.327   0.516  17.400  0.3343  0.1671 -0.4230
 6925SOL    HW132408   3.395   0.477  17.345 -0.2587  0.0803 -1.0923
 6925SOL    HW232409   3.304   0.584  17.337 -0.5404  0.8966  0.6821
 6926SOL     OW32410   1.044   0.339   6.642 -0.4854  0.5595 -0.3819
 6926SOL    HW132411   1.022   0.371   6.730  0.3118 -0.2403  0.1079
 6926SOL    HW232412   1.103   0.271   6.675 -0.0421  0.4144 -1.4922
 6927SOL     OW32413   2.804   1.587   1.637 -0.0598 -0.1339  0.0485
 6927SOL    HW132414   2.786   1.638   1.716  0.5103 -1.7624  1.2286
 6927SOL    HW232415   2.794   1.650   1.566  1.2807 -0.8823 -0.7871
 6928SOL     OW32416   0.274   1.157   6.598  0.5388 -0.5022  0.5947
 6928SOL    HW132417   0.312   1.092   6.540  1.1867  0.7592 -0.3886
 6928SOL    HW232418   0.275   1.110   6.682  1.7192 -1.3100  0.1282
 6929SOL     OW32419   0.469   2.737   2.693 -0.1071 -0.1335 -0.7140
 6929SOL    HW132420   0.435   2.725   2.604 -0.3422 -1.2096 -0.4840
 6929SOL    HW232421   0.498   2.828   2.687 -0.8783  0.1674  0.2436
 6930SOL     OW32422   4.511   1.046   8.701  0.2128 -0.3786 -0.3185
 6930SOL    HW132423   4.498   0.953   8.681 -0.0536 -0.8253  2.0102
 6930SOL    HW232424   4.470   1.048   8.787  0.9157  0.3331 -0.0010
 6931SOL     OW32425   3.251   3.731  13.044  0.1999  0.3117  0.4563
 6931SOL    HW132426   3.267   3.817  13.083  2.4583 -0.1552  0.5344
 6931SOL    HW232427   3.341   3.700  13.042 -0.0765 -0.5009  0.6582
 6932SOL     OW32428   3.649   2.778   4.753 -0.5434  0.2152  0.0665
 6932SOL    HW132429   3.720   2.765   4.815 -0.3543  1.6963  0.1544
 6932SOL    HW232430   3.577   2.774   4.816 -1.6861 -4.0537 -1.5452
 6933SOL     OW32431   1.396   0.881   8.408  0.2457 -0.3937  0.9511
 6933SOL    HW132432   1.408   0.794   8.447 -2.1154 -1.3917 -0.5536
 6933SOL    HW232433   1.408   0.933   8.488 -0.2536  2.7700 -1.0534
 6934SOL     OW32434   2.098   2.151   5.938 -0.1376 -0.6244  0.1188
 6934SOL    HW132435   2.087   2.246   5.932  0.0341 -0.6212 -0.1072
 6934SOL    HW232436   2.145   2.138   5.856 -0.1165 -0.7602  0.1517
 6935SOL     OW32437   4.284   3.139   2.620 -0.3393 -0.2887 -0.5234
 6935SOL    HW132438   4.286   3.065   2.559  3.1914  1.3707 -2.3973
 6935SOL    HW232439   4.220   3.190   2.569  0.7524  1.5621 -0.0588
 6936SOL     OW32440   1.711   4.099   9.541  0.2952  0.0051  0.4438
 6936SOL    HW132441   1.649   4.055   9.484  2.4164 -0.3225 -1.5961
 6936SOL    HW232442   1.726   4.181   9.493  2.0887 -1.0693 -0.8128
 6937SOL     OW32443   2.495   1.238   5.650  0.5433  0.4179  0.3383
 6937SOL    HW132444   2.464   1.327   5.632  0.8767  0.4192 -0.2294
 6937SOL    HW232445   2.532   1.206   5.568 -0.8868  2.1618 -0.9996
 6938SOL     OW32446   1.229   1.149  15.251 -0.3369  0.3791 -0.4760
 6938SOL    HW132447   1.204   1.226  15.199 -0.1033 -0.0562 -1.2255
 6938SOL    HW232448   1.162   1.141  15.319  0.9294 -0.3241  0.6899
 6939SOL     OW32449   1.499   2.014   5.644  0.1680 -0.1557 -0.5964
 6939SOL    HW132450   1.412   1.975   5.649 -0.2200  0.9940  1.4925
 6939SOL    HW232451   1.485   2.103   5.674  0.1019 -0.2420 -0.3678
 6940SOL     OW32452   1.368   4.242   1.820  0.1840  0.3349 -0.1587
 6940SOL    HW132453   1.455   4.206   1.837  0.2244  0.7191  0.4714
 6940SOL    HW232454   1.338   4.279   1.903  0.2857 -2.2964  1.0473
 6941SOL     OW32455   1.906   4.156   8.112 -0.0726  0.1531 -0.4789
 6941SOL    HW132456   1.874   4.224   8.052 -0.3495  0.2002 -0.2767
 6941SOL    HW232457   1.838   4.166   8.179 -0.0352 -0.3130 -0.3741
 6942SOL     OW32458   2.860   4.586   1.716 -0.3040  0.2945  0.1783
 6942SOL    HW132459   2.919   4.599   1.642  3.3785 -2.2948  2.6135
 6942SOL    HW232460   2.924   4.596   1.787 -0.6757 -1.5447  0.7878
 6943SOL     OW32461   2.020   4.459   7.246 -0.1041 -0.6495 -0.6582
 6943SOL    HW132462   2.068   4.540   7.227 -0.2035 -0.7795 -1.4523
 6943SOL    HW232463   2.032   4.461   7.341  1.0661  2.4602 -0.8414
 6944SOL     OW32464   3.304   0.894   1.075  0.5707 -0.0737 -0.1347
 6944SOL    HW132465   3.260   0.845   1.145 -1.0094  0.4961 -0.7423
 6944SOL    HW232466   3.384   0.924   1.119  0.3193  0.7887 -0.2875
 6945SOL     OW32467   2.227   2.616   4.546 -0.5524 -0.2514  0.3098
 6945SOL    HW132468   2.161   2.583   4.485 -0.3713 -0.2321  0.1014
 6945SOL    HW232469   2.264   2.533   4.577 -0.5871  0.7350  2.9558
 6946SOL     OW32470   0.447   0.064   4.448  0.2097  0.5631  0.1295
 6946SOL    HW132471   0.481   0.032   4.364 -0.4016  0.8746 -0.2378
 6946SOL    HW232472   0.395   4.729   4.483  0.7239  0.1820  0.0908
 6947SOL     OW32473   2.335   3.556   0.819  0.2874  0.2365 -0.2450
 6947SOL    HW132474   2.415   3.554   0.872  0.1445 -0.4384 -0.0513
 6947SOL    HW232475   2.353   3.619   0.750  0.6125  0.5705  0.1439
 6948SOL     OW32476   2.955   4.323   9.631 -0.3423 -0.3043  0.0208
 6948SOL    HW132477   3.038   4.360   9.661 -1.3121 -0.9738  3.5978
 6948SOL    HW232478   2.904   4.323   9.713 -0.1102  0.7615  0.1571
 6949SOL     OW32479   4.548   1.620  16.635  0.1630 -0.2227 -0.1106
 6949SOL    HW132480   4.461   1.629  16.672  1.0423  1.4096  1.5840
 6949SOL    HW232481   4.565   1.713  16.618 -0.6419  0.1726  1.3095
 6950SOL     OW32482   3.447   2.797  11.561 -0.3893  0.0508  0.0862
 6950SOL    HW132483   3.448   2.719  11.616  2.4946 -0.0902 -0.1708
 6950SOL    HW232484   3.503   2.766  11.490 -2.5880 -0.3176 -1.4692
 6951SOL     OW32485   0.039   2.605   1.206  0.4247 -0.2683 -0.3466
 6951SOL    HW132486   0.006   2.592   1.117  1.0493  1.3570 -0.8259
 6951SOL    HW232487   0.130   2.630   1.188 -0.0979  1.8017 -0.1320
 6952SOL     OW32488   2.559   3.385   2.751 -0.1047  0.2213  0.2387
 6952SOL    HW132489   2.614   3.430   2.687 -0.9127  1.1249  0.1799
 6952SOL    HW232490   2.488   3.365   2.690 -0.8418  2.1034  0.4834
 6953SOL     OW32491   0.031   2.510   2.979 -0.1324 -0.4879 -0.1060
 6953SOL    HW132492   4.710   2.448   3.020 -1.1310  0.4076 -0.1910
 6953SOL    HW232493   0.014   2.594   3.022 -1.8957 -0.5670 -0.6463
 6954SOL     OW32494   0.045   3.841   8.610 -0.1194 -0.7792 -0.2025
 6954SOL    HW132495   0.129   3.886   8.601 -0.7530  0.2738 -0.8925
 6954SOL    HW232496   0.050   3.808   8.700 -1.4546 -0.8850 -0.1705
 6955SOL     OW32497   4.112   2.698  13.274 -0.0386  0.3728 -0.4623
 6955SOL    HW132498   4.098   2.719  13.366  0.3774  0.7481 -0.4835
 6955SOL    HW232499   4.113   2.786  13.236 -0.9297 -0.5013 -2.4988
 6956SOL     OW32500   1.258   3.890   5.338 -0.5829  0.0963  0.5755
 6956SOL    HW132501   1.191   3.901   5.270 -0.8054  0.7543  0.9029
 6956SOL    HW232502   1.338   3.923   5.297  0.0577  0.5555  2.1823
 6957SOL     OW32503   3.296   2.543   9.928  0.2335 -0.4985 -0.4438
 6957SOL    HW132504   3.389   2.562   9.924  0.0298  0.5327 -0.2818
 6957SOL    HW232505   3.253   2.614   9.879 -3.7396 -2.5594  0.0483
 6958SOL     OW32506   4.731   2.470   0.687 -0.1877 -0.4340 -0.2390
 6958SOL    HW132507   4.653   2.521   0.664 -0.0285 -0.6071 -1.1442
 6958SOL    HW232508   4.697   2.387   0.655  3.1173 -1.8684  0.0283
 6959SOL     OW32509   2.130   4.292   8.466  0.0847 -0.4395  0.2520
 6959SOL    HW132510   2.047   4.336   8.448  0.0642 -0.9794 -0.9531
 6959SOL    HW232511   2.151   4.323   8.554 -0.2603 -1.0919  0.5591
 6960SOL     OW32512   1.112   4.634   3.322  0.3284 -0.0162 -0.4284
 6960SOL    HW132513   1.105   4.682   3.405 -2.7798 -1.8146  0.3524
 6960SOL    HW232514   1.127   4.714   3.271 -3.3894  2.3693  2.2339
 6961SOL     OW32515   3.452   1.377   4.723 -0.6252  0.3386 -0.2939
 6961SOL    HW132516   3.475   1.457   4.770 -0.9668  0.0791  0.3243
 6961SOL    HW232517   3.519   1.315   4.753 -1.1544 -0.0624  0.0469
 6962SOL     OW32518   1.119   4.313   9.672  0.0249 -0.4285 -0.0081
 6962SOL    HW132519   1.027   4.331   9.651 -0.0477 -0.4461  0.3023
 6962SOL    HW232520   1.156   4.309   9.584  1.4791  0.3903  0.5620
 6963SOL     OW32521   2.838   1.612   4.596 -0.2823 -0.1698 -0.2340
 6963SOL    HW132522   2.755   1.619   4.642 -0.8732 -1.9764 -1.0228
 6963SOL    HW232523   2.815   1.561   4.518  0.5575 -0.2925 -0.4106
 6964SOL     OW32524   4.391   4.140   3.463  0.4810  0.1679  0.3609
 6964SOL    HW132525   4.482   4.160   3.484  0.3642 -1.0324  2.0844
 6964SOL    HW232526   4.381   4.046   3.481 -2.7035  0.3116 -0.5868
 6965SOL     OW32527   0.918   2.673   9.299 -0.1744 -0.1337  0.0846
 6965SOL    HW132528   0.860   2.706   9.230 -1.8186 -0.6676  1.2353
 6965SOL    HW232529   0.855   2.636   9.360 -1.6298  1.5802 -0.3695
 6966SOL     OW32530   0.086   3.706   1.945 -0.4705  0.3282  0.3170
 6966SOL    HW132531   0.109   3.762   2.019 -0.3216  1.8248 -0.8563
 6966SOL    HW232532   0.152   3.637   1.948  0.1689  0.9471  0.5633
 6967SOL     OW32533   2.757   0.827   4.888  0.4225  0.2550  0.1862
 6967SOL    HW132534   2.827   0.807   4.950 -1.5922  1.0810  2.7111
 6967SOL    HW232535   2.684   0.808   4.946 -1.1085  2.1314 -1.1175
 6968SOL     OW32536   0.472   1.683   3.146  0.5413  0.1183  0.5945
 6968SOL    HW132537   0.471   1.771   3.183 -0.0728  0.2628  0.2402
 6968SOL    HW232538   0.491   1.628   3.222  2.2175  0.3470  0.3318
 6969SOL     OW32539   1.333   0.245   3.045  0.1532 -0.2264 -0.1385
 6969SOL    HW132540   1.381   0.170   3.080  0.3006  0.1615  0.4791
 6969SOL    HW232541   1.403   0.283   2.993 -0.2113 -1.8793 -1.8537
 6970SOL     OW32542   1.370   0.406   7.928  0.4798 -0.6908 -0.4593
 6970SOL    HW132543   1.290   0.353   7.923  0.1068 -0.2353  0.6293
 6970SOL    HW232544   1.379   0.428   7.835  2.2205  1.0036  0.1197
 6971SOL     OW32545   1.151   4.217   9.414 -0.0497 -0.0888 -0.0777
 6971SOL    HW132546   1.073   4.221   9.359  2.0048 -2.5079 -3.1509
 6971SOL    HW232547   1.155   4.123   9.433  1.2199  0.5896  3.0652
 6972SOL     OW32548   1.744   1.615   8.151 -0.1608 -0.3250 -0.9402
 6972SOL    HW132549   1.779   1.549   8.091  3.3320  0.4560  0.2890
 6972SOL    HW232550   1.807   1.684   8.134  0.4216 -0.8223 -0.8113
 6973SOL     OW32551   3.132   3.997  10.745  0.7016  0.3169 -0.0516
 6973SOL    HW132552   3.203   3.976  10.685  1.2559  0.3239  0.6090
 6973SOL    HW232553   3.164   3.968  10.830 -0.2247  0.4378  0.3454
 6974SOL     OW32554   4.657   3.431   8.647 -0.8379  0.0815  0.8909
 6974SOL    HW132555   4.619   3.450   8.733  1.8231 -1.8060  2.5234
 6974SOL    HW232556   0.012   3.418   8.666 -1.0353 -2.6016  0.0040
 6975SOL     OW32557   2.938   3.109  12.611  0.3222  0.3427 -0.0384
 6975SOL    HW132558   2.995   3.035  12.632 -1.3231 -0.4919  1.5303
 6975SOL    HW232559   2.999   3.182  12.617 -1.0345  1.6778 -2.1746
 6976SOL     OW32560   3.183   4.115   3.981  0.2275  0.2512  0.0721
 6976SOL    HW132561   3.213   4.203   4.006 -0.0907 -0.5000  3.0532
 6976SOL    HW232562   3.102   4.143   3.939  0.6111  0.0874 -0.7733
 6977SOL     OW32563   3.498   2.378   7.714 -0.4214 -0.0150  0.2242
 6977SOL    HW132564   3.546   2.456   7.742 -1.0354  0.0999  0.9722
 6977SOL    HW232565   3.560   2.314   7.748 -0.0697  0.3709  0.3054
 6978SOL     OW32566   4.634   4.454   9.226  0.6908  0.2670 -0.0583
 6978SOL    HW132567   4.631   4.484   9.317 -0.9748 -0.5592  0.1529
 6978SOL    HW232568   4.726   4.469   9.202  0.8860  0.7602  0.9979
 6979SOL     OW32569   3.953   0.095   4.074 -0.6233  0.6435  0.7051
 6979SOL    HW132570   3.954   0.126   4.164  0.7372 -1.3086  1.3703
 6979SOL    HW232571   4.048   0.082   4.067 -1.1420 -1.2162 -2.9604
 6980SOL     OW32572   2.065   2.889  13.201 -0.3304 -0.5877  0.2074
 6980SOL    HW132573   2.098   2.870  13.114  0.2195 -1.8107  0.6726
 6980SOL    HW232574   2.093   2.979  13.219  0.3737 -1.0804  1.5821
 6981SOL     OW32575   2.931   1.403   6.983  0.2635 -0.8507 -0.0486
 6981SOL    HW132576   3.026   1.413   6.994  0.2894  0.9170 -1.9063
 6981SOL    HW232577   2.901   1.420   7.072 -0.9158  1.4967 -0.8917
 6982SOL     OW32578   4.681   3.899  10.204 -0.3702  0.6201  0.1323
 6982SOL    HW132579   4.656   3.971  10.262 -0.2127  1.9700 -1.4780
 6982SOL    HW232580   4.600   3.861  10.170 -0.0910 -0.6924  0.9375
 6983SOL     OW32581   1.743   1.214   7.650 -0.4007  0.4974  0.2642
 6983SOL    HW132582   1.727   1.159   7.727 -2.8175  0.9850  0.1053
 6983SOL    HW232583   1.783   1.152   7.589  0.8416 -1.3142  2.8799
 6984SOL     OW32584   4.210   4.362   2.911 -0.1920 -0.0482  0.0899
 6984SOL    HW132585   4.262   4.371   2.991 -0.1554 -1.0584  0.1826
 6984SOL    HW232586   4.204   4.267   2.899  0.8956 -0.2701  1.3435
 6985SOL     OW32587   3.585   3.644   2.409  0.3173  0.1127 -0.3030
 6985SOL    HW132588   3.673   3.609   2.421  0.1487 -0.7315 -1.5914
 6985SOL    HW232589   3.611   3.733   2.387  2.3493 -0.3025  0.4185
 6986SOL     OW32590   3.754   3.576   6.016  0.9472 -0.3155  0.6026
 6986SOL    HW132591   3.675   3.567   6.069 -0.1698 -0.8524 -1.1804
 6986SOL    HW232592   3.744   3.498   5.962 -0.4980 -0.8706  1.6940
 6987SOL     OW32593   1.018   0.161  13.484  0.3094  0.1501  0.1651
 6987SOL    HW132594   1.070   0.081  13.487 -1.7663 -1.2380 -0.1852
 6987SOL    HW232595   1.074   0.230  13.448  2.7158 -1.5369  0.6958
 6988SOL     OW32596   3.888   1.462   3.442  0.5484 -0.7021  0.1254
 6988SOL    HW132597   3.912   1.534   3.384 -0.7843 -0.0135  0.4356
 6988SOL    HW232598   3.865   1.514   3.518 -1.5181 -0.9567 -0.3346
 6989SOL     OW32599   1.697   0.867   2.915  0.4018 -0.0185  0.1159
 6989SOL    HW132600   1.656   0.802   2.972  1.5870 -1.6131 -0.8291
 6989SOL    HW232601   1.624   0.910   2.871  1.7148  0.7627 -1.3101
 6990SOL     OW32602   4.710   4.633   6.578  0.1274 -0.2183 -0.3549
 6990SOL    HW132603   4.684   4.546   6.548  2.5267 -1.7759  2.0661
 6990SOL    HW232604   0.066   4.621   6.594 -0.1821 -1.7060  0.3635
 6991SOL     OW32605   3.581   0.095  15.569  0.0220  0.7258 -0.4878
 6991SOL    HW132606   3.565   0.120  15.660  3.3546 -2.9195  1.1568
 6991SOL    HW232607   3.520   0.148  15.519 -1.6760 -0.7697  0.0122
 6992SOL     OW32608   3.959   4.001   5.441 -0.0488  0.4600  0.3277
 6992SOL    HW132609   3.899   4.025   5.370 -0.9793 -1.5317  0.4529
 6992SOL    HW232610   3.930   4.063   5.508 -1.7432 -0.4194  0.4064
 6993SOL     OW32611   4.534   0.210   4.927  0.2755  0.6152  0.1849
 6993SOL    HW132612   4.556   0.267   5.000 -1.3105  1.4774 -0.0042
 6993SOL    HW232613   4.460   0.161   4.962  2.5243 -1.7250  1.7359
 6994SOL     OW32614   4.130   1.380   8.924  0.3820 -0.0107 -0.4615
 6994SOL    HW132615   4.186   1.304   8.941  0.4376 -0.0147 -0.6579
 6994SOL    HW232616   4.126   1.378   8.829 -1.2395 -0.8494 -0.3747
 6995SOL     OW32617   2.072   4.393   3.788  0.2680 -0.5340 -0.6902
 6995SOL    HW132618   2.164   4.407   3.810 -0.8548  2.2018  2.2642
 6995SOL    HW232619   2.027   4.412   3.870  0.2194 -0.2085 -0.7913
 6996SOL     OW32620   4.719   3.772  14.153  0.5666  0.3623 -0.1915
 6996SOL    HW132621   4.663   3.740  14.224 -1.0247 -0.4958 -1.8347
 6996SOL    HW232622   4.663   3.780  14.076  3.2558 -1.4911 -2.3432
 6997SOL     OW32623   2.588   0.153  14.424 -0.0731 -0.4157 -0.1150
 6997SOL    HW132624   2.637   0.149  14.342  0.5532  0.6837  0.2071
 6997SOL    HW232625   2.619   0.076  14.471  0.0787 -1.4776 -1.9604
 6998SOL     OW32626   1.162   4.130   9.071  0.2013 -0.4135 -0.2471
 6998SOL    HW132627   1.125   4.095   8.990 -2.8698  2.5601 -0.1241
 6998SOL    HW232628   1.084   4.149   9.124  0.7731 -0.7941  0.7430
 6999SOL     OW32629   2.267   3.991   2.221  0.6610 -0.4273  0.3456
 6999SOL    HW132630   2.356   4.011   2.192  0.4958  1.0388  0.8287
 6999SOL    HW232631   2.287   3.913   2.271  0.5280 -0.5414  0.2211
 7000SOL     OW32632   0.505   0.911   8.977 -0.5690 -0.3644  0.2325
 7000SOL    HW132633   0.558   0.980   9.017 -0.9703  0.7110 -1.1264
 7000SOL    HW232634   0.564   0.860   8.922 -0.0779 -0.2040  0.6052
 7001SOL     OW32635   1.465   0.127   1.632  0.1527 -0.4416 -0.1892
 7001SOL    HW132636   1.393   0.067   1.655  0.7805 -1.4890 -0.9607
 7001SOL    HW232637   1.404   0.200   1.619 -0.0898 -0.6489 -0.2303
 7002SOL     OW32638   3.985   3.845   7.367 -0.1467 -0.1520  0.1452
 7002SOL    HW132639   3.942   3.772   7.411 -1.4638  0.9181  0.6180
 7002SOL    HW232640   3.910   3.890   7.327  0.2027 -0.4605 -0.8763
 7003SOL     OW32641   1.426   1.945  10.230 -0.4406  0.0118  0.1361
 7003SOL    HW132642   1.360   1.882  10.201  0.5813 -0.2556 -1.6217
 7003SOL    HW232643   1.509   1.908  10.201  1.5646  2.0329  3.2923
 7004SOL     OW32644   1.253   0.876   8.162 -0.4469 -0.1733  0.7344
 7004SOL    HW132645   1.225   0.949   8.216  1.1605  1.8270 -1.1665
 7004SOL    HW232646   1.308   0.832   8.227  2.3486 -0.1748 -1.6028
 7005SOL     OW32647   3.921   3.809  10.903 -0.3995  0.3727 -0.3099
 7005SOL    HW132648   3.996   3.860  10.932 -1.9157  1.3076  2.0552
 7005SOL    HW232649   3.899   3.842  10.816 -2.4456  0.8958  0.3897
 7006SOL     OW32650   4.005   1.758   5.709 -0.0777  0.3327 -0.1898
 7006SOL    HW132651   4.092   1.783   5.679  0.0865  0.0148  0.0182
 7006SOL    HW232652   3.994   1.666   5.683 -0.4452  0.2598  0.2244
 7007SOL     OW32653   4.633   0.389   4.050 -0.2469  0.2090  0.1041
 7007SOL    HW132654   4.720   0.391   4.088 -0.6408  2.0707  0.9035
 7007SOL    HW232655   4.642   0.338   3.969  1.0086  0.2672  0.2146
 7008SOL     OW32656   2.027   1.385   5.797  0.6015  0.8696 -0.0908
 7008SOL    HW132657   2.096   1.405   5.860  0.4830  0.3304  0.2017
 7008SOL    HW232658   1.954   1.412   5.851 -0.3689 -0.6489 -0.6298
 7009SOL     OW32659   2.032   2.086   5.168 -0.1161 -0.0965 -0.1674
 7009SOL    HW132660   1.968   2.073   5.238  0.1010 -0.1042  0.0319
 7009SOL    HW232661   1.983   2.082   5.086  0.4279 -2.3705 -0.3807
 7010SOL     OW32662   4.137   3.885   6.698  0.2418 -0.1453 -0.1794
 7010SOL    HW132663   4.190   3.807   6.716  0.6257  0.1985  0.1923
 7010SOL    HW232664   4.073   3.850   6.636 -0.8448  2.6326 -0.6142
 7011SOL     OW32665   3.250   2.730   9.702 -0.3995  0.3870 -0.6511
 7011SOL    HW132666   3.181   2.758   9.761  0.7822 -1.7131  1.7474
 7011SOL    HW232667   3.271   2.809   9.653 -1.5751  0.7713 -0.5235
 7012SOL     OW32668   1.259   0.639   7.332 -0.3090 -0.2217  0.4061
 7012SOL    HW132669   1.354   0.647   7.343 -0.1597 -1.8574  0.2991
 7012SOL    HW232670   1.229   0.597   7.413 -0.4080  1.6360  1.3322
 7013SOL     OW32671   2.023   0.175   2.009  0.2109  0.0699  0.3016
 7013SOL    HW132672   2.092   0.172   2.075  1.4395 -0.2741 -1.0070
 7013SOL    HW232673   2.065   0.239   1.952  2.2949  0.2186  2.0150
 7014SOL     OW32674   2.099   2.416   2.353 -0.6052 -0.1838 -0.2260
 7014SOL    HW132675   2.092   2.473   2.429  1.1917  0.5181 -0.5942
 7014SOL    HW232676   2.024   2.356   2.361 -1.2406  0.5342 -0.7532
 7015SOL     OW32677   4.122   2.565   6.222  0.4166  0.5779 -0.0727
 7015SOL    HW132678   4.205   2.529   6.255 -0.1256  0.9081  1.6389
 7015SOL    HW232679   4.149   2.599   6.136  1.1401 -1.5839 -0.7023
 7016SOL     OW32680   0.903   1.710   7.674  0.0584 -0.3381  0.1840
 7016SOL    HW132681   0.841   1.640   7.696  0.7983 -1.1720 -0.3554
 7016SOL    HW232682   0.959   1.667   7.609 -0.0080  2.5517 -1.8031
 7017SOL     OW32683   2.565   0.791   5.726  0.3132 -0.1694 -0.3643
 7017SOL    HW132684   2.533   0.798   5.816  0.3299  1.8458 -0.5194
 7017SOL    HW232685   2.659   0.788   5.742  0.3621 -0.1656 -0.6689
 7018SOL     OW32686   1.891   3.025   9.736 -0.1492 -0.0711  0.2888
 7018SOL    HW132687   1.833   2.951   9.720 -0.8497 -0.1443  3.1387
 7018SOL    HW232688   1.855   3.085   9.672 -0.3268 -0.0521  0.4057
 7019SOL     OW32689   0.821   0.108   3.468  0.6395 -0.7298  0.2120
 7019SOL    HW132690   0.738   0.117   3.422 -0.2731 -3.2727  1.4022
 7019SOL    HW232691   0.868   0.180   3.425 -3.3432  1.2007 -0.8779
 7020SOL     OW32692   0.466   4.020   1.437 -0.4904  0.1380 -0.1986
 7020SOL    HW132693   0.426   3.934   1.429 -1.7538  0.7008  0.1448
 7020SOL    HW232694   0.504   4.023   1.524 -0.5454 -1.3949 -0.1299
 7021SOL     OW32695   1.257   0.440   8.675  0.2564  0.2937  0.1042
 7021SOL    HW132696   1.236   0.367   8.617 -2.3498  0.7866  0.4429
 7021SOL    HW232697   1.340   0.478   8.645 -1.3560  2.1404 -2.0605
 7022SOL     OW32698   2.956   3.541   4.640  0.7817 -0.3197  0.5053
 7022SOL    HW132699   2.964   3.556   4.546 -0.9364 -0.1358  0.3882
 7022SOL    HW232700   2.982   3.624   4.680  1.7392 -1.4769  2.3267
 7023SOL     OW32701   3.746   3.030   4.701 -0.7107 -0.9323  0.1064
 7023SOL    HW132702   3.715   2.947   4.664  1.2859 -2.0657  1.0148
 7023SOL    HW232703   3.712   3.028   4.790  0.2161 -0.3875  0.4635
 7024SOL     OW32704   3.130   2.224   1.836 -0.3276 -0.2432 -0.3862
 7024SOL    HW132705   3.073   2.230   1.913 -1.0675 -2.0310 -0.8043
 7024SOL    HW232706   3.160   2.314   1.821 -1.2019  0.6264  2.9515
 7025SOL     OW32707   3.989   2.759  16.773 -0.2116 -0.2640  0.3883
 7025SOL    HW132708   3.937   2.781  16.850 -0.2752 -1.5531  0.7212
 7025SOL    HW232709   3.924   2.709  16.723  1.3773 -1.2738 -0.6683
 7026SOL     OW32710   0.791   3.539  11.393 -0.8139 -0.5042  0.3849
 7026SOL    HW132711   0.703   3.577  11.393 -1.5419 -2.1904  1.6363
 7026SOL    HW232712   0.773   3.455  11.349  1.0500 -1.0663  0.6970
 7027SOL     OW32713   4.440   3.093  16.076 -0.3038  0.2668  0.5756
 7027SOL    HW132714   4.384   3.023  16.107  0.2235 -0.2591  0.3446
 7027SOL    HW232715   4.377   3.159  16.046 -0.4961  0.0423  0.4885
 7028SOL     OW32716   1.916   1.188   4.486  0.8979 -0.2918 -0.4970
 7028SOL    HW132717   2.006   1.176   4.515  0.7660 -1.9936 -0.8258
 7028SOL    HW232718   1.898   1.102   4.449  0.1145 -0.9703  1.4665
 7029SOL     OW32719   1.804   0.970   7.478  0.2697 -0.3555  0.4451
 7029SOL    HW132720   1.821   1.040   7.415  2.1967  1.1207  2.6002
 7029SOL    HW232721   1.737   0.917   7.434  3.0567 -2.5277 -1.2478
 7030SOL     OW32722   3.801   2.617  13.054  0.8532  0.5963 -0.2939
 7030SOL    HW132723   3.735   2.548  13.063 -0.1694  1.3560 -1.9111
 7030SOL    HW232724   3.881   2.578  13.089  0.6129 -1.1293 -1.6641
 7031SOL     OW32725   4.425   0.529   4.118  0.3893 -0.5292 -0.0319
 7031SOL    HW132726   4.441   0.624   4.113 -0.3086 -0.3217  1.6813
 7031SOL    HW232727   4.497   0.493   4.066  0.6514 -0.7530  0.4924
 7032SOL     OW32728   3.488   2.342  12.451 -0.7064 -0.1092 -0.3114
 7032SOL    HW132729   3.443   2.273  12.402 -1.3864  0.6267 -0.7395
 7032SOL    HW232730   3.573   2.301  12.463 -0.3454  0.3203 -1.3673
 7033SOL     OW32731   2.068   3.032   8.969 -0.2008 -0.6856 -0.0599
 7033SOL    HW132732   2.160   3.014   8.948  0.6844  1.8972  1.5457
 7033SOL    HW232733   2.059   2.984   9.052  1.9972 -0.6280  0.2291
 7034SOL     OW32734   2.165   4.460   9.307  0.4681  0.3672 -0.8439
 7034SOL    HW132735   2.084   4.411   9.289  0.5691 -0.1656  0.1889
 7034SOL    HW232736   2.233   4.394   9.293  0.7938  0.1186  2.0530
 7035SOL     OW32737   4.705   3.199   3.903 -0.0616 -0.3413 -0.0599
 7035SOL    HW132738   4.668   3.135   3.842  0.1626  1.8586 -2.4914
 7035SOL    HW232739   0.060   3.199   3.882  0.4684 -1.0646  2.2603
 7036SOL     OW32740   1.644   2.111  10.940 -0.3927 -0.0502 -0.9533
 7036SOL    HW132741   1.712   2.112  10.873 -0.9939  0.8074 -1.5481
 7036SOL    HW232742   1.690   2.064  11.010 -0.9626  0.4589 -0.2361
 7037SOL     OW32743   0.994   3.206   3.381 -0.0303 -0.5427  0.0770
 7037SOL    HW132744   0.950   3.131   3.421  0.9499 -1.3331 -0.3264
 7037SOL    HW232745   1.053   3.232   3.452 -0.8135  1.6043 -0.0597
 7038SOL     OW32746   4.103   3.874   2.983  0.1721  0.1570  0.0999
 7038SOL    HW132747   4.080   3.797   3.035 -0.6112 -0.2991 -0.9266
 7038SOL    HW232748   4.103   3.946   3.046  1.5361  1.1835 -1.0923
 7039SOL     OW32749   1.816   0.430   9.118 -0.0997  0.3835  0.2443
 7039SOL    HW132750   1.749   0.361   9.126  0.6194 -0.3202  0.2110
 7039SOL    HW232751   1.862   0.426   9.202  0.0158 -0.5778  0.1422
 7040SOL     OW32752   4.047   0.711   2.870  0.1477 -0.0216 -0.2068
 7040SOL    HW132753   4.033   0.692   2.777  2.6687  1.2215 -0.8391
 7040SOL    HW232754   4.138   0.683   2.880  0.1873 -0.3699 -1.4675
 7041SOL     OW32755   1.587   4.023  14.656  0.7861  0.2324  0.2482
 7041SOL    HW132756   1.637   4.104  14.650 -2.1116  2.0023 -0.3900
 7041SOL    HW232757   1.588   3.997  14.564  1.2904  0.3923  0.2059
 7042SOL     OW32758   4.509   2.883   3.256  0.7770 -0.3440 -0.1514
 7042SOL    HW132759   4.467   2.931   3.185  1.3516  1.5816  0.8186
 7042SOL    HW232760   4.511   2.959   3.313  0.0731  0.2283 -0.8849
 7043SOL     OW32761   3.873   1.972  15.062  0.0466  0.2983 -1.1154
 7043SOL    HW132762   3.927   1.894  15.073 -1.7128 -1.0705 -2.1674
 7043SOL    HW232763   3.930   2.041  15.095 -1.6437 -0.2865  3.0088
 7044SOL     OW32764   3.206   4.005   6.240 -0.0996 -0.2193 -0.8394
 7044SOL    HW132765   3.198   3.942   6.312  1.5682  1.3099  0.6630
 7044SOL    HW232766   3.164   4.082   6.278 -0.7698 -1.4319  0.9055
 7045SOL     OW32767   1.530   2.184  13.334  0.7594  0.5907 -0.1273
 7045SOL    HW132768   1.501   2.270  13.303  0.4248  1.7035  3.2612
 7045SOL    HW232769   1.506   2.131  13.258 -1.9012  0.5727  0.7251
 7046SOL     OW32770   4.644   1.579   8.492  0.0355  0.1044  0.1302
 7046SOL    HW132771   4.683   1.492   8.497 -0.1150  0.0182 -0.1978
 7046SOL    HW232772   4.673   1.607   8.579  0.5944 -0.9452  0.2708
 7047SOL     OW32773   1.145   4.040  10.006 -0.0568 -0.9202  0.3280
 7047SOL    HW132774   1.199   4.076  10.077  0.3529  0.2334 -0.5782
 7047SOL    HW232775   1.065   4.090  10.023 -0.3374 -0.7629 -1.4450
 7048SOL     OW32776   0.184   1.613   3.133 -0.0842 -0.1417 -0.4134
 7048SOL    HW132777   0.200   1.605   3.227  0.1621  1.1235 -0.3545
 7048SOL    HW232778   0.276   1.605   3.108  0.0715 -1.8346  0.6733
 7049SOL     OW32779   3.033   0.697   6.594  0.2228  0.8434 -0.3082
 7049SOL    HW132780   3.006   0.651   6.514  0.9658 -1.9051  1.0067
 7049SOL    HW232781   2.949   0.735   6.618 -0.2729  0.3380 -1.2562
 7050SOL     OW32782   0.373   0.380   7.949  0.8056  0.5176 -0.6023
 7050SOL    HW132783   0.410   0.315   8.009  1.2480  0.9487 -0.4123
 7050SOL    HW232784   0.309   0.325   7.903  0.5343 -0.2499  0.6780
 7051SOL     OW32785   2.819   0.358   7.035  0.2338  0.0977  0.2301
 7051SOL    HW132786   2.872   0.280   7.016  0.0693  0.3003 -1.0315
 7051SOL    HW232787   2.865   0.413   7.098 -1.3616  0.2647  1.2584
 7052SOL     OW32788   0.257   0.129  10.753  0.4160  0.1568  0.6815
 7052SOL    HW132789   0.274   0.181  10.674 -1.0270 -1.3157 -0.5912
 7052SOL    HW232790   0.204   0.195  10.798 -1.2923 -0.2505 -0.7326
 7053SOL     OW32791   0.775   2.777  14.379 -0.5772 -0.1208  0.1641
 7053SOL    HW132792   0.764   2.864  14.340  2.2071 -0.0516 -0.4556
 7053SOL    HW232793   0.794   2.725  14.301  3.0094  0.0874  0.8887
 7054SOL     OW32794   0.776   3.449  13.482 -0.5198  0.1304  0.5481
 7054SOL    HW132795   0.686   3.473  13.503 -0.4396  1.0263 -0.1293
 7054SOL    HW232796   0.827   3.524  13.511  0.2701  0.4009 -1.5117
 7055SOL     OW32797   3.658   1.401   1.783 -0.6124  0.0071  0.1676
 7055SOL    HW132798   3.581   1.347   1.766 -0.5654 -0.2814  0.8883
 7055SOL    HW232799   3.711   1.390   1.705 -1.3953  0.0523 -0.3772
 7056SOL     OW32800   1.486   1.505   6.654  0.0558 -0.2058  0.1601
 7056SOL    HW132801   1.441   1.424   6.677 -0.3197 -0.0541 -0.0405
 7056SOL    HW232802   1.438   1.566   6.710  1.5076  0.6694  0.4406
 7057SOL     OW32803   2.800   3.540   5.782  0.4310  0.2091  0.0599
 7057SOL    HW132804   2.771   3.517   5.694 -0.9247 -1.4580  0.9234
 7057SOL    HW232805   2.753   3.623   5.793  0.7512  0.2634  1.0137
 7058SOL     OW32806   0.603   0.450   4.645 -0.9574 -0.0888  0.0199
 7058SOL    HW132807   0.540   0.509   4.687  0.1013  0.6837  0.5226
 7058SOL    HW232808   0.572   0.368   4.682 -2.6871 -0.2429 -1.7608
 7059SOL     OW32809   1.154   1.636  12.823  0.4819 -0.0061  0.2684
 7059SOL    HW132810   1.249   1.644  12.832  0.6650 -1.1908 -0.5472
 7059SOL    HW232811   1.136   1.687  12.744 -1.5425 -4.9694 -2.4738
 7060SOL     OW32812   4.386   0.376  13.316  0.0477  0.2670 -0.2247
 7060SOL    HW132813   4.440   0.345  13.389 -2.0200 -2.7041  0.0658
 7060SOL    HW232814   4.415   0.466  13.309 -1.5982  0.6571 -1.8131
 7061SOL     OW32815   4.431   0.647   7.814  0.1787  0.0153  0.0572
 7061SOL    HW132816   4.425   0.648   7.910 -1.8345 -2.0256 -0.0414
 7061SOL    HW232817   4.502   0.583   7.808 -0.0313 -0.2827  0.7758
 7062SOL     OW32818   4.020   2.411   8.392 -0.2975 -0.0801 -0.0380
 7062SOL    HW132819   4.099   2.464   8.404 -2.2125  2.4037  1.4557
 7062SOL    HW232820   3.996   2.384   8.480  0.0091  2.4756  0.8131
 7063SOL     OW32821   1.813   1.502   7.258  0.2273 -0.4295 -1.1587
 7063SOL    HW132822   1.737   1.559   7.268 -0.5616 -1.4381 -1.4376
 7063SOL    HW232823   1.792   1.423   7.308 -0.8813  0.1581 -0.6985
 7064SOL     OW32824   0.319   4.669   2.011 -0.0490  0.2370 -0.1116
 7064SOL    HW132825   0.308   0.020   2.046 -1.2610 -0.0255  0.1655
 7064SOL    HW232826   0.271   4.612   2.070  0.7508  0.1849  0.4949
 7065SOL     OW32827   2.716   3.829  15.305  0.6756 -0.4996 -0.0533
 7065SOL    HW132828   2.703   3.802  15.396  0.8649 -0.8335 -0.1263
 7065SOL    HW232829   2.626   3.826  15.272  1.1417 -0.5246 -1.3414
 7066SOL     OW32830   0.881   0.660   9.887 -0.3313  0.3934 -0.0424
 7066SOL    HW132831   0.915   0.689   9.972  0.9862  0.1418 -0.4970
 7066SOL    HW232832   0.880   0.568   9.914 -0.6441  0.5696  0.5428
 7067SOL     OW32833   1.908   0.788   8.873  0.1414 -0.0738  0.2191
 7067SOL    HW132834   1.975   0.830   8.820 -0.6028  1.7612  0.7457
 7067SOL    HW232835   1.879   0.859   8.931 -0.3667 -0.6073  0.6211
 7068SOL     OW32836   1.976   1.285  13.430 -0.0394  0.2650  0.1909
 7068SOL    HW132837   2.043   1.351  13.415  2.3905 -2.5321 -1.2716
 7068SOL    HW232838   2.021   1.207  13.397  1.0995  0.3674  1.5257
 7069SOL     OW32839   1.135   2.917   3.564 -0.5028  0.7765 -0.2640
 7069SOL    HW132840   1.157   2.854   3.633 -1.8956 -0.1168 -0.6404
 7069SOL    HW232841   1.203   2.889   3.503  0.6478  1.0924  0.8706
 7070SOL     OW32842   1.817   1.733   6.082 -0.1844  0.5014  0.1081
 7070SOL    HW132843   1.878   1.776   6.142  0.2810  2.6651 -1.9573
 7070SOL    HW232844   1.763   1.810   6.064  1.4790  1.0846 -2.3327
 7071SOL     OW32845   0.229   2.160   4.371 -0.4177 -0.9638 -0.1268
 7071SOL    HW132846   0.136   2.176   4.390  0.2122  2.9763 -0.4231
 7071SOL    HW232847   0.224   2.147   4.276 -0.0686 -0.7996 -0.1662
 7072SOL     OW32848   0.978   0.259   1.264  0.1476  0.1960 -0.2401
 7072SOL    HW132849   1.012   0.183   1.217  0.0747 -0.1979  0.3509
 7072SOL    HW232850   0.982   0.236   1.356 -0.5441 -2.9259 -0.9853
 7073SOL     OW32851   1.832   0.036   8.841  0.1353 -0.2433 -0.6293
 7073SOL    HW132852   1.866   4.705   8.784  1.1334 -0.1434 -0.1532
 7073SOL    HW232853   1.905   0.035   8.903 -0.9157  0.4728  0.6172
 7074SOL     OW32854   1.010   2.166  11.736  0.4701  0.8732 -0.2110
 7074SOL    HW132855   1.047   2.162  11.824 -1.3817 -1.5297  0.4842
 7074SOL    HW232856   1.083   2.218  11.706  1.0987 -1.0318 -1.9755
 7075SOL     OW32857   1.065   4.009   9.732  0.2554 -0.6251 -0.5818
 7075SOL    HW132858   1.108   4.030   9.815  3.0865  0.9582 -2.4758
 7075SOL    HW232859   1.057   4.096   9.694  0.3243 -0.6530 -0.6591
 7076SOL     OW32860   1.915   3.697   6.294 -0.1651  0.2423 -0.0865
 7076SOL    HW132861   1.922   3.661   6.206 -0.4723 -3.4259  1.3775
 7076SOL    HW232862   1.997   3.746   6.303 -0.6412  1.2892 -1.4957
 7077SOL     OW32863   3.089   3.401   1.137 -1.0779 -0.4306  0.3510
 7077SOL    HW132864   3.097   3.344   1.060 -0.3877  2.2430 -1.5769
 7077SOL    HW232865   3.168   3.455   1.141 -2.0813  0.8503  2.6867
 7078SOL     OW32866   0.627   2.158  13.156 -0.1476  0.1108  0.0920
 7078SOL    HW132867   0.685   2.216  13.205 -1.1798  2.3529 -1.3379
 7078SOL    HW232868   0.561   2.226  13.141  0.8451  0.7943 -1.0763
 7079SOL     OW32869   3.239   4.690  12.488 -0.5795 -0.1819 -0.1222
 7079SOL    HW132870   3.266   4.713  12.399  1.7741  0.0782  0.6723
 7079SOL    HW232871   3.321   4.680  12.536 -0.8186  0.8476  0.4891
 7080SOL     OW32872   4.126   3.506   4.346  0.1119 -0.0600  0.4357
 7080SOL    HW132873   4.081   3.523   4.263  0.5839 -0.7010  0.0484
 7080SOL    HW232874   4.214   3.477   4.321  0.1498 -0.1026  0.6186
 7081SOL     OW32875   4.477   3.401  17.274 -0.0071  0.8180 -0.1888
 7081SOL    HW132876   4.506   3.358  17.354 -0.9219  0.7227  0.0907
 7081SOL    HW232877   4.383   3.395  17.289 -0.1193  1.4667 -0.6594
 7082SOL     OW32878   1.211   1.162   7.447 -0.7158 -0.2187  0.4926
 7082SOL    HW132879   1.201   1.133   7.356 -1.6080 -1.9609  1.1589
 7082SOL    HW232880   1.151   1.112   7.502 -0.2167 -1.3760 -0.0190
 7083SOL     OW32881   4.353   4.583   2.787 -0.2793 -0.0581  0.7048
 7083SOL    HW132882   4.320   4.521   2.853  0.3368 -0.5438  0.5496
 7083SOL    HW232883   4.394   4.655   2.834  2.2074 -1.3354  0.4747
 7084SOL     OW32884   2.133   3.628  12.211  0.1130  0.5807  0.0332
 7084SOL    HW132885   2.212   3.574  12.210 -0.3552 -0.1154  0.6085
 7084SOL    HW232886   2.136   3.668  12.298  0.7432 -0.3050  0.4160
 7085SOL     OW32887   2.295   1.896   1.575  0.6929 -0.8705 -0.4998
 7085SOL    HW132888   2.221   1.864   1.524 -1.7799  1.7315  1.4108
 7085SOL    HW232889   2.285   1.991   1.570  1.2992 -0.9011 -2.1734
 7086SOL     OW32890   3.766   1.677   4.752 -0.1472  0.1143 -0.3183
 7086SOL    HW132891   3.860   1.660   4.749  0.3559  2.3518  2.3531
 7086SOL    HW232892   3.731   1.621   4.822 -1.3477  0.2564 -0.8098
 7087SOL     OW32893   0.948   2.035   8.177  0.4143 -0.5967  0.1381
 7087SOL    HW132894   1.042   2.020   8.165  0.4076  1.4269 -2.5953
 7087SOL    HW232895   0.948   2.057   8.270 -1.0256  0.7068 -0.1664
 7088SOL     OW32896   0.552   2.988   2.654 -0.0350  0.0386  0.2058
 7088SOL    HW132897   0.535   3.064   2.710  0.4993  0.6059 -0.3922
 7088SOL    HW232898   0.550   3.033   2.570  2.5623  0.9268  0.6185
 7089SOL     OW32899   2.868   1.853   7.586  0.0575  0.4235 -0.0626
 7089SOL    HW132900   2.890   1.798   7.661  0.3077  0.9004  0.2187
 7089SOL    HW232901   2.936   1.918   7.604 -0.6649  0.7697  1.4508
 7090SOL     OW32902   2.038   3.718  10.096  0.4232  0.4209 -0.4398
 7090SOL    HW132903   2.080   3.633  10.108  0.8900  0.3543 -2.5029
 7090SOL    HW232904   1.965   3.687  10.150  1.6957 -1.5923  0.1088
 7091SOL     OW32905   3.088   1.196   3.134  0.0934 -0.2252  0.0579
 7091SOL    HW132906   3.167   1.242   3.104  1.1764 -1.8212  0.4088
 7091SOL    HW232907   3.031   1.262   3.172  0.4112  0.2736 -0.3238
 7092SOL     OW32908   2.083   2.292   3.378  0.1669  0.2932 -0.0778
 7092SOL    HW132909   2.126   2.318   3.459 -1.4021  0.1022  0.8083
 7092SOL    HW232910   2.149   2.250   3.323 -1.0574 -1.8918  0.0936
 7093SOL     OW32911   2.438   1.751   6.868  0.0236  0.3404 -0.3094
 7093SOL    HW132912   2.441   1.655   6.872 -0.0063  0.4588  2.6939
 7093SOL    HW232913   2.439   1.760   6.963  0.7978  0.7181 -0.3552
 7094SOL     OW32914   0.105   4.051   5.401 -0.2206 -0.0124 -0.0140
 7094SOL    HW132915   0.013   4.029   5.385 -0.4083  1.5746 -1.1883
 7094SOL    HW232916   0.146   4.055   5.315  0.3828 -1.4594  0.2240
 7095SOL     OW32917   4.684   1.385  15.154 -0.0604 -0.6865  0.1812
 7095SOL    HW132918   4.640   1.301  15.172  0.2313 -0.7059  0.8082
 7095SOL    HW232919   0.006   1.362  15.083  1.7280 -0.2606  1.5641
 7096SOL     OW32920   0.188   1.595   9.227  0.3049  0.1788 -0.0922
 7096SOL    HW132921   0.280   1.571   9.216  0.0775 -2.4160  3.4702
 7096SOL    HW232922   0.167   1.614   9.135  0.2277 -1.4409 -0.4107
 7097SOL     OW32923   3.241   0.988   6.403  0.1306  0.4653 -0.0823
 7097SOL    HW132924   3.252   1.081   6.385 -0.6533  0.4916 -0.4282
 7097SOL    HW232925   3.148   0.988   6.379  0.4750  2.6563 -1.4418
 7098SOL     OW32926   3.025   2.740   8.025 -0.9860 -0.1153  0.0005
 7098SOL    HW132927   3.060   2.697   8.103  0.8023 -1.3053 -1.4559
 7098SOL    HW232928   3.093   2.807   8.016 -0.5414 -0.7548 -1.4807
 7099SOL     OW32929   2.034   4.600   1.772 -0.0790  0.1317 -0.2756
 7099SOL    HW132930   2.003   4.653   1.697 -0.1794  1.7297  0.8916
 7099SOL    HW232931   2.128   4.617   1.775  0.1277 -1.3946  1.6400
 7100SOL     OW32932   3.776   3.036   6.791  0.0096  0.1272 -0.1655
 7100SOL    HW132933   3.688   3.002   6.775 -0.2641  1.4551 -1.5255
 7100SOL    HW232934   3.794   2.995   6.875  1.0651 -1.3183 -1.1030
 7101SOL     OW32935   2.831   3.864   9.103  0.1328  0.0644  0.0639
 7101SOL    HW132936   2.796   3.945   9.140  1.3078  0.0023  1.3060
 7101SOL    HW232937   2.746   3.828   9.077  0.6600 -0.8588 -0.3703
 7102SOL     OW32938   0.775   0.523   6.968  0.1992 -0.2010 -0.0914
 7102SOL    HW132939   0.852   0.469   6.954 -0.5951 -1.0155 -1.2701
 7102SOL    HW232940   0.743   0.527   6.878 -1.3453 -0.9629  0.4199
 7103SOL     OW32941   0.071   0.401  15.123  0.1041 -0.8340 -0.0928
 7103SOL    HW132942   0.126   0.329  15.091 -1.3519 -0.8481 -2.5684
 7103SOL    HW232943   0.085   0.466  15.054  0.6606  0.6476  1.4265
 7104SOL     OW32944   0.285   2.499   8.624  0.1599 -0.2273  0.4628
 7104SOL    HW132945   0.227   2.483   8.550  1.6742  2.2450 -1.2414
 7104SOL    HW232946   0.276   2.422   8.680 -2.3076  1.6220  2.5807
 7105SOL     OW32947   0.472   3.564  16.928  0.2239  0.0560 -0.3619
 7105SOL    HW132948   0.501   3.475  16.909 -0.0572 -0.3239  1.0296
 7105SOL    HW232949   0.553   3.598  16.965  0.4866  2.9130 -3.5538
 7106SOL     OW32950   1.687   2.275   5.684  0.1707  0.5541 -0.1120
 7106SOL    HW132951   1.692   2.282   5.780  0.4542 -0.2191 -0.0746
 7106SOL    HW232952   1.767   2.223   5.677 -2.0094 -2.7962 -0.0446
 7107SOL     OW32953   4.026   0.566   5.609  0.4016 -0.1957  0.1718
 7107SOL    HW132954   4.023   0.476   5.576 -1.3003  0.5640 -1.7911
 7107SOL    HW232955   3.935   0.581   5.634  0.8851  0.0672  1.7277
 7108SOL     OW32956   3.064   3.667   8.841 -0.2524  0.1526  0.0049
 7108SOL    HW132957   3.143   3.618   8.818  1.3671  1.7296  2.3023
 7108SOL    HW232958   3.021   3.653   8.757 -0.0933 -0.2365 -0.0142
 7109SOL     OW32959   2.348   0.530   3.265  0.1900 -0.2259  0.1371
 7109SOL    HW132960   2.367   0.458   3.325  1.6422  1.5630  1.8532
 7109SOL    HW232961   2.367   0.475   3.189 -0.9121  0.0595 -0.3435
 7110SOL     OW32962   0.745   2.692   3.985 -0.4575 -0.3680  0.1605
 7110SOL    HW132963   0.680   2.677   3.917 -0.1737  3.3865 -0.9050
 7110SOL    HW232964   0.698   2.653   4.059 -0.6290  0.0420  0.2670
 7111SOL     OW32965   3.302   1.285   8.382 -0.3008  0.5715  0.2840
 7111SOL    HW132966   3.343   1.230   8.449  0.4072 -0.7823 -1.2482
 7111SOL    HW232967   3.261   1.354   8.434  3.7905  2.8858  0.4381
 7112SOL     OW32968   1.000   0.422   9.079  0.7263  0.0855 -0.0676
 7112SOL    HW132969   0.971   0.455   8.994 -0.2606  0.3451  0.3811
 7112SOL    HW232970   1.082   0.380   9.053  0.7512  0.9811 -1.4211
 7113SOL     OW32971   0.449   3.488   9.122  0.2520  0.3051 -0.5773
 7113SOL    HW132972   0.509   3.472   9.195  0.6452 -0.8001 -1.1393
 7113SOL    HW232973   0.411   3.571   9.150  1.3626  0.5584  0.1972
 7114SOL     OW32974   0.276   1.771   7.910 -0.1581 -0.8568  0.3788
 7114SOL    HW132975   0.308   1.851   7.951 -0.2192 -0.2873 -0.6796
 7114SOL    HW232976   0.355   1.726   7.879 -0.7830 -0.8662 -1.2130
 7115SOL     OW32977   1.528   0.307   9.664  0.4764 -1.0588  0.7216
 7115SOL    HW132978   1.606   0.284   9.714  1.0700 -0.0671  0.2313
 7115SOL    HW232979   1.466   0.239   9.693 -0.7999 -1.3092 -2.5472
 7116SOL     OW32980   3.403   0.618  12.773 -0.2162 -0.6866 -0.4179
 7116SOL    HW132981   3.441   0.633  12.686  1.8032 -2.1628  0.2010
 7116SOL    HW232982   3.474   0.562  12.804 -0.3547  0.2304  1.5308
 7117SOL     OW32983   1.136   2.498  16.686 -0.1260 -0.1587 -0.0247
 7117SOL    HW132984   1.228   2.473  16.690  0.4560  2.5808  2.7367
 7117SOL    HW232985   1.129   2.544  16.769 -2.9271 -2.6417  1.1082
 7118SOL     OW32986   4.388   0.624  14.385 -0.2037  0.5441  0.0219
 7118SOL    HW132987   4.460   0.562  14.399 -1.3794 -0.8252 -0.0477
 7118SOL    HW232988   4.327   0.560  14.349 -0.7981  0.7241  0.7305
 7119SOL     OW32989   2.448   1.459   6.935  0.0092 -1.0527 -0.3136
 7119SOL    HW132990   2.534   1.451   6.975  0.5286  1.2793 -0.9683
 7119SOL    HW232991   2.460   1.396   6.865  0.5284 -0.1787 -1.0164
 7120SOL     OW32992   1.758   0.646   7.996  0.6460  0.2893 -0.2118
 7120SOL    HW132993   1.669   0.680   8.007 -0.1801 -1.6736 -0.8225
 7120SOL    HW232994   1.799   0.701   7.930  1.6858  0.0642  0.2465
 7121SOL     OW32995   2.854   0.801   6.373 -0.1687  0.0257 -0.2975
 7121SOL    HW132996   2.762   0.802   6.399 -0.2379  0.3431 -0.5534
 7121SOL    HW232997   2.885   0.882   6.415 -0.5857  0.9383 -1.7164
 7122SOL     OW32998   3.560   4.075  12.213  0.6325 -0.7099 -0.4966
 7122SOL    HW132999   3.600   4.162  12.211 -0.3937 -0.1542  2.9455
 7122SOL    HW233000   3.613   4.038  12.284  0.9502 -0.9358 -0.8529
 7123SOL     OW33001   1.169   2.700  14.661  0.7932 -0.2363  0.5152
 7123SOL    HW133002   1.191   2.676  14.751  0.4039 -0.7217  0.4830
 7123SOL    HW233003   1.174   2.796  14.667  1.7557 -0.2152 -0.5572
 7124SOL     OW33004   0.305   4.296   1.784  0.4253 -0.0013 -0.7189
 7124SOL    HW133005   0.319   4.354   1.709 -1.1995 -0.6292 -1.5121
 7124SOL    HW233006   0.252   4.354   1.839 -1.3759 -1.2361 -1.1356
 7125SOL     OW33007   0.516   1.590   2.390 -0.0202  0.0743  0.4149
 7125SOL    HW133008   0.494   1.667   2.443 -0.6368 -1.1080  1.8680
 7125SOL    HW233009   0.479   1.614   2.305  1.5311 -0.5531 -0.4378
 7126SOL     OW33010   0.236   2.891   3.740 -0.2611 -0.3120 -1.1439
 7126SOL    HW133011   0.227   2.852   3.827 -2.1790 -1.8525 -2.0158
 7126SOL    HW233012   0.274   2.975   3.763 -0.3177 -0.2341 -1.3296
 7127SOL     OW33013   2.985   0.357   5.204 -0.2158  0.3292 -0.4757
 7127SOL    HW133014   3.021   0.298   5.270  1.1785  0.3360 -1.2247
 7127SOL    HW233015   2.892   0.333   5.207 -0.0400 -0.1666  0.7283
 7128SOL     OW33016   4.667   2.326   5.360  0.7263 -0.2778  0.9309
 7128SOL    HW133017   4.613   2.393   5.318 -0.0416 -0.8727  0.9703
 7128SOL    HW233018   0.009   2.328   5.309  0.1189  2.0357  0.0884
 7129SOL     OW33019   1.813   2.085   4.518 -0.6613 -0.0294  0.4311
 7129SOL    HW133020   1.783   2.166   4.478  1.8226  0.8573  0.3650
 7129SOL    HW233021   1.905   2.097   4.539 -1.2796  2.4970  1.5857
 7130SOL     OW33022   2.888   3.014  12.024  0.3409 -0.4931 -0.5797
 7130SOL    HW133023   2.957   2.961  11.984 -1.4871 -3.1359 -0.2745
 7130SOL    HW233024   2.916   3.005  12.115 -1.1798  1.4630  0.0822
 7131SOL     OW33025   3.330   1.297   3.082  0.2592  0.4077 -0.5454
 7131SOL    HW133026   3.342   1.321   3.174  2.5715  0.3165 -0.8300
 7131SOL    HW233027   3.413   1.261   3.054  0.5385  1.0727 -0.5688
 7132SOL     OW33028   0.007   0.493   2.502  0.7357 -0.2584  0.4394
 7132SOL    HW133029   4.699   0.525   2.424  0.7053  1.4539  1.1813
 7132SOL    HW233030   0.005   0.565   2.565  0.3776 -0.3132  0.4872
 7133SOL     OW33031   4.308   3.871   4.301 -0.1139 -0.7638 -0.7776
 7133SOL    HW133032   4.273   3.889   4.388  0.7212  2.1049 -1.0238
 7133SOL    HW233033   4.331   3.954   4.259 -0.6904 -0.8999 -1.3672
 7134SOL     OW33034   0.107   1.121   8.132  0.5387  0.1133 -0.0680
 7134SOL    HW133035   0.163   1.104   8.056 -1.4492  0.2717 -1.5595
 7134SOL    HW233036   0.032   1.063   8.124 -0.3247  0.9775  1.6871
 7135SOL     OW33037   0.491   2.279   7.370  0.2176  0.7502 -0.1634
 7135SOL    HW133038   0.474   2.349   7.433 -0.9515  0.4467 -0.1341
 7135SOL    HW233039   0.419   2.221   7.395 -0.8947  1.0804 -2.6417
 7136SOL     OW33040   3.528   2.868   3.719 -0.0363 -0.0587 -0.1037
 7136SOL    HW133041   3.486   2.827   3.794  0.5349  2.1018  1.3834
 7136SOL    HW233042   3.493   2.957   3.726 -1.4516 -0.8498  2.7044
 7137SOL     OW33043   1.050   4.648   4.639  0.1308  0.0992  0.1216
 7137SOL    HW133044   1.053   4.676   4.547  1.0561  1.9875  0.7083
 7137SOL    HW233045   1.002   4.567   4.626 -2.6574  1.4621  2.0670
 7138SOL     OW33046   4.240   4.707   5.599  0.1924 -0.2358  0.0562
 7138SOL    HW133047   4.246   4.672   5.511  0.3528 -1.5521  0.5881
 7138SOL    HW233048   4.218   0.059   5.574  2.1619  0.3184  0.3290
 7139SOL     OW33049   2.897   0.927   2.575 -0.4271 -0.6907  0.0980
 7139SOL    HW133050   2.927   0.840   2.548 -0.2554 -0.0299 -1.8786
 7139SOL    HW233051   2.984   0.961   2.593 -0.6581  1.6346 -3.2499
 7140SOL     OW33052   2.283   4.665   5.462 -0.2606  0.6801 -0.7897
 7140SOL    HW133053   2.373   4.698   5.470 -0.0204 -0.3898  0.8652
 7140SOL    HW233054   2.241   4.702   5.540 -2.0058 -1.3984 -0.7394
 7141SOL     OW33055   0.164   0.098  15.055  0.1571  0.1286 -0.0465
 7141SOL    HW133056   0.144   0.006  15.037 -0.7469 -0.2034  2.7319
 7141SOL    HW233057   0.257   0.087  15.036  0.1321  1.0947 -0.7609
 7142SOL     OW33058   3.609   3.343  16.524  0.1954  0.0152  0.4544
 7142SOL    HW133059   3.643   3.363  16.611 -0.3773  0.6748  0.5176
 7142SOL    HW233060   3.591   3.432  16.493  1.1453 -0.4983 -1.6313
 7143SOL     OW33061   1.758   1.501   9.274  0.9087 -0.3582  0.2555
 7143SOL    HW133062   1.760   1.494   9.369 -2.5858 -2.5058  0.1768
 7143SOL    HW233063   1.849   1.481   9.253  0.4250 -0.7063 -1.5208
 7144SOL     OW33064   0.436   0.065  13.641 -0.3902  0.0004 -0.5119
 7144SOL    HW133065   0.443   0.109  13.725  1.6651  0.7086 -1.0389
 7144SOL    HW233066   0.496   4.733  13.669 -0.6614 -0.1657 -0.3464
 7145SOL     OW33067   3.842   2.312   9.071  0.5691  0.3070  0.2232
 7145SOL    HW133068   3.807   2.377   9.010 -2.3533 -0.2376  1.3610
 7145SOL    HW233069   3.804   2.348   9.150  0.0913 -0.1726  0.2089
 7146SOL     OW33070   4.551   2.387   3.091 -0.6241  0.6565  0.0870
 7146SOL    HW133071   4.504   2.439   3.025 -2.2241  0.7457  1.2877
 7146SOL    HW233072   4.494   2.409   3.164  1.3087  1.7532  1.2406
 7147SOL     OW33073   4.039   0.522   0.718  0.2043 -0.1429  0.1148
 7147SOL    HW133074   3.992   0.443   0.747  2.4263 -1.3915  0.3092
 7147SOL    HW233075   3.968   0.586   0.711  1.3187  1.2788  1.9151
 7148SOL     OW33076   0.214   0.272   5.532 -0.3830 -0.7623  0.1782
 7148SOL    HW133077   0.290   0.325   5.508 -1.0424 -0.1160 -0.4817
 7148SOL    HW233078   0.148   0.340   5.540  0.6548  0.5844 -2.7806
 7149SOL     OW33079   4.287   0.082   2.487  0.3767 -0.3150 -0.8807
 7149SOL    HW133080   4.235   0.008   2.516  2.4605 -1.2770  0.4037
 7149SOL    HW233081   4.220   0.150   2.497 -0.1671 -1.0905  0.6595
 7150SOL     OW33082   4.632   2.821   6.326  0.2099  0.0270 -0.1589
 7150SOL    HW133083   4.716   2.777   6.311  0.9072  1.1607  0.4199
 7150SOL    HW233084   4.639   2.862   6.413  0.9059  1.4975 -0.9091
 7151SOL     OW33085   0.920   0.239   7.318 -0.0954 -0.2001  0.4080
 7151SOL    HW133086   0.901   0.146   7.332  1.1885 -0.8943 -2.3306
 7151SOL    HW233087   0.833   0.273   7.337 -0.7429 -1.6621  0.0878
 7152SOL     OW33088   2.665   2.742  13.240 -0.1740  0.3753  0.0431
 7152SOL    HW133089   2.635   2.832  13.225 -0.8335 -0.0144 -1.0251
 7152SOL    HW233090   2.737   2.766  13.298  0.0055 -0.4847  0.1749
 7153SOL     OW33091   2.895   3.703   7.610 -0.2165 -0.1702  0.5189
 7153SOL    HW133092   2.868   3.630   7.667  0.4675  0.4184  1.5971
 7153SOL    HW233093   2.963   3.740   7.666 -0.7021  2.4308 -0.6156
 7154SOL     OW33094   3.700   2.428   9.271  0.1084 -0.8751  0.5612
 7154SOL    HW133095   3.652   2.485   9.211 -1.0396 -1.4303  0.9563
 7154SOL    HW233096   3.627   2.390   9.320 -1.8370  1.7627 -0.3186
 7155SOL     OW33097   2.358   2.838   9.642 -0.0974  0.4746 -0.2583
 7155SOL    HW133098   2.337   2.816   9.551 -1.1157  1.1240 -0.1824
 7155SOL    HW233099   2.452   2.823   9.641 -0.1999 -0.2444  1.2268
 7156SOL     OW33100   1.442   3.158   3.667 -0.0204  0.3789  0.3824
 7156SOL    HW133101   1.477   3.079   3.708  1.1243  1.3847  1.3223
 7156SOL    HW233102   1.517   3.213   3.687  0.4282 -0.1389  0.1351
 7157SOL     OW33103   1.670   2.627   1.093  0.5999 -0.5166  0.2027
 7157SOL    HW133104   1.674   2.707   1.144  0.6068 -0.7911  0.6338
 7157SOL    HW233105   1.678   2.666   1.006 -0.2093 -0.8459 -0.0181
 7158SOL     OW33106   1.336   1.981   2.066 -0.1596 -0.6513 -0.2885
 7158SOL    HW133107   1.428   1.979   2.040  0.2016 -0.7679  1.0141
 7158SOL    HW233108   1.302   1.892   2.060 -1.2684 -0.2255 -0.3344
 7159SOL     OW33109   2.996   2.123   3.663 -0.4475  0.7274 -0.4981
 7159SOL    HW133110   2.926   2.059   3.650 -0.2734  0.6025 -0.8242
 7159SOL    HW233111   3.001   2.127   3.759  0.2715  0.2587 -0.5147
 7160SOL     OW33112   0.847   0.975   5.953  0.3827 -0.1537 -0.3761
 7160SOL    HW133113   0.882   1.064   5.961  0.4519 -0.2646  0.5578
 7160SOL    HW233114   0.889   0.942   5.873 -0.0182 -3.1853  0.6758
 7161SOL     OW33115   1.595   1.378   8.890 -0.7252  0.1122  0.8069
 7161SOL    HW133116   1.682   1.418   8.893 -0.8307  0.5342 -1.6586
 7161SOL    HW233117   1.559   1.411   8.807  0.0858  1.3916  0.9630
 7162SOL     OW33118   2.048   0.761   8.368 -0.2976  0.0062 -0.5196
 7162SOL    HW133119   2.122   0.773   8.427 -0.1383  4.6825 -1.6604
 7162SOL    HW233120   2.039   0.847   8.327 -0.2017 -1.3726 -3.3716
 7163SOL     OW33121   1.481   0.674   2.557 -0.3652 -0.6369  0.6127
 7163SOL    HW133122   1.537   0.661   2.634 -2.1213  1.2276  2.2204
 7163SOL    HW233123   1.521   0.625   2.485  1.1018 -0.1974  1.1180
 7164SOL     OW33124   4.726   0.450  17.482  0.6116 -0.6156 -0.2422
 7164SOL    HW133125   4.645   0.481  17.440  0.3702  2.3529  2.3526
 7164SOL    HW233126   4.702   0.443  17.575  2.1353 -3.1474 -0.0544
 7165SOL     OW33127   4.415   4.367  12.649 -0.6895  0.3348 -0.6341
 7165SOL    HW133128   4.389   4.280  12.678  0.2977  0.1834 -0.2082
 7165SOL    HW233129   4.374   4.370  12.562  0.7222 -0.4555 -1.3173
 7166SOL     OW33130   3.969   1.643   5.401 -0.1204 -0.1538 -0.4387
 7166SOL    HW133131   4.016   1.703   5.459 -2.0722  0.3509  0.6368
 7166SOL    HW233132   3.995   1.559   5.437  0.8325  0.6426  0.7203
 7167SOL     OW33133   1.846   2.476   3.148 -0.5069  0.3201 -0.1267
 7167SOL    HW133134   1.851   2.543   3.080 -1.0232 -0.2505 -0.7258
 7167SOL    HW233135   1.752   2.457   3.145 -0.8154  2.2260 -2.4411
 7168SOL     OW33136   0.258   3.487   2.037  0.3713  0.8492  0.3317
 7168SOL    HW133137   0.196   3.422   2.071  1.4083 -0.7533 -0.8492
 7168SOL    HW233138   0.289   3.531   2.117  0.9145 -2.2445  1.8637
 7169SOL     OW33139   1.292   1.643  13.995  0.3786 -0.0051 -0.4839
 7169SOL    HW133140   1.303   1.616  13.904 -1.3903 -0.2167 -0.6361
 7169SOL    HW233141   1.278   1.737  13.987  0.5926  0.0062 -0.7000
 7170SOL     OW33142   0.164   3.848  15.604  0.1010  0.6393  0.0725
 7170SOL    HW133143   0.189   3.805  15.522 -0.3971  0.7762 -0.1512
 7170SOL    HW233144   0.083   3.896  15.587 -0.0978 -0.3600 -1.7713
 7171SOL     OW33145   1.506   2.679   3.231  0.0490  0.3163 -0.2683
 7171SOL    HW133146   1.578   2.741   3.218  2.6700 -2.4227  1.0079
 7171SOL    HW233147   1.442   2.717   3.290 -0.2984 -0.9249  0.1677
 7172SOL     OW33148   1.192   3.333   6.008  0.5241  0.7289 -0.1718
 7172SOL    HW133149   1.147   3.416   6.025 -0.0655  0.3609  0.0923
 7172SOL    HW233150   1.138   3.289   5.942  0.7420  0.9551 -0.4951
 7173SOL     OW33151   4.577   4.053   8.713 -0.6146  0.1447  0.1685
 7173SOL    HW133152   4.647   4.055   8.778  0.7268  0.5331 -1.2841
 7173SOL    HW233153   4.618   4.058   8.627 -0.1856  0.5519  0.3950
 7174SOL     OW33154   1.561   3.723   0.693 -0.0216 -0.5800  0.0342
 7174SOL    HW133155   1.655   3.713   0.682 -0.0827 -2.5122  1.3043
 7174SOL    HW233156   1.545   3.798   0.636 -1.7545 -0.9457  0.0341
 7175SOL     OW33157   2.380   1.754   2.496 -1.0841  0.3130  0.4915
 7175SOL    HW133158   2.384   1.784   2.405  1.0383 -0.9847  0.1618
 7175SOL    HW233159   2.472   1.743   2.517 -0.8554 -0.4632 -0.9376
 7176SOL     OW33160   4.468   0.660   2.682  0.1440 -0.4163 -0.3419
 7176SOL    HW133161   4.546   0.676   2.629  0.3610 -2.0259 -0.5088
 7176SOL    HW233162   4.480   0.723   2.752 -2.2174 -1.2146  0.7828
 7177SOL     OW33163   3.296   2.083   2.655  0.5849 -0.3198 -0.5280
 7177SOL    HW133164   3.289   2.177   2.636 -3.4898 -0.6705 -0.7675
 7177SOL    HW233165   3.334   2.096   2.742 -1.7977  1.3892  0.2378
 7178SOL     OW33166   1.034   0.421   6.911  0.5776  0.2683 -0.4438
 7178SOL    HW133167   1.046   0.420   7.006 -1.5201 -1.3171 -0.2175
 7178SOL    HW233168   1.096   0.490   6.885 -0.3727  1.3239  0.0752
 7179SOL     OW33169   0.444   2.429   3.482  0.6112  0.2647  0.4458
 7179SOL    HW133170   0.437   2.517   3.518  0.0312  0.0407  0.8665
 7179SOL    HW233171   0.521   2.409   3.535  0.7636  0.2856  0.2362
 7180SOL     OW33172   2.119   4.051  12.780 -0.1264 -0.1258 -0.1599
 7180SOL    HW133173   2.155   4.093  12.858 -0.6544  1.1266 -0.5984
 7180SOL    HW233174   2.057   4.121  12.762  0.9334  0.5802 -1.1169
 7181SOL     OW33175   3.300   1.863   2.151  0.6533  0.3744 -0.0121
 7181SOL    HW133176   3.359   1.826   2.217  0.8597  0.8008  0.0422
 7181SOL    HW233177   3.303   1.787   2.094 -1.2429  0.5716 -0.3836
 7182SOL     OW33178   1.539   4.287   2.707 -0.4181 -0.3449 -0.2875
 7182SOL    HW133179   1.455   4.268   2.665  0.0571  0.4408 -1.6087
 7182SOL    HW233180   1.514   4.359   2.765 -2.1508 -0.5709 -0.7682
 7183SOL     OW33181   2.158   2.712   5.819 -0.6881 -0.2509  0.6109
 7183SOL    HW133182   2.203   2.706   5.903  0.8786 -0.9689 -0.2863
 7183SOL    HW233183   2.069   2.711   5.854 -0.4753 -1.6143  1.1165
 7184SOL     OW33184   2.290   0.243   9.405 -0.5814  0.1702  0.2722
 7184SOL    HW133185   2.258   0.321   9.450  1.0854  1.6476 -1.1166
 7184SOL    HW233186   2.357   0.205   9.463 -1.3809 -0.8099  0.5612
 7185SOL     OW33187   1.655   0.823   0.461  0.0450 -0.1437 -0.4763
 7185SOL    HW133188   1.687   0.849   0.548  0.5168 -1.1779 -0.3368
 7185SOL    HW233189   1.604   0.903   0.451  0.5867  0.6408  3.0699
 7186SOL     OW33190   2.826   4.239   1.669 -0.0233  0.2549 -0.4908
 7186SOL    HW133191   2.792   4.175   1.731 -0.8822  0.6339 -0.5741
 7186SOL    HW233192   2.751   4.285   1.631  0.8622  1.3899 -0.8857
 7187SOL     OW33193   2.656   4.593  13.944  0.2948 -0.0264 -0.7038
 7187SOL    HW133194   2.706   4.596  13.863  1.0665  0.6200 -0.2150
 7187SOL    HW233195   2.575   4.546  13.925 -0.1279 -0.1186  1.2571
 7188SOL     OW33196   1.579   3.880   8.853 -0.5038  0.2942 -0.4370
 7188SOL    HW133197   1.606   3.819   8.784 -1.0902 -1.3154  0.7728
 7188SOL    HW233198   1.584   3.834   8.936  0.4353  1.5115  0.1714
 7189SOL     OW33199   4.416   3.203   3.326 -0.6271  0.0807  0.1126
 7189SOL    HW133200   4.416   3.290   3.365 -1.5920  2.2138 -4.6269
 7189SOL    HW233201   4.432   3.235   3.237  0.0029  0.2190  0.2721
 7190SOL     OW33202   3.018   0.090  13.570 -0.2129  0.2020  0.1737
 7190SOL    HW133203   3.082   0.160  13.555  0.9256 -0.7745  0.4694
 7190SOL    HW233204   3.024   0.078  13.665 -1.9950  2.8157  0.6125
 7191SOL     OW33205   0.085   0.289   8.352 -0.0600  0.3073  0.3866
 7191SOL    HW133206   0.110   0.334   8.271  1.6953 -0.1742  0.6530
 7191SOL    HW233207   0.146   0.334   8.410  0.6920 -0.8868  0.5205
 7192SOL     OW33208   1.842   4.013   9.183 -0.3128 -0.2541  0.5309
 7192SOL    HW133209   1.803   3.926   9.180 -1.3987  0.2761 -0.4509
 7192SOL    HW233210   1.785   4.059   9.121  1.5222  0.2600 -0.7654
 7193SOL     OW33211   1.049   0.138   1.484  0.3326  0.1986  0.4030
 7193SOL    HW133212   1.134   0.096   1.469  0.5018  0.4091  0.7552
 7193SOL    HW233213   1.005   0.059   1.516  0.2064 -0.3408 -1.1109
 7194SOL     OW33214   3.321   4.146   9.003 -0.5213  0.1140  0.2109
 7194SOL    HW133215   3.336   4.076   9.066  0.7513  0.8342  0.7164
 7194SOL    HW233216   3.285   4.089   8.936 -2.7021  0.6338  0.9273
 7195SOL     OW33217   3.354   4.236  15.965 -0.4583  1.0744  0.0509
 7195SOL    HW133218   3.296   4.301  16.005 -2.1349  1.0348 -2.2559
 7195SOL    HW233219   3.433   4.289  15.962  0.1520  0.1930  0.4875
 7196SOL     OW33220   2.009   1.211   6.201 -0.1063 -0.1513 -0.2307
 7196SOL    HW133221   2.004   1.301   6.234  0.6968 -0.2243  0.0813
 7196SOL    HW233222   1.936   1.207   6.140  1.2489 -1.4117 -1.7454
 7197SOL     OW33223   3.256   4.373   8.060  0.3289  0.4706 -0.5504
 7197SOL    HW133224   3.181   4.409   8.012 -0.0125 -0.8423 -0.9931
 7197SOL    HW233225   3.247   4.413   8.146  0.1440 -1.2021  0.2002
 7198SOL     OW33226   3.290   2.040   3.657  0.2402  0.1690  0.0583
 7198SOL    HW133227   3.241   2.117   3.685  2.6688  1.2319  1.3785
 7198SOL    HW233228   3.375   2.083   3.652 -0.1692  0.8239 -1.0594
 7199SOL     OW33229   2.653   2.715   9.623  0.5698 -0.7028 -0.0926
 7199SOL    HW133230   2.720   2.670   9.571  0.5439  0.3983 -1.0978
 7199SOL    HW233231   2.638   2.650   9.691  0.6524 -3.9017 -3.0793
 7200SOL     OW33232   4.572   1.717  14.293  0.5690 -0.1801  0.4350
 7200SOL    HW133233   4.564   1.762  14.377  0.6483 -0.4773  0.6020
 7200SOL    HW233234   4.631   1.769  14.238  1.3449  0.3065  1.7435
 7201SOL     OW33235   2.253   3.838   0.721  0.1329  0.4790 -0.4996
 7201SOL    HW133236   2.237   3.895   0.796  1.2814 -0.9461  0.8105
 7201SOL    HW233237   2.348   3.832   0.716  0.3323  2.0656  1.2879
 7202SOL     OW33238   1.685   4.086   6.897  0.2353 -0.3246 -0.2238
 7202SOL    HW133239   1.725   4.038   6.970 -0.3590 -0.7472 -0.1719
 7202SOL    HW233240   1.667   4.022   6.829 -2.6129  1.6065 -1.2707
 7203SOL     OW33241   0.697   3.354   4.185 -0.0860  0.1556  0.0985
 7203SOL    HW133242   0.789   3.330   4.197 -0.3211 -1.4869 -1.4687
 7203SOL    HW233243   0.657   3.268   4.169  0.6803 -0.3164  0.7226
 7204SOL     OW33244   2.047   1.941   4.018  0.1606 -0.3218 -0.4879
 7204SOL    HW133245   1.998   1.860   4.032 -1.8832  1.1130  0.7250
 7204SOL    HW233246   1.993   1.987   3.954 -0.3500  1.5400  1.2931
 7205SOL     OW33247   4.735   4.130   2.596 -0.2550 -0.1084 -0.0617
 7205SOL    HW133248   4.679   4.106   2.522 -0.5962 -1.6006  0.6781
 7205SOL    HW233249   4.733   4.225   2.580 -0.6709  0.2802  2.2332
 7206SOL     OW33250   0.635   2.615   7.032  0.0600 -0.5447  0.1478
 7206SOL    HW133251   0.685   2.687   7.071 -0.9520  0.8025 -1.0728
 7206SOL    HW233252   0.636   2.557   7.109 -1.3761  0.2625  0.7594
 7207SOL     OW33253   1.787   3.064   3.343 -0.2305  0.5271 -0.5372
 7207SOL    HW133254   1.706   3.115   3.340 -0.6403 -0.2293 -2.9560
 7207SOL    HW233255   1.802   3.051   3.436  1.6504  0.0270 -0.9219
 7208SOL     OW33256   0.810   4.396   6.957  0.0739 -0.4603 -0.6231
 7208SOL    HW133257   0.747   4.385   6.886  2.3929 -2.9660 -2.2919
 7208SOL    HW233258   0.867   4.321   6.937  1.3518  0.0685  1.0283
 7209SOL     OW33259   1.670   2.816  10.533 -0.3663  0.2332  0.4457
 7209SOL    HW133260   1.643   2.786  10.620 -1.1604 -1.1049 -0.2585
 7209SOL    HW233261   1.753   2.861  10.545  0.1286 -0.1454 -1.6000
 7210SOL     OW33262   1.032   0.995  13.735  0.1205 -0.3458  0.6022
 7210SOL    HW133263   0.989   0.921  13.778 -1.5803  0.9865  1.1830
 7210SOL    HW233264   1.120   0.978  13.770  1.1059 -0.1929 -1.8103
 7211SOL     OW33265   4.498   4.246   9.509  0.5530  0.4835 -0.5401
 7211SOL    HW133266   4.470   4.337   9.502 -2.1970 -0.2139  1.2643
 7211SOL    HW233267   4.409   4.210   9.501  0.0340  1.7546 -0.3847
 7212SOL     OW33268   0.383   2.582  14.642  0.0754  0.6451  0.1358
 7212SOL    HW133269   0.359   2.501  14.599  1.2250 -0.0035  0.7107
 7212SOL    HW233270   0.455   2.623  14.593  0.6470  0.8261  1.1142
 7213SOL     OW33271   0.278   3.031   1.278  0.1702 -0.4662  0.2335
 7213SOL    HW133272   0.222   3.104   1.252 -0.9742 -1.2263  0.5282
 7213SOL    HW233273   0.293   3.047   1.371  2.4045  1.4166 -0.4739
 7214SOL     OW33274   0.554   0.768   6.257  0.2443 -0.1900  0.0470
 7214SOL    HW133275   0.631   0.794   6.207 -0.6675  1.1717 -0.6582
 7214SOL    HW233276   0.483   0.817   6.214  1.0270  1.3994  0.5576
 7215SOL     OW33277   1.096   3.119  14.021  0.4372  0.1295 -0.1084
 7215SOL    HW133278   1.052   3.200  14.049  1.8547  1.1380 -0.7885
 7215SOL    HW233279   1.089   3.134  13.927 -1.0767  0.1855  0.0207
 7216SOL     OW33280   1.299   0.474   5.268 -0.4009 -0.3703 -0.1058
 7216SOL    HW133281   1.325   0.564   5.281 -1.8784 -0.1984  1.6994
 7216SOL    HW233282   1.335   0.435   5.347  2.9795  0.4164 -1.2895
 7217SOL     OW33283   1.598   1.870   6.329 -0.2926  0.1190  0.4421
 7217SOL    HW133284   1.581   1.819   6.408 -1.2204 -0.6627 -0.2518
 7217SOL    HW233285   1.552   1.950   6.356 -0.3113  0.3597 -0.2995
 7218SOL     OW33286   1.660   0.408  12.682  0.0270  0.0022  0.0888
 7218SOL    HW133287   1.665   0.497  12.716  0.6119 -0.0053  0.0294
 7218SOL    HW233288   1.737   0.420  12.627  2.1999  2.0646  3.6244
 7219SOL     OW33289   1.283   0.956   0.056  0.1433  0.3020 -0.1679
 7219SOL    HW133290   1.303   1.021   0.124 -2.8531  0.6827  0.3458
 7219SOL    HW233291   1.208   0.995   0.010 -2.1283 -1.7705  1.7603
 7220SOL     OW33292   3.902   0.566   8.178  0.6235  0.7687 -0.0810
 7220SOL    HW133293   3.821   0.533   8.217  2.4509 -2.5166  0.9444
 7220SOL    HW233294   3.883   0.660   8.176  2.4916  1.1860  1.3749
 7221SOL     OW33295   4.302   2.920  13.814 -0.1983  0.4480 -0.2258
 7221SOL    HW133296   4.226   2.943  13.761 -0.7841  0.0034  0.4159
 7221SOL    HW233297   4.256   2.912  13.898  0.4779 -0.6529  0.0440
 7222SOL     OW33298   2.389   0.175   4.345  0.1140  0.7536 -0.0161
 7222SOL    HW133299   2.367   0.259   4.386  0.5461  0.3816  0.9737
 7222SOL    HW233300   2.326   0.180   4.272  0.0098  3.2325  0.2332
 7223SOL     OW33301   2.823   1.897  15.634  0.3941  0.0617 -0.4083
 7223SOL    HW133302   2.733   1.866  15.621  0.8650 -0.7061 -1.8022
 7223SOL    HW233303   2.872   1.814  15.639 -1.2126 -0.7349  1.9568
 7224SOL     OW33304   3.030   2.068   7.664  0.1567  0.2658  0.4959
 7224SOL    HW133305   3.027   2.136   7.731  0.1683 -1.7735  2.5696
 7224SOL    HW233306   3.124   2.050   7.653  0.3076  0.2844  1.7514
 7225SOL     OW33307   3.546   0.596   7.794  0.2282  0.1839 -0.1562
 7225SOL    HW133308   3.603   0.520   7.804  0.5964  0.1555 -2.4965
 7225SOL    HW233309   3.514   0.602   7.884  1.1007  1.2101  0.0804
 7226SOL     OW33310   3.304   2.392  16.903  0.6650  0.4112 -0.1408
 7226SOL    HW133311   3.260   2.476  16.915  1.3758  0.7697 -0.0389
 7226SOL    HW233312   3.362   2.411  16.829  0.7289  0.7712  0.0012
 7227SOL     OW33313   0.375   2.384  15.168 -0.1998  0.0532  0.2427
 7227SOL    HW133314   0.324   2.315  15.211  0.1204  0.1494  0.7715
 7227SOL    HW233315   0.301   2.444  15.154  1.1044  1.3231 -1.2215
 7228SOL     OW33316   1.527   0.027   3.067  0.6249 -0.1482  0.2297
 7228SOL    HW133317   1.510   4.688   3.121 -0.4084 -0.7906 -0.9939
 7228SOL    HW233318   1.614   0.011   3.032 -0.1889 -1.6521 -1.1079
 7229SOL     OW33319   3.382   4.416   9.531 -0.7490 -0.3718 -0.2172
 7229SOL    HW133320   3.292   4.395   9.508 -1.0012 -0.5952  0.9664
 7229SOL    HW233321   3.422   4.385   9.449  0.2252  4.1625 -1.4242
 7230SOL     OW33322   4.732   0.787  10.856 -0.6251 -0.3641  0.2565
 7230SOL    HW133323   0.012   0.836  10.935  2.5939 -0.8078 -0.2140
 7230SOL    HW233324   0.053   0.836  10.799  0.2233 -0.0691  1.4088
 7231SOL     OW33325   2.834   3.451   4.056 -0.1255  0.2612 -0.0574
 7231SOL    HW133326   2.756   3.431   4.003  0.4387 -0.3959 -0.6402
 7231SOL    HW233327   2.889   3.374   4.044 -0.0113  0.1057  1.5822
 7232SOL     OW33328   4.092   1.958  16.631  0.4221  0.3897 -0.6107
 7232SOL    HW133329   4.171   2.008  16.651  0.1078  0.6023  0.1191
 7232SOL    HW233330   4.108   1.887  16.692 -1.0916  1.2300  0.7743
 7233SOL     OW33331   2.908   1.823  12.854  0.0249  0.5990  0.3024
 7233SOL    HW133332   3.001   1.800  12.851  0.3357  1.7831  0.7778
 7233SOL    HW233333   2.898   1.891  12.920 -2.7357  0.2099  0.2867
 7234SOL     OW33334   2.869   1.401   5.242 -0.4430  0.3040 -0.6666
 7234SOL    HW133335   2.943   1.341   5.252 -0.6735  0.0606 -0.3996
 7234SOL    HW233336   2.863   1.403   5.147  0.3649  2.5705 -0.6683
 7235SOL     OW33337   3.239   3.791  16.926  0.6954  0.3720  0.4235
 7235SOL    HW133338   3.328   3.817  16.902  0.8452 -1.1734 -0.6962
 7235SOL    HW233339   3.220   3.717  16.868 -0.7909  0.6016  0.5983
 7236SOL     OW33340   4.579   0.276  15.577 -0.4708  0.9951 -0.4615
 7236SOL    HW133341   4.564   0.369  15.591  1.1934  0.9673  1.4859
 7236SOL    HW233342   4.621   0.278  15.491 -0.8241  0.0002 -0.6633
 7237SOL     OW33343   2.820   2.252  11.905 -0.0813  0.3701 -0.1687
 7237SOL    HW133344   2.786   2.248  11.994  1.9781  1.3252  0.6809
 7237SOL    HW233345   2.752   2.302  11.860 -2.3082  1.0090  3.9156
 7238SOL     OW33346   3.808   3.136  16.336 -0.7078  0.1714 -0.2853
 7238SOL    HW133347   3.878   3.170  16.280 -1.9814  2.6557 -0.3740
 7238SOL    HW233348   3.844   3.053  16.367 -0.2413  0.9648  1.3208
 7239SOL     OW33349   0.234   0.979  17.381  0.0807 -0.0108  0.0262
 7239SOL    HW133350   0.225   1.063  17.337 -2.3259 -0.3539 -0.1154
 7239SOL    HW233351   0.278   0.921  17.320  2.6044  0.7803  1.0872
 7240SOL     OW33352   0.380   2.643  11.073  0.1386 -0.3347 -0.5881
 7240SOL    HW133353   0.396   2.669  11.164  0.2277  2.3349 -1.3564
 7240SOL    HW233354   0.441   2.571  11.057  2.3050  1.1750  0.8764
 7241SOL     OW33355   4.522   0.151   4.455  0.2448  0.1267  0.0382
 7241SOL    HW133356   4.493   0.191   4.374  0.7751  2.2015  0.8738
 7241SOL    HW233357   4.565   0.071   4.425  3.1439  1.3122  1.0148
 7242SOL     OW33358   1.825   3.964   0.877 -1.2999  0.0210  0.2545
 7242SOL    HW133359   1.891   4.033   0.869 -1.2471  0.0323  0.7935
 7242SOL    HW233360   1.754   4.009   0.923  1.8663  2.0807  3.1532
 7243SOL     OW33361   4.166   2.217   2.876 -0.0278  0.1207  0.5079
 7243SOL    HW133362   4.231   2.170   2.825  1.0020 -0.0924  2.0280
 7243SOL    HW233363   4.226   2.254   2.941 -1.5307  1.7183  1.0021
 7244SOL     OW33364   2.950   2.293  13.655 -0.5099  0.1261  0.2676
 7244SOL    HW133365   2.902   2.353  13.598 -2.5700 -0.3527  1.5018
 7244SOL    HW233366   2.930   2.320  13.744  0.4600  0.6994  0.3120
 7245SOL     OW33367   3.201   4.188   3.556 -0.0074 -0.4744 -0.0199
 7245SOL    HW133368   3.158   4.134   3.489  3.1560 -1.2839 -1.4049
 7245SOL    HW233369   3.254   4.124   3.603 -1.6127 -1.1283  0.9135
 7246SOL     OW33370   0.211   4.385  11.221 -0.4591  0.0373  0.1757
 7246SOL    HW133371   0.211   4.407  11.314 -0.9072 -0.0446  0.1950
 7246SOL    HW233372   0.137   4.324  11.221  0.8545 -1.5600  0.9845
 7247SOL     OW33373   4.613   1.008   7.414  0.4479  0.2504  0.1955
 7247SOL    HW133374   4.574   1.085   7.374 -0.4789 -1.2195 -1.7354
 7247SOL    HW233375   4.541   0.944   7.415  1.2229 -0.6279 -0.5972
 7248SOL     OW33376   2.151   1.549   6.522 -0.0950 -0.0160 -0.3242
 7248SOL    HW133377   2.157   1.635   6.563 -0.5005  0.4422 -1.2413
 7248SOL    HW233378   2.110   1.502   6.595  0.0299 -2.0207 -1.5283
 7249SOL     OW33379   2.850   1.576   7.897 -0.1391 -0.0743  0.1318
 7249SOL    HW133380   2.838   1.521   7.819  1.5093 -0.0173 -0.1795
 7249SOL    HW233381   2.917   1.630   7.855  1.4228 -2.4721 -0.4928
 7250SOL     OW33382   2.380   1.673  15.432 -0.1611 -0.1523 -0.4717
 7250SOL    HW133383   2.383   1.678  15.336 -1.9246  3.4610 -0.3433
 7250SOL    HW233384   2.297   1.718  15.449 -0.2621 -0.0669 -1.1895
 7251SOL     OW33385   1.705   2.761  10.252  0.1866 -0.7968 -0.1105
 7251SOL    HW133386   1.707   2.763  10.347 -0.7741 -4.1894 -0.0181
 7251SOL    HW233387   1.706   2.855  10.235  0.0760 -0.5818  1.0739
 7252SOL     OW33388   1.756   1.507   6.971 -0.1825 -0.1917  0.4280
 7252SOL    HW133389   1.772   1.480   7.062 -0.3491 -0.3767  0.4032
 7252SOL    HW233390   1.734   1.599   6.985  0.9664 -0.0267  1.1057
 7253SOL     OW33391   1.868   4.630   4.203  0.5088  0.3194 -0.1297
 7253SOL    HW133392   1.944   4.582   4.170  0.4235 -0.3344  0.6303
 7253SOL    HW233393   1.870   4.708   4.148  2.1246 -0.0728 -0.6190
 7254SOL     OW33394   1.384   0.550   7.695  0.3218  0.0052 -0.6832
 7254SOL    HW133395   1.320   0.621   7.695 -1.1808 -1.3369  1.5860
 7254SOL    HW233396   1.343   0.495   7.628 -0.4695 -0.4220  0.1670
 7255SOL     OW33397   2.630   0.709   1.751  0.0602 -0.1686 -0.6021
 7255SOL    HW133398   2.667   0.633   1.708  1.1047  0.4096 -0.7186
 7255SOL    HW233399   2.710   0.735   1.796  0.3162 -0.0518 -1.1199
 7256SOL     OW33400   1.378   4.524   1.108 -0.5628 -0.3109  0.6460
 7256SOL    HW133401   1.293   4.544   1.069  0.8266  2.6998 -0.9239
 7256SOL    HW233402   1.423   4.609   1.103  1.0438 -1.0522  2.2928
 7257SOL     OW33403   2.711   1.753   4.306 -0.4291 -0.2526 -0.2552
 7257SOL    HW133404   2.749   1.717   4.226  0.6676 -1.3473  0.7607
 7257SOL    HW233405   2.616   1.740   4.299 -0.5687  1.5703 -1.8600
 7258SOL     OW33406   0.079   3.067  15.750 -1.0292  0.9879 -0.1528
 7258SOL    HW133407   0.089   3.055  15.845  1.1526  1.5496 -0.3276
 7258SOL    HW233408   0.101   2.979  15.720  2.6109  1.3169  1.6447
 7259SOL     OW33409   0.148   3.200  12.362 -0.1195  0.2732 -0.1483
 7259SOL    HW133410   0.181   3.122  12.317 -0.2636 -0.0997  0.3857
 7259SOL    HW233411   0.132   3.262  12.292  2.7657  0.4322 -0.6653
 7260SOL     OW33412   0.487   1.034   5.677  0.1452 -0.4659 -0.0038
 7260SOL    HW133413   0.524   0.954   5.641  0.7636 -0.2841  0.2339
 7260SOL    HW233414   0.489   1.085   5.596  0.5058 -1.0905 -0.3857
 7261SOL     OW33415   2.111   2.528   3.203  0.6186 -0.0126  0.0166
 7261SOL    HW133416   2.075   2.478   3.276  4.1656 -1.5248  0.7575
 7261SOL    HW233417   2.034   2.523   3.147  1.6917 -0.3467 -1.4226
 7262SOL     OW33418   1.684   2.657   8.433 -0.0746  0.3060  0.4280
 7262SOL    HW133419   1.615   2.723   8.442  0.2203  0.7181 -0.4065
 7262SOL    HW233420   1.634   2.575   8.438  1.1589 -0.5456 -1.4397
 7263SOL     OW33421   1.555   1.170  17.620 -0.0875  0.2587 -0.3613
 7263SOL    HW133422   1.613   1.231  17.576  1.9865  0.7499  3.1116
 7263SOL    HW233423   1.610   1.100  17.655 -0.6366  0.2888  0.5579
 7264SOL     OW33424   2.217   0.811   3.512  0.4541  0.4333 -0.2131
 7264SOL    HW133425   2.169   0.843   3.435 -3.0472 -2.3488  0.7951
 7264SOL    HW233426   2.164   0.840   3.587  0.2989 -1.9406  0.5817
 7265SOL     OW33427   2.851   1.146   3.777  0.2226 -0.4044  0.1521
 7265SOL    HW133428   2.871   1.215   3.714  2.0604  1.0688  2.3157
 7265SOL    HW233429   2.755   1.150   3.786  0.0675 -1.7694 -1.0318
 7266SOL     OW33430   3.543   1.685  17.391 -0.1518  0.4385  0.3550
 7266SOL    HW133431   3.464   1.718  17.435 -0.7223  0.9911 -1.0938
 7266SOL    HW233432   3.606   1.749  17.424  1.3047 -0.8847  0.1314
 7267SOL     OW33433   1.700   3.046   4.938  0.4995  0.0820 -0.1428
 7267SOL    HW133434   1.621   3.027   4.888  0.0435  0.8175  0.3117
 7267SOL    HW233435   1.773   3.047   4.875 -0.7664  0.4205 -1.5934
 7268SOL     OW33436   4.105   0.986  17.279 -0.0219 -0.1071 -0.6111
 7268SOL    HW133437   4.098   0.890  17.274 -1.8652 -0.0395  0.7196
 7268SOL    HW233438   4.195   1.001  17.249  0.1930  2.1098  1.1740
 7269SOL     OW33439   2.779   3.083   4.714 -0.0738  0.4820  0.7456
 7269SOL    HW133440   2.872   3.082   4.735  0.0821  1.3676  0.0932
 7269SOL    HW233441   2.762   3.176   4.700 -0.3866  0.0928 -1.5091
 7270SOL     OW33442   1.832   1.014   4.257 -0.0885 -0.4368 -0.4022
 7270SOL    HW133443   1.926   1.012   4.236  0.3102  1.3556  1.1622
 7270SOL    HW233444   1.795   0.951   4.195  0.2008 -2.6423  1.6850
 7271SOL     OW33445   0.999   4.175   3.634 -0.3808  0.4943  0.3245
 7271SOL    HW133446   1.051   4.134   3.564 -2.0835  1.8110 -1.7308
 7271SOL    HW233447   0.981   4.262   3.599  0.9019  0.6008 -0.0507
 7272SOL     OW33448   3.147   1.437   3.705  0.4601  0.0344  0.4158
 7272SOL    HW133449   3.162   1.487   3.785 -1.0364  2.5478 -0.8647
 7272SOL    HW233450   3.126   1.499   3.635 -2.4742 -0.0137  1.2370
 7273SOL     OW33451   0.333   4.023  12.498  0.3887  0.3898 -0.2806
 7273SOL    HW133452   0.338   3.973  12.580 -0.9744  0.2158 -0.2932
 7273SOL    HW233453   0.330   3.952  12.435  1.0894  0.4181 -0.3414
 7274SOL     OW33454   3.141   1.926   2.984 -0.8367 -0.4705  0.6495
 7274SOL    HW133455   3.214   1.986   2.994 -0.6283 -0.8411  1.3838
 7274SOL    HW233456   3.179   1.863   2.923 -0.0925  0.2920  0.3280
 7275SOL     OW33457   1.650   2.429   8.712 -0.2962  0.1350  0.4927
 7275SOL    HW133458   1.695   2.417   8.795 -1.6779 -1.8072  0.9637
 7275SOL    HW233459   1.567   2.461   8.748  0.2841  2.2909 -0.0815
 7276SOL     OW33460   2.596   3.108   2.801  0.1332  0.0999  0.3930
 7276SOL    HW133461   2.556   3.176   2.855  0.0589  0.5670 -0.2557
 7276SOL    HW233462   2.622   3.039   2.863 -1.5968 -0.1204  0.8557
 7277SOL     OW33463   3.044   3.613  14.136  0.6945  0.3634 -0.5071
 7277SOL    HW133464   3.017   3.598  14.227  2.4609 -1.7125 -0.3300
 7277SOL    HW233465   2.963   3.593  14.089  0.3832  1.8468 -0.6181
 7278SOL     OW33466   1.998   3.702   2.123 -0.2605  0.4072 -0.2412
 7278SOL    HW133467   2.013   3.758   2.199 -0.0568 -2.6670  1.9603
 7278SOL    HW233468   1.921   3.743   2.083 -1.4047 -0.1830  1.3556
 7279SOL     OW33469   4.597   3.866   9.486  0.0987 -0.9013  0.4438
 7279SOL    HW133470   4.629   3.878   9.396  0.8221 -0.0415  0.8132
 7279SOL    HW233471   4.662   3.908   9.542  0.1209 -0.0686 -0.1975
 7280SOL     OW33472   1.809   4.415   1.998  0.1680  0.2589  0.3233
 7280SOL    HW133473   1.829   4.508   2.004 -0.1572  0.2865  0.9599
 7280SOL    HW233474   1.868   4.379   2.065 -2.4627 -2.0400  1.4408
 7281SOL     OW33475   1.808   2.739  17.725  0.7827 -0.0445  0.6937
 7281SOL    HW133476   1.753   2.756  17.649  1.3238 -2.6357 -0.2538
 7281SOL    HW233477   1.893   2.714  17.689  0.4464 -0.2966  0.0866
 7282SOL     OW33478   0.670   0.153   4.129  0.2875  0.4396  0.0602
 7282SOL    HW133479   0.651   0.128   4.039 -0.9017  0.1385  0.3972
 7282SOL    HW233480   0.655   0.072   4.178 -2.2816  1.0651  0.2960
 7283SOL     OW33481   0.602   3.439  10.747 -0.3861  0.1962  0.1259
 7283SOL    HW133482   0.566   3.508  10.690  1.5919  0.5157 -0.7310
 7283SOL    HW233483   0.651   3.493  10.809 -1.5632 -0.1406  1.3625
 7284SOL     OW33484   2.385   2.412   6.318 -0.1335  0.3438 -0.5404
 7284SOL    HW133485   2.405   2.325   6.352 -0.1184  0.8768  0.8239
 7284SOL    HW233486   2.466   2.421   6.269  0.7263 -0.7529  0.6795
 7285SOL     OW33487   3.843   4.165  11.160  0.1564  0.3417 -0.6629
 7285SOL    HW133488   3.812   4.077  11.179 -0.4349  0.3757 -1.4879
 7285SOL    HW233489   3.786   4.183  11.086 -0.1844 -0.4601 -0.5910
 7286SOL     OW33490   2.782   1.809   6.859 -0.3930  0.3022 -0.4293
 7286SOL    HW133491   2.866   1.777   6.891  0.6181 -0.6794 -3.9872
 7286SOL    HW233492   2.783   1.759   6.777 -1.1569  0.7414 -0.6994
 7287SOL     OW33493   4.515   3.371   8.072 -0.1999 -0.2402 -0.2956
 7287SOL    HW133494   4.445   3.378   8.006  0.6970 -1.3910 -1.3693
 7287SOL    HW233495   4.578   3.437   8.044  1.2827 -2.1601 -1.5212
 7288SOL     OW33496   0.635   4.435  10.441  0.4934 -0.0640 -0.2113
 7288SOL    HW133497   0.549   4.461  10.473 -0.1143  0.3225 -2.1624
 7288SOL    HW233498   0.674   4.381  10.510  0.9410  0.3267 -0.1567
 7289SOL     OW33499   3.903   2.886  16.345  0.0439  0.1781  0.6188
 7289SOL    HW133500   3.995   2.872  16.323  0.2512  0.9647  0.9937
 7289SOL    HW233501   3.872   2.798  16.325 -0.7763  0.8964 -1.2264
 7290SOL     OW33502   3.764   2.229   6.006  0.0893 -0.3089 -0.0611
 7290SOL    HW133503   3.858   2.226   6.020  0.2517 -1.7756 -1.3487
 7290SOL    HW233504   3.736   2.188   6.087  3.0700  0.0445  1.1330
 7291SOL     OW33505   2.067   0.979   7.624  0.1208 -0.2551  0.1496
 7291SOL    HW133506   2.010   1.008   7.553 -1.0445 -2.1810  0.3001
 7291SOL    HW233507   2.013   0.904   7.647  0.8794 -0.8827 -0.1140
 7292SOL     OW33508   3.109   0.143   8.054 -0.1142  0.7483  0.1960
 7292SOL    HW133509   3.015   0.148   8.071 -0.4011 -0.1908 -1.1104
 7292SOL    HW233510   3.109   0.061   8.004 -1.0614  0.2626  1.0111
 7293SOL     OW33511   1.908   1.230  13.704  0.0902  0.0137  0.1808
 7293SOL    HW133512   1.941   1.293  13.641  0.2210 -1.6737 -1.4508
 7293SOL    HW233513   1.963   1.161  13.667 -1.0221 -1.0262  0.4654
 7294SOL     OW33514   3.381   4.645   9.141 -0.0766  0.0641  0.6004
 7294SOL    HW133515   3.338   4.681   9.219 -1.4156 -1.7249  0.6793
 7294SOL    HW233516   3.332   4.563   9.132 -0.7948  0.3372  2.0747
 7295SOL     OW33517   3.181   1.854   0.603  0.0322  0.8458  0.2165
 7295SOL    HW133518   3.203   1.941   0.569  0.9542  0.4958 -0.0975
 7295SOL    HW233519   3.184   1.861   0.698  0.5549  0.5377  0.2275
 7296SOL     OW33520   4.386   3.139   5.230  0.3097  0.3966 -0.4857
 7296SOL    HW133521   4.422   3.109   5.146  0.5315 -1.2631  0.2170
 7296SOL    HW233522   4.334   3.062   5.254  1.2536 -0.2035 -0.3600
 7297SOL     OW33523   0.376   0.279   7.008 -0.2097  0.4472 -0.3187
 7297SOL    HW133524   0.385   0.290   6.914  2.1387 -0.7302 -0.2371
 7297SOL    HW233525   0.391   0.367   7.044  0.2403 -0.0403  0.6747
 7298SOL     OW33526   4.534   0.752   0.660  0.1090 -0.5715 -0.1597
 7298SOL    HW133527   4.507   0.843   0.649  1.9054  0.1520  1.2132
 7298SOL    HW233528   4.453   0.707   0.683  0.0866  0.6581  2.1180
 7299SOL     OW33529   2.495   3.903   1.638  0.4479 -0.4393  0.4491
 7299SOL    HW133530   2.474   3.987   1.679  1.9669 -0.8713  2.1031
 7299SOL    HW233531   2.416   3.852   1.659  0.5760 -1.3962 -1.3491
 7300SOL     OW33532   3.441   3.528   7.517 -0.1119  0.5076  0.2251
 7300SOL    HW133533   3.518   3.473   7.503 -1.5414 -0.8307 -2.2899
 7300SOL    HW233534   3.392   3.481   7.583 -0.3290  2.0515  1.1731
 7301SOL     OW33535   0.944   4.252  10.012  0.1406  0.2837  0.3835
 7301SOL    HW133536   0.881   4.202  10.063  0.6184  1.2403  1.9043
 7301SOL    HW233537   0.933   4.343  10.038 -0.1077 -0.1452  1.7784
 7302SOL     OW33538   2.345   1.642   3.653 -0.1899 -0.5426  0.1459
 7302SOL    HW133539   2.362   1.554   3.621  0.3900  0.0990 -1.3090
 7302SOL    HW233540   2.249   1.637   3.659 -0.3442  1.3783 -0.5614
 7303SOL     OW33541   1.107   1.259  12.609 -0.9392  0.2043 -0.0432
 7303SOL    HW133542   1.195   1.266  12.570  0.6432 -0.6654  3.3657
 7303SOL    HW233543   1.057   1.256  12.528 -2.2785  2.4962  0.7044
 7304SOL     OW33544   4.664   3.541   8.905 -0.0182  0.2973 -0.2244
 7304SOL    HW133545   4.691   3.479   8.972 -4.3447  0.0432  1.2252
 7304SOL    HW233546   4.732   3.609   8.916 -0.6614  0.9650 -0.3585
 7305SOL     OW33547   3.840   2.109   3.591 -1.0350 -0.6349  0.1069
 7305SOL    HW133548   3.906   2.124   3.659  0.8168  2.4947 -2.4058
 7305SOL    HW233549   3.787   2.036   3.625  0.0027  0.6956  4.5997
 7306SOL     OW33550   3.191   3.574   7.098 -0.7832 -0.7668  1.0329
 7306SOL    HW133551   3.276   3.605   7.129 -0.2848 -0.6660 -0.4332
 7306SOL    HW233552   3.222   3.535   7.016 -0.0614 -1.7663  1.7744
 7307SOL     OW33553   4.178   1.637  15.235  0.7617  0.6266 -0.4649
 7307SOL    HW133554   4.207   1.636  15.326  0.0990  0.0620 -0.2598
 7307SOL    HW233555   4.141   1.549  15.235 -1.0815  1.4077 -0.1458
 7308SOL     OW33556   0.130   0.429   0.887 -0.4864 -0.0627 -0.2227
 7308SOL    HW133557   0.097   0.492   0.823  2.0180  1.1265 -0.3497
 7308SOL    HW233558   0.208   0.392   0.844 -1.0058 -1.0967 -0.2830
 7309SOL     OW33559   1.300   4.558   8.779 -0.2019  0.7739 -0.3333
 7309SOL    HW133560   1.358   4.483   8.793 -1.9753 -0.2735  1.3739
 7309SOL    HW233561   1.332   4.588   8.694  1.0729  0.8999  0.1937
 7310SOL     OW33562   4.325   1.913   1.939 -0.2242 -0.6125  0.3216
 7310SOL    HW133563   4.311   1.843   2.004 -2.0941 -0.2554  0.2893
 7310SOL    HW233564   4.300   1.985   1.997  0.0685  0.8572 -1.3747
 7311SOL     OW33565   1.868   0.201   0.546  0.3959  0.2625  0.0351
 7311SOL    HW133566   1.815   0.275   0.520 -1.1539 -0.8888 -0.0770
 7311SOL    HW233567   1.871   0.154   0.463 -0.6216 -1.6377  1.0599
 7312SOL     OW33568   1.867   1.236  13.151  0.4852 -0.5331 -0.0076
 7312SOL    HW133569   1.902   1.243  13.240 -2.0956 -0.8132  1.0339
 7312SOL    HW233570   1.927   1.300  13.114 -0.3683  0.6372  0.6307
 7313SOL     OW33571   1.932   2.158   5.646 -0.3597 -0.1654 -0.6847
 7313SOL    HW133572   1.936   2.062   5.657 -2.9230 -0.4652 -2.3480
 7313SOL    HW233573   2.016   2.172   5.690 -0.2514 -0.7380 -0.7094
 7314SOL     OW33574   4.505   3.873   3.400  0.2321  0.0873 -0.2913
 7314SOL    HW133575   4.447   3.846   3.330 -1.9875  1.2766  1.0870
 7314SOL    HW233576   4.584   3.895   3.350  2.0183 -2.4766  1.3509
 7315SOL     OW33577   1.219   4.314  12.299 -0.3866 -0.8026 -0.5487
 7315SOL    HW133578   1.126   4.298  12.280 -0.2697 -0.3701 -1.4655
 7315SOL    HW233579   1.255   4.235  12.259 -1.7531 -1.0874 -1.2240
 7316SOL     OW33580   3.360   3.156   7.439  0.1750 -0.4286 -0.0142
 7316SOL    HW133581   3.365   3.070   7.482 -1.9073 -0.0086  1.0830
 7316SOL    HW233582   3.285   3.151   7.381 -0.9997  2.2861  1.2752
 7317SOL     OW33583   0.931   3.845   9.270  0.0827 -0.0800  0.5746
 7317SOL    HW133584   0.981   3.808   9.198  1.6899  2.1389  0.5532
 7317SOL    HW233585   1.008   3.882   9.314 -0.0215 -0.0012  0.6889
 7318SOL     OW33586   2.801   0.200  15.377  0.7743  0.6627 -0.1437
 7318SOL    HW133587   2.758   0.193  15.462 -0.3514  2.2419 -0.5703
 7318SOL    HW233588   2.879   0.158  15.414  0.9333 -0.0747 -1.3176
 7319SOL     OW33589   3.119   3.426   8.060  0.5193  0.3415 -0.4246
 7319SOL    HW133590   3.104   3.432   7.966  0.0787  0.8845 -0.3173
 7319SOL    HW233591   3.170   3.347   8.042  0.2511 -0.3525  1.8134
 7320SOL     OW33592   0.177   1.310  16.292 -0.4385  0.1232 -0.0063
 7320SOL    HW133593   0.180   1.214  16.297 -1.2708 -0.0995 -3.6940
 7320SOL    HW233594   0.256   1.327  16.344 -0.4447 -2.3462  0.8582
 7321SOL     OW33595   1.302   0.516  13.630 -0.0351 -0.0225  0.4233
 7321SOL    HW133596   1.266   0.496  13.543 -0.4930  0.7683  0.4249
 7321SOL    HW233597   1.362   0.443  13.644  0.5962  0.6782  1.4120
 7322SOL     OW33598   3.082   0.236   6.703 -0.2686 -0.1136 -0.3810
 7322SOL    HW133599   3.069   0.313   6.758  0.4180  1.0631 -1.8930
 7322SOL    HW233600   3.178   0.237   6.701 -0.2715  1.3250  0.3861
 7323SOL     OW33601   0.149   3.314   4.983 -0.5503  0.2696 -0.1258
 7323SOL    HW133602   0.163   3.407   4.965 -1.5391  0.1566 -1.4369
 7323SOL    HW233603   0.059   3.298   4.955 -0.7558 -1.1009  1.3378
 7324SOL     OW33604   3.603   4.207   7.083 -0.0394  0.3067  0.2539
 7324SOL    HW133605   3.531   4.160   7.126  1.4081 -1.6839  0.5241
 7324SOL    HW233606   3.575   4.298   7.075 -1.1501 -0.2281 -1.9154
 7325SOL     OW33607   3.027   2.437   0.609  0.0448 -0.5438  0.3271
 7325SOL    HW133608   3.076   2.473   0.535 -1.0152 -0.7567 -0.4814
 7325SOL    HW233609   2.973   2.510   0.639 -0.7390 -0.4088 -1.3892
 7326SOL     OW33610   4.013   0.215  12.082  0.0778 -0.1582  0.0877
 7326SOL    HW133611   4.107   0.230  12.070 -0.0784  0.7294 -0.0915
 7326SOL    HW233612   3.987   0.302  12.051  0.6068  0.2925  0.8982
 7327SOL     OW33613   4.412   4.587   6.017  1.1961 -0.2143  0.3236
 7327SOL    HW133614   4.495   4.542   6.030  1.0945 -0.4105  0.2909
 7327SOL    HW233615   4.351   4.517   5.993  0.7785 -0.4296  2.0260
 7328SOL     OW33616   1.307   0.062  17.150 -0.0844  0.7990 -0.3377
 7328SOL    HW133617   1.266   0.076  17.236  0.2770  0.2792 -0.0793
 7328SOL    HW233618   1.390   0.023  17.178 -1.2424  0.3577  2.5087
 7329SOL     OW33619   0.537   0.962   7.899 -0.2387 -0.1488  0.3182
 7329SOL    HW133620   0.604   0.970   7.831  2.1796 -0.2168  2.6807
 7329SOL    HW233621   0.487   0.882   7.880 -1.6583 -0.0722  3.7328
 7330SOL     OW33622   3.545   1.198   0.871  0.7387 -0.3014  0.6470
 7330SOL    HW133623   3.579   1.286   0.859  0.6608 -0.1705  1.3798
 7330SOL    HW233624   3.539   1.180   0.777 -3.0128  3.0943  0.2450
 7331SOL     OW33625   3.376   0.747   6.365  0.1823 -0.3001 -0.0174
 7331SOL    HW133626   3.344   0.720   6.451  0.0775 -2.4776 -0.7320
 7331SOL    HW233627   3.338   0.834   6.373 -2.2152 -1.2974 -0.5352
 7332SOL     OW33628   3.530   0.741   5.956  0.1030  0.7653  0.6497
 7332SOL    HW133629   3.485   0.752   6.040 -0.3952  2.4360  0.1546
 7332SOL    HW233630   3.498   0.820   5.912  0.4629  0.3524 -0.3381
 7333SOL     OW33631   2.298   1.830  13.972  0.3606  0.4485  0.1164
 7333SOL    HW133632   2.265   1.838  14.061  1.8311  1.8459  0.5303
 7333SOL    HW233633   2.377   1.884  13.979 -0.0347  0.7116  2.3647
 7334SOL     OW33634   0.166   3.991  14.242  0.4049  0.1750  0.2037
 7334SOL    HW133635   0.100   3.927  14.216  0.8863 -0.4360  0.4872
 7334SOL    HW233636   0.156   3.994  14.337 -1.1930  1.5916 -0.0140
 7335SOL     OW33637   2.208   1.460  14.057 -0.3706  0.9872  0.3355
 7335SOL    HW133638   2.162   1.394  14.005 -0.6516 -0.0488  1.8700
 7335SOL    HW233639   2.135   1.504  14.100 -1.4778 -1.1549  0.6682
 7336SOL     OW33640   3.600   1.196  10.133  0.1285  0.0578  0.3583
 7336SOL    HW133641   3.528   1.147  10.093 -0.3820 -1.1840  2.8026
 7336SOL    HW233642   3.556   1.274  10.168 -0.8953 -0.6990  0.7718
 7337SOL     OW33643   3.579   0.674   4.942  0.9853 -0.1679  0.3148
 7337SOL    HW133644   3.651   0.611   4.945  0.8664 -0.3987 -2.0231
 7337SOL    HW233645   3.507   0.639   4.995  1.0665 -0.0093  0.5291
 7338SOL     OW33646   2.388   3.175  12.263 -0.1913 -0.1720  0.4978
 7338SOL    HW133647   2.365   3.181  12.170 -0.3300  0.6698  0.5931
 7338SOL    HW233648   2.469   3.225  12.261 -0.7429  0.7041  0.2664
 7339SOL     OW33649   0.005   2.298   1.666  0.2543 -0.3500  0.2981
 7339SOL    HW133650   4.679   2.266   1.603  0.1526  0.6336 -0.0990
 7339SOL    HW233651   0.057   2.351   1.604 -0.1021  1.7257  1.7769
 7340SOL     OW33652   3.925   4.231  10.205  0.5156  0.2428 -0.2089
 7340SOL    HW133653   3.857   4.295  10.226  0.8699  0.4604  0.2908
 7340SOL    HW233654   3.983   4.265  10.274  1.8352 -0.4254 -0.9956
 7341SOL     OW33655   2.247   3.462   9.661 -0.1174 -0.3075  0.1395
 7341SOL    HW133656   2.305   3.538   9.667 -0.5110  0.1104 -1.2496
 7341SOL    HW233657   2.311   3.395   9.682  0.4561 -0.9278 -3.5697
 7342SOL     OW33658   1.511   4.370   2.096  0.1778  0.0293  0.2432
 7342SOL    HW133659   1.417   4.369   2.078  0.0905  0.0286  0.7028
 7342SOL    HW233660   1.537   4.439   2.036  0.7541  0.2888  0.7930
 7343SOL     OW33661   0.414   1.536   7.650 -0.4190 -0.6903 -0.0922
 7343SOL    HW133662   0.484   1.486   7.608  0.5657 -0.1717  0.9067
 7343SOL    HW233663   0.468   1.614   7.665  0.9555 -1.3042 -1.8737
 7344SOL     OW33664   1.348   1.663   3.200 -0.1789 -0.7269  0.8122
 7344SOL    HW133665   1.267   1.682   3.153  0.7272  2.2299  0.4828
 7344SOL    HW233666   1.403   1.642   3.124 -1.3611 -0.0503 -0.2320
 7345SOL     OW33667   1.249   2.947  14.152  0.1507  0.0163 -0.0617
 7345SOL    HW133668   1.219   3.003  14.080  2.0142  0.2506 -0.6489
 7345SOL    HW233669   1.344   2.956  14.152 -0.1326  3.1361 -0.8242
 7346SOL     OW33670   1.418   2.118  17.430  0.5050 -0.0131  0.3841
 7346SOL    HW133671   1.442   2.179  17.500  2.5825  0.5774 -0.8398
 7346SOL    HW233672   1.466   2.154  17.355  0.9755  0.8104  1.0784
 7347SOL     OW33673   0.509   4.184   3.174  0.6220 -0.4849 -0.2594
 7347SOL    HW133674   0.568   4.230   3.234 -1.1012  0.4223  0.7351
 7347SOL    HW233675   0.485   4.111   3.231 -0.3260  0.0498  0.0176
 7348SOL     OW33676   2.552   2.108   3.429 -0.5517 -0.5583  0.0763
 7348SOL    HW133677   2.460   2.116   3.405 -0.8476 -2.3212  0.5799
 7348SOL    HW233678   2.563   2.014   3.447 -0.3887 -0.5573 -0.0184
 7349SOL     OW33679   1.926   0.408   3.624 -0.3620  0.1580 -0.2795
 7349SOL    HW133680   1.898   0.465   3.552 -0.5521  1.3466  0.7404
 7349SOL    HW233681   2.018   0.390   3.607 -0.4940 -1.3121  0.5774
 7350SOL     OW33682   3.891   2.977  15.698  0.2130  0.0613 -0.9653
 7350SOL    HW133683   3.967   3.035  15.707 -0.1544  0.5700 -1.1098
 7350SOL    HW233684   3.842   2.999  15.777  2.3586  3.6335 -0.6015
 7351SOL     OW33685   4.297   2.637   8.842 -0.1904  0.0267 -0.6211
 7351SOL    HW133686   4.366   2.585   8.800  1.7021  1.5796  0.5295
 7351SOL    HW233687   4.316   2.716   8.791  0.3014 -0.2119 -0.8116
 7352SOL     OW33688   0.915   3.615   3.876  0.4864 -0.5397 -0.1722
 7352SOL    HW133689   0.963   3.696   3.860  1.6537 -1.0843  0.5907
 7352SOL    HW233690   0.969   3.544   3.840  1.6191 -0.9301  2.2944
 7353SOL     OW33691   4.556   4.034   2.415 -0.8583 -0.8094  0.0436
 7353SOL    HW133692   4.510   3.958   2.452  0.9244 -0.2005  3.5550
 7353SOL    HW233693   4.479   4.090   2.416  0.2742  0.7304  0.4003
 7354SOL     OW33694   3.209   1.333   7.086 -0.1109 -0.1951 -0.3767
 7354SOL    HW133695   3.208   1.250   7.037  1.9688  0.4959 -1.5690
 7354SOL    HW233696   3.297   1.366   7.071  0.1940 -0.2474  1.2977
 7355SOL     OW33697   3.337   4.069   2.283  0.4625 -0.5269 -0.3658
 7355SOL    HW133698   3.288   4.006   2.336  1.1639  1.0689  2.1988
 7355SOL    HW233699   3.420   4.021   2.290  1.0789  0.5846  0.0316
 7356SOL     OW33700   2.747   0.350  15.155  0.1850 -0.0234  0.0812
 7356SOL    HW133701   2.831   0.313  15.130  1.0420  2.0232  0.0136
 7356SOL    HW233702   2.735   0.314  15.243 -0.0601  0.8175  0.3946
 7357SOL     OW33703   0.081   4.224   2.308 -0.0653 -0.1577  0.0884
 7357SOL    HW133704   0.015   4.292   2.292  0.3989 -0.0087 -1.1981
 7357SOL    HW233705   0.059   4.154   2.245 -1.9238  0.5917 -0.1107
 7358SOL     OW33706   1.177   0.613  14.126  0.0566 -0.3656 -0.0298
 7358SOL    HW133707   1.246   0.644  14.185 -1.3655 -1.4703  2.2537
 7358SOL    HW233708   1.177   0.518  14.137 -0.7300 -0.0946  2.4891
 7359SOL     OW33709   2.404   1.991   3.118 -0.4865  0.1867 -0.4172
 7359SOL    HW133710   2.405   1.908   3.164  2.2457  0.5575  0.1685
 7359SOL    HW233711   2.484   1.980   3.066  1.7599  2.7072  2.5577
 7360SOL     OW33712   3.671   1.560   8.863  0.4919 -0.0075  0.1274
 7360SOL    HW133713   3.606   1.546   8.795  0.8079  0.6390 -0.3047
 7360SOL    HW233714   3.621   1.617   8.922  0.9678  0.4960  0.0471
 7361SOL     OW33715   0.424   1.870   9.111 -0.1196  0.3393  0.1018
 7361SOL    HW133716   0.406   1.825   9.028 -0.9085 -0.4992  0.7375
 7361SOL    HW233717   0.454   1.797   9.164 -0.6666  0.9443  1.2611
 7362SOL     OW33718   1.778   3.855  16.754  0.3584 -0.1799 -0.0892
 7362SOL    HW133719   1.733   3.782  16.796  0.6635 -1.2306 -1.5942
 7362SOL    HW233720   1.800   3.912  16.828 -0.1983  0.9346 -0.7876
 7363SOL     OW33721   4.322   1.328  11.336  0.6696 -0.3947 -0.8759
 7363SOL    HW133722   4.343   1.352  11.426 -1.8056 -0.9694 -0.1531
 7363SOL    HW233723   4.302   1.417  11.305  1.5729  0.3396  0.6547
 7364SOL     OW33724   0.847   3.472   2.790 -0.3760  0.0767 -0.1693
 7364SOL    HW133725   0.934   3.447   2.821 -1.1465 -2.4584 -0.0475
 7364SOL    HW233726   0.836   3.564   2.811  0.9725  0.5894 -1.6830
 7365SOL     OW33727   0.874   2.399   5.177  0.0840 -0.1853  0.9750
 7365SOL    HW133728   0.953   2.408   5.229  1.3837 -0.5356 -0.9296
 7365SOL    HW233729   0.876   2.482   5.130  1.4267  0.1111  1.5634
 7366SOL     OW33730   2.321   0.116  14.076 -0.1642  0.4153 -0.0132
 7366SOL    HW133731   2.341   0.065  14.155  0.6019  0.2051 -0.3390
 7366SOL    HW233732   2.243   0.161  14.106 -1.1466 -0.7853 -0.7519
 7367SOL     OW33733   4.734   0.895   6.728 -0.2560 -0.1253  0.4917
 7367SOL    HW133734   4.737   0.829   6.797 -0.4789 -1.0419 -0.3798
 7367SOL    HW233735   0.089   0.917   6.736  0.5714 -2.9506 -1.4932
 7368SOL     OW33736   0.241   3.030   6.476  0.0473 -0.5189 -0.2668
 7368SOL    HW133737   0.333   3.029   6.502  0.5563 -0.0077 -2.0710
 7368SOL    HW233738   0.234   3.103   6.415  1.1912  1.4203  1.9070
 7369SOL     OW33739   3.420   4.175  14.801  0.0071 -0.1940 -0.2021
 7369SOL    HW133740   3.389   4.147  14.887  4.5085 -3.0406  0.5338
 7369SOL    HW233741   3.344   4.224  14.769  0.4029 -0.1533 -1.0808
 7370SOL     OW33742   3.444   4.173   6.589 -0.3680 -0.3528  0.4015
 7370SOL    HW133743   3.539   4.162   6.584  0.0307  3.4589 -1.0080
 7370SOL    HW233744   3.444   4.267   6.606 -1.3878 -0.5400  1.3567
 7371SOL     OW33745   3.767   0.168   8.016 -0.0559 -0.4691  0.2633
 7371SOL    HW133746   3.761   0.144   8.109  0.8181 -0.0601  0.4288
 7371SOL    HW233747   3.841   0.122   7.978 -1.5171 -0.5608 -2.4761
 7372SOL     OW33748   2.341   0.580   5.352 -0.3028 -0.2234  0.3425
 7372SOL    HW133749   2.355   0.654   5.411 -0.9904 -1.2449  1.8022
 7372SOL    HW233750   2.245   0.588   5.349 -0.3764 -1.0666  0.4464
 7373SOL     OW33751   0.871   1.875   6.830  0.5542 -0.1069  0.0098
 7373SOL    HW133752   0.950   1.893   6.881  0.4071  0.5545  0.0043
 7373SOL    HW233753   0.801   1.878   6.895 -1.7775 -1.0002 -2.4899
 7374SOL     OW33754   0.589   0.193  13.136  0.2212  0.5278  0.8544
 7374SOL    HW133755   0.573   0.242  13.217 -4.4334  0.1454  0.1664
 7374SOL    HW233756   0.685   0.190  13.134  0.1884  0.9064 -0.7040
 7375SOL     OW33757   3.232   0.595   5.771  0.0920 -0.5829  0.5272
 7375SOL    HW133758   3.299   0.657   5.740 -2.4805  1.7627 -0.2938
 7375SOL    HW233759   3.254   0.517   5.720 -1.7334 -0.4894 -0.3957
 7376SOL     OW33760   1.979   0.882   6.128  0.0219  0.2215 -1.0541
 7376SOL    HW133761   1.969   0.958   6.070 -2.4952  0.6349 -0.0955
 7376SOL    HW233762   2.051   0.914   6.182  0.0293 -0.7939 -0.4736
 7377SOL     OW33763   0.241   4.575   1.243  0.0096  0.5308 -0.1962
 7377SOL    HW133764   0.195   4.538   1.318  0.3547  0.1065 -0.1937
 7377SOL    HW233765   0.274   4.655   1.284 -0.4980 -0.6736  2.5606
 7378SOL     OW33766   3.428   3.175  15.647 -0.3437 -0.4086 -0.7459
 7378SOL    HW133767   3.510   3.214  15.678 -0.0044 -2.1866  0.6561
 7378SOL    HW233768   3.437   3.093  15.696  0.4227  0.7720  1.0826
 7379SOL     OW33769   3.558   4.095   3.104  0.1045  0.1777  0.2159
 7379SOL    HW133770   3.584   4.173   3.055  0.4326  0.2628  0.5326
 7379SOL    HW233771   3.464   4.085   3.088 -0.0255 -1.1316  1.9207
 7380SOL     OW33772   1.618   2.387  10.968 -0.1147  0.0850 -0.1937
 7380SOL    HW133773   1.597   2.294  10.974 -0.3771  0.0698 -1.2309
 7380SOL    HW233774   1.534   2.428  10.991  0.7744  0.1260  2.9717
 7381SOL     OW33775   2.396   2.516   0.236  0.6523 -0.6189 -0.1658
 7381SOL    HW133776   2.405   2.493   0.328  1.0991 -2.7196 -0.7440
 7381SOL    HW233777   2.486   2.534   0.210  0.5046  0.1955 -0.1251
 7382SOL     OW33778   0.312   4.480  11.743  0.5850  0.6083  0.8141
 7382SOL    HW133779   0.247   4.468  11.812  0.0186 -4.1186 -0.5506
 7382SOL    HW233780   0.367   4.552  11.773  1.5017  0.1022  0.3674
 7383SOL     OW33781   4.596   2.362   0.261 -0.2777  0.4351  0.1091
 7383SOL    HW133782   4.590   2.451   0.295 -0.4049  0.4278  0.1065
 7383SOL    HW233783   4.630   2.311   0.335  1.0896  1.0944 -0.0744
 7384SOL     OW33784   3.176   3.654   4.109 -0.1416  0.2032 -0.3845
 7384SOL    HW133785   3.226   3.731   4.081 -0.1678  1.3138  2.5096
 7384SOL    HW233786   3.214   3.586   4.055 -0.9261 -0.1826 -0.4492
 7385SOL     OW33787   3.765   3.340   5.875  0.3271 -0.2999 -0.5505
 7385SOL    HW133788   3.701   3.354   5.804  0.4669 -0.2504 -0.6655
 7385SOL    HW233789   3.849   3.350   5.831 -1.1896  2.6412 -2.8250
 7386SOL     OW33790   2.285   0.474   2.801 -0.2470  0.8088 -0.6653
 7386SOL    HW133791   2.215   0.540   2.806  0.2556  1.2382  0.7567
 7386SOL    HW233792   2.288   0.424   2.882 -0.6610 -1.8201 -2.2639
 7387SOL     OW33793   1.518   4.608   6.450 -0.3510 -0.9421 -0.6359
 7387SOL    HW133794   1.603   4.605   6.493 -0.7170  0.1539  0.1494
 7387SOL    HW233795   1.460   4.556   6.505 -2.5513  2.5322  0.2961
 7388SOL     OW33796   1.329   0.188  12.771  0.2008  0.3243 -0.1780
 7388SOL    HW133797   1.394   0.126  12.801  0.2577 -0.7959 -2.6376
 7388SOL    HW233798   1.321   0.167  12.678  1.7712  0.3654 -0.3172
 7389SOL     OW33799   0.838   2.966   3.469 -0.8584 -0.3553 -0.0653
 7389SOL    HW133800   0.892   2.972   3.547 -1.7080 -3.0073  0.7281
 7389SOL    HW233801   0.759   2.943   3.517 -0.1877  0.3184  1.3619
 7390SOL     OW33802   1.613   3.087   4.484 -0.3984 -0.0782  0.1448
 7390SOL    HW133803   1.544   3.024   4.465 -1.0000  1.3337 -2.3012
 7390SOL    HW233804   1.690   3.030   4.481  0.6469  1.3002  0.3032
 7391SOL     OW33805   0.435   3.239   0.920  0.8258  0.0482  0.1730
 7391SOL    HW133806   0.474   3.177   0.981 -1.3160 -0.9985  0.4886
 7391SOL    HW233807   0.451   3.200   0.834 -1.3211 -1.1380  0.3185
 7392SOL     OW33808   0.014   0.274   7.065  0.2632 -0.4773  0.9523
 7392SOL    HW133809   0.012   0.206   7.132 -1.9900 -1.8563 -0.5113
 7392SOL    HW233810   0.076   0.240   7.000  1.8639  0.2870  2.0974
 7393SOL     OW33811   1.365   4.547   3.361  0.4593 -0.0346 -0.0255
 7393SOL    HW133812   1.272   4.564   3.343  0.5774 -0.9642 -1.4978
 7393SOL    HW233813   1.393   4.624   3.411  0.8377  0.4549 -0.9946
 7394SOL     OW33814   3.796   3.027  15.986 -0.0265  0.7463  0.3081
 7394SOL    HW133815   3.726   2.996  16.043  2.1789 -3.6400  0.6147
 7394SOL    HW233816   3.832   3.102  16.033  1.5175 -0.2230  0.6971
 7395SOL     OW33817   2.839   2.362   9.889  0.2010 -0.0796 -0.0667
 7395SOL    HW133818   2.929   2.342   9.914 -0.1196 -0.8383  0.5089
 7395SOL    HW233819   2.799   2.347   9.975  1.3956 -1.0733  0.3201
 7396SOL     OW33820   2.085   0.068   4.441  0.0162 -0.1237  0.0549
 7396SOL    HW133821   2.061   0.073   4.534 -0.2527  0.7646 -0.0624
 7396SOL    HW233822   2.181   0.072   4.441 -0.0870  2.7110 -0.8129
 7397SOL     OW33823   0.059   3.356  14.453  0.1053 -0.1856 -0.3208
 7397SOL    HW133824   0.026   3.272  14.485 -1.3680  0.4972 -0.0239
 7397SOL    HW233825   4.716   3.392  14.416  0.5244  1.0849  0.0196
 7398SOL     OW33826   1.858   2.198  12.943 -0.3175 -0.4817  0.3346
 7398SOL    HW133827   1.920   2.271  12.944 -1.9112  0.8741 -0.8034
 7398SOL    HW233828   1.809   2.227  13.019  0.4356  1.7834 -0.0364
 7399SOL     OW33829   4.182   1.335   3.649 -0.1712 -0.4345 -0.1913
 7399SOL    HW133830   4.261   1.372   3.610 -1.2433  0.1322 -1.7964
 7399SOL    HW233831   4.135   1.416   3.633 -0.7027 -0.6088  0.5053
 7400SOL     OW33832   0.030   1.512  12.568 -1.0606  1.0622  0.3244
 7400SOL    HW133833   0.034   1.576  12.498  0.4146  0.2702 -0.3177
 7400SOL    HW233834   0.015   1.565  12.646 -1.3944  1.9938 -0.3862
 7401SOL     OW33835   2.177   0.152   1.699 -0.3166 -0.2875 -0.4532
 7401SOL    HW133836   2.161   0.226   1.757 -1.2850 -1.0559  0.2631
 7401SOL    HW233837   2.224   0.205   1.635 -0.3197  1.1256  0.7299
 7402SOL     OW33838   0.209   2.429   2.168 -0.3973  0.3264 -0.5933
 7402SOL    HW133839   0.305   2.423   2.165 -0.6034 -2.8183 -0.9694
 7402SOL    HW233840   0.191   2.495   2.101  0.9369 -2.0883 -3.3499
 7403SOL     OW33841   2.906   2.115   2.343 -0.4242  0.4551  0.1113
 7403SOL    HW133842   2.985   2.067   2.317  0.1631  1.4662  0.0113
 7403SOL    HW233843   2.947   2.179   2.402  0.4922 -1.1447  1.2138
 7404SOL     OW33844   0.459   1.994   3.512 -0.0212 -0.4910  0.1861
 7404SOL    HW133845   0.548   2.026   3.495 -0.2590 -0.0516 -0.2281
 7404SOL    HW233846   0.484   1.923   3.571 -0.1153  0.3133  1.2060
 7405SOL     OW33847   3.619   2.823   9.596  0.4777 -0.3402  0.2886
 7405SOL    HW133848   3.570   2.741   9.603  0.4217 -0.1612  2.0759
 7405SOL    HW233849   3.680   2.800   9.666  1.5736 -2.7176 -1.4619
 7406SOL     OW33850   0.993   2.851   0.483  0.0299  0.6272  0.0410
 7406SOL    HW133851   1.026   2.855   0.393  1.7659  0.2694  0.6644
 7406SOL    HW233852   0.919   2.913   0.482 -0.8543 -0.4221  0.3446
 7407SOL     OW33853   3.005   0.112   3.155  0.0497 -0.2881 -0.4790
 7407SOL    HW133854   2.958   0.195   3.156  1.5192  0.5461 -0.4101
 7407SOL    HW233855   3.051   0.120   3.239 -0.9945  0.0873  0.0483
 7408SOL     OW33856   1.809   0.489   6.663  0.4274  0.3711  0.5831
 7408SOL    HW133857   1.841   0.579   6.655  1.4073  0.0150  0.4147
 7408SOL    HW233858   1.760   0.504   6.743 -2.2462  0.7447 -1.1324
 7409SOL     OW33859   3.824   3.302  15.338  1.2417  0.1399 -0.0858
 7409SOL    HW133860   3.840   3.336  15.249  0.4477 -0.0157 -0.2919
 7409SOL    HW233861   3.850   3.210  15.332  1.4994  0.0924  1.7575
 7410SOL     OW33862   4.626   3.043   2.465 -0.2993  1.1477  0.7022
 7410SOL    HW133863   4.697   3.036   2.528  1.7349  0.5768 -1.6559
 7410SOL    HW233864   4.674   3.097   2.403 -1.5260  0.8630 -0.5210
 7411SOL     OW33865   0.508   4.610  17.132 -0.1146 -0.1956  0.0485
 7411SOL    HW133866   0.551   4.605  17.217 -0.9442 -1.5831  0.3887
 7411SOL    HW233867   0.486   4.703  17.139  0.6484 -0.0448  0.3589
 7412SOL     OW33868   3.555   2.872   9.340  0.3347  0.3624  0.1915
 7412SOL    HW133869   3.571   2.866   9.434  0.2466  2.4827  0.3468
 7412SOL    HW233870   3.646   2.864   9.311 -0.1180  0.4269 -1.2466
 7413SOL     OW33871   2.589   4.451   4.628  0.7058 -0.0273 -0.1302
 7413SOL    HW133872   2.495   4.432   4.624  0.8416 -0.7181 -0.0517
 7413SOL    HW233873   2.609   4.408   4.712  0.7876  2.5040  1.1475
 7414SOL     OW33874   0.001   0.435   2.795  0.0818 -0.2293 -0.4860
 7414SOL    HW133875   4.723   0.401   2.707 -0.3873 -2.8109  0.5693
 7414SOL    HW233876   4.716   0.353   2.840 -0.8804  0.4728  0.2810
 7415SOL     OW33877   0.144   1.622   1.385 -0.5824  0.1212  1.1502
 7415SOL    HW133878   0.230   1.619   1.425  0.2323  1.0536 -0.5137
 7415SOL    HW233879   0.087   1.638   1.461 -1.3377 -0.4254  0.6975
 7416SOL     OW33880   2.659   1.246   3.964 -0.1156  0.0072  0.0421
 7416SOL    HW133881   2.585   1.307   3.964  0.2170  0.4213 -1.9813
 7416SOL    HW233882   2.628   1.190   4.035 -0.6613 -0.9827 -0.9971
 7417SOL     OW33883   3.960   1.925   7.805  0.1634  0.3376  0.3910
 7417SOL    HW133884   4.034   1.965   7.851  1.2237 -0.7191 -0.3801
 7417SOL    HW233885   3.908   1.895   7.880 -1.2316  1.9322  0.0583
 7418SOL     OW33886   1.488   2.087   6.420  0.1786  0.2800  0.0911
 7418SOL    HW133887   1.395   2.087   6.446  0.5900 -0.2213  1.5585
 7418SOL    HW233888   1.500   2.166   6.368  0.5463 -0.7413 -1.3808
 7419SOL     OW33889   2.120   0.197   8.723  0.6148  0.6790  0.4286
 7419SOL    HW133890   2.086   0.236   8.804  1.7548  0.4711  1.0212
 7419SOL    HW233891   2.152   0.118   8.766  3.7078  1.5471 -0.2219
 7420SOL     OW33892   3.358   4.235   7.864  0.5854  0.0361  0.1078
 7420SOL    HW133893   3.271   4.221   7.825 -0.1150 -0.4871  1.8380
 7420SOL    HW233894   3.315   4.281   7.936  1.5081  1.1044 -0.0346
 7421SOL     OW33895   1.594   3.959   1.130  0.3186  0.2091 -0.2016
 7421SOL    HW133896   1.526   4.001   1.183 -0.1821 -0.4622 -0.3122
 7421SOL    HW233897   1.658   4.030   1.133 -2.0788  2.3357  0.6827
 7422SOL     OW33898   2.549   1.312   9.158 -0.3115  0.3115  0.5289
 7422SOL    HW133899   2.587   1.380   9.215 -1.3074  1.0394  0.3409
 7422SOL    HW233900   2.508   1.248   9.217 -0.0005 -1.7355 -1.4889
 7423SOL     OW33901   0.607   2.742   6.642  0.3570 -0.7275  1.1482
 7423SOL    HW133902   0.682   2.683   6.651  1.5115  0.8254  1.7821
 7423SOL    HW233903   0.535   2.684   6.618 -0.0343  0.3681 -0.3234
 7424SOL     OW33904   0.343   0.867   6.089  0.5892  0.1748 -0.8980
 7424SOL    HW133905   0.277   0.828   6.031  1.4561  0.7096 -2.2539
 7424SOL    HW233906   0.320   0.960   6.084  3.3902  1.0556  2.4294
 7425SOL     OW33907   2.503   2.189   4.544  0.0797 -0.2475  0.1345
 7425SOL    HW133908   2.511   2.095   4.526  1.4274  0.2287 -1.7941
 7425SOL    HW233909   2.552   2.200   4.626  2.6806 -4.8437 -0.8150
 7426SOL     OW33910   2.774   4.164   6.403 -0.2500  0.4068  0.3568
 7426SOL    HW133911   2.713   4.098   6.434 -2.1799  1.8836 -0.3031
 7426SOL    HW233912   2.729   4.247   6.420 -2.1833 -0.3774 -0.9166
 7427SOL     OW33913   3.945   3.180   3.889  0.3048 -0.9187  0.1583
 7427SOL    HW133914   3.958   3.090   3.916  0.6800 -0.6975  0.7014
 7427SOL    HW233915   3.883   3.160   3.819  0.9277 -1.3639 -0.2661
 7428SOL     OW33916   2.476   4.426   6.644 -0.2066 -0.2867  0.2721
 7428SOL    HW133917   2.485   4.391   6.733 -0.2369 -0.6753  0.1239
 7428SOL    HW233918   2.534   4.502   6.642 -1.0654  0.3154 -2.1576
 7429SOL     OW33919   3.932   3.416  11.132 -0.2756 -0.0737  0.5900
 7429SOL    HW133920   3.961   3.353  11.198 -3.0271 -2.3863 -0.4175
 7429SOL    HW233921   3.910   3.352  11.064  1.4068  0.8953 -0.8612
 7430SOL     OW33922   1.481   2.943  17.300  0.5806  0.1072  0.5075
 7430SOL    HW133923   1.528   2.871  17.258 -1.4326  0.0500 -1.6686
 7430SOL    HW233924   1.389   2.926  17.280 -0.2054  0.8638  3.6312
 7431SOL     OW33925   2.861   2.193   9.350  0.3307 -0.0893  0.4759
 7431SOL    HW133926   2.890   2.114   9.304  0.4001  0.4561 -0.4013
 7431SOL    HW233927   2.864   2.258   9.281  2.2043 -1.4859 -0.7845
 7432SOL     OW33928   3.421   3.040   8.026  0.2288 -0.0796 -0.2783
 7432SOL    HW133929   3.447   2.984   7.954 -0.2065  0.1938 -0.6546
 7432SOL    HW233930   3.393   3.106   7.962  1.0648  1.2164  0.6900
 7433SOL     OW33931   2.645   2.548   9.820  0.4766 -0.0342 -0.0455
 7433SOL    HW133932   2.582   2.487   9.858 -1.2197  0.6876 -1.7181
 7433SOL    HW233933   2.723   2.494   9.813  0.2014 -0.5338  0.6693
 7434SOL     OW33934   2.443   1.212   8.374 -0.3838  0.0266  0.1402
 7434SOL    HW133935   2.408   1.147   8.313 -0.0578  0.2482 -0.2778
 7434SOL    HW233936   2.532   1.223   8.341 -0.6768  1.7254 -0.0723
 7435SOL     OW33937   4.472   0.587  13.742 -0.6519  0.3293  0.3869
 7435SOL    HW133938   4.548   0.599  13.800  0.7404 -0.8166 -1.2074
 7435SOL    HW233939   4.516   0.598  13.658  0.2889 -2.2422  0.5581
 7436SOL     OW33940   3.113   3.856  15.377 -0.1592  0.2357  0.1999
 7436SOL    HW133941   3.180   3.818  15.320  0.1027  1.7193 -0.4805
 7436SOL    HW233942   3.172   3.922  15.413  1.0269  0.5158 -2.2494
 7437SOL     OW33943   1.791   1.584   1.389  0.1428  0.3941 -0.4030
 7437SOL    HW133944   1.847   1.627   1.325 -0.0371  0.1406 -0.7347
 7437SOL    HW233945   1.801   1.497   1.350  0.6533  0.2861 -0.0303
 7438SOL     OW33946   4.698   1.323  17.261 -0.0166 -0.1492 -1.4238
 7438SOL    HW133947   4.700   1.232  17.231 -0.1735 -0.6752  0.2078
 7438SOL    HW233948   0.021   1.322  17.335 -1.7044 -3.4334 -0.0852
 7439SOL     OW33949   0.567   0.504  12.955 -0.5222 -0.2779  0.3189
 7439SOL    HW133950   0.531   0.476  13.039 -1.7055 -0.5894 -0.2998
 7439SOL    HW233951   0.597   0.590  12.986 -1.1482  0.2888 -0.6562
 7440SOL     OW33952   0.717   2.342   3.961 -0.1291 -0.2773  0.8586
 7440SOL    HW133953   0.681   2.403   4.024  1.0778  0.0728  1.2149
 7440SOL    HW233954   0.805   2.378   3.949 -1.0639  1.3951 -0.9213
 7441SOL     OW33955   1.078   4.279  15.393 -0.1705  0.2219  0.1411
 7441SOL    HW133956   1.040   4.216  15.332 -0.0181  0.2971 -0.0305
 7441SOL    HW233957   1.010   4.266  15.459 -1.2745  0.8232 -0.8564
 7442SOL     OW33958   2.066   0.842   6.511 -0.4873  0.4930 -0.3563
 7442SOL    HW133959   2.107   0.886   6.437  1.6940  0.7848  1.0112
 7442SOL    HW233960   2.081   0.750   6.491  1.4329  0.8224 -0.4635
 7443SOL     OW33961   0.017   3.194   2.294 -0.2880 -0.2940 -0.5489
 7443SOL    HW133962   0.056   3.161   2.213 -0.2700 -3.4615  0.7169
 7443SOL    HW233963   4.728   3.279   2.262  2.4788  1.1918  1.0229
 7444SOL     OW33964   3.376   2.377   3.955  0.9425  0.2199  0.0206
 7444SOL    HW133965   3.450   2.430   3.926  1.6211 -0.9834 -0.4515
 7444SOL    HW233966   3.322   2.372   3.876  1.4617 -1.2147 -0.2505
 7445SOL     OW33967   1.187   2.177   2.834  0.0260 -0.4368  0.2396
 7445SOL    HW133968   1.269   2.140   2.803 -0.2918 -1.3356  0.4692
 7445SOL    HW233969   1.125   2.176   2.761 -2.4051  0.7347  2.2433
 7446SOL     OW33970   0.286   0.816   4.410  0.0802  0.6796 -0.4845
 7446SOL    HW133971   0.262   0.885   4.472  1.2575 -0.8603  1.6672
 7446SOL    HW233972   0.365   0.859   4.378  0.6195 -0.8673 -1.2369
 7447SOL     OW33973   2.076   4.472   7.512  1.1462  0.7039  0.3696
 7447SOL    HW133974   2.052   4.425   7.592 -2.9406  0.0063 -1.2266
 7447SOL    HW233975   2.163   4.493   7.545  1.4303 -0.4739  0.3775
 7448SOL     OW33976   1.460   0.932   5.178 -0.5611  0.0925  0.0184
 7448SOL    HW133977   1.460   1.018   5.220 -0.0714 -0.6769  1.6198
 7448SOL    HW233978   1.505   0.956   5.097 -0.9328 -1.7003 -0.7144
 7449SOL     OW33979   1.543   2.753  13.690  0.3509  0.4472  0.2037
 7449SOL    HW133980   1.558   2.672  13.640 -0.8397  0.3180  0.0500
 7449SOL    HW233981   1.472   2.724  13.747  1.1007 -2.3732 -0.2934
 7450SOL     OW33982   4.565   1.760   4.039  0.3651 -0.0117 -0.4781
 7450SOL    HW133983   4.640   1.703   4.057 -0.6459 -0.9995  0.5676
 7450SOL    HW233984   4.508   1.699   3.993  0.1016 -0.5295  0.5316
 7451SOL     OW33985   0.557   3.689  10.245 -0.1108 -0.3723 -0.3861
 7451SOL    HW133986   0.613   3.671  10.170 -1.0567 -1.6549 -0.7802
 7451SOL    HW233987   0.506   3.608  10.242 -1.0248  0.1639  0.5595
 7452SOL     OW33988   4.462   4.589   7.672 -0.1868 -0.2989 -0.6007
 7452SOL    HW133989   4.494   4.575   7.761 -3.1944 -0.2499  0.4898
 7452SOL    HW233990   4.499   4.674   7.648 -0.3117 -0.9215 -3.0218
 7453SOL     OW33991   3.252   0.373   2.723  0.1088  0.5330  0.4588
 7453SOL    HW133992   3.287   0.375   2.633  0.0758 -1.3415  0.4164
 7453SOL    HW233993   3.177   0.431   2.716 -0.7744 -0.7007 -0.2708
 7454SOL     OW33994   1.859   0.964  16.493 -0.2400  1.0084 -0.3782
 7454SOL    HW133995   1.771   0.996  16.516  0.3120  1.8365  0.5460
 7454SOL    HW233996   1.841   0.890  16.435 -1.1373  1.2270 -0.3848
 7455SOL     OW33997   4.621   3.393   0.868 -0.4999 -0.2647  0.2342
 7455SOL    HW133998   4.563   3.452   0.820 -0.2870 -0.6600 -0.5118
 7455SOL    HW233999   4.620   3.435   0.954  0.6095  0.8144 -0.2821
 7456SOL     OW34000   4.043   2.839   9.400 -0.3414 -0.2877 -0.3361
 7456SOL    HW134001   3.982   2.777   9.361  0.5602 -1.7525  0.5795
 7456SOL    HW234002   3.999   2.924   9.403 -2.7641 -1.5371 -0.5599
 7457SOL     OW34003   4.145   3.221  16.317 -0.5026 -0.4487  0.5762
 7457SOL    HW134004   4.199   3.286  16.272  0.3528 -0.7997  1.0936
 7457SOL    HW234005   4.078   3.275  16.359 -0.7786 -1.1682  1.0592
 7458SOL     OW34006   3.599   4.242   3.773 -0.1394  0.4072  0.1397
 7458SOL    HW134007   3.567   4.176   3.835 -0.9491 -0.1528 -0.8831
 7458SOL    HW234008   3.603   4.327   3.817  2.2363  0.6760 -0.5916
 7459SOL     OW34009   4.711   0.009   0.300  0.2081  0.6079  0.3058
 7459SOL    HW134010   4.643   4.725   0.364  2.5189 -0.0465  2.5642
 7459SOL    HW234011   4.735   4.660   0.268  1.8393  1.3989 -0.6393
 7460SOL     OW34012   1.388   2.816   6.521  0.4476 -0.4618  0.1670
 7460SOL    HW134013   1.385   2.802   6.426  0.3495 -1.5436  0.3299
 7460SOL    HW234014   1.301   2.780   6.541  1.3271 -1.2729  2.5599
 7461SOL     OW34015   2.247   0.099  10.328 -0.0184 -0.2208  0.0475
 7461SOL    HW134016   2.162   0.078  10.289  0.0899  1.2239 -0.9667
 7461SOL    HW234017   2.235   0.077  10.421 -0.4173  2.1461  0.5457
 7462SOL     OW34018   4.337   0.976   5.981 -0.0628 -0.0788  0.4731
 7462SOL    HW134019   4.409   0.921   5.950  0.2119  0.6494 -0.1902
 7462SOL    HW234020   4.376   1.062   5.997  1.4062 -0.8904  1.2331
 7463SOL     OW34021   2.322   0.744   1.776  0.0245 -0.2547 -0.8372
 7463SOL    HW134022   2.401   0.693   1.791 -0.0512 -0.9335 -2.8009
 7463SOL    HW234023   2.344   0.836   1.792 -2.2328  0.0090  0.6736
 7464SOL     OW34024   4.592   2.277  17.392 -0.2039  0.2757  0.0525
 7464SOL    HW134025   4.574   2.303  17.302  0.7360  2.1687  0.4076
 7464SOL    HW234026   4.654   2.341  17.428  0.6132 -0.1293 -0.6514
 7465SOL     OW34027   0.625   4.644   3.610  0.0722 -0.0574 -0.3417
 7465SOL    HW134028   0.674   4.690   3.542  0.7736 -0.9370 -0.4291
 7465SOL    HW234029   0.535   4.665   3.587  0.7562  0.7950 -2.2230
 7466SOL     OW34030   0.800   2.176   9.028  0.0387 -0.0827  0.2236
 7466SOL    HW134031   0.811   2.121   9.105  2.8748  0.2873  0.0788
 7466SOL    HW234032   0.839   2.261   9.048 -3.1278  2.0702 -2.6795
 7467SOL     OW34033   3.771   0.587   0.346 -0.7615 -0.2289  0.1497
 7467SOL    HW134034   3.733   0.564   0.261  2.2924 -1.5771 -0.8293
 7467SOL    HW234035   3.860   0.553   0.347 -0.4877  0.5481  1.5910
 7468SOL     OW34036   0.130   0.443   5.041 -0.5036  0.5607  0.1571
 7468SOL    HW134037   0.079   0.488   5.108 -1.7479  0.4070 -0.6811
 7468SOL    HW234038   0.223   0.456   5.063 -0.3861 -1.0199  0.5868
 7469SOL     OW34039   3.907   4.007  16.358  0.1205  0.0995  0.1556
 7469SOL    HW134040   3.939   3.988  16.447  0.7311  1.5279  0.2467
 7469SOL    HW234041   3.812   3.999  16.355  0.2866 -1.9780  0.5728
 7470SOL     OW34042   1.946   3.561  13.524  0.1822 -0.2653 -0.0112
 7470SOL    HW134043   2.019   3.554  13.585 -1.9525  1.2440  2.6951
 7470SOL    HW234044   1.876   3.569  13.589 -0.3702  0.1884 -0.6559
 7471SOL     OW34045   2.344   3.204  17.635  0.6145 -0.2466  0.0626
 7471SOL    HW134046   2.433   3.194  17.601  1.2825  1.9955  1.1017
 7471SOL    HW234047   2.296   3.199  17.552  2.1147  0.2828 -0.8526
 7472SOL     OW34048   1.809   1.681  15.602 -0.0939  0.1255 -0.1489
 7472SOL    HW134049   1.849   1.606  15.644  0.6749 -0.0558 -1.2195
 7472SOL    HW234050   1.779   1.648  15.517  0.6501 -2.4775  0.6163
 7473SOL     OW34051   2.446   1.720   7.162 -0.4234 -0.3813  0.2705
 7473SOL    HW134052   2.374   1.763   7.208  0.2005  0.5316  0.3958
 7473SOL    HW234053   2.516   1.785   7.167 -1.6913  0.9379  0.6175
 7474SOL     OW34054   3.034   1.993  15.513 -0.4842 -0.1189  0.3141
 7474SOL    HW134055   3.079   1.910  15.495 -1.1291 -0.2823 -0.5347
 7474SOL    HW234056   2.957   1.963  15.561 -1.1846 -0.1468 -0.8340
 7475SOL     OW34057   3.341   1.642   5.390  0.1004 -0.6883 -0.1399
 7475SOL    HW134058   3.399   1.650   5.315  1.2190 -0.8792  0.7151
 7475SOL    HW234059   3.280   1.715   5.374  0.0644 -1.1056 -1.8683
 7476SOL     OW34060   0.771   0.935   3.614 -0.1505  0.0858  0.3065
 7476SOL    HW134061   0.774   0.842   3.636  0.6726  0.7448  3.0023
 7476SOL    HW234062   0.682   0.967   3.629 -0.0740  0.5586 -0.2239
 7477SOL     OW34063   2.287   4.347   1.143 -0.2487 -0.1670 -0.1854
 7477SOL    HW134064   2.322   4.436   1.151  1.0143 -0.4695 -2.2490
 7477SOL    HW234065   2.326   4.289   1.207 -0.0795 -1.2903 -1.3085
 7478SOL     OW34066   3.319   2.107   8.752 -0.0672  0.2826 -0.2331
 7478SOL    HW134067   3.264   2.029   8.762  0.7544 -0.2086  0.4546
 7478SOL    HW234068   3.317   2.119   8.657 -3.6799 -0.5982 -0.3005
 7479SOL     OW34069   0.185   2.033   9.023  0.2118  0.0443  0.0525
 7479SOL    HW134070   0.246   1.982   8.970  1.5943  0.1020  1.5892
 7479SOL    HW234071   0.217   2.012   9.110 -0.0573  0.9248  0.3672
 7480SOL     OW34072   0.192   3.427  13.027  0.3356 -0.6176 -0.1035
 7480SOL    HW134073   0.184   3.331  13.032 -0.6409 -0.5365 -0.2094
 7480SOL    HW234074   0.259   3.440  13.093 -0.4674 -0.1342  0.6052
 7481SOL     OW34075   3.259   3.306   3.620  0.5822  0.8366 -0.2093
 7481SOL    HW134076   3.280   3.250   3.545  1.6687  1.4154 -0.3355
 7481SOL    HW234077   3.188   3.355   3.578 -0.6399  0.2828  1.2159
 7482SOL     OW34078   1.247   1.025  15.556  0.0736 -0.4200 -0.4370
 7482SOL    HW134079   1.236   0.953  15.493  1.2454  1.0266 -2.3125
 7482SOL    HW234080   1.184   1.003  15.624 -1.7836 -1.7575 -2.5723
 7483SOL     OW34081   2.759   3.993  11.058  0.2444  0.5062 -0.1875
 7483SOL    HW134082   2.667   4.016  11.044  0.6325  1.4889 -1.1108
 7483SOL    HW234083   2.807   4.030  10.984 -0.7280 -1.1621 -1.6705
 7484SOL     OW34084   0.450   2.137  13.530 -0.0753 -0.3231 -0.3601
 7484SOL    HW134085   0.442   2.080  13.607  2.7289  0.0687  0.2021
 7484SOL    HW234086   0.376   2.119  13.472 -0.3892 -1.0967  0.2845
 7485SOL     OW34087   0.476   1.333  14.691  0.1733  0.1861  0.3854
 7485SOL    HW134088   0.382   1.316  14.696 -0.5082  3.4797 -0.8581
 7485SOL    HW234089   0.483   1.397  14.763 -1.3321  1.6510 -0.7595
 7486SOL     OW34090   2.951   0.189   1.228  0.2096 -0.0917  0.0166
 7486SOL    HW134091   3.037   0.152   1.251  0.6200  0.4137 -0.7013
 7486SOL    HW234092   2.953   0.256   1.297  3.3842 -1.7505  1.5558
 7487SOL     OW34093   2.335   1.976   0.408  0.4029  0.0775 -0.1661
 7487SOL    HW134094   2.279   2.053   0.398 -0.8690 -0.3352  4.2866
 7487SOL    HW234095   2.401   1.995   0.340 -0.1685  1.2283 -0.4090
 7488SOL     OW34096   1.724   2.840   3.175  0.8980 -0.5424  0.5821
 7488SOL    HW134097   1.737   2.931   3.200  2.1018 -0.6994  0.5493
 7488SOL    HW234098   1.771   2.795   3.245  0.8708 -1.5518 -0.0472
 7489SOL     OW34099   0.673   4.530   2.511  0.1533 -0.2754 -0.1557
 7489SOL    HW134100   0.620   4.541   2.432 -0.5137 -2.4106 -0.0105
 7489SOL    HW234101   0.720   4.452   2.481  0.6486  0.3315 -0.9346
 7490SOL     OW34102   4.206   0.117   2.171  0.2251  0.2222 -0.6957
 7490SOL    HW134103   4.176   0.026   2.171  1.3770 -0.1473 -1.2675
 7490SOL    HW234104   4.134   0.156   2.221  1.0219 -0.2932  0.8834
 7491SOL     OW34105   3.726   0.600   2.864 -0.0878 -0.1381  0.1081
 7491SOL    HW134106   3.754   0.691   2.874  0.5431 -0.2499 -0.6067
 7491SOL    HW234107   3.691   0.587   2.776  3.8208  1.1610 -1.6502
 7492SOL     OW34108   0.688   3.712   2.254  0.3035  0.4047 -0.1877
 7492SOL    HW134109   0.669   3.632   2.206  0.1324  0.1670  0.2748
 7492SOL    HW234110   0.777   3.732   2.225 -0.6874 -0.8741 -4.0689
 7493SOL     OW34111   0.533   0.817   5.501  0.2299 -0.5724 -0.4535
 7493SOL    HW134112   0.610   0.820   5.444  0.7050 -0.0916  0.1929
 7493SOL    HW234113   0.516   0.723   5.502 -2.6025 -0.0280  0.5503
 7494SOL     OW34114   1.412   0.824   4.854 -0.3133 -0.3506 -0.1523
 7494SOL    HW134115   1.326   0.787   4.834 -2.0331  4.6112 -2.0644
 7494SOL    HW234116   1.440   0.852   4.767  3.4716 -2.5235  0.3707
 7495SOL     OW34117   0.782   4.224  15.681  0.5245 -0.7079  0.0795
 7495SOL    HW134118   0.744   4.137  15.670  0.0997 -0.6349  0.9811
 7495SOL    HW234119   0.873   4.217  15.652 -0.0607 -1.1951 -1.6694
 7496SOL     OW34120   4.480   0.448   2.334 -0.0865  0.3044  0.0575
 7496SOL    HW134121   4.414   0.432   2.402  0.7592  0.8436  1.0048
 7496SOL    HW234122   4.439   0.515   2.279  1.1363 -0.0748 -1.3190
 7497SOL     OW34123   2.943   2.306  17.080  0.2955  0.5701 -0.2610
 7497SOL    HW134124   2.866   2.281  17.029 -0.1283 -0.1885  0.7433
 7497SOL    HW234125   2.949   2.397  17.052 -2.2363  1.8998  3.5826
 7498SOL     OW34126   0.848   4.552   3.273  0.0545 -0.1593 -0.1272
 7498SOL    HW134127   0.932   4.582   3.307 -0.5799  2.1120 -0.4946
 7498SOL    HW234128   0.875   4.506   3.194  0.3926 -1.7196  0.8965
 7499SOL     OW34129   2.753   4.345   4.332 -0.5825 -0.0687 -0.2336
 7499SOL    HW134130   2.748   4.427   4.282  0.4244  1.3282  1.9687
 7499SOL    HW234131   2.678   4.351   4.391 -0.5332  0.5384 -0.2319
 7500SOL     OW34132   1.258   2.973   3.988 -0.1131 -0.3754  0.7921
 7500SOL    HW134133   1.300   2.896   3.949 -1.6299 -1.0173  0.4064
 7500SOL    HW234134   1.276   2.962   4.081  0.3149 -0.4716  0.6962
 7501SOL     OW34135   0.975   1.152   4.449 -0.3676 -0.5807 -0.0670
 7501SOL    HW134136   0.971   1.067   4.493 -1.8639 -0.7336 -0.5073
 7501SOL    HW234137   0.889   1.184   4.477  0.8024  2.2314  0.3655
 7502SOL     OW34138   2.935   1.637   9.258 -0.1765  0.1946 -0.3507
 7502SOL    HW134139   2.856   1.591   9.230 -1.7393  2.0910  0.9111
 7502SOL    HW234140   2.992   1.616   9.184 -1.5112 -3.1317 -0.4533
 7503SOL     OW34141   2.138   0.131   5.963 -0.5638 -0.1905 -0.1658
 7503SOL    HW134142   2.146   0.057   6.024  0.2211  1.4660  1.7080
 7503SOL    HW234143   2.043   0.138   5.958 -0.5651 -1.1778 -1.7879
 7504SOL     OW34144   3.790   2.781   7.302 -0.1799  0.0154  0.2261
 7504SOL    HW134145   3.823   2.791   7.213 -2.7281  2.5526 -0.4157
 7504SOL    HW234146   3.803   2.873   7.325  1.5695 -0.5900  1.6158
 7505SOL     OW34147   3.217   0.503  11.938 -0.0893 -0.2785 -0.0047
 7505SOL    HW134148   3.235   0.597  11.937  0.5256 -0.3757  1.8437
 7505SOL    HW234149   3.220   0.478  11.846  1.6188 -0.7907  0.1852
 7506SOL     OW34150   2.410   3.883   7.363  0.3606 -0.0454 -0.4065
 7506SOL    HW134151   2.340   3.857   7.303  1.5400  0.8256 -2.1854
 7506SOL    HW234152   2.384   3.849   7.448  2.4535 -0.5824  0.0349
 7507SOL     OW34153   1.314   3.965   8.812  0.2501  0.8852  0.4240
 7507SOL    HW134154   1.406   3.945   8.829  1.1651  1.1653 -4.4805
 7507SOL    HW234155   1.307   4.058   8.833 -1.4161  1.4158 -2.4628
 7508SOL     OW34156   3.454   2.678   5.641  0.6493  0.7305  0.2251
 7508SOL    HW134157   3.381   2.659   5.699  1.9435  1.8860  2.2586
 7508SOL    HW234158   3.430   2.625   5.565  3.2851  0.3739 -0.3840
 7509SOL     OW34159   1.576   2.830   6.227 -0.0289  0.7535 -0.0853
 7509SOL    HW134160   1.623   2.909   6.253  0.8395  0.8072 -1.8137
 7509SOL    HW234161   1.585   2.768   6.299 -2.0307  0.4380 -0.1082
 7510SOL     OW34162   3.836   1.937   4.818 -0.0272  0.1879  0.1813
 7510SOL    HW134163   3.917   1.905   4.858  0.2076  0.3834 -0.1481
 7510SOL    HW234164   3.790   1.853   4.812 -1.4441  0.7585  2.9075
 7511SOL     OW34165   2.003   3.734   3.996  0.0346  0.0025 -0.0883
 7511SOL    HW134166   2.086   3.691   3.979 -0.3372 -0.3926 -0.8856
 7511SOL    HW234167   1.951   3.700   3.924  2.3895 -0.7373 -1.4352
 7512SOL     OW34168   1.769   4.128   1.850 -0.1322 -0.0586 -0.3483
 7512SOL    HW134169   1.683   4.119   1.892  1.5326 -0.2116  2.9570
 7512SOL    HW234170   1.828   4.161   1.917  0.5755  0.3644 -1.1805
 7513SOL     OW34171   2.012   3.487   3.335 -0.2233  0.5643 -0.1330
 7513SOL    HW134172   2.055   3.409   3.368  1.8810  0.2534 -3.6000
 7513SOL    HW234173   2.043   3.470   3.246 -3.9028  2.0711 -1.7057
 7514SOL     OW34174   4.181   4.398   4.052  0.2064  0.6558  0.2129
 7514SOL    HW134175   4.208   4.313   4.016 -2.0295  0.0599 -0.0494
 7514SOL    HW234176   4.266   4.443   4.052  0.6732 -0.2481  1.5826
 7515SOL     OW34177   0.593   4.690   5.886 -0.1657  0.2491  0.0188
 7515SOL    HW134178   0.557   0.029   5.842  1.4216  1.0649  0.1163
 7515SOL    HW234179   0.608   4.717   5.977  0.0968  0.1859 -0.0045
 7516SOL     OW34180   3.159   2.232   4.519 -0.0700  0.1003  0.2480
 7516SOL    HW134181   3.237   2.269   4.561 -1.8205  0.1154  3.5263
 7516SOL    HW234182   3.089   2.267   4.574  0.2636 -1.0051  1.3851
 7517SOL     OW34183   3.730   4.729   4.829  0.1171  0.8154  0.8410
 7517SOL    HW134184   3.727   4.648   4.779 -3.1109  1.2424  0.2912
 7517SOL    HW234185   3.660   4.709   4.891 -0.5497 -2.2536 -0.9151
 7518SOL     OW34186   3.009   0.747  11.532 -0.3092 -0.0730  0.6461
 7518SOL    HW134187   2.968   0.680  11.477 -2.9120  1.6880  0.4731
 7518SOL    HW234188   3.040   0.802  11.460 -0.2588 -0.1407  0.6156
 7519SOL     OW34189   2.346   2.176   0.991 -0.2110  0.0644 -0.2717
 7519SOL    HW134190   2.399   2.097   0.995  1.5792  1.1979 -1.9105
 7519SOL    HW234191   2.410   2.236   1.029 -1.1072  2.0315 -1.9002
 7520SOL     OW34192   3.431   1.381   6.520  0.0545 -0.0468  0.4964
 7520SOL    HW134193   3.518   1.362   6.554  0.4005  1.6368  0.5544
 7520SOL    HW234194   3.451   1.428   6.439 -0.2244 -1.3160 -0.3117
 7521SOL     OW34195   3.717   4.320   7.798 -0.0784 -0.7193  0.1097
 7521SOL    HW134196   3.669   4.246   7.760  0.9124 -0.5443 -1.4936
 7521SOL    HW234197   3.785   4.268   7.840 -0.9021 -0.6649  1.4847
 7522SOL     OW34198   3.435   3.161   1.880  0.1748 -0.1149 -0.3460
 7522SOL    HW134199   3.342   3.162   1.859  0.2503 -2.9998 -0.7356
 7522SOL    HW234200   3.456   3.252   1.858 -1.9022  1.1576  2.8905
 7523SOL     OW34201   4.579   3.660  14.585 -0.2911 -0.0286  0.0523
 7523SOL    HW134202   4.561   3.618  14.500  1.5172  4.1161 -2.3717
 7523SOL    HW234203   4.499   3.712  14.594 -0.2994 -0.0530  0.1177
 7524SOL     OW34204   2.058   0.770   5.324 -0.5715 -0.3670 -0.2264
 7524SOL    HW134205   1.971   0.803   5.303 -1.4279 -2.7555 -0.4012
 7524SOL    HW234206   2.083   0.823   5.400 -0.6713  0.0157 -0.4575
 7525SOL     OW34207   2.665   1.562  11.126  0.1788  0.2024 -0.0154
 7525SOL    HW134208   2.650   1.650  11.092  1.5925  0.3466 -0.2595
 7525SOL    HW234209   2.742   1.546  11.072 -0.6707  0.5223 -1.3241
 7526SOL     OW34210   2.398   2.040   8.639  0.2799  0.1913 -0.5637
 7526SOL    HW134211   2.325   2.048   8.700 -0.7895 -0.3454 -1.7787
 7526SOL    HW234212   2.368   1.974   8.576 -0.0001 -1.4021  1.2158
 7527SOL     OW34213   3.275   1.193   5.518  0.3047  0.5062  0.4355
 7527SOL    HW134214   3.257   1.200   5.425 -0.9211  2.2800  0.8044
 7527SOL    HW234215   3.336   1.267   5.520  3.5244 -2.1349  1.1029
 7528SOL     OW34216   3.846   3.582  16.508  0.0694  0.4804 -0.4031
 7528SOL    HW134217   3.794   3.576  16.588  1.2343  0.3131  0.3431
 7528SOL    HW234218   3.887   3.496  16.511 -2.1628 -0.5470  0.0986
 7529SOL     OW34219   1.226   3.438   7.482 -0.4024  0.3829 -0.5165
 7529SOL    HW134220   1.254   3.419   7.393  3.5541  0.5892  0.6871
 7529SOL    HW234221   1.132   3.432   7.466 -0.4316 -0.8181  0.1069
 7530SOL     OW34222   0.164   1.791   8.576 -0.3763  0.5623  0.5982
 7530SOL    HW134223   0.132   1.865   8.628 -0.9125  1.8306 -1.5643
 7530SOL    HW234224   0.141   1.715   8.629  0.2693  0.0357  0.1238
 7531SOL     OW34225   3.646   4.675  10.514 -0.3195 -0.2395 -0.4333
 7531SOL    HW134226   3.696   4.622  10.452  1.7385  1.2454 -0.0382
 7531SOL    HW234227   3.652   0.029  10.486 -1.6127  0.0738  0.2798
 7532SOL     OW34228   1.620   1.601   8.419  0.0134 -0.4755  0.0625
 7532SOL    HW134229   1.649   1.584   8.329  1.4753  1.5115  0.1436
 7532SOL    HW234230   1.642   1.694   8.427  0.1302 -0.5610  0.7350
 7533SOL     OW34231   2.979   3.244  12.224 -0.7825 -0.2903  0.6008
 7533SOL    HW134232   2.897   3.215  12.265 -1.1165 -1.1075 -0.6324
 7533SOL    HW234233   3.022   3.160  12.212  1.0490  0.9303 -1.3399
 7534SOL     OW34234   3.006   4.247   4.434 -0.5057  0.0604  0.1564
 7534SOL    HW134235   3.019   4.187   4.361 -1.1652  2.2225 -1.7284
 7534SOL    HW234236   2.916   4.265   4.409 -0.8535  0.6327  1.7936
 7535SOL     OW34237   1.832   3.801   4.197  0.2169 -0.3460 -0.1006
 7535SOL    HW134238   1.816   3.714   4.235 -1.0800 -0.7276 -1.4903
 7535SOL    HW234239   1.886   3.783   4.120 -2.2659  1.4077 -2.2639
 7536SOL     OW34240   1.206   2.731  14.294  0.3881  0.1917  0.1369
 7536SOL    HW134241   1.113   2.728  14.318  0.5808 -0.3836  0.7995
 7536SOL    HW234242   1.214   2.817  14.254  1.9740 -0.2066 -0.3673
 7537SOL     OW34243   1.063   1.735  15.140  0.1952 -0.0930 -0.1341
 7537SOL    HW134244   1.055   1.817  15.091 -1.9691  0.3601  0.9890
 7537SOL    HW234245   0.984   1.691  15.108 -0.2779  0.7871 -0.1861
 7538SOL     OW34246   1.180   3.897   5.076 -0.4992 -0.2146  0.5875
 7538SOL    HW134247   1.270   3.908   5.045 -0.4512 -0.4746  0.6350
 7538SOL    HW234248   1.123   3.893   4.999 -0.2545 -0.8350  0.4393
 7539SOL     OW34249   3.142   2.695  10.587 -0.0473 -0.0525  0.3502
 7539SOL    HW134250   3.088   2.686  10.509  2.6145  0.7154 -1.5849
 7539SOL    HW234251   3.219   2.727  10.540  0.2088 -1.3798 -0.1358
 7540SOL     OW34252   0.025   0.224   5.886  0.1148  0.5138  0.2888
 7540SOL    HW134253   4.734   0.165   5.955  1.7913 -0.0404  0.5132
 7540SOL    HW234254   0.100   0.270   5.923  0.3798 -1.6471  2.4021
 7541SOL     OW34255   0.130   3.776   9.757  0.2733  0.5495 -0.2559
 7541SOL    HW134256   0.056   3.820   9.800  0.4912  1.6956 -1.0521
 7541SOL    HW234257   0.179   3.759   9.838  1.4563 -1.6933 -1.4620
 7542SOL     OW34258   1.976   1.236  16.091  0.2628 -0.8006 -0.1763
 7542SOL    HW134259   1.978   1.164  16.153 -0.0730 -0.2964  0.4135
 7542SOL    HW234260   2.018   1.312  16.132  1.5921 -2.8011  2.1349
 7543SOL     OW34261   3.250   3.863   4.527 -0.4672  0.0679  0.5211
 7543SOL    HW134262   3.318   3.917   4.568  0.1677  0.0623 -0.5270
 7543SOL    HW234263   3.296   3.840   4.446 -3.8125 -0.8042 -1.1341
 7544SOL     OW34264   1.309   0.850   2.937  0.2982  1.0020 -0.0012
 7544SOL    HW134265   1.385   0.892   2.896  2.1523 -0.9685  1.4258
 7544SOL    HW234266   1.313   0.769   2.886 -0.6688  0.4905  0.7425
 7545SOL     OW34267   0.866   2.018   9.252  0.0491  0.3537 -0.2468
 7545SOL    HW134268   0.827   1.967   9.323  1.3609 -1.4255 -0.7855
 7545SOL    HW234269   0.935   2.069   9.296 -1.6204  0.4614  2.2386
 7546SOL     OW34270   0.688   0.168  10.615 -0.4142  0.1355  0.3029
 7546SOL    HW134271   0.664   0.226  10.687  1.5885  2.3740 -0.8253
 7546SOL    HW234272   0.626   0.097  10.633 -0.5183 -0.2875 -1.6481
 7547SOL     OW34273   0.231   0.393   4.133 -0.0059 -0.7425 -0.2148
 7547SOL    HW134274   0.290   0.431   4.068  0.5287  2.1407  1.9170
 7547SOL    HW234275   0.287   0.375   4.209  0.0927 -0.9540 -0.3380
 7548SOL     OW34276   1.474   1.601   1.933  0.0106 -0.2391  0.2483
 7548SOL    HW134277   1.496   1.606   1.840  0.8010  1.2750  0.5184
 7548SOL    HW234278   1.383   1.569   1.925  0.1719 -0.5804 -0.2888
 7549SOL     OW34279   1.545   2.727  10.764  0.2251  0.1974  0.1416
 7549SOL    HW134280   1.449   2.724  10.770  0.1315  0.8194 -0.8906
 7549SOL    HW234281   1.569   2.751  10.853  0.4411  1.0778 -0.1581
 7550SOL     OW34282   3.335   1.902   7.261  0.0871 -0.1698 -0.4329
 7550SOL    HW134283   3.306   1.832   7.202 -2.2468  2.4631 -2.4428
 7550SOL    HW234284   3.415   1.865   7.299  1.1147 -0.2844 -2.7067
 7551SOL     OW34285   1.095   3.208   6.235 -0.3886  0.3273  0.7327
 7551SOL    HW134286   1.129   3.242   6.153 -0.6051 -1.2258  0.0017
 7551SOL    HW234287   1.010   3.172   6.211  0.3692 -0.2721 -1.0139
 7552SOL     OW34288   2.255   0.192   9.102 -1.0381  0.3808  0.3174
 7552SOL    HW134289   2.333   0.137   9.094 -0.9157  0.7572 -1.0758
 7552SOL    HW234290   2.223   0.138   9.174  1.9767 -1.7686  0.0887
 7553SOL     OW34291   2.225   0.013   7.932 -0.3613  0.6021  0.5519
 7553SOL    HW134292   2.216   0.089   7.990 -1.4535  1.4382 -0.7218
 7553SOL    HW234293   2.137   4.728   7.902  0.7535 -1.0016 -1.4805
 7554SOL     OW34294   0.452   4.085   2.189 -0.2874 -0.2785  0.1389
 7554SOL    HW134295   0.467   4.150   2.258 -0.9507  0.2841 -0.2438
 7554SOL    HW234296   0.377   4.035   2.220 -0.5997  0.7208  1.0208
 7555SOL     OW34297   0.904   1.443   3.413  0.0408  0.3593  0.0497
 7555SOL    HW134298   0.997   1.455   3.396  0.2071 -0.0113  0.6958
 7555SOL    HW234299   0.906   1.348   3.430  0.8170  0.2733 -0.5448
 7556SOL     OW34300   3.974   0.204  16.260  0.1686  0.7179 -0.3564
 7556SOL    HW134301   3.978   0.205  16.165 -2.2958  0.3918 -0.4729
 7556SOL    HW234302   4.001   0.295  16.273  0.5464  0.7245 -1.2222
 7557SOL     OW34303   0.159   1.453   2.739 -0.1136 -0.1563  0.0739
 7557SOL    HW134304   0.250   1.471   2.762 -0.3680  1.4522 -0.1832
 7557SOL    HW234305   0.181   1.455   2.646  1.6183  0.5206  0.4859
 7558SOL     OW34306   2.841   0.320   3.275 -0.0336 -0.3926  0.2997
 7558SOL    HW134307   2.770   0.263   3.244  1.3392 -2.4829  0.9973
 7558SOL    HW234308   2.811   0.333   3.365  0.1124  0.3970  0.2293
 7559SOL     OW34309   4.158   0.831  12.103 -0.3617  0.0791 -0.2549
 7559SOL    HW134310   4.069   0.810  12.077 -1.0355  1.5265  0.8592
 7559SOL    HW234311   4.197   0.853  12.018 -1.8033  0.6057 -0.7767
 7560SOL     OW34312   4.202   0.205   3.217 -0.2387  0.5876 -0.2679
 7560SOL    HW134313   4.291   0.227   3.247 -0.4063 -1.8632  2.0458
 7560SOL    HW234314   4.149   0.278   3.247 -0.2270 -0.4354  2.2263
 7561SOL     OW34315   3.795   4.364   5.085  0.7793 -0.1042 -0.0901
 7561SOL    HW134316   3.822   4.444   5.129 -0.1738  1.2242 -1.9574
 7561SOL    HW234317   3.712   4.334   5.124  1.1622  0.2237  0.9732
 7562SOL     OW34318   3.996   0.943   5.767 -0.3675 -0.7321  0.2338
 7562SOL    HW134319   3.971   0.923   5.677  1.0885  0.0559 -0.3292
 7562SOL    HW234320   4.044   0.863   5.789 -1.4643 -1.4184  0.1749
 7563SOL     OW34321   2.956   3.500  12.330 -0.3039 -0.7514  0.2085
 7563SOL    HW134322   3.044   3.501  12.369 -0.1558  0.0448 -0.1518
 7563SOL    HW234323   2.960   3.411  12.293 -0.4847  0.9009 -3.7552
 7564SOL     OW34324   1.895   2.310   8.927 -0.4324 -0.2992  0.3419
 7564SOL    HW134325   1.906   2.295   9.021  2.5885 -3.2886 -0.5050
 7564SOL    HW234326   1.913   2.224   8.888 -1.3452 -0.8038  1.0303
 7565SOL     OW34327   0.294   0.426   4.615 -0.5832  0.3533  0.0820
 7565SOL    HW134328   0.246   0.376   4.681  0.3124 -0.5608  0.0427
 7565SOL    HW234329   0.232   0.424   4.542  0.8564  1.8021 -1.1978
 7566SOL     OW34330   0.317   0.567   2.112 -0.4632 -0.0085 -0.1093
 7566SOL    HW134331   0.253   0.634   2.135 -0.0903  0.3101  0.0042
 7566SOL    HW234332   0.258   0.522   2.052 -0.8790  0.0419  0.2650
 7567SOL     OW34333   3.160   1.202   4.279  0.0047 -0.2059  0.2036
 7567SOL    HW134334   3.196   1.288   4.303 -1.6233  0.0986  1.5377
 7567SOL    HW234335   3.189   1.188   4.189 -1.6453  1.8848 -0.6650
 7568SOL     OW34336   0.715   2.790  14.013  0.3296 -0.4299  0.0332
 7568SOL    HW134337   0.665   2.872  14.017 -0.4596 -0.9267  0.2852
 7568SOL    HW234338   0.678   2.751  13.935  0.6284  0.9498 -0.8096
 7569SOL     OW34339   0.916   0.106  13.747 -0.6797  0.3028  0.2822
 7569SOL    HW134340   0.960   0.096  13.663 -1.0372 -0.7929  0.2296
 7569SOL    HW234341   0.936   0.199  13.758 -1.6841  0.6362 -0.7071
 7570SOL     OW34342   0.105   2.414  11.619 -0.3466  0.5281  0.4689
 7570SOL    HW134343   0.050   2.339  11.644 -0.6248  1.1844  1.7998
 7570SOL    HW234344   0.090   2.466  11.698  0.1995 -0.6291  1.3345
 7571SOL     OW34345   1.691   0.691   0.191  0.3769 -0.0393  0.4121
 7571SOL    HW134346   1.669   0.662   0.102 -2.7166  0.3378  1.0484
 7571SOL    HW234347   1.644   0.774   0.194  0.8869  0.1786  2.3007
 7572SOL     OW34348   4.324   2.151   7.508 -0.4598  0.4397 -0.4221
 7572SOL    HW134349   4.244   2.151   7.456 -0.5905  1.7679 -0.2161
 7572SOL    HW234350   4.370   2.229   7.480  0.7700  0.6367  2.1056
 7573SOL     OW34351   0.100   4.374   9.645 -0.1696 -0.4553 -0.6428
 7573SOL    HW134352   0.087   4.446   9.583  0.9550 -0.3404 -0.7446
 7573SOL    HW234353   0.173   4.412   9.695 -1.8209  1.3204  0.3925
 7574SOL     OW34354   1.147   1.377   8.665 -0.1807  0.4247 -0.0153
 7574SOL    HW134355   1.219   1.394   8.726 -0.1817 -0.6090  0.2792
 7574SOL    HW234356   1.068   1.407   8.711  0.0275 -1.6083  1.6701
 7575SOL     OW34357   2.503   2.829   8.289  0.4960  0.3906 -0.4156
 7575SOL    HW134358   2.566   2.848   8.359  0.0326  1.6782 -0.3485
 7575SOL    HW234359   2.435   2.789   8.343  1.1245  0.5268  0.4721
 7576SOL     OW34360   1.834   2.609  16.312  0.0567  0.0527 -0.0775
 7576SOL    HW134361   1.862   2.654  16.232  0.3562 -1.4994 -0.8540
 7576SOL    HW234362   1.789   2.536  16.269 -0.3343  0.5631 -0.5512
 7577SOL     OW34363   2.372   3.711   8.524 -0.2658  0.2398 -0.1984
 7577SOL    HW134364   2.359   3.791   8.474 -2.4947  0.6256  1.0163
 7577SOL    HW234365   2.314   3.647   8.483 -1.5717  1.9388 -0.9779
 7578SOL     OW34366   0.008   2.760   7.691  0.4718  0.6278 -0.2075
 7578SOL    HW134367   0.100   2.788   7.695  0.2305  1.5879 -1.3905
 7578SOL    HW234368   0.005   2.698   7.763  1.4154 -1.0077 -1.5787
 7579SOL     OW34369   3.916   1.601   1.121  0.1080  0.9014  0.5135
 7579SOL    HW134370   3.933   1.551   1.040 -2.7982  2.1423 -0.8804
 7579SOL    HW234371   3.850   1.665   1.092 -0.8922  0.8720  2.7257
 7580SOL     OW34372   3.775   1.805   6.782  0.0385  0.2803 -0.2363
 7580SOL    HW134373   3.788   1.710   6.781 -1.9494  0.0271 -2.6722
 7580SOL    HW234374   3.839   1.831   6.716 -0.7056  1.9190 -0.3227
 7581SOL     OW34375   1.797   1.055   8.996 -0.0387  0.4485  0.4248
 7581SOL    HW134376   1.878   1.103   9.016  0.0793  0.1822  0.5973
 7581SOL    HW234377   1.762   1.097   8.917 -0.4211 -3.4924 -1.5141
 7582SOL     OW34378   4.164   4.291   2.156 -0.1903 -0.0216 -0.0660
 7582SOL    HW134379   4.079   4.283   2.200  0.0466 -1.2091  0.1699
 7582SOL    HW234380   4.148   4.227   2.087  1.2086 -0.9273  0.4386
 7583SOL     OW34381   0.442   2.574  14.928  0.9494 -0.2107 -0.0052
 7583SOL    HW134382   0.414   2.566  14.837  2.1336  1.0840 -0.4710
 7583SOL    HW234383   0.366   2.540  14.976  1.7310  1.1182  2.1881
 7584SOL     OW34384   3.364   0.960   1.405 -0.1748 -0.0283 -0.7097
 7584SOL    HW134385   3.292   0.899   1.389  0.5471 -1.4835  1.5693
 7584SOL    HW234386   3.416   0.965   1.324  0.5473 -2.6675 -0.4065
 7585SOL     OW34387   0.455   2.077   9.503 -0.1007 -0.1218  0.3304
 7585SOL    HW134388   0.422   1.987   9.504  0.6096 -0.3818  0.3952
 7585SOL    HW234389   0.431   2.097   9.413 -1.4692 -1.5389  0.3856
 7586SOL     OW34390   3.902   4.251   4.235  0.3001  0.1055  0.1814
 7586SOL    HW134391   3.926   4.339   4.206  0.6426  0.3407  1.1819
 7586SOL    HW234392   3.911   4.205   4.151  0.0584  1.2590 -0.4773
 7587SOL     OW34393   4.350   1.568   7.832  0.2025 -0.9096  0.4520
 7587SOL    HW134394   4.413   1.618   7.780  0.7233 -1.4530  0.5707
 7587SOL    HW234395   4.290   1.640   7.852  1.0651 -0.0407 -0.0667
 7588SOL     OW34396   4.482   0.984   8.359  0.1817 -0.1916  0.0661
 7588SOL    HW134397   4.513   0.919   8.422  3.6736  0.7005 -0.7281
 7588SOL    HW234398   4.553   0.982   8.295 -0.2723 -2.3893 -0.3539
 7589SOL     OW34399   0.880   0.283   1.792 -0.3274  0.1411 -0.4000
 7589SOL    HW134400   0.860   0.259   1.702 -1.0977  0.9453 -0.4458
 7589SOL    HW234401   0.795   0.302   1.833 -0.5784 -1.1573 -0.3160
 7590SOL     OW34402   2.076   4.714  10.108  0.3005  0.4443  1.1823
 7590SOL    HW134403   1.981   4.723  10.099  0.3849 -0.5378 -0.7160
 7590SOL    HW234404   2.092   4.621  10.095 -0.1479  0.7711 -1.6772
 7591SOL     OW34405   0.695   1.601   3.869  0.2501  0.4436  0.1144
 7591SOL    HW134406   0.753   1.670   3.901 -1.5261  1.5459  0.9833
 7591SOL    HW234407   0.750   1.540   3.822  1.8222  1.6011  0.4622
 7592SOL     OW34408   0.192   4.142   1.421 -0.4723 -0.2461 -0.6218
 7592SOL    HW134409   0.263   4.135   1.357 -0.9963  0.3625 -1.2617
 7592SOL    HW234410   0.244   4.118   1.498 -1.7624  2.3234  1.0415
 7593SOL     OW34411   3.876   2.695   2.834  0.3467 -0.0382 -0.5713
 7593SOL    HW134412   3.934   2.625   2.805  0.9998 -0.3852  1.5640
 7593SOL    HW234413   3.867   2.748   2.754 -0.8033  3.2047  1.6865
 7594SOL     OW34414   3.193   2.658   7.487 -0.3057  0.2616 -0.6243
 7594SOL    HW134415   3.275   2.626   7.449 -0.0310  1.8381 -1.3724
 7594SOL    HW234416   3.124   2.601   7.453 -2.1885  0.6114  2.6090
 7595SOL     OW34417   1.795   1.619   6.462  0.4217  0.0871  0.3837
 7595SOL    HW134418   1.824   1.631   6.553 -0.1891 -1.0203  0.7241
 7595SOL    HW234419   1.785   1.524   6.454 -0.9452  0.3550 -0.9671
 7596SOL     OW34420   4.660   1.202   3.712  0.3738  0.1733 -1.1715
 7596SOL    HW134421   4.688   1.258   3.640 -0.9587  1.1694 -0.9179
 7596SOL    HW234422   4.633   1.127   3.659 -0.6633  0.3469 -0.8862
 7597SOL     OW34423   0.789   2.357  11.696  0.0809  0.5329  0.0418
 7597SOL    HW134424   0.717   2.316  11.744 -0.8660  1.0862 -0.9157
 7597SOL    HW234425   0.862   2.326  11.750  0.1867 -0.5152 -0.7079
 7598SOL     OW34426   2.352   2.065   7.165 -0.1534  0.9177 -0.6135
 7598SOL    HW134427   2.297   2.030   7.235  4.4278 -1.7715  1.6844
 7598SOL    HW234428   2.430   2.103   7.206  0.9474 -2.1046  0.0551
 7599SOL     OW34429   4.542   4.018   5.399 -0.3033  0.2822  0.6126
 7599SOL    HW134430   4.529   4.073   5.477 -0.4528  1.0882  0.0118
 7599SOL    HW234431   4.556   4.083   5.331  0.0604 -0.0530  0.3709
 7600SOL     OW34432   3.314   3.129   5.351  0.2176 -0.1090 -0.0085
 7600SOL    HW134433   3.260   3.118   5.273  1.7653 -0.4590 -1.0331
 7600SOL    HW234434   3.355   3.216   5.344 -0.2818  0.1687  0.5370
 7601SOL     OW34435   1.780   0.839   5.417 -0.5299  0.1377  0.0755
 7601SOL    HW134436   1.753   0.820   5.507 -3.7737  1.2171 -0.6488
 7601SOL    HW234437   1.734   0.923   5.410 -0.4716  0.0450 -1.3916
 7602SOL     OW34438   2.203   0.513   2.216 -0.0373 -0.2964  0.2617
 7602SOL    HW134439   2.148   0.544   2.144  0.1962 -0.6088 -0.0482
 7602SOL    HW234440   2.157   0.435   2.246 -1.3503 -0.0964 -1.2274
 7603SOL     OW34441   3.612   2.524   3.917  0.1167  0.3550  0.3303
 7603SOL    HW134442   3.672   2.457   3.882 -0.2466  1.3940 -2.3186
 7603SOL    HW234443   3.638   2.537   4.008  0.1771  0.9281  0.2317
 7604SOL     OW34444   0.489   3.874   5.269 -0.3165  0.3044 -0.1582
 7604SOL    HW134445   0.529   3.960   5.272 -1.3822  0.6663  2.9107
 7604SOL    HW234446   0.445   3.867   5.353 -0.6468 -0.7226 -0.4075
 7605SOL     OW34447   0.708   4.565   7.533  0.7188 -0.2485  0.0579
 7605SOL    HW134448   0.618   4.586   7.557  0.4535 -2.9511  1.3016
 7605SOL    HW234449   0.696   4.504   7.460  2.4189  1.2100 -1.4819
 7606SOL     OW34450   1.331   2.566  11.695  0.8937  0.5832 -0.1911
 7606SOL    HW134451   1.289   2.482  11.710  2.0243 -0.1936 -1.4330
 7606SOL    HW234452   1.261   2.623  11.727 -0.1387 -0.5525 -0.4298
 7607SOL     OW34453   3.146   1.292   8.722 -0.0661  0.0187  0.1812
 7607SOL    HW134454   3.068   1.332   8.759 -0.1312  0.0675 -0.0113
 7607SOL    HW234455   3.150   1.205   8.761  2.0249  0.7099  1.5558
 7608SOL     OW34456   1.563   2.147   5.178 -0.1090  0.1259 -0.0901
 7608SOL    HW134457   1.564   2.217   5.244 -0.5299  0.6038 -0.5919
 7608SOL    HW234458   1.469   2.127   5.184 -0.0523 -0.3842 -0.9358
 7609SOL     OW34459   0.783   3.427   5.934 -0.2683 -0.1890 -0.0196
 7609SOL    HW134460   0.706   3.420   5.991  1.3248 -0.8213  2.0913
 7609SOL    HW234461   0.744   3.475   5.862 -1.7859  0.5654  1.3185
 7610SOL     OW34462   1.447   3.224   4.631 -0.1669 -0.6916  0.1934
 7610SOL    HW134463   1.516   3.159   4.614  0.4975  0.4067 -1.3612
 7610SOL    HW234464   1.497   3.305   4.633  0.3673 -1.0102 -0.2352
 7611SOL     OW34465   1.958   4.232  14.864  0.4567 -0.1025 -0.2602
 7611SOL    HW134466   1.930   4.206  14.951  1.4993  0.2294  0.1744
 7611SOL    HW234467   2.041   4.279  14.876 -0.3385  0.8227  1.5397
 7612SOL     OW34468   2.636   0.181   1.261  0.5267  0.3224 -0.0536
 7612SOL    HW134469   2.687   0.251   1.221 -1.1366  0.1040 -2.5728
 7612SOL    HW234470   2.588   0.150   1.184  1.2203  0.2540 -0.4634
 7613SOL     OW34471   3.937   4.476   3.322 -0.1191 -0.0070 -0.1265
 7613SOL    HW134472   4.029   4.472   3.294  0.0716 -0.0250  0.5194
 7613SOL    HW234473   3.915   4.547   3.262 -2.2079 -0.4797  0.0660
 7614SOL     OW34474   3.893   3.122   2.037  0.1622  0.7503 -0.5508
 7614SOL    HW134475   3.929   3.041   2.073  0.7466  0.5901 -1.5233
 7614SOL    HW234476   3.809   3.098   1.997  0.6917 -0.2868 -1.0336
 7615SOL     OW34477   1.468   3.593   6.040 -0.0160 -0.5260 -0.1576
 7615SOL    HW134478   1.377   3.613   6.018 -0.0369 -1.7120 -1.1992
 7615SOL    HW234479   1.478   3.527   5.971  5.4785  0.6551 -0.4756
 7616SOL     OW34480   0.749   3.177  13.461 -0.9904 -0.2073  0.0667
 7616SOL    HW134481   0.770   3.270  13.455 -0.0564 -0.5513 -2.0916
 7616SOL    HW234482   0.788   3.158  13.546  1.5926  0.4368 -0.9869
 7617SOL     OW34483   3.348   0.760   1.701 -0.1189  0.1908  0.5985
 7617SOL    HW134484   3.355   0.754   1.796 -0.0563 -1.2389  0.4969
 7617SOL    HW234485   3.345   0.856   1.699  0.6952  0.1903 -1.5086
 7618SOL     OW34486   1.099   0.390   1.888 -0.0609 -0.2051  0.2457
 7618SOL    HW134487   1.030   0.344   1.840 -1.8930  2.3475  0.3844
 7618SOL    HW234488   1.176   0.333   1.881  0.9524  0.7787  3.2946
 7619SOL     OW34489   0.644   4.466   5.335  0.0454  0.0783  0.0284
 7619SOL    HW134490   0.731   4.501   5.354 -1.4292  2.4349  2.3895
 7619SOL    HW234491   0.605   4.528   5.274  0.6130 -0.8600 -1.2913
 7620SOL     OW34492   2.295   4.645  11.127 -0.1925  0.7644  0.0897
 7620SOL    HW134493   2.336   4.685  11.204  1.8387  0.9382 -1.0948
 7620SOL    HW234494   2.361   4.666  11.061 -0.7139  1.2032 -0.2864
 7621SOL     OW34495   0.625   1.203   6.297 -0.1663  0.1150 -0.4114
 7621SOL    HW134496   0.567   1.278   6.302 -0.0772  0.1511  0.0890
 7621SOL    HW234497   0.709   1.248   6.284 -0.4918  0.4402 -1.3511
 7622SOL     OW34498   2.918   2.828   4.263 -0.2390  0.6456 -0.4198
 7622SOL    HW134499   2.868   2.806   4.185 -1.1820  0.8872  0.1217
 7622SOL    HW234500   3.006   2.804   4.233  0.3659  0.9502  1.0683
 7623SOL     OW34501   2.743   0.039   0.841 -0.0209 -0.5615  0.6267
 7623SOL    HW134502   2.800   0.062   0.767 -3.0142 -0.9415 -1.8043
 7623SOL    HW234503   2.756   0.113   0.900 -1.2714  0.0916  0.0962
 7624SOL     OW34504   0.262   0.543  17.078  0.0075  0.1916 -0.6578
 7624SOL    HW134505   0.179   0.560  17.034 -0.0169 -0.7961 -1.0030
 7624SOL    HW234506   0.222   0.480  17.137  2.0404 -1.0911 -0.6214
 7625SOL     OW34507   3.301   3.226   0.962 -0.4291 -0.7298  0.7523
 7625SOL    HW134508   3.304   3.131   0.963 -1.5697 -0.7543  0.9302
 7625SOL    HW234509   3.212   3.237   0.930 -0.4523  0.7078  1.3036
 7626SOL     OW34510   2.239   1.786   5.705  0.0520  0.4024  0.3110
 7626SOL    HW134511   2.257   1.755   5.794  1.9761 -1.9412 -0.9058
 7626SOL    HW234512   2.322   1.765   5.663 -0.5156  1.4114 -1.3413
 7627SOL     OW34513   0.905   4.707   7.390 -0.3055  0.2035 -0.1359
 7627SOL    HW134514   0.901   4.644   7.318  2.2365 -0.0514 -0.0554
 7627SOL    HW234515   0.832   4.673   7.442  0.3598  1.2952  1.5240
 7628SOL     OW34516   2.898   4.290   4.678  0.6752 -0.1896 -0.2530
 7628SOL    HW134517   2.924   4.260   4.591  0.1583 -1.9402  0.1944
 7628SOL    HW234518   2.884   4.385   4.678  1.2264 -0.1138  0.6251
 7629SOL     OW34519   0.061   1.801  13.024 -0.5922  0.0082  0.0090
 7629SOL    HW134520   0.046   1.889  13.060 -1.8248 -0.9397  1.8048
 7629SOL    HW234521   0.046   1.756  13.107  1.0135 -1.7578 -0.6599
 7630SOL     OW34522   1.409   0.974   4.069 -0.1557 -0.0581  0.3518
 7630SOL    HW134523   1.377   1.062   4.092 -1.4551 -0.4373 -0.0059
 7630SOL    HW234524   1.373   0.968   3.980 -0.2491  0.6483  0.3417
 7631SOL     OW34525   0.791   1.569  17.599  0.1104  0.4512  0.2658
 7631SOL    HW134526   0.718   1.511  17.577  2.0408 -1.3389 -1.3782
 7631SOL    HW234527   0.751   1.617  17.672  2.0587  1.6304  0.5581
 7632SOL     OW34528   0.665   3.337   7.635  0.1346 -0.6287  0.2428
 7632SOL    HW134529   0.728   3.311   7.702  0.7901  2.3017  0.7354
 7632SOL    HW234530   0.619   3.255   7.614  1.8544 -1.5723  0.0752
 7633SOL     OW34531   0.700   0.716   7.971 -0.0631  0.2646 -0.1307
 7633SOL    HW134532   0.617   0.674   7.991  1.1415 -2.3701 -0.6636
 7633SOL    HW234533   0.700   0.720   7.875  1.4117 -0.3886 -0.1569
 7634SOL     OW34534   4.241   2.448   9.387 -0.2035 -0.3656 -0.7766
 7634SOL    HW134535   4.225   2.356   9.406 -1.3922 -0.3291 -1.5795
 7634SOL    HW234536   4.173   2.454   9.320 -1.7877  0.6708  0.9510
 7635SOL     OW34537   2.681   3.153   1.522  0.7429 -0.1673  0.0503
 7635SOL    HW134538   2.740   3.164   1.447 -0.2363  1.7358 -0.4271
 7635SOL    HW234539   2.687   3.228   1.580 -1.3958 -0.8877  1.2002
 7636SOL     OW34540   3.076   2.984   2.111  0.4295 -0.0697  0.5219
 7636SOL    HW134541   3.062   3.038   2.189 -2.6399  0.7178 -0.5815
 7636SOL    HW234542   3.092   2.896   2.146  1.5910  0.6194  1.7297
 7637SOL     OW34543   0.954   3.272   5.012  0.3295  0.0538 -0.0455
 7637SOL    HW134544   0.931   3.286   4.920  1.0385  1.1532 -0.0558
 7637SOL    HW234545   0.914   3.350   5.051  0.0617 -0.0568 -0.0941
 7638SOL     OW34546   0.636   2.798   9.393  0.1919 -0.2551  0.3406
 7638SOL    HW134547   0.678   2.787   9.478 -2.0659 -0.4692  1.4065
 7638SOL    HW234548   0.556   2.746   9.400  0.7466 -1.1322  0.1625
 7639SOL     OW34549   0.417   0.193   1.571  0.3117  0.2489 -0.1013
 7639SOL    HW134550   0.380   0.202   1.659  0.1968 -1.7640  0.0725
 7639SOL    HW234551   0.369   0.268   1.536 -0.5663  0.4361  1.5197
 7640SOL     OW34552   1.843   1.429  14.601 -0.3133  0.2352  0.0946
 7640SOL    HW134553   1.867   1.502  14.659 -0.6962 -0.1128  0.6953
 7640SOL    HW234554   1.930   1.399  14.576 -0.4843  0.4862 -0.7763
 7641SOL     OW34555   3.440   0.701   0.894 -0.0770  0.3299  0.1435
 7641SOL    HW134556   3.388   0.763   0.946 -0.4217 -0.1619  0.3908
 7641SOL    HW234557   3.406   0.617   0.924  0.0834 -0.4437 -1.8571
 7642SOL     OW34558   3.756   1.819   6.195 -0.2785 -0.0316 -0.1129
 7642SOL    HW134559   3.784   1.887   6.255 -0.4645  0.4154 -0.5271
 7642SOL    HW234560   3.818   1.827   6.122  2.0901 -0.4120  1.8863
 7643SOL     OW34561   3.813   1.799   1.893  0.3637 -0.5780 -0.0939
 7643SOL    HW134562   3.785   1.838   1.810  0.9544  2.0702  0.9785
 7643SOL    HW234563   3.769   1.836   1.969  1.7045  2.5065 -0.8166
 7644SOL     OW34564   0.130   0.150   4.388  0.2569  0.6916  0.6690
 7644SOL    HW134565   0.116   0.237   4.425  1.7837  1.3007 -0.2018
 7644SOL    HW234566   0.173   0.108   4.463 -2.4721 -2.1673  0.6410
 7645SOL     OW34567   4.310   0.843   1.588 -0.0318  0.3327  0.1488
 7645SOL    HW134568   4.399   0.834   1.624  0.0977 -1.7489 -0.6498
 7645SOL    HW234569   4.271   0.755   1.588  1.6459 -0.4154 -2.5062
 7646SOL     OW34570   4.344   1.579   5.040  0.7032 -0.2050 -0.0508
 7646SOL    HW134571   4.436   1.551   5.039  0.3128 -1.5309  2.9362
 7646SOL    HW234572   4.352   1.652   4.978 -2.4687  0.5018  0.3839
 7647SOL     OW34573   1.280   4.583  12.319 -0.1823 -0.2180  0.0426
 7647SOL    HW134574   1.266   4.580  12.414  0.4050  0.6684  0.1497
 7647SOL    HW234575   1.266   4.490  12.298  0.4609 -0.3224  0.0669
 7648SOL     OW34576   0.902   1.972   5.091  0.3010  0.2686  0.1189
 7648SOL    HW134577   0.934   1.922   5.016  0.2281  1.7444 -0.8921
 7648SOL    HW234578   0.915   2.061   5.056 -2.3335  0.3926 -0.5716
 7649SOL     OW34579   3.097   1.563   4.585 -0.2336 -0.1469 -0.0055
 7649SOL    HW134580   3.006   1.593   4.587  0.6227  2.4219  0.0056
 7649SOL    HW234581   3.112   1.506   4.661 -2.4523 -0.7552 -0.0154
 7650SOL     OW34582   0.203   1.730   6.748 -0.3360 -0.3062 -0.1645
 7650SOL    HW134583   0.241   1.784   6.818 -3.3182  1.0576  0.4236
 7650SOL    HW234584   0.279   1.681   6.718 -0.2460  0.4185 -1.1221
 7651SOL     OW34585   3.969   1.399   9.136  0.0779  0.2768  0.8929
 7651SOL    HW134586   4.045   1.375   9.189  0.4840 -2.0394 -0.7555
 7651SOL    HW234587   4.013   1.405   9.051  0.6205 -2.2753  0.9837
 7652SOL     OW34588   1.750   3.394   3.938 -0.2340 -0.0149 -0.0421
 7652SOL    HW134589   1.835   3.428   3.911 -0.6065  0.0580 -1.1094
 7652SOL    HW234590   1.762   3.301   3.954 -1.6360  0.1250  1.9283
 7653SOL     OW34591   2.227   1.071   5.957 -0.0129  0.1228  0.3426
 7653SOL    HW134592   2.319   1.089   5.937  0.2755 -0.9794  0.7075
 7653SOL    HW234593   2.241   1.037   6.045 -0.6036 -1.9169 -0.3410
 7654SOL     OW34594   0.296   0.919  14.169  0.0388  0.3332 -0.5135
 7654SOL    HW134595   0.227   0.964  14.218  0.8723  0.6606  0.3688
 7654SOL    HW234596   0.365   0.984  14.171 -0.0843  0.3698  2.6180
 7655SOL     OW34597   4.239   2.631  17.635  0.0823  0.3986  0.1458
 7655SOL    HW134598   4.281   2.603  17.717 -1.1484  2.3592  1.4131
 7655SOL    HW234599   4.150   2.636  17.669  0.2969 -0.1453  0.7851
 7656SOL     OW34600   4.033   4.543   3.848 -0.0355  0.7412 -0.4088
 7656SOL    HW134601   4.068   4.505   3.929  0.7160  0.5304 -0.8439
 7656SOL    HW234602   4.079   4.485   3.789  2.7100  3.2787 -0.7184
 7657SOL     OW34603   1.524   0.377   2.906  0.1933  0.6459  0.1035
 7657SOL    HW134604   1.524   0.286   2.877 -1.9156  0.5341  0.4626
 7657SOL    HW234605   1.584   0.369   2.981 -1.3955 -0.7459  1.2069
 7658SOL     OW34606   0.405   1.899  15.156 -0.0808  0.6845 -0.4090
 7658SOL    HW134607   0.478   1.857  15.111 -1.5824 -0.9157 -1.3580
 7658SOL    HW234608   0.353   1.830  15.198  0.6953  0.1223 -0.3728
 7659SOL     OW34609   0.377   3.808   8.206 -0.4150 -0.6786 -0.1501
 7659SOL    HW134610   0.300   3.773   8.252  2.0019 -4.8486  0.7427
 7659SOL    HW234611   0.334   3.817   8.121 -2.2835  0.9394  0.9499
 7660SOL     OW34612   4.332   1.455   9.522 -0.6655 -0.3024 -0.4490
 7660SOL    HW134613   4.294   1.368   9.527  1.9039 -1.4328 -0.9188
 7660SOL    HW234614   4.251   1.501   9.501  0.4087  0.7420 -2.2935
 7661SOL     OW34615   4.412   2.127   8.366  0.3897  0.4071 -0.3211
 7661SOL    HW134616   4.477   2.058   8.379 -0.3158  0.0382  1.2849
 7661SOL    HW234617   4.337   2.096   8.417  0.5249  0.4400 -0.1046
 7662SOL     OW34618   0.697   4.314  12.211  0.1128  0.5570 -0.0766
 7662SOL    HW134619   0.632   4.360  12.158  1.0631 -1.3090 -2.9003
 7662SOL    HW234620   0.641   4.294  12.285  1.4854  0.0100  0.8104
 7663SOL     OW34621   2.456   0.400  14.363 -0.2943  0.0419 -0.3355
 7663SOL    HW134622   2.452   0.432  14.273  2.8827 -1.7789 -1.1122
 7663SOL    HW234623   2.537   0.354  14.343  1.0630  1.5491  1.7370
 7664SOL     OW34624   2.659   3.006   3.734  0.0871 -0.0641  0.3339
 7664SOL    HW134625   2.746   2.997   3.773  0.6928  0.5612 -0.8553
 7664SOL    HW234626   2.669   2.986   3.641  2.3730 -0.6489  0.7137
 7665SOL     OW34627   1.231   0.518   3.931 -0.8159 -0.4065  0.0991
 7665SOL    HW134628   1.226   0.550   3.840 -1.0244  1.3288  0.7230
 7665SOL    HW234629   1.256   0.427   3.916  2.1065  0.3900  0.0780
 7666SOL     OW34630   1.076   3.811   3.452  0.3950 -0.2282  0.1646
 7666SOL    HW134631   1.027   3.887   3.419  0.0452  0.3060  1.9037
 7666SOL    HW234632   1.166   3.844   3.458 -0.1701  1.3506 -0.0052
 7667SOL     OW34633   2.246   1.631   4.076 -0.0672 -0.2076 -0.0777
 7667SOL    HW134634   2.296   1.564   4.030  0.7896 -0.6177  1.4503
 7667SOL    HW234635   2.158   1.623   4.041 -0.4327  0.4277  0.7036
 7668SOL     OW34636   4.170   1.605   0.232 -0.1727  0.1758 -0.5068
 7668SOL    HW134637   4.253   1.629   0.190 -0.7443 -0.1103 -1.7994
 7668SOL    HW234638   4.148   1.538   0.168 -0.1580  1.1038 -1.4944
 7669SOL     OW34639   1.332   4.470   5.593 -0.7379 -0.6246  0.0163
 7669SOL    HW134640   1.252   4.437   5.634 -0.5201 -0.5973  0.4703
 7669SOL    HW234641   1.397   4.406   5.621 -0.7450 -1.6524 -2.3762
 7670SOL     OW34642   1.117   2.071   3.859 -0.1792  0.4773  0.2965
 7670SOL    HW134643   1.052   2.045   3.925  0.9466  1.8848  1.9566
 7670SOL    HW234644   1.186   2.005   3.865  0.0526  0.4171 -2.8075
 7671SOL     OW34645   0.023   3.069   0.187 -0.3246 -0.2499  0.3101
 7671SOL    HW134646   0.026   3.083   0.282 -2.4267  0.4678  0.2743
 7671SOL    HW234647   4.711   2.987   0.184  0.1625 -0.4335 -2.6946
 7672SOL     OW34648   1.178   4.466  10.213  0.2406 -0.2261  0.3233
 7672SOL    HW134649   1.161   4.470  10.307  1.9847 -1.2597  0.6854
 7672SOL    HW234650   1.194   4.374  10.192  1.2067  0.1633 -0.5993
 7673SOL     OW34651   0.466   0.011   2.583  0.3335  0.3900  0.7052
 7673SOL    HW134652   0.469   4.655   2.562 -1.6084  0.5248 -0.1491
 7673SOL    HW234653   0.520   0.049   2.514 -1.7530  2.2051  0.0580
 7674SOL     OW34654   3.275   2.586   3.101  0.4600 -0.3841  0.4186
 7674SOL    HW134655   3.225   2.589   3.183 -0.1635  1.0604 -0.0112
 7674SOL    HW234656   3.324   2.505   3.112  0.8381 -0.1906  0.1741
 7675SOL     OW34657   0.404   3.942   3.835  0.3276  0.2638 -0.1598
 7675SOL    HW134658   0.432   3.981   3.918  0.7137  1.0007 -0.6404
 7675SOL    HW234659   0.468   3.871   3.827  0.0521  0.0042 -0.0523
 7676SOL     OW34660   2.595   2.364   9.173  0.2251 -0.2822 -0.6102
 7676SOL    HW134661   2.656   2.436   9.192 -0.1079 -0.3587  0.7986
 7676SOL    HW234662   2.655   2.313   9.119 -0.5218 -1.2964 -0.4701
 7677SOL     OW34663   0.394   4.327   9.189  0.0835 -0.7237  0.2427
 7677SOL    HW134664   0.466   4.380   9.154  0.0134 -1.6534 -1.2701
 7677SOL    HW234665   0.431   4.301   9.273  0.6675 -2.4697 -0.5669
 7678SOL     OW34666   3.940   3.046   4.505  0.1819 -0.5561  0.2898
 7678SOL    HW134667   3.957   3.137   4.528  1.9935 -0.9764  0.6436
 7678SOL    HW234668   3.865   3.031   4.563  0.0034 -2.0686 -0.3267
 7679SOL     OW34669   2.121   1.174   5.400  0.3021  0.1909  0.1487
 7679SOL    HW134670   2.203   1.223   5.407  0.1660  0.9094 -3.2700
 7679SOL    HW234671   2.118   1.159   5.305 -2.8432  0.4853  0.2137
 7680SOL     OW34672   1.506   3.910   5.599  0.1792 -0.3081 -0.2814
 7680SOL    HW134673   1.500   3.940   5.508 -0.8729  0.4833  0.0562
 7680SOL    HW234674   1.590   3.948   5.625 -0.1177  0.9626 -1.1977
 7681SOL     OW34675   2.271   3.914   9.409 -0.2602  0.1521  0.0551
 7681SOL    HW134676   2.244   3.905   9.500  0.9311  2.0560  0.6114
 7681SOL    HW234677   2.263   3.829   9.367 -1.1092 -0.3573  1.2755
 7682SOL     OW34678   4.358   4.484   9.394 -0.5825  0.6929 -0.8194
 7682SOL    HW134679   4.367   4.572   9.358 -0.0977  1.1159  0.3460
 7682SOL    HW234680   4.284   4.507   9.451  1.7416  1.0780  2.0213
 7683SOL     OW34681   0.197   3.285  14.207  0.4939  0.7351  0.6319
 7683SOL    HW134682   0.155   3.280  14.292 -0.3703 -4.1538 -0.1277
 7683SOL    HW234683   0.124   3.275  14.146  1.0403 -1.4335  0.3281
 7684SOL     OW34684   3.663   2.908   4.451 -0.3166  0.5438  0.5964
 7684SOL    HW134685   3.751   2.913   4.415 -0.5043  2.4420  0.4005
 7684SOL    HW234686   3.655   2.814   4.466 -2.8445  0.6944  0.2727
 7685SOL     OW34687   2.396   1.442   6.456  0.0508  0.5770 -0.5661
 7685SOL    HW134688   2.455   1.514   6.440 -0.3735  1.1857  0.5859
 7685SOL    HW234689   2.312   1.484   6.477 -0.8386 -0.8205 -1.2766
 7686SOL     OW34690   4.245   4.364  12.969  0.2857  0.6997 -0.8154
 7686SOL    HW134691   4.188   4.417  12.913  0.0826  1.7323  0.3509
 7686SOL    HW234692   4.228   4.279  12.929  2.3320 -0.3867  0.6803
 7687SOL     OW34693   1.671   0.955  14.018 -0.0023  0.2382 -0.1826
 7687SOL    HW134694   1.679   0.878  13.962 -2.3224  0.5696 -0.9674
 7687SOL    HW234695   1.617   1.011  13.961 -0.5139  0.4539  0.5165
 7688SOL     OW34696   0.488   0.237   2.724  0.2523  0.2036  0.4358
 7688SOL    HW134697   0.487   0.143   2.710  0.3893  0.5048 -1.4940
 7688SOL    HW234698   0.579   0.267   2.716  0.3994 -0.0173  1.1942
 7689SOL     OW34699   4.138   0.461  14.000  0.3279 -0.0099 -0.5198
 7689SOL    HW134700   4.066   0.400  13.983  0.4960 -0.6169  0.8852
 7689SOL    HW234701   4.206   0.414  14.048 -0.0275  0.3091  0.3036
 7690SOL     OW34702   4.005   1.126   0.790  0.6251 -0.3811  0.5576
 7690SOL    HW134703   3.935   1.066   0.764  0.0161  1.3346 -1.6996
 7690SOL    HW234704   4.003   1.109   0.884  0.5025  0.2183  0.6630
 7691SOL     OW34705   1.727   3.782   6.464  0.1544 -0.4647 -0.2091
 7691SOL    HW134706   1.808   3.778   6.413  0.2758 -0.8037  0.0076
 7691SOL    HW234707   1.688   3.860   6.425  0.4366  0.0135  0.4636
 7692SOL     OW34708   0.203   1.255   7.770  0.7706 -0.1226  0.1979
 7692SOL    HW134709   0.188   1.346   7.744  0.7341  0.0506  0.8258
 7692SOL    HW234710   0.127   1.209   7.734  1.0361  1.6922 -2.6549
 7693SOL     OW34711   1.738   4.281   2.955  0.7201  0.3168 -0.9038
 7693SOL    HW134712   1.831   4.298   2.971  0.6757 -1.4563  1.2477
 7693SOL    HW234713   1.726   4.196   2.913  0.2693  1.0911 -2.3372
 7694SOL     OW34714   1.109   4.196   5.469  0.3746  0.0880  0.0793
 7694SOL    HW134715   1.052   4.199   5.393  1.6892  0.9178 -0.8868
 7694SOL    HW234716   1.169   4.269   5.455  1.0235 -0.8421 -1.9848
 7695SOL     OW34717   2.568   3.664   0.952 -0.1922  0.0129  0.0609
 7695SOL    HW134718   2.535   3.754   0.960 -3.1849 -0.8963 -1.8168
 7695SOL    HW234719   2.622   3.687   0.877 -1.3272  0.0120 -0.7612
 7696SOL     OW34720   2.349   1.516   7.695  0.5324  0.1763 -0.4453
 7696SOL    HW134721   2.372   1.609   7.694 -2.6465  0.9458 -3.0632
 7696SOL    HW234722   2.434   1.481   7.721 -0.5069 -0.3580  2.2502
 7697SOL     OW34723   3.980   2.164   2.273  0.1969 -0.5750  0.0747
 7697SOL    HW134724   3.987   2.102   2.346  1.9572 -1.0849 -0.5277
 7697SOL    HW234725   3.915   2.113   2.224  1.5966 -2.7817  0.4935
 7698SOL     OW34726   1.379   0.532   1.063  0.3545 -0.1966  0.5841
 7698SOL    HW134727   1.340   0.444   1.062 -0.9816  0.4048  0.7945
 7698SOL    HW234728   1.454   0.500   1.012  0.3962  1.7128 -0.5205
 7699SOL     OW34729   1.242   4.286  17.471 -0.4936  0.0658  0.0285
 7699SOL    HW134730   1.197   4.226  17.411 -0.5542  2.9573 -2.8191
 7699SOL    HW234731   1.167   4.298  17.529  0.3314 -0.5368  1.2234
 7700SOL     OW34732   4.162   0.669   2.393  0.8671  0.3568  0.2271
 7700SOL    HW134733   4.217   0.691   2.318  2.8321 -3.6831  0.5264
 7700SOL    HW234734   4.080   0.660   2.345  0.9428 -0.6403  0.3036
 7701SOL     OW34735   3.173   0.094   5.655  0.1693  0.2899 -0.2954
 7701SOL    HW134736   3.139   0.057   5.574 -0.8484  0.0322  0.2476
 7701SOL    HW234737   3.205   0.170   5.607  2.1416  1.4273  2.7835
 7702SOL     OW34738   0.266   2.411  12.388  0.4453  0.3021  0.0094
 7702SOL    HW134739   0.179   2.433  12.422  0.9116 -1.2395  2.2452
 7702SOL    HW234740   0.295   2.490  12.342 -0.9842  0.1070 -1.2362
 7703SOL     OW34741   1.641   3.542   5.308 -0.1616  0.9044 -0.0011
 7703SOL    HW134742   1.606   3.529   5.220  0.7335  1.6091 -0.4594
 7703SOL    HW234743   1.732   3.564   5.290 -0.0675  0.3895 -0.1556
 7704SOL     OW34744   4.095   1.631   3.069  0.1005  0.5553 -0.2299
 7704SOL    HW134745   4.050   1.681   3.000  2.4290 -0.0360 -2.1461
 7704SOL    HW234746   4.125   1.551   3.027  0.0822 -0.9876  2.7053
 7705SOL     OW34747   2.940   2.993   2.650 -0.1879 -0.1562  0.4623
 7705SOL    HW134748   3.003   2.998   2.722 -0.5715  1.9409  0.6596
 7705SOL    HW234749   2.923   2.900   2.642  2.6876 -0.7880  1.8141
 7706SOL     OW34750   0.470   0.304   5.410  0.0788 -0.6212  0.4997
 7706SOL    HW134751   0.414   0.237   5.372  0.6301  0.1638 -1.6928
 7706SOL    HW234752   0.550   0.258   5.436 -0.0576 -0.8410  0.5265
 7707SOL     OW34753   4.481   4.646  10.577 -0.3147  0.2916  0.0166
 7707SOL    HW134754   4.564   4.683  10.607  0.1902 -0.8206 -0.0163
 7707SOL    HW234755   4.499   4.579  10.511 -0.1535 -0.8945  1.2659
 7708SOL     OW34756   3.092   1.208   5.275  0.0742 -0.6239  0.2759
 7708SOL    HW134757   3.086   1.170   5.187  0.5369 -0.6546  0.2535
 7708SOL    HW234758   3.164   1.271   5.267 -1.4611  1.3164  1.8920
 7709SOL     OW34759   1.977   2.929   2.340  0.4507  0.1898 -0.1991
 7709SOL    HW134760   2.035   2.903   2.411  0.1051  0.1659  0.0748
 7709SOL    HW234761   1.944   2.840   2.323 -1.3607  0.8424 -0.1349
 7710SOL     OW34762   3.732   3.467   8.079 -0.0191  0.4874 -0.0117
 7710SOL    HW134763   3.644   3.505   8.071 -0.6705 -0.3162  3.5649
 7710SOL    HW234764   3.723   3.459   8.174  3.7767  0.2879  0.3336
 7711SOL     OW34765   1.640   3.387   7.425  0.2446  0.3777  0.5751
 7711SOL    HW134766   1.590   3.399   7.506  1.2657  2.1303  0.9328
 7711SOL    HW234767   1.699   3.315   7.446 -0.3944 -0.3385 -0.0544
 7712SOL     OW34768   1.185   2.202   3.619  0.0417  0.7123 -0.0116
 7712SOL    HW134769   1.232   2.278   3.653 -0.8586  0.7140  1.2411
 7712SOL    HW234770   1.162   2.154   3.699  2.6129  0.8688  0.8264
 7713SOL     OW34771   4.698   2.788   6.859  0.0934  0.7064 -0.1214
 7713SOL    HW134772   0.009   2.837   6.925 -0.8276  2.4997 -0.7984
 7713SOL    HW234773   4.631   2.853   6.839 -0.8637 -0.3741 -0.4060
 7714SOL     OW34774   3.629   0.988   3.228  0.2748 -0.0612  0.2327
 7714SOL    HW134775   3.545   0.949   3.251 -0.0641  1.1324  1.0333
 7714SOL    HW234776   3.661   0.910   3.183 -0.0805  0.8784 -1.6381
 7715SOL     OW34777   4.256   3.269   4.565 -0.2045 -0.3284  0.1665
 7715SOL    HW134778   4.270   3.195   4.507 -0.4850  1.1582 -1.7824
 7715SOL    HW234779   4.169   3.248   4.599 -0.5933 -1.3450 -1.4432
 7716SOL     OW34780   3.163   1.946   7.914  0.0166 -0.0731  0.0811
 7716SOL    HW134781   3.227   1.985   7.854 -0.8669 -1.7935 -1.9503
 7716SOL    HW234782   3.228   1.891   7.957  1.1947  0.5026 -0.9506
 7717SOL     OW34783   2.814   0.520   6.711 -0.3185 -0.1116  0.1577
 7717SOL    HW134784   2.904   0.519   6.744 -0.7866  1.8649  1.5207
 7717SOL    HW234785   2.821   0.456   6.640 -2.4853 -0.8733  0.6219
 7718SOL     OW34786   0.650   2.014   4.636  0.1211  0.3309 -0.7983
 7718SOL    HW134787   0.582   2.078   4.659  0.0751 -0.4405  1.1485
 7718SOL    HW234788   0.680   1.985   4.722 -2.3071  0.2668  0.0080
 7719SOL     OW34789   4.002   0.635  17.559 -0.0753  0.5779 -0.0412
 7719SOL    HW134790   4.084   0.587  17.573  0.4170  1.0889 -1.1328
 7719SOL    HW234791   3.939   0.571  17.527  0.2813  0.3511 -0.2941
 7720SOL     OW34792   1.975   2.948   3.888 -0.0185  0.8026 -0.1124
 7720SOL    HW134793   2.014   2.934   3.974  1.4232 -0.9335 -1.0551
 7720SOL    HW234794   2.019   3.027   3.856 -0.8801  1.3114 -0.0406
 7721SOL     OW34795   1.497   2.902  17.582 -0.3013 -0.2555  0.3950
 7721SOL    HW134796   1.525   2.887  17.492  1.8875 -0.5295  1.1245
 7721SOL    HW234797   1.522   2.818  17.621 -0.6773 -0.9226 -0.7895
 7722SOL     OW34798   2.603   4.645  15.506 -0.5622  0.6593  0.1588
 7722SOL    HW134799   2.669   4.694  15.555 -0.2012 -0.6222  0.9384
 7722SOL    HW234800   2.647   4.564  15.481  1.2857  0.7077  3.2875
 7723SOL     OW34801   2.479   1.044   8.101  0.5777  0.1505  0.1169
 7723SOL    HW134802   2.550   1.108   8.100  0.0735  0.7189  0.8810
 7723SOL    HW234803   2.470   1.027   8.007 -1.5958 -1.3314  0.5935
 7724SOL     OW34804   3.009   1.747   9.703 -0.1892 -0.3429 -0.3791
 7724SOL    HW134805   3.017   1.833   9.743 -3.8980  0.4341 -1.3600
 7724SOL    HW234806   2.964   1.712   9.779  1.4425 -2.1890 -0.2534
 7725SOL     OW34807   2.043   0.625   2.019 -0.2811 -1.1395  1.0662
 7725SOL    HW134808   2.049   0.715   1.988 -4.0144 -1.6674 -1.2010
 7725SOL    HW234809   1.947   0.622   2.018 -0.3202  0.2818  1.0744
 7726SOL     OW34810   2.500   4.527   5.973 -0.1266 -0.5514  0.5039
 7726SOL    HW134811   2.593   4.528   5.994  0.4468  0.5013 -1.9993
 7726SOL    HW234812   2.469   4.543   6.062 -0.6655 -1.0213  0.4047
 7727SOL     OW34813   4.129   1.309   7.169  0.5011  0.0015  0.5659
 7727SOL    HW134814   4.224   1.316   7.159  0.8590 -3.2335  1.6447
 7727SOL    HW234815   4.105   1.270   7.085  0.5039 -0.6542  0.8693
 7728SOL     OW34816   3.053   2.826   3.690 -0.1131  0.2636 -0.2283
 7728SOL    HW134817   2.996   2.836   3.615  0.3831 -1.8745 -0.8952
 7728SOL    HW234818   2.997   2.793   3.760  1.1132 -0.2938  0.5016
 7729SOL     OW34819   2.788   2.936   7.072 -0.2856  0.0686 -0.5916
 7729SOL    HW134820   2.713   2.950   7.014 -0.1583 -0.4637 -0.8871
 7729SOL    HW234821   2.853   2.974   7.013 -0.2014 -0.2891 -0.7293
 7730SOL     OW34822   4.207   3.069  16.535 -0.3561 -0.0659 -0.0134
 7730SOL    HW134823   4.269   3.001  16.511  0.6824  1.1598 -0.8045
 7730SOL    HW234824   4.203   3.119  16.454 -3.3342  1.2830  0.9704
 7731SOL     OW34825   2.361   3.436  14.138 -0.0827 -0.5508 -0.4793
 7731SOL    HW134826   2.394   3.497  14.071  1.0441  0.4010  0.9243
 7731SOL    HW234827   2.379   3.355  14.091  0.4937 -0.3582 -0.5880
 7732SOL     OW34828   1.418   3.149  15.203  0.6694  0.5659  0.1559
 7732SOL    HW134829   1.496   3.169  15.152  0.3543  0.8576 -0.2192
 7732SOL    HW234830   1.447   3.084  15.266  1.4692 -0.3847 -1.1895
 7733SOL     OW34831   4.259   1.668  16.622  0.0947 -0.0438 -0.1221
 7733SOL    HW134832   4.199   1.640  16.553 -0.1090  0.0048  0.0369
 7733SOL    HW234833   4.197   1.693  16.690  1.4372  0.0997  1.0470
 7734SOL     OW34834   2.215   4.181   6.232 -0.4787 -0.2235 -0.5796
 7734SOL    HW134835   2.296   4.178   6.283 -1.1267  5.4322  0.8466
 7734SOL    HW234836   2.151   4.191   6.303  1.1669 -0.9529  1.0366
 7735SOL     OW34837   0.951   4.703   4.878 -0.3049 -0.9454 -0.1292
 7735SOL    HW134838   0.996   4.643   4.938 -1.8610 -2.2632 -0.2891
 7735SOL    HW234839   1.009   4.690   4.803 -1.2433 -0.2707 -0.9825
 7736SOL     OW34840   0.030   0.507   1.654  0.0237  0.0437  0.2200
 7736SOL    HW134841   0.125   0.498   1.647 -0.1701 -2.3220  0.5965
 7736SOL    HW234842   0.000   0.480   1.568  0.6761  0.7396 -0.2223
 7737SOL     OW34843   4.601   3.303   7.029 -0.0390  0.4300 -0.3037
 7737SOL    HW134844   4.526   3.251   7.059 -1.4776  0.9985 -2.9238
 7737SOL    HW234845   4.579   3.308   6.936 -2.1958  1.3449  0.2505
 7738SOL     OW34846   3.678   3.021   3.066 -0.4501 -0.4749 -0.2236
 7738SOL    HW134847   3.765   2.981   3.055  0.0617  1.7156 -4.0755
 7738SOL    HW234848   3.623   2.946   3.088  0.7373 -1.0444  0.9059
 7739SOL     OW34849   1.651   4.163   2.365 -0.3451 -0.1183 -0.2052
 7739SOL    HW134850   1.673   4.232   2.303  1.5741  0.1654  0.7838
 7739SOL    HW234851   1.664   4.082   2.315  2.3909  0.1676  0.0631
 7740SOL     OW34852   1.617   3.914   8.444  0.5153  0.3490 -0.5390
 7740SOL    HW134853   1.607   3.991   8.500  3.8391 -1.0375  1.9799
 7740SOL    HW234854   1.669   3.943   8.369 -0.8155 -0.5659 -1.7995
 7741SOL     OW34855   0.270   3.420  13.790  0.0545 -0.6591  0.3314
 7741SOL    HW134856   0.320   3.372  13.723  1.2191  0.3944  0.4402
 7741SOL    HW234857   0.313   3.506  13.796 -2.5901  0.8831 -2.5559
 7742SOL     OW34858   2.069   1.129   5.117  0.2130  0.2345  0.4819
 7742SOL    HW134859   2.108   1.198   5.063  0.7664  0.7428  1.5419
 7742SOL    HW234860   2.104   1.051   5.076 -0.0744 -0.3369  1.3357
 7743SOL     OW34861   4.376   2.448  13.923  0.1776  0.1749 -0.1957
 7743SOL    HW134862   4.289   2.473  13.953 -0.1776  0.3352 -1.3637
 7743SOL    HW234863   4.360   2.449  13.829 -0.1043 -4.7516 -0.1907
 7744SOL     OW34864   0.381   2.237   5.019  0.3152  0.1441  0.4248
 7744SOL    HW134865   0.397   2.225   5.112 -0.0466 -1.0797  0.3317
 7744SOL    HW234866   0.464   2.206   4.980 -0.6344  0.1047 -1.5561
 7745SOL     OW34867   4.491   2.256  10.651 -0.2563 -0.6220  0.3455
 7745SOL    HW134868   4.535   2.270  10.735  1.9759  0.7750 -1.0637
 7745SOL    HW234869   4.424   2.325  10.647 -0.3468 -0.7026  0.4433
 7746SOL     OW34870   1.997   0.268   8.957 -0.6251 -0.2528  0.5128
 7746SOL    HW134871   1.924   0.311   9.003  1.4747  0.8144  2.8880
 7746SOL    HW234872   2.055   0.243   9.029 -1.0749 -0.8399  0.6721
 7747SOL     OW34873   3.359   4.667   2.265 -0.7089  0.6542  0.4478
 7747SOL    HW134874   3.434   4.726   2.256  0.5422 -0.7683  1.4937
 7747SOL    HW234875   3.327   4.678   2.176  1.0742 -1.1504 -0.4127
 7748SOL     OW34876   0.487   0.947   7.560 -0.3956 -0.2568  0.3776
 7748SOL    HW134877   0.462   0.941   7.468  1.1962 -1.2986  0.0121
 7748SOL    HW234878   0.492   1.042   7.571 -0.4558 -0.5741  3.2055
 7749SOL     OW34879   1.379   1.101   1.514 -0.2759 -0.3338 -0.1629
 7749SOL    HW134880   1.348   1.079   1.602  0.8322 -2.9380 -0.4245
 7749SOL    HW234881   1.363   1.016   1.472  1.8773 -0.3100 -1.0006
 7750SOL     OW34882   3.973   2.365   5.805 -0.4707 -0.5366 -0.3980
 7750SOL    HW134883   4.065   2.358   5.780 -0.4117  2.0381 -0.8307
 7750SOL    HW234884   3.978   2.319   5.889  1.1011 -0.4715 -0.4627
 7751SOL     OW34885   4.242   2.502   7.934  0.1698  0.3019 -0.2453
 7751SOL    HW134886   4.248   2.595   7.912  0.4360 -0.3391 -2.9216
 7751SOL    HW234887   4.265   2.458   7.852 -0.7582 -0.2506 -0.2133
 7752SOL     OW34888   2.938   1.042   2.959  0.1526 -0.0452  0.3048
 7752SOL    HW134889   2.883   1.119   2.945  1.5177  0.6499 -1.3132
 7752SOL    HW234890   3.006   1.075   3.018 -0.6654 -0.0925  1.2712
 7753SOL     OW34891   0.207   3.173   9.246  0.3446  0.3286 -0.2216
 7753SOL    HW134892   0.205   3.268   9.259 -2.4853  0.3604 -1.0597
 7753SOL    HW234893   0.301   3.159   9.231  0.6900  0.4010  1.7805
 7754SOL     OW34894   2.106   1.502   4.334 -0.2236 -0.0899  0.0542
 7754SOL    HW134895   2.165   1.521   4.261  0.5435 -1.4013  0.3571
 7754SOL    HW234896   2.159   1.510   4.413  0.4367 -0.6910 -0.3360
 7755SOL     OW34897   4.215   4.094  12.128  0.1586  0.0956 -0.2364
 7755SOL    HW134898   4.141   4.058  12.176  0.1115  0.5580  0.0385
 7755SOL    HW234899   4.283   4.072  12.192  1.8857 -0.1401 -2.1511
 7756SOL     OW34900   0.673   4.372  10.827 -0.0922 -0.2017 -0.9174
 7756SOL    HW134901   0.586   4.361  10.790 -0.8268  0.0802  0.7520
 7756SOL    HW234902   0.671   4.311  10.900  0.6111  0.8307 -0.0216
 7757SOL     OW34903   2.715   2.886  11.025 -0.1021 -0.4475 -0.1875
 7757SOL    HW134904   2.802   2.865  11.057  0.3764  1.6452 -0.1042
 7757SOL    HW234905   2.730   2.866  10.932 -0.1099 -1.0384 -0.0632
 7758SOL     OW34906   1.545   3.175   3.276 -0.1602  0.3721  0.4981
 7758SOL    HW134907   1.474   3.112   3.261 -0.5324  0.8149  0.4234
 7758SOL    HW234908   1.516   3.237   3.209  0.7376  0.5342  0.2504
 7759SOL     OW34909   0.572   0.191   5.059 -0.3944  0.1176  0.2425
 7759SOL    HW134910   0.602   0.129   4.994  1.7457 -0.2636  1.5929
 7759SOL    HW234911   0.508   0.139   5.108  0.2681  0.8971  1.9405
 7760SOL     OW34912   1.245   1.874   5.628 -0.0237  0.4159 -0.2896
 7760SOL    HW134913   1.268   1.833   5.545  0.4886  0.5326 -0.2038
 7760SOL    HW234914   1.174   1.814   5.649  3.4712 -2.3742  3.5042
 7761SOL     OW34915   3.295   2.874   4.607 -0.2318  0.1793 -0.5857
 7761SOL    HW134916   3.390   2.863   4.601 -0.5841 -2.8218 -1.0379
 7761SOL    HW234917   3.269   2.809   4.673 -0.5264  1.6323  0.7233
 7762SOL     OW34918   4.286   2.357   0.511 -0.3630 -0.0005  0.5616
 7762SOL    HW134919   4.257   2.421   0.577  2.5196  1.3333  0.5464
 7762SOL    HW234920   4.256   2.278   0.555 -2.3935 -0.2014 -1.1972
 7763SOL     OW34921   0.522   2.105   8.198  0.2833  0.0807  0.1318
 7763SOL    HW134922   0.606   2.149   8.209 -1.1187  2.1903  2.4629
 7763SOL    HW234923   0.560   2.018   8.186  2.1252  0.8925  0.1746
 7764SOL     OW34924   2.989   1.838   5.661  0.2362 -0.7124 -0.0081
 7764SOL    HW134925   3.040   1.813   5.584 -0.1365  0.1478 -0.5369
 7764SOL    HW234926   2.910   1.866   5.614  1.2777  1.5205 -0.4196
 7765SOL     OW34927   2.840   2.127   9.621  0.2461 -0.5359  0.1784
 7765SOL    HW134928   2.858   2.215   9.655  0.4719 -0.7423  0.5890
 7765SOL    HW234929   2.844   2.147   9.527 -4.3828 -2.9756 -0.5440
 7766SOL     OW34930   0.532   2.644  12.514  0.1217  0.2158  0.0388
 7766SOL    HW134931   0.464   2.658  12.448  0.6466 -0.7482 -0.7076
 7766SOL    HW234932   0.597   2.593  12.466  0.3267 -2.2675  2.9406
 7767SOL     OW34933   4.198   0.062  17.312 -0.4145 -0.5457  0.2349
 7767SOL    HW134934   4.148   0.041  17.234  0.0780 -0.1399 -0.1843
 7767SOL    HW234935   4.222   4.709  17.332  0.5438 -0.5284 -0.8670
 7768SOL     OW34936   0.107   2.979   3.502  0.3289  0.1536  0.3167
 7768SOL    HW134937   0.023   2.994   3.544  0.4338 -1.7573  1.2080
 7768SOL    HW234938   0.151   2.960   3.585  0.3431  2.8042  0.9183
 7769SOL     OW34939   0.880   4.576  10.243  0.6272 -0.3900 -0.4479
 7769SOL    HW134940   0.895   4.652  10.300 -0.8835 -0.4395  0.0306
 7769SOL    HW234941   0.824   4.520  10.297  3.0624 -2.2823  0.0985
 7770SOL     OW34942   2.253   3.247   4.828 -0.0871 -0.1168  0.3558
 7770SOL    HW134943   2.253   3.155   4.854 -0.0950 -0.0756  0.5004
 7770SOL    HW234944   2.280   3.256   4.737  1.2290 -0.5192  0.7185
 7771SOL     OW34945   2.624   0.978   9.609 -0.1193  0.1269  0.1021
 7771SOL    HW134946   2.678   1.051   9.638  0.2046  0.8347 -2.3243
 7771SOL    HW234947   2.647   0.992   9.518 -0.2509  2.2724  0.3841
 7772SOL     OW34948   1.123   0.305   2.891 -0.1752  0.1931 -0.1999
 7772SOL    HW134949   1.202   0.293   2.943  0.4278  0.5082 -1.0408
 7772SOL    HW234950   1.091   0.215   2.894 -3.4312  1.3711  0.9821
 7773SOL     OW34951   0.103   4.597   2.405  0.0147  0.1903 -0.0244
 7773SOL    HW134952   0.043   4.549   2.347 -1.0302  0.7257  0.6094
 7773SOL    HW234953   0.134   4.672   2.353 -1.1259  0.9356  0.3566
 7774SOL     OW34954   0.029   4.658   1.575  0.5426 -0.7933  0.0926
 7774SOL    HW134955   0.078   4.704   1.643 -2.0100  2.8123 -0.4944
 7774SOL    HW234956   0.091   4.590   1.547  2.1962  1.2099 -1.0942
 7775SOL     OW34957   2.188   1.218   7.746  0.5198 -0.4233 -0.1716
 7775SOL    HW134958   2.181   1.274   7.668  1.5164  0.3320  0.2959
 7775SOL    HW234959   2.117   1.156   7.726  0.4778 -1.1742  2.3522
 7776SOL     OW34960   0.074   2.643  16.297 -0.3810 -0.3493 -0.1792
 7776SOL    HW134961   0.124   2.561  16.298 -2.2014 -1.4862 -1.2072
 7776SOL    HW234962   0.102   2.683  16.379 -1.8296  0.0729  0.0975
 7777SOL     OW34963   0.610   3.088   6.292 -0.0115  0.4270  0.2376
 7777SOL    HW134964   0.545   3.153   6.267 -1.7283 -1.5153 -0.3325
 7777SOL    HW234965   0.690   3.121   6.250  0.3258  2.3363  2.3396
 7778SOL     OW34966   4.384   3.349   1.708 -0.6929 -0.1613  0.4308
 7778SOL    HW134967   4.358   3.277   1.766 -0.5161  0.0760  0.8033
 7778SOL    HW234968   4.309   3.345   1.648 -2.2734 -0.2792  2.4329
 7779SOL     OW34969   4.368   2.945  10.191  0.4443  0.1580  0.2948
 7779SOL    HW134970   4.279   2.946  10.225 -0.2492 -1.1439 -1.5009
 7779SOL    HW234971   4.380   3.037  10.170 -1.9093  0.2845 -0.5125
 7780SOL     OW34972   4.437   3.026   3.534  0.1980  0.1379 -0.8365
 7780SOL    HW134973   4.363   2.970   3.557 -0.5157  0.6142 -2.0021
 7780SOL    HW234974   4.398   3.080   3.465 -0.1713  1.9768  0.8138
 7781SOL     OW34975   1.030   0.698   2.758  0.0559  0.2746 -0.0599
 7781SOL    HW134976   1.067   0.611   2.769  0.3301  0.2444 -1.2321
 7781SOL    HW234977   1.050   0.723   2.668  2.2732  1.2882  0.7125
 7782SOL     OW34978   4.103   4.561   7.367  0.2803  0.5859 -0.6237
 7782SOL    HW134979   4.172   4.597   7.311  1.3786  0.6054  0.7341
 7782SOL    HW234980   4.117   4.615   7.445  1.3685  0.7848 -0.9445
 7783SOL     OW34981   4.387   0.491  11.908  0.6233 -0.2675  0.2578
 7783SOL    HW134982   4.320   0.511  11.843 -2.0558 -2.3975  2.3757
 7783SOL    HW234983   4.379   0.397  11.925  2.2252 -0.3681  0.4388
 7784SOL     OW34984   3.621   1.190   4.839 -0.1486  0.2573 -0.0273
 7784SOL    HW134985   3.624   1.206   4.934 -1.8069 -0.8505  0.1999
 7784SOL    HW234986   3.665   1.105   4.842 -0.9350 -0.0446  3.0475
 7785SOL     OW34987   3.850   3.196  12.849  0.0840 -0.2523 -0.1464
 7785SOL    HW134988   3.922   3.244  12.890 -1.6608  3.2142 -1.1530
 7785SOL    HW234989   3.866   3.103  12.862  0.1029 -0.0689  1.1630
 7786SOL     OW34990   1.425   2.207   1.127  0.1013  0.7994  0.1514
 7786SOL    HW134991   1.382   2.234   1.047 -3.1684 -0.5338  1.4414
 7786SOL    HW234992   1.514   2.238   1.113  0.0588  0.5653 -0.6386
 7787SOL     OW34993   4.717   4.644  11.630 -0.0785 -0.0536  0.8662
 7787SOL    HW134994   4.678   4.562  11.661  1.8160 -0.2476  2.7907
 7787SOL    HW234995   0.039   4.668  11.700 -2.0930 -0.1223  2.5811
 7788SOL     OW34996   0.118   2.562  16.649  0.0777  0.3834 -0.6824
 7788SOL    HW134997   0.191   2.511  16.615  1.7572  1.4115  1.3484
 7788SOL    HW234998   0.139   2.650  16.618 -0.3191 -0.6124 -3.6850
 7789SOL     OW34999   3.041   2.354   9.632  0.3875 -0.4141 -0.3271
 7789SOL    HW135000   3.114   2.410   9.605  0.8119 -0.2923  1.0672
 7789SOL    HW235001   3.085   2.312   9.706 -0.9380  0.1052  0.7623
 7790SOL     OW35002   1.190   1.750   6.318  0.4214 -0.6053  0.0074
 7790SOL    HW135003   1.199   1.752   6.413 -2.7980  1.6749  0.2387
 7790SOL    HW235004   1.130   1.823   6.306  0.7355 -0.3238  0.1616
 7791SOL     OW35005   0.597   3.309  16.849 -0.4894  0.3672  0.3670
 7791SOL    HW135006   0.690   3.301  16.870 -0.3062  0.1096 -0.5618
 7791SOL    HW235007   0.576   3.220  16.819 -0.8047  0.4181  0.4384
 7792SOL     OW35008   2.431   3.563   0.459  0.2500 -0.2470 -0.4095
 7792SOL    HW135009   2.486   3.635   0.490 -0.4069  0.4290 -0.8332
 7792SOL    HW235010   2.363   3.622   0.428 -0.2527  0.2116  1.5644
 7793SOL     OW35011   0.435   2.174   6.757 -0.1416 -0.5131 -0.6468
 7793SOL    HW135012   0.485   2.250   6.727  0.7591 -0.8122  0.1171
 7793SOL    HW235013   0.360   2.187   6.698 -0.2375  2.2063  0.0373
 7794SOL     OW35014   3.218   0.759   3.602 -0.1432 -0.1077  0.2694
 7794SOL    HW135015   3.142   0.786   3.551 -0.2211  0.5877  0.7644
 7794SOL    HW235016   3.211   0.812   3.681  0.4104 -0.6355  0.6803
 7795SOL     OW35017   4.174   0.013   6.027  0.5852 -0.5558  0.1468
 7795SOL    HW135018   4.125   4.710   6.098  0.8495 -0.5715  0.3180
 7795SOL    HW235019   4.260   4.710   6.034  0.0440 -1.5265  1.0032
 7796SOL     OW35020   0.656   1.734   8.511 -0.1220 -0.1219 -0.5269
 7796SOL    HW135021   0.568   1.772   8.509 -0.9268 -2.0922 -2.3408
 7796SOL    HW235022   0.673   1.706   8.421 -1.9591 -1.1179 -0.5675
 7797SOL     OW35023   2.823   3.078   8.412  0.4526  0.1800 -0.1363
 7797SOL    HW135024   2.887   3.149   8.408 -1.5386  1.9345 -0.8657
 7797SOL    HW235025   2.887   3.011   8.389  0.2978  0.0777 -0.2691
 7798SOL     OW35026   3.190   1.456   9.435 -0.0924  0.2864 -0.0536
 7798SOL    HW135027   3.258   1.490   9.494  0.1969 -0.2444 -0.0760
 7798SOL    HW235028   3.169   1.532   9.381 -1.2324 -0.4347 -0.6415
 7799SOL     OW35029   1.450   3.557   4.620  0.0267 -0.3701 -0.2046
 7799SOL    HW135030   1.495   3.588   4.698  2.3538 -0.6692 -1.4061
 7799SOL    HW235031   1.362   3.541   4.654  0.1036  0.9024  0.5832
 7800SOL     OW35032   2.561   0.216   8.025 -0.2179 -0.0084  0.5595
 7800SOL    HW135033   2.469   0.237   8.039 -0.5600 -1.1480  0.0186
 7800SOL    HW235034   2.548   0.153   7.955  1.9430 -0.8621  0.9276
 7801SOL     OW35035   2.960   2.861   7.571 -0.6193 -0.2508  0.3842
 7801SOL    HW135036   2.898   2.898   7.508  0.0639 -2.0530 -1.3359
 7801SOL    HW235037   3.027   2.833   7.508 -0.4613  1.4426 -0.2065
 7802SOL     OW35038   2.392   0.540  16.430 -0.5837  0.3110  0.9308
 7802SOL    HW135039   2.382   0.614  16.370 -0.6581 -0.0743  0.4684
 7802SOL    HW235040   2.479   0.507  16.410  0.3175  3.0545  0.3467
 7803SOL     OW35041   1.388   4.667  11.987  0.4625 -0.2103  0.4383
 7803SOL    HW135042   1.425   4.639  11.904  0.8434  1.0866  0.1738
 7803SOL    HW235043   1.464   4.715  12.020 -0.2424  0.4321  1.1271
 7804SOL     OW35044   3.769   3.911  11.185  0.3483 -0.2886 -0.5771
 7804SOL    HW135045   3.855   3.876  11.208 -0.4785 -0.3649  2.3987
 7804SOL    HW235046   3.737   3.843  11.126  1.8759 -0.6027 -1.0519
 7805SOL     OW35047   1.478   0.354  12.092 -0.3730 -0.3835 -0.2311
 7805SOL    HW135048   1.422   0.311  12.156  1.5068 -2.6355 -0.0877
 7805SOL    HW235049   1.454   0.446  12.082  1.4876  0.0599 -0.6455
 7806SOL     OW35050   3.231   0.627   0.669  0.1199 -0.3198  0.5978
 7806SOL    HW135051   3.187   0.604   0.751  0.3177 -0.5878  0.6274
 7806SOL    HW235052   3.317   0.657   0.700  0.2889  0.2463 -0.4084
 7807SOL     OW35053   3.742   3.610   7.186 -0.0319 -0.5473 -0.1722
 7807SOL    HW135054   3.774   3.699   7.176  0.8821 -1.0314 -1.5959
 7807SOL    HW235055   3.805   3.571   7.247  0.3410 -1.2281 -0.9764
 7808SOL     OW35056   0.404   3.369   3.968 -0.2433  0.1498  0.2381
 7808SOL    HW135057   0.411   3.463   3.982  0.2711  0.1819 -0.2196
 7808SOL    HW235058   0.497   3.348   3.963  0.0266  1.9689 -2.5384
 7809SOL     OW35059   2.043   2.159  17.510 -0.2804  0.2314  0.1277
 7809SOL    HW135060   2.033   2.092  17.577 -5.3423 -1.5565 -2.4676
 7809SOL    HW235061   2.032   2.237  17.566 -2.4172  0.8913 -1.2148
 7810SOL     OW35062   0.921   3.823   4.816  0.2833  0.2396 -0.5857
 7810SOL    HW135063   0.992   3.871   4.774 -0.6677  3.2053  1.1931
 7810SOL    HW235064   0.929   3.741   4.767  1.2639  1.0663 -1.8104
 7811SOL     OW35065   3.196   2.314   1.070 -0.3359 -0.6448  0.6547
 7811SOL    HW135066   3.207   2.262   0.990  1.5736 -1.0111  1.1683
 7811SOL    HW235067   3.267   2.374   1.052  0.7018 -2.0652  0.0082
 7812SOL     OW35068   0.252   4.140   2.844 -0.3279 -0.5729  0.1792
 7812SOL    HW135069   0.267   4.233   2.824  1.2317 -1.6420 -3.6915
 7812SOL    HW235070   0.214   4.113   2.760  0.4625 -1.4400  0.0980
 7813SOL     OW35071   0.411   3.885  10.409 -0.5764  0.5276  0.2812
 7813SOL    HW135072   0.448   3.801  10.382  0.1519  1.4267 -1.5623
 7813SOL    HW235073   0.337   3.892  10.348 -0.3694  1.6266  0.1554
 7814SOL     OW35074   0.201   2.249   6.584 -0.1686  0.5965  0.2274
 7814SOL    HW135075   0.167   2.334   6.556  2.1254  0.6482 -2.4077
 7814SOL    HW235076   0.227   2.226   6.494  0.7402  0.9675  0.3944
 7815SOL     OW35077   2.321   3.780   4.791  0.1041  0.1990  0.0066
 7815SOL    HW135078   2.345   3.863   4.748  0.7609 -0.1397 -0.2831
 7815SOL    HW235079   2.410   3.749   4.809  0.5459  1.9497  0.8569
 7816SOL     OW35080   2.983   2.031   0.350  0.7884 -0.5155 -0.5042
 7816SOL    HW135081   3.018   1.944   0.333  1.5437  0.2385 -2.7565
 7816SOL    HW235082   2.986   2.014   0.444  0.2556 -1.5576 -0.6754
 7817SOL     OW35083   3.107   1.278  14.254 -0.1622  0.1145 -0.2442
 7817SOL    HW135084   3.200   1.277  14.234 -0.2841 -0.1350 -0.7883
 7817SOL    HW235085   3.111   1.235  14.340  0.4019 -1.1950 -0.9267
 7818SOL     OW35086   3.540   2.660  11.339  0.3167 -0.9535 -0.0090
 7818SOL    HW135087   3.554   2.696  11.251 -2.3766  0.9377  0.3421
 7818SOL    HW235088   3.621   2.611  11.352  0.3876 -0.3768  1.7310
 7819SOL     OW35089   3.744   1.645   3.610 -0.2847 -0.3523  0.5161
 7819SOL    HW135090   3.700   1.570   3.649 -1.9971  0.4169  0.0790
 7819SOL    HW235091   3.707   1.657   3.523 -2.0500  0.6958  1.4089
 7820SOL     OW35092   4.713   2.216   3.701  0.0478  0.1188 -0.1380
 7820SOL    HW135093   0.070   2.219   3.716 -0.1099 -0.6153  0.9871
 7820SOL    HW235094   4.679   2.249   3.784  1.2939  1.3539 -0.1046
 7821SOL     OW35095   1.077   3.249  13.061 -0.4867 -0.1469  0.8848
 7821SOL    HW135096   1.016   3.203  13.003  0.1946  0.9818 -0.7088
 7821SOL    HW235097   1.086   3.178  13.125 -0.1057 -0.6278  0.3074
 7822SOL     OW35098   3.291   1.662   1.929 -0.3424 -0.3605  0.6409
 7822SOL    HW135099   3.242   1.646   1.848 -1.3800  0.7847  1.0370
 7822SOL    HW235100   3.384   1.645   1.913 -1.1491 -2.2454 -1.9497
 7823SOL     OW35101   4.380   3.208   3.723  0.0749 -0.2569  0.0432
 7823SOL    HW135102   4.289   3.207   3.693 -0.4003  0.0529  1.4451
 7823SOL    HW235103   4.416   3.134   3.674 -0.4411 -1.5084  1.5559
 7824SOL     OW35104   2.477   0.708  14.874 -0.0437 -0.9934 -1.1560
 7824SOL    HW135105   2.404   0.656  14.908  0.4823 -0.1868  1.2321
 7824SOL    HW235106   2.544   0.641  14.888  0.6997  0.1336  0.5962
 7825SOL     OW35107   1.471   1.480  15.945  0.2756  0.1789 -0.4426
 7825SOL    HW135108   1.377   1.497  15.939 -0.4266 -2.6125  3.0089
 7825SOL    HW235109   1.470   1.388  15.972  1.4180 -0.1280 -1.4317
 7826SOL     OW35110   0.810   4.480  13.644 -0.0182  0.5363 -0.3702
 7826SOL    HW135111   0.727   4.444  13.674  1.0598 -2.1353 -0.6234
 7826SOL    HW235112   0.812   4.472  13.549 -2.0788 -0.5007 -0.3231
 7827SOL     OW35113   1.343   0.638   6.393  0.0633 -0.6003 -0.1744
 7827SOL    HW135114   1.364   0.554   6.353 -1.5010 -0.5038 -1.1918
 7827SOL    HW235115   1.424   0.658   6.439 -0.5700  0.5283  0.4484
 7828SOL     OW35116   1.573   4.451   8.702 -0.0851 -0.4618 -0.1029
 7828SOL    HW135117   1.541   4.535   8.668 -0.6042 -0.6502 -0.0735
 7828SOL    HW235118   1.666   4.471   8.715 -0.1364 -0.3686  0.1101
 7829SOL     OW35119   3.930   2.451   0.953 -0.0476  0.0604  0.2844
 7829SOL    HW135120   3.842   2.486   0.966  1.4320  4.1682 -0.9633
 7829SOL    HW235121   3.919   2.377   1.013  1.4548 -0.9209 -0.6553
 7830SOL     OW35122   4.046   0.540  12.348 -0.0481 -0.3846  0.1257
 7830SOL    HW135123   4.066   0.459  12.395 -0.9523 -0.4473  0.4093
 7830SOL    HW235124   4.046   0.512  12.256  4.1011 -0.0350  0.0534
 7831SOL     OW35125   2.458   0.103   3.886 -0.6335 -0.2287 -0.8531
 7831SOL    HW135126   2.517   0.177   3.905 -2.4596  0.8250  0.6680
 7831SOL    HW235127   2.463   0.104   3.790  1.4282 -1.3321 -0.7584
 7832SOL     OW35128   4.437   1.615   2.974  0.0679 -0.2989 -0.0926
 7832SOL    HW135129   4.389   1.694   2.949 -0.4774 -0.2893  1.0003
 7832SOL    HW235130   4.519   1.658   2.998 -0.6429  0.8238  0.3875
 7833SOL     OW35131   1.384   3.923   6.446 -0.5735 -0.6850  0.2021
 7833SOL    HW135132   1.377   3.949   6.537  0.5328  0.5600 -0.0708
 7833SOL    HW235133   1.407   4.009   6.411  1.4857 -1.2323  0.1675
 7834SOL     OW35134   4.505   3.350   5.817  0.1151 -0.3386 -0.1404
 7834SOL    HW135135   4.555   3.389   5.889 -2.1255 -1.6581  2.1180
 7834SOL    HW235136   4.537   3.400   5.742 -1.0041  2.9835  1.5976
 7835SOL     OW35137   1.396   0.058   9.966 -0.1117 -0.3231 -0.2730
 7835SOL    HW135138   1.390   0.152   9.982  1.1170 -0.4355  0.8633
 7835SOL    HW235139   1.322   0.012  10.004 -0.9043  0.8812 -0.3614
 7836SOL     OW35140   0.924   3.580   4.657 -0.6116  1.1348 -0.2959
 7836SOL    HW135141   0.948   3.593   4.566 -0.5889 -1.1938 -0.6227
 7836SOL    HW235142   0.829   3.573   4.641 -0.8484 -1.7178  2.0956
 7837SOL     OW35143   0.278   3.163  13.067 -0.6439 -0.5367  0.7130
 7837SOL    HW135144   0.241   3.126  13.147 -0.1850 -0.9801  0.7136
 7837SOL    HW235145   0.208   3.141  13.004  0.8317 -0.3860 -0.9815
 7838SOL     OW35146   1.233   3.249   4.045 -0.2862 -0.0691  0.2409
 7838SOL    HW135147   1.180   3.296   3.980 -2.5170 -3.0572 -0.1169
 7838SOL    HW235148   1.246   3.164   4.003  0.1995  1.5201 -2.7949
 7839SOL     OW35149   3.453   1.409   8.200  0.1314  0.2890  0.2713
 7839SOL    HW135150   3.388   1.356   8.247 -0.5354  0.5227 -0.3795
 7839SOL    HW235151   3.495   1.341   8.147 -0.2974  0.2324  0.0052
 7840SOL     OW35152   4.556   1.284   4.311  0.2589  0.2734  0.0806
 7840SOL    HW135153   4.540   1.226   4.237  0.1962  1.2724 -0.6802
 7840SOL    HW235154   4.651   1.295   4.311  0.1253  1.2460 -3.7252
 7841SOL     OW35155   1.119   0.254   7.896  0.2497 -0.0158 -0.1151
 7841SOL    HW135156   1.050   0.317   7.872  0.2452 -0.9697 -2.6699
 7841SOL    HW235157   1.076   0.174   7.865  0.7098  0.6669 -2.5362
 7842SOL     OW35158   2.022   4.289   1.208 -0.8940 -0.2954 -0.2877
 7842SOL    HW135159   2.113   4.320   1.210 -0.7674 -0.7708  1.1226
 7842SOL    HW235160   1.988   4.379   1.214 -1.6339 -0.6463  0.7613
 7843SOL     OW35161   4.294   1.315   4.066  0.7079  0.1376 -0.5239
 7843SOL    HW135162   4.374   1.313   4.012  0.4491 -2.7519 -0.7983
 7843SOL    HW235163   4.285   1.410   4.063 -0.4294  0.0593  0.4946
 7844SOL     OW35164   1.441   2.337   7.814 -0.0451  0.7755  0.3525
 7844SOL    HW135165   1.380   2.382   7.755  0.1476  0.5629 -0.0072
 7844SOL    HW235166   1.387   2.324   7.891 -1.3943  2.9281 -0.2127
 7845SOL     OW35167   1.864   3.626   7.428 -0.0723  0.3703 -0.2833
 7845SOL    HW135168   1.902   3.637   7.341  0.3931  0.5817 -0.0519
 7845SOL    HW235169   1.911   3.547   7.454 -2.8545 -1.2313 -0.0871
 7846SOL     OW35170   3.431   4.288  16.573 -0.3588 -0.1913 -0.2328
 7846SOL    HW135171   3.500   4.236  16.613  0.4293 -0.1246 -1.4960
 7846SOL    HW235172   3.481   4.352  16.522 -1.2331  2.3679  2.1567
 7847SOL     OW35173   0.157   3.593  14.393  0.0523  0.0237  0.0022
 7847SOL    HW135174   0.186   3.596  14.302  3.4611  1.1185  1.1314
 7847SOL    HW235175   0.150   3.499  14.405  1.3199 -0.3838 -2.5317
 7848SOL     OW35176   3.666   1.680   4.474  0.4508 -0.1303  0.0325
 7848SOL    HW135177   3.713   1.689   4.556 -2.3431  1.2206  1.5112
 7848SOL    HW235178   3.629   1.592   4.471  2.7994 -1.1434  1.2513
 7849SOL     OW35179   4.132   2.407   0.732  0.0376  0.2612 -0.2888
 7849SOL    HW135180   4.101   2.328   0.775  2.2096 -0.2627  0.2633
 7849SOL    HW235181   4.069   2.469   0.768 -0.7035 -0.5722 -0.1519
 7850SOL     OW35182   3.423   0.893  12.808  0.4008  0.3883 -0.2347
 7850SOL    HW135183   3.413   0.894  12.903 -0.1466 -0.8449 -0.2784
 7850SOL    HW235184   3.422   0.799  12.786  0.6813  0.5925 -1.1313
 7851SOL     OW35185   2.554   0.278   0.221 -0.1554 -0.4912 -0.6593
 7851SOL    HW135186   2.464   0.245   0.219 -0.2490 -0.1402 -1.7560
 7851SOL    HW235187   2.534   0.354   0.276 -1.1347  0.9889 -3.0821
 7852SOL     OW35188   0.988   0.680   5.922 -0.0059 -0.3264  0.6161
 7852SOL    HW135189   1.023   0.605   5.969  1.5397  0.4373  0.6595
 7852SOL    HW235190   0.897   0.655   5.903 -0.3436 -0.1502  1.9624
 7853SOL     OW35191   3.650   0.549   3.257  0.0494  0.0933  0.4132
 7853SOL    HW135192   3.592   0.580   3.188  0.7659  1.3287  0.3509
 7853SOL    HW235193   3.652   0.616   3.326  0.8841  1.2687 -0.7563
 7854SOL     OW35194   4.457   4.269   4.048  0.3529 -0.7946 -0.3068
 7854SOL    HW135195   4.392   4.242   4.113  1.4032 -2.8941 -0.1368
 7854SOL    HW235196   4.496   4.185   4.025  2.2042 -0.2197  0.6783
 7855SOL     OW35197   4.128   2.552   1.931 -0.3773  0.2404  0.3103
 7855SOL    HW135198   4.185   2.520   1.860  0.1267 -0.0830  0.8598
 7855SOL    HW235199   4.088   2.630   1.893  1.1148 -0.3749 -2.5583
 7856SOL     OW35200   0.115   4.510   5.654 -0.6501 -0.1336 -0.6141
 7856SOL    HW135201   0.144   4.512   5.563 -1.1335  2.3663 -0.7147
 7856SOL    HW235202   0.129   4.600   5.683 -0.4271 -0.2828 -0.2570
 7857SOL     OW35203   4.440   3.357   3.080 -0.4408 -0.2090 -0.2525
 7857SOL    HW135204   4.378   3.318   3.019 -0.6728  1.9208 -1.3573
 7857SOL    HW235205   4.501   3.383   3.012 -0.1045  1.2229  0.5938
 7858SOL     OW35206   3.586   4.343   9.277 -0.0127  0.6573 -0.3273
 7858SOL    HW135207   3.611   4.306   9.193  1.1428  0.1837  0.2282
 7858SOL    HW235208   3.658   4.402   9.302  0.1337  1.2254 -2.1338
 7859SOL     OW35209   2.052   3.095   4.969  0.1587 -0.4773  0.7564
 7859SOL    HW135210   2.018   3.044   5.042 -0.4215 -3.0514 -1.2776
 7859SOL    HW235211   2.059   3.174   5.022  1.9144  0.7009 -1.2604
 7860SOL     OW35212   0.126   0.057  17.593 -0.2224  0.2629 -0.2300
 7860SOL    HW135213   0.143   4.715  17.542  1.5102 -0.2033  1.0887
 7860SOL    HW235214   0.062   0.093  17.532 -0.8259 -0.9507 -0.3209
 7861SOL     OW35215   3.479   1.576   8.434  0.1321 -0.1275  0.1426
 7861SOL    HW135216   3.452   1.509   8.371  1.8763 -1.4324  0.7602
 7861SOL    HW235217   3.513   1.528   8.509 -0.0851  1.6083  1.3531
 7862SOL     OW35218   4.089   3.752  13.931 -0.2810  0.2851 -0.9664
 7862SOL    HW135219   4.103   3.808  13.855  2.6708  0.0504 -0.6267
 7862SOL    HW235220   3.996   3.764  13.950 -0.0693 -1.6031  1.3658
 7863SOL     OW35221   4.511   4.156   5.104  0.4901 -0.1049 -0.0180
 7863SOL    HW135222   4.581   4.195   5.052  0.4422 -0.9897 -0.7497
 7863SOL    HW235223   4.491   4.081   5.048  4.0687  0.1165 -1.5503
 7864SOL     OW35224   3.958   1.037   1.043 -0.4789  0.0969 -0.5018
 7864SOL    HW135225   3.865   1.032   1.067 -0.5158  1.8190 -0.3009
 7864SOL    HW235226   3.989   1.116   1.087  0.8155  0.1501 -1.4950
 7865SOL     OW35227   0.195   3.459   1.496 -0.4252  0.0415 -0.5799
 7865SOL    HW135228   0.202   3.445   1.591 -0.8210  0.0749 -0.5451
 7865SOL    HW235229   0.160   3.548   1.506 -0.1383  0.1420 -0.4747
 7866SOL     OW35230   3.396   0.703  13.990  0.7496 -0.2815  0.4802
 7866SOL    HW135231   3.418   0.621  14.035  0.2546 -1.0589 -0.6648
 7866SOL    HW235232   3.411   0.677  13.899 -0.9017  0.5512 -0.0255
 7867SOL     OW35233   1.098   2.544   5.283 -0.0771  0.5289 -0.0426
 7867SOL    HW135234   1.074   2.632   5.254 -0.6446  0.3118 -0.2300
 7867SOL    HW235235   1.181   2.565   5.325  0.3255 -0.3678 -0.3989
 7868SOL     OW35236   0.556   4.623   3.222  0.1788 -0.0043 -0.5260
 7868SOL    HW135237   0.557   4.711   3.260 -2.2624  0.3998 -1.3870
 7868SOL    HW235238   0.644   4.601   3.252 -1.1554 -1.4420  2.2493
 7869SOL     OW35239   4.289   3.183   6.116 -0.2948  0.2622 -0.0138
 7869SOL    HW135240   4.338   3.112   6.158  0.9753  0.1965 -1.6072
 7869SOL    HW235241   4.269   3.221   6.201  1.1308  2.0487 -0.4971
 7870SOL     OW35242   2.132   2.266   7.937 -0.4300  0.3176 -0.1899
 7870SOL    HW135243   2.157   2.250   8.027 -1.4325 -1.1247 -0.1715
 7870SOL    HW235244   2.085   2.349   7.936 -1.3603 -0.1986  1.3048
 7871SOL     OW35245   4.612   1.858   7.257  0.2201 -0.1937  0.4619
 7871SOL    HW135246   4.693   1.910   7.250 -0.7750  1.3931  0.7475
 7871SOL    HW235247   4.580   1.881   7.344  3.6837  1.3619  1.3523
 7872SOL     OW35248   2.250   3.475  16.673 -1.1558  0.1534  0.4326
 7872SOL    HW135249   2.187   3.531  16.628 -0.4740  0.1114 -0.5895
 7872SOL    HW235250   2.200   3.400  16.705 -1.4791  0.3882  0.4666
 7873SOL     OW35251   0.570   3.706   5.028 -0.1735 -0.1422 -0.0432
 7873SOL    HW135252   0.570   3.631   5.089 -0.0317  0.4247  0.6529
 7873SOL    HW235253   0.495   3.744   5.074  0.4292 -0.0377  0.8623
 7874SOL     OW35254   2.736   4.592   4.215  0.0515  0.6170 -0.4883
 7874SOL    HW135255   2.702   4.675   4.248 -0.5915  0.6442 -1.2161
 7874SOL    HW235256   2.812   4.638   4.178  1.2208 -0.6443  0.3354
 7875SOL     OW35257   3.099   3.148   9.121 -0.2327  0.5071 -0.2306
 7875SOL    HW135258   3.126   3.073   9.173 -1.5975 -0.9232 -1.5806
 7875SOL    HW235259   3.096   3.222   9.182  1.9093 -0.8580  1.4845
 7876SOL     OW35260   1.875   0.514  14.767 -0.0286 -0.0612  0.0665
 7876SOL    HW135261   1.958   0.474  14.790 -0.3941 -0.0037  1.4384
 7876SOL    HW235262   1.903   0.605  14.773 -0.7632  0.0917  1.1273
 7877SOL     OW35263   3.909   3.547   4.520 -0.2305  0.3030  0.2292
 7877SOL    HW135264   3.850   3.589   4.457  0.4068  1.8055  0.6199
 7877SOL    HW235265   3.987   3.522   4.470 -0.4432 -1.3191  0.7140
 7878SOL     OW35266   3.102   3.791   9.841 -0.8115  0.6080 -0.2809
 7878SOL    HW135267   3.099   3.868   9.784  0.4498  0.9171  0.0744
 7878SOL    HW235268   3.009   3.774   9.853 -0.4823 -0.5434  0.7136
 7879SOL     OW35269   1.792   1.516  12.677 -0.0734  0.1619  0.1628
 7879SOL    HW135270   1.886   1.534  12.686  0.2673  0.1381 -3.2002
 7879SOL    HW235271   1.755   1.543  12.761 -2.9794 -1.9023 -0.4551
 7880SOL     OW35272   2.740   4.497   9.389  0.0195  0.2565  0.1470
 7880SOL    HW135273   2.717   4.534   9.474 -0.1745  1.2002 -0.3226
 7880SOL    HW235274   2.800   4.428   9.420 -0.4519 -0.1731  0.1037
 7881SOL     OW35275   2.743   1.809   5.534  0.4565 -0.3762  0.0652
 7881SOL    HW135276   2.721   1.859   5.455 -0.4458  2.0810  1.8554
 7881SOL    HW235277   2.680   1.852   5.593 -2.9485 -2.2840 -2.1806
 7882SOL     OW35278   3.985   4.002  13.763 -0.3274 -0.2578  0.1712
 7882SOL    HW135279   3.983   4.043  13.850 -0.9062  2.2749 -1.0445
 7882SOL    HW235280   3.952   3.914  13.782 -2.6951  0.1972 -1.8004
 7883SOL     OW35281   1.245   0.800   9.609 -0.2057  0.9488 -0.1504
 7883SOL    HW135282   1.156   0.767   9.614 -0.4669  1.5623 -0.7079
 7883SOL    HW235283   1.287   0.721   9.575  1.9261  1.3272  1.5892
 7884SOL     OW35284   3.933   0.026   6.753 -0.2929 -0.1003  0.5222
 7884SOL    HW135285   4.008   4.727   6.800  0.6603  1.8943  0.5587
 7884SOL    HW235286   3.921   0.109   6.800  0.4037 -0.6728  1.7220
 7885SOL     OW35287   1.759   0.144   4.352  0.1172  0.0958 -0.2125
 7885SOL    HW135288   1.853   0.125   4.346  0.1540 -0.0557  0.9108
 7885SOL    HW235289   1.732   0.081   4.285  1.2007 -1.4629  0.7982
 7886SOL     OW35290   4.171   1.533   0.498  0.3945  0.1211 -0.2817
 7886SOL    HW135291   4.165   1.552   0.405 -2.2542 -1.4010 -0.4156
 7886SOL    HW235292   4.129   1.449   0.517 -1.4309  0.5092 -2.5916
 7887SOL     OW35293   4.317   0.020   7.470 -0.5778  0.0217 -0.4256
 7887SOL    HW135294   4.326   0.113   7.489 -1.3190 -0.5045  2.5455
 7887SOL    HW235295   4.370   0.008   7.392 -0.6024  1.0342 -0.5994
 7888SOL     OW35296   0.132   0.510   7.161 -0.5850 -0.0243 -0.0569
 7888SOL    HW135297   0.178   0.529   7.079  0.6208  0.3847  0.7035
 7888SOL    HW235298   0.084   0.431   7.138  0.0265  0.0157 -1.4648
 7889SOL     OW35299   1.617   0.110   1.865 -0.1361  0.6821 -0.1312
 7889SOL    HW135300   1.682   0.176   1.841  3.2245 -3.0114 -1.2229
 7889SOL    HW235301   1.578   0.102   1.779  1.2621 -1.8130 -0.5438
 7890SOL     OW35302   1.695   1.556   4.380  0.1058  0.0336 -0.1768
 7890SOL    HW135303   1.638   1.626   4.412 -1.9671 -2.2866  1.2428
 7890SOL    HW235304   1.710   1.521   4.468 -3.7667  0.7371  0.7563
 7891SOL     OW35305   2.406   1.402  14.677  0.0116  0.2065  0.9505
 7891SOL    HW135306   2.315   1.375  14.674  0.9078 -2.6787  0.2994
 7891SOL    HW235307   2.401   1.494  14.705 -0.0986  0.6937 -0.6835
 7892SOL     OW35308   2.145   1.774  13.754 -0.2331  0.1477 -0.5649
 7892SOL    HW135309   2.224   1.780  13.808 -0.7316  0.1602  0.1547
 7892SOL    HW235310   2.170   1.819  13.673  1.3444 -0.6800 -0.5479
 7893SOL     OW35311   1.914   4.219   4.127 -0.0471 -0.3371  0.4762
 7893SOL    HW135312   2.002   4.255   4.136  0.0784 -0.8917  1.5418
 7893SOL    HW235313   1.936   4.165   4.052  0.3756  1.4063 -0.6399
 7894SOL     OW35314   3.316   2.546   5.392  0.1292  0.0137 -0.4433
 7894SOL    HW135315   3.364   2.520   5.313 -0.5346 -0.2961 -0.7434
 7894SOL    HW235316   3.278   2.631   5.369 -1.4551  0.1494  2.6485
 7895SOL     OW35317   2.439   3.174  16.773 -0.4230 -0.8140 -0.7822
 7895SOL    HW135318   2.522   3.161  16.728  0.0527  0.3370 -0.2645
 7895SOL    HW235319   2.380   3.134  16.710 -0.7470 -0.6515 -0.5817
 7896SOL     OW35320   4.709   3.605  10.005  0.3686  0.5078 -0.0663
 7896SOL    HW135321   4.700   3.566  10.091  0.1562  0.8720  0.0765
 7896SOL    HW235322   0.009   3.691  10.025  2.1242 -0.8394  2.4000
 7897SOL     OW35323   3.972   1.038   4.909 -0.2868  1.0551  0.0129
 7897SOL    HW135324   3.932   0.989   4.837 -0.4479  0.3888  0.5545
 7897SOL    HW235325   3.900   1.019   4.969 -2.2453  1.3730 -2.2051
 7898SOL     OW35326   2.062   1.284  13.920 -0.0169  0.4238  0.1431
 7898SOL    HW135327   1.981   1.328  13.947  0.9644  1.3651  1.5103
 7898SOL    HW235328   2.042   1.237  13.839 -1.9436  3.3280 -1.0647
 7899SOL     OW35329   2.605   3.066   2.086 -0.1610 -0.5137 -0.3619
 7899SOL    HW135330   2.638   3.008   2.155  0.6034  0.7704  0.3435
 7899SOL    HW235331   2.670   3.136   2.083 -0.5054 -0.1581  0.5604
 7900SOL     OW35332   3.423   0.960   7.076 -0.0096 -0.0616 -0.3991
 7900SOL    HW135333   3.388   1.003   7.155  1.6450 -1.2505  0.9950
 7900SOL    HW235334   3.393   1.020   7.008  2.1276 -0.6063 -1.8081
 7901SOL     OW35335   1.785   2.843   0.926  0.4242  0.1252  0.0331
 7901SOL    HW135336   1.824   2.854   1.012  1.2886 -2.6167 -0.0027
 7901SOL    HW235337   1.863   2.810   0.881  1.4017 -0.1654  1.9412
 7902SOL     OW35338   4.602   2.336   8.279  0.5416  0.2767  0.3457
 7902SOL    HW135339   4.622   2.278   8.205 -0.2806  0.2055  0.1810
 7902SOL    HW235340   4.551   2.275   8.332 -1.0049 -0.7643 -2.3608
 7903SOL     OW35341   1.929   2.248  13.792  0.2512  0.9710 -0.1773
 7903SOL    HW135342   1.844   2.212  13.819  0.0364  2.3338  0.9524
 7903SOL    HW235343   1.984   2.175  13.818 -0.8048  0.5337  0.8512
 7904SOL     OW35344   1.938   1.121   2.362 -0.3009  0.3609 -0.1104
 7904SOL    HW135345   2.018   1.163   2.393 -0.0003 -1.0855  1.0713
 7904SOL    HW235346   1.881   1.197   2.348  0.5011  0.8938 -0.4968
 7905SOL     OW35347   1.675   0.621   6.899 -0.2727 -0.0638  0.2336
 7905SOL    HW135348   1.651   0.592   6.987  1.8513 -2.0227  0.1582
 7905SOL    HW235349   1.700   0.709   6.928  0.3121 -0.0108 -0.4302
 7906SOL     OW35350   3.307   1.349   1.727  0.3757  0.3011  0.1946
 7906SOL    HW135351   3.287   1.323   1.637 -0.1318 -0.4069  0.5099
 7906SOL    HW235352   3.259   1.431   1.729 -0.4290 -0.1092 -1.8241
 7907SOL     OW35353   4.105   0.128   5.190 -0.2411 -0.0310  0.4107
 7907SOL    HW135354   4.149   0.052   5.230  1.3777  2.2626  2.9563
 7907SOL    HW235355   4.062   0.173   5.262 -0.3948 -1.0606  0.9715
 7908SOL     OW35356   1.653   0.468  14.928 -0.3081 -0.7315  0.9837
 7908SOL    HW135357   1.743   0.489  14.903 -1.2594  1.9880 -0.1241
 7908SOL    HW235358   1.613   0.551  14.903  0.2473 -1.1872 -1.3999
 7909SOL     OW35359   0.518   1.072  14.202  0.2523 -0.4096 -0.1288
 7909SOL    HW135360   0.564   1.134  14.145  1.4785 -0.8773  0.3629
 7909SOL    HW235361   0.546   1.112  14.284  0.5254  1.9153 -1.3437
 7910SOL     OW35362   1.043   1.385   5.281 -0.2634  0.2505  0.1264
 7910SOL    HW135363   1.049   1.377   5.376  1.1175 -2.7718 -0.2365
 7910SOL    HW235364   1.112   1.452   5.275 -0.6416  0.5055 -1.3940
 7911SOL     OW35365   4.075   1.174   6.158 -0.6640 -0.1423 -0.2128
 7911SOL    HW135366   4.079   1.086   6.120  0.8033  0.6790 -1.9578
 7911SOL    HW235367   4.167   1.199   6.164 -0.6179 -0.4739  0.4204
 7912SOL     OW35368   0.944   1.110   3.827  0.0101 -0.0846 -0.4658
 7912SOL    HW135369   0.977   1.069   3.907 -2.5199 -1.7936 -0.2875
 7912SOL    HW235370   0.886   1.041   3.795  1.3270 -0.6677 -1.5760
 7913SOL     OW35371   0.241   2.118  13.326  0.3497 -0.4228  0.4947
 7913SOL    HW135372   0.294   2.178  13.273 -0.0072 -0.4444  0.1131
 7913SOL    HW235373   0.165   2.091  13.274 -0.3455 -0.2788  1.4488
 7914SOL     OW35374   1.920   4.669   3.780  0.1311 -0.0124  0.1358
 7914SOL    HW135375   1.998   4.719   3.804  0.3020  0.0255 -0.5025
 7914SOL    HW235376   1.956   4.588   3.743 -0.7802  0.5248 -1.9237
 7915SOL     OW35377   3.174   4.016   1.351 -0.0915 -1.1809  0.3674
 7915SOL    HW135378   3.145   4.004   1.441  1.1402  1.9732  1.1731
 7915SOL    HW235379   3.134   4.102   1.341  1.1649 -0.5999  0.4555
 7916SOL     OW35380   1.218   1.784   6.575 -0.3293  0.3084  0.1089
 7916SOL    HW135381   1.171   1.724   6.632 -1.6060  2.0924  0.9005
 7916SOL    HW235382   1.282   1.808   6.642  0.6299  1.9432 -1.4028
 7917SOL     OW35383   3.976   3.123   7.734  0.3661 -0.2251 -0.1480
 7917SOL    HW135384   3.995   3.164   7.819 -2.0812 -0.7386  0.6510
 7917SOL    HW235385   4.042   3.054   7.727  0.8076  0.3107 -1.2035
 7918SOL     OW35386   1.363   0.816   4.296  0.5875 -0.7157  0.1468
 7918SOL    HW135387   1.390   0.873   4.224  0.3548  0.9455  1.3952
 7918SOL    HW235388   1.403   0.736   4.260  1.0461  0.5002 -2.0327
 7919SOL     OW35389   3.747   2.191  12.268 -0.2264  0.3083 -0.6457
 7919SOL    HW135390   3.781   2.133  12.335 -1.8828  0.0077 -0.0722
 7919SOL    HW235391   3.699   2.131  12.211  0.7082 -1.7320  0.7354
 7920SOL     OW35392   3.958   2.802   4.368  0.0438  0.2183 -0.5264
 7920SOL    HW135393   4.037   2.759   4.401 -0.5373 -0.5100 -0.0748
 7920SOL    HW235394   3.964   2.889   4.408  0.0179  0.9933 -2.2253
 7921SOL     OW35395   1.512   3.267   8.398 -1.2502  0.2087 -0.4796
 7921SOL    HW135396   1.519   3.349   8.447  2.7163  0.7297 -1.9794
 7921SOL    HW235397   1.574   3.292   8.330 -0.4706  0.7039  0.4068
 7922SOL     OW35398   2.135   1.907  16.709  0.2204 -0.0020 -0.0248
 7922SOL    HW135399   2.081   1.936  16.635  0.2429  1.2975  0.4678
 7922SOL    HW235400   2.175   1.828  16.673  2.6969  2.7067 -3.2062
 7923SOL     OW35401   3.442   0.295   6.454 -0.0326  0.5014 -0.0291
 7923SOL    HW135402   3.381   0.366   6.476 -0.1941  0.5934 -0.7702
 7923SOL    HW235403   3.427   0.284   6.360  1.6536  2.0930 -0.4926
 7924SOL     OW35404   0.038   0.984  10.371  0.1068  0.1460  0.5529
 7924SOL    HW135405   0.093   0.968  10.294 -0.7169  0.9096 -0.1979
 7924SOL    HW235406   4.719   1.050  10.332 -1.5243 -1.5461  0.0517
 7925SOL     OW35407   0.302   0.121  15.750 -0.3375 -0.3172 -0.4904
 7925SOL    HW135408   0.207   0.125  15.760 -0.2738  0.9310 -0.3595
 7925SOL    HW235409   0.297   0.052  15.684  1.4756  1.3258 -2.3259
 7926SOL     OW35410   0.211   3.890   2.112  0.1248  0.2242 -0.2626
 7926SOL    HW135411   0.203   3.908   2.206  0.1917 -1.6050  0.0906
 7926SOL    HW235412   0.149   3.959   2.091 -0.2715  0.6322  2.2685
 7927SOL     OW35413   1.376   3.837  10.515 -0.0701 -0.2198  0.2820
 7927SOL    HW135414   1.332   3.782  10.451  0.8806 -1.1426  0.4108
 7927SOL    HW235415   1.357   3.799  10.601 -1.4372  0.9275  0.4871
 7928SOL     OW35416   1.404   0.338   1.379  0.3171 -0.3338 -0.5171
 7928SOL    HW135417   1.343   0.324   1.451  0.8337  0.8856  0.1454
 7928SOL    HW235418   1.442   0.422   1.402 -0.6427 -0.2958  0.9027
 7929SOL     OW35419   1.797   0.312  16.929 -0.1212  0.4690  0.3104
 7929SOL    HW135420   1.757   0.233  16.965 -0.6159  0.1175 -0.9935
 7929SOL    HW235421   1.732   0.373  16.961  0.7005  1.1925  0.6023
 7930SOL     OW35422   0.152   2.037   2.264 -0.0816  0.7788  0.6276
 7930SOL    HW135423   0.235   2.060   2.305 -0.4794 -1.0738  2.4543
 7930SOL    HW235424   0.149   2.082   2.179  0.9833  1.4191  0.9252
 7931SOL     OW35425   0.644   1.463   5.342 -0.6849 -0.2746 -0.3054
 7931SOL    HW135426   0.704   1.418   5.283 -1.1183 -1.9113  0.5283
 7931SOL    HW235427   0.657   1.407   5.418 -1.2352 -0.3164 -0.2474
 7932SOL     OW35428   1.875   1.816   8.029 -0.6825  0.1739 -0.2435
 7932SOL    HW135429   1.937   1.837   7.960  0.1550  1.6807  0.9597
 7932SOL    HW235430   1.797   1.863   7.998  0.0192  0.7647 -1.1161
 7933SOL     OW35431   2.581   1.153   4.760 -0.0308 -0.2938 -0.3914
 7933SOL    HW135432   2.552   1.084   4.819 -0.9744 -0.3071 -0.8673
 7933SOL    HW235433   2.676   1.145   4.764 -0.1390 -1.6187 -0.6276
 7934SOL     OW35434   0.121   4.172   7.423 -0.1131 -0.2465 -0.6749
 7934SOL    HW135435   0.070   4.095   7.448  0.6258 -0.3370  0.5503
 7934SOL    HW235436   0.188   4.185   7.490 -0.0927  1.6788 -1.0510
 7935SOL     OW35437   3.028   0.155   5.892 -0.8946  0.4593 -0.6021
 7935SOL    HW135438   3.024   0.095   5.967 -0.7687  0.8528 -0.2793
 7935SOL    HW235439   3.074   0.105   5.825  2.8772  2.9794  0.0785
 7936SOL     OW35440   3.517   3.302   8.517  0.0338  0.2927  0.2569
 7936SOL    HW135441   3.439   3.277   8.467  1.1305  3.1058 -2.8070
 7936SOL    HW235442   3.490   3.273   8.604  0.0569  3.5492  1.3482
 7937SOL     OW35443   4.548   0.159   6.844  0.3381  0.6285  0.0097
 7937SOL    HW135444   4.581   0.248   6.857 -1.7675  1.3642  0.1963
 7937SOL    HW235445   4.601   0.149   6.764  0.4414  1.5391 -0.0371
 7938SOL     OW35446   0.300   4.557   6.093 -0.0341 -0.4238 -0.1912
 7938SOL    HW135447   0.290   4.473   6.138 -2.2721  0.6457  1.3181
 7938SOL    HW235448   0.327   4.529   6.005 -2.9434 -4.0085  0.0737
 7939SOL     OW35449   1.648   3.686   5.817 -0.4788  0.4698 -0.1376
 7939SOL    HW135450   1.591   3.609   5.819 -0.2960  0.2806 -1.8806
 7939SOL    HW235451   1.584   3.753   5.792 -0.4925 -0.6225 -3.0692
 7940SOL     OW35452   3.117   3.329  12.626 -1.2572 -0.0270  0.5372
 7940SOL    HW135453   3.114   3.382  12.706  2.6940 -2.2091  2.1325
 7940SOL    HW235454   3.137   3.397  12.562  0.1359  1.0109  2.0662
 7941SOL     OW35455   1.920   2.235   4.932  0.0424  0.0006 -0.2234
 7941SOL    HW135456   1.831   2.237   4.965 -0.4655 -0.9142 -1.5387
 7941SOL    HW235457   1.963   2.301   4.986 -1.2688  2.6610 -2.4400
 7942SOL     OW35458   4.570   4.675  11.115 -0.0419 -0.4630  0.0889
 7942SOL    HW135459   4.621   0.005  11.070 -1.6600  1.0407  0.5544
 7942SOL    HW235460   4.601   4.591  11.079 -0.7145 -0.4597 -0.4779
 7943SOL     OW35461   3.859   3.770   2.500 -0.6074  0.4474 -0.2883
 7943SOL    HW135462   3.799   3.767   2.575  1.1081 -0.8949  1.0375
 7943SOL    HW235463   3.851   3.679   2.472 -0.0065 -0.1343  1.4370
 7944SOL     OW35464   0.145   2.539  14.981  0.4443 -0.3265 -0.2406
 7944SOL    HW135465   0.065   2.570  14.938  0.0056  2.3752  2.5026
 7944SOL    HW235466   0.117   2.449  14.997 -0.2650 -0.1415 -0.4391
 7945SOL     OW35467   1.107   1.455   4.310 -0.2566 -0.2911  0.2668
 7945SOL    HW135468   1.115   1.369   4.351  1.4152 -0.9172 -1.4022
 7945SOL    HW235469   1.188   1.481   4.354  0.3122  0.6291 -1.3346
 7946SOL     OW35470   4.562   2.533   6.075  0.3440 -0.5324 -0.4155
 7946SOL    HW135471   4.614   2.584   6.012  0.1471  2.3939  1.7598
 7946SOL    HW235472   4.606   2.448   6.079 -2.2269 -1.9074 -1.4377
 7947SOL     OW35473   0.424   3.704   4.319 -0.1013  0.0270  0.4172
 7947SOL    HW135474   0.340   3.668   4.348  1.5135 -2.9378  1.3487
 7947SOL    HW235475   0.429   3.787   4.367  1.2543  0.6917 -0.8534
 7948SOL     OW35476   3.996   3.633   4.935 -0.8268 -0.0266 -0.0827
 7948SOL    HW135477   3.915   3.626   4.884 -0.4097  0.4064 -0.8106
 7948SOL    HW235478   3.949   3.589   5.006 -1.2408 -0.3723 -0.5746
 7949SOL     OW35479   2.280   0.711   2.397 -0.3104 -0.4009  0.1956
 7949SOL    HW135480   2.286   0.670   2.311 -1.7434  0.2107 -0.1916
 7949SOL    HW235481   2.185   0.699   2.406 -0.3603 -0.4929 -0.4206
 7950SOL     OW35482   2.164   1.016   6.331 -0.0577  0.4218  0.4448
 7950SOL    HW135483   2.121   1.092   6.292  0.3298  2.0339  3.1912
 7950SOL    HW235484   2.248   1.018   6.284 -0.7361  0.8874 -0.7353
 7951SOL     OW35485   0.222   1.635   4.965  0.0443  0.2293  0.0102
 7951SOL    HW135486   0.156   1.618   5.033  1.1240 -0.4957  0.8773
 7951SOL    HW235487   0.286   1.571   4.996  0.3895 -1.0655 -3.4162
 7952SOL     OW35488   1.211   1.846  12.640  0.1529 -0.4046  0.7010
 7952SOL    HW135489   1.162   1.796  12.575 -1.0344 -0.4944  1.6814
 7952SOL    HW235490   1.261   1.901  12.578 -0.1388  0.1320  0.9421
 7953SOL     OW35491   1.145   2.550   2.473 -0.2337  0.1475  0.0867
 7953SOL    HW135492   1.137   2.611   2.546  0.2410  0.1406  0.1440
 7953SOL    HW235493   1.233   2.568   2.439  0.1476 -1.8090  0.0842
 7954SOL     OW35494   3.934   1.203   6.400  0.6951  0.0999  0.1542
 7954SOL    HW135495   3.996   1.181   6.330  0.7536 -0.9229  0.5397
 7954SOL    HW235496   3.862   1.144   6.378 -0.2667  1.7521 -1.1465
 7955SOL     OW35497   0.266   0.046   4.142 -0.4514 -0.1281  0.3956
 7955SOL    HW135498   0.313   4.701   4.137  0.8562  0.5439  1.4011
 7955SOL    HW235499   0.244   0.046   4.235 -1.5055  0.6440  0.1462
 7956SOL     OW35500   2.994   4.104  10.491  0.0096 -0.3304  0.1137
 7956SOL    HW135501   3.049   4.140  10.561 -1.3024  1.0943  0.4234
 7956SOL    HW235502   3.034   4.018  10.481 -2.9260 -1.2463 -3.7451
 7957SOL     OW35503   0.156   1.895   4.832  0.2147  0.3778  0.3039
 7957SOL    HW135504   0.191   1.834   4.897 -0.8980 -0.7536 -0.1704
 7957SOL    HW235505   0.227   1.959   4.819  0.2156  0.3326  0.0913
 7958SOL     OW35506   4.074   0.441   7.740  0.2980 -0.2806 -0.1207
 7958SOL    HW135507   4.083   0.446   7.835 -0.0721  3.5471 -0.2949
 7958SOL    HW235508   4.116   0.526   7.724 -2.1391  0.6021 -1.8170
 7959SOL     OW35509   3.859   3.383   9.134  0.2331  0.2959  0.0190
 7959SOL    HW135510   3.946   3.392   9.095  0.7978  0.2368  1.2716
 7959SOL    HW235511   3.870   3.447   9.204 -0.6590  2.5651 -1.8827
 7960SOL     OW35512   0.186   0.360  10.251 -0.1712 -0.4495  0.3509
 7960SOL    HW135513   0.214   0.413  10.177  0.3300 -0.4355  0.5526
 7960SOL    HW235514   0.121   0.299  10.214  0.6887 -1.3732  0.3628
 7961SOL     OW35515   4.628   3.525   6.506  0.5547  0.2357 -0.1705
 7961SOL    HW135516   4.536   3.550   6.508  0.6252  0.5080 -0.3086
 7961SOL    HW235517   4.632   3.500   6.413 -1.3894  0.4617 -0.3243
 7962SOL     OW35518   1.379   3.241  11.761 -0.2034 -0.1998 -0.0679
 7962SOL    HW135519   1.327   3.313  11.796  1.1817  1.5361 -1.5625
 7962SOL    HW235520   1.458   3.293  11.744  0.8255 -0.3732  4.2188
 7963SOL     OW35521   4.181   4.092   3.887 -0.6107 -0.2374 -0.1737
 7963SOL    HW135522   4.165   4.163   3.826  0.6758  1.6166  1.6458
 7963SOL    HW235523   4.178   4.012   3.834 -1.1485  0.1368 -0.7140
 7964SOL     OW35524   3.455   3.657  12.605 -0.6283  0.6344  0.1968
 7964SOL    HW135525   3.542   3.629  12.635 -0.5346  3.1114  2.2035
 7964SOL    HW235526   3.483   3.724  12.543 -0.5049  0.8109  0.4425
 7965SOL     OW35527   4.209   1.910  14.931 -0.0149  0.5667  0.4828
 7965SOL    HW135528   4.280   1.887  14.990  1.7536  1.4343 -1.2908
 7965SOL    HW235529   4.140   1.850  14.959  0.3808  1.4449  3.3228
 7966SOL     OW35530   0.941   1.190   5.686  0.4161  0.3712 -0.0860
 7966SOL    HW135531   0.923   1.229   5.772 -1.1787  0.6947 -0.5769
 7966SOL    HW235532   1.034   1.165   5.693  0.3085  0.3754  1.4569
 7967SOL     OW35533   4.482   0.371   5.147 -0.4620 -0.2141  0.1859
 7967SOL    HW135534   4.551   0.414   5.198 -0.8915 -1.4060  1.7607
 7967SOL    HW235535   4.430   0.451   5.142  3.0844  2.0831 -0.0581
 7968SOL     OW35536   3.457   2.324   4.218  0.0455 -0.0030 -0.1527
 7968SOL    HW135537   3.421   2.345   4.131  0.8050 -3.0803 -1.2217
 7968SOL    HW235538   3.426   2.234   4.225 -0.9899  0.3452 -0.2718
 7969SOL     OW35539   4.640   3.020   3.695 -0.2000  0.2483  0.4182
 7969SOL    HW135540   4.574   3.023   3.626  0.1304  1.3728  0.1512
 7969SOL    HW235541   4.646   2.926   3.712 -1.0416  0.3468  1.2938
 7970SOL     OW35542   0.366   3.087   4.111  0.8355 -0.0200 -0.5096
 7970SOL    HW135543   0.461   3.098   4.106  0.8951  0.3003  1.0915
 7970SOL    HW235544   0.342   3.168   4.066  0.6317  0.5416  0.6058
 7971SOL     OW35545   1.080   3.839   3.740  0.4995 -0.0064  0.5802
 7971SOL    HW135546   1.050   3.831   3.649  2.1067  3.0747 -0.2178
 7971SOL    HW235547   1.103   3.932   3.743  1.2022 -0.1116 -1.2687
 7972SOL     OW35548   0.618   0.344   8.986  0.6070  0.8106 -0.4137
 7972SOL    HW135549   0.627   0.329   8.892 -0.9261  0.4676 -0.5163
 7972SOL    HW235550   0.694   0.294   9.015 -0.0995 -0.1563 -0.2259
 7973SOL     OW35551   1.481   0.902  11.393  0.1705 -0.2546 -0.1201
 7973SOL    HW135552   1.436   0.839  11.449 -0.5912  0.2211 -0.1888
 7973SOL    HW235553   1.567   0.911  11.432  0.4603 -0.2093 -0.7634
 7974SOL     OW35554   4.653   3.888   9.880  0.6293 -0.3483 -0.3440
 7974SOL    HW135555   4.624   3.915   9.967  2.8345 -1.2742  0.6742
 7974SOL    HW235556   4.631   3.963   9.824 -0.9037  1.0132  2.0988
 7975SOL     OW35557   3.815   2.996   9.186 -0.4753  0.1999 -0.1295
 7975SOL    HW135558   3.857   3.047   9.256 -0.4948  0.2891 -0.1820
 7975SOL    HW235559   3.894   2.972   9.136 -0.4489 -1.8134  0.9011
 7976SOL     OW35560   0.776   4.574   6.738  0.1338  0.1835  0.3151
 7976SOL    HW135561   0.710   4.643   6.749  0.3965  0.3688  0.7170
 7976SOL    HW235562   0.844   4.626   6.696  0.3075  1.1777  1.8243
 7977SOL     OW35563   1.011   1.518   8.203 -0.4865 -1.0531  0.3885
 7977SOL    HW135564   1.005   1.424   8.186 -0.0717 -0.5994 -2.3262
 7977SOL    HW235565   1.069   1.519   8.279  0.4680  0.3433 -0.3562
 7978SOL     OW35566   4.355   2.186   0.285  0.5954  0.0540  0.2245
 7978SOL    HW135567   4.333   2.254   0.348  0.0480  1.8493 -1.9345
 7978SOL    HW235568   4.429   2.228   0.240  0.1800  0.7175  0.1691
 7979SOL     OW35569   3.802   4.034   8.981  0.0208 -0.0171  0.4784
 7979SOL    HW135570   3.775   4.029   8.890  2.0272 -0.7938 -0.0807
 7979SOL    HW235571   3.757   4.112   9.012 -0.7413 -0.0580 -0.5643
 7980SOL     OW35572   1.952   0.945   7.943 -0.3558 -0.1743 -0.0373
 7980SOL    HW135573   2.026   0.989   7.983  1.6600 -2.4549 -1.2523
 7980SOL    HW235574   1.878   0.999   7.970  0.5047  2.3521 -2.6856
 7981SOL     OW35575   2.814   0.017   1.413 -0.1592  0.3850  0.2884
 7981SOL    HW135576   2.727   0.034   1.376  0.2102  0.5643 -0.4781
 7981SOL    HW235577   2.851   0.087   1.359  2.2466 -0.1116  1.2757
 7982SOL     OW35578   1.294   3.661   0.748 -0.0756 -0.5763 -0.2733
 7982SOL    HW135579   1.388   3.676   0.734 -0.3109 -0.4403 -1.7777
 7982SOL    HW235580   1.279   3.704   0.832 -0.8003  0.7031 -1.0563
 7983SOL     OW35581   3.757   3.274   2.453 -0.2636 -0.3947 -0.5045
 7983SOL    HW135582   3.672   3.232   2.467 -0.0267 -0.7948 -0.2510
 7983SOL    HW235583   3.797   3.191   2.479  0.2384  1.3056  4.2876
 7984SOL     OW35584   1.102   4.342   1.441 -0.0644 -0.2239  0.1325
 7984SOL    HW135585   1.155   4.377   1.512  1.9536 -1.4432 -0.7447
 7984SOL    HW235586   1.047   4.277   1.486  0.0595  0.0382  0.6602
 7985SOL     OW35587   3.252   2.076  10.613 -0.0486  0.0599 -0.2001
 7985SOL    HW135588   3.344   2.101  10.610  0.0927 -0.2423  1.4839
 7985SOL    HW235589   3.248   2.029  10.697 -3.1745 -0.0819 -0.4392
 7986SOL     OW35590   1.284   3.369   9.176  0.2083  0.4153  0.9902
 7986SOL    HW135591   1.315   3.397   9.262 -0.2096  0.1189  1.2385
 7986SOL    HW235592   1.262   3.283   9.210 -1.8839  0.7425  0.4397
 7987SOL     OW35593   1.718   2.489   2.504  0.0897  0.3271  0.0928
 7987SOL    HW135594   1.672   2.557   2.553 -1.2837  0.1054 -0.9028
 7987SOL    HW235595   1.669   2.416   2.542 -0.7979 -0.6450 -2.9717
 7988SOL     OW35596   0.496   3.115  12.889  0.1918 -0.1266 -0.0207
 7988SOL    HW135597   0.425   3.137  12.949  1.0916  2.6006  0.0215
 7988SOL    HW235598   0.472   3.023  12.878 -1.2767  0.3071 -0.5231
 7989SOL     OW35599   2.412   2.603  12.373  0.2086 -0.1301 -0.4534
 7989SOL    HW135600   2.400   2.606  12.468 -1.2910  1.0940 -0.6749
 7989SOL    HW235601   2.380   2.689  12.347 -1.4343  0.0031  1.9505
 7990SOL     OW35602   4.083   3.546   6.379 -0.0608 -0.1115 -0.7903
 7990SOL    HW135603   4.050   3.634   6.400 -4.0921 -1.6798 -0.5052
 7990SOL    HW235604   4.004   3.495   6.398  0.3351 -1.1922 -1.9934
 7991SOL     OW35605   3.485   0.482   1.621 -0.0906 -0.5081 -0.5696
 7991SOL    HW135606   3.579   0.470   1.608  0.5763  3.5406  0.2509
 7991SOL    HW235607   3.475   0.577   1.611  0.1905 -0.5045 -0.8390
 7992SOL     OW35608   0.281   4.038   1.694  0.4922 -0.5275 -0.7653
 7992SOL    HW135609   0.302   4.127   1.723  0.4343 -0.8178  0.1424
 7992SOL    HW235610   0.329   3.991   1.762 -0.0518 -0.9674 -0.6847
 7993SOL     OW35611   3.029   4.377  13.980  0.1254  0.6626  0.4691
 7993SOL    HW135612   3.042   4.284  13.961  0.9981  1.3009 -2.0319
 7993SOL    HW235613   2.957   4.400  13.923  0.0365  2.5776  1.3294
 7994SOL     OW35614   0.618   0.310   7.806  0.3426  0.5937 -0.3976
 7994SOL    HW135615   0.625   0.240   7.871 -1.7862  0.3161 -0.4777
 7994SOL    HW235616   0.527   0.306   7.777 -0.2114  0.1261  1.4654
 7995SOL     OW35617   2.957   2.455   6.728 -0.4557 -0.0708  0.4755
 7995SOL    HW135618   3.019   2.384   6.710 -2.1032 -1.9848  2.4007
 7995SOL    HW235619   3.020   2.528   6.726  1.0348 -1.3424  0.7828
 7996SOL     OW35620   0.282   0.951   1.532  0.8483  0.7247 -0.0069
 7996SOL    HW135621   0.377   0.940   1.539  0.3293 -3.2623  0.9633
 7996SOL    HW235622   0.249   0.976   1.619  2.3254  0.9199  0.5015
 7997SOL     OW35623   4.099   1.754   6.508  0.0068 -0.3780  0.2469
 7997SOL    HW135624   4.158   1.681   6.528 -2.1043 -2.8297 -2.6147
 7997SOL    HW235625   4.105   1.805   6.589  0.6831 -1.6712  1.0003
 7998SOL     OW35626   1.467   4.253  17.328 -0.1192  0.8704 -0.1881
 7998SOL    HW135627   1.473   4.331  17.273  0.4912  1.1559  0.2760
 7998SOL    HW235628   1.391   4.285  17.377  0.0075 -0.3604  0.8318
 7999SOL     OW35629   2.136   3.343   6.765  0.0088 -0.2840 -0.2936
 7999SOL    HW135630   2.177   3.395   6.834  0.1768  0.0745 -0.6729
 7999SOL    HW235631   2.045   3.371   6.769  0.6414  2.0283 -2.2924
 8000SOL     OW35632   1.226   0.802  15.396 -0.0105  0.7425  0.3179
 8000SOL    HW135633   1.134   0.779  15.405  0.9871 -3.3387 -0.1989
 8000SOL    HW235634   1.258   0.736  15.335  2.9372  1.3669  1.1841
 8001SOL     OW35635   1.997   3.959   1.411  0.1341  0.0470  0.4630
 8001SOL    HW135636   2.056   3.884   1.418  1.6960  1.2920  0.4277
 8001SOL    HW235637   2.000   3.972   1.316  0.7181  1.0546  0.6228
 8002SOL     OW35638   4.351   0.276   7.542 -0.3737  0.7594  0.1619
 8002SOL    HW135639   4.309   0.347   7.493 -1.8250 -1.1514 -1.3801
 8002SOL    HW235640   4.418   0.313   7.599  1.6988  0.8438 -2.2948
 8003SOL     OW35641   2.343   2.965   3.494  0.1634  0.2314 -0.3353
 8003SOL    HW135642   2.323   3.018   3.417  1.2345 -0.5859 -1.1909
 8003SOL    HW235643   2.431   2.998   3.515 -0.6076  1.2721  1.2862
 8004SOL     OW35644   4.006   1.219   2.807 -0.6990 -0.6482  0.1372
 8004SOL    HW135645   4.061   1.148   2.840 -0.8737 -1.9157 -2.2793
 8004SOL    HW235646   4.060   1.297   2.822  0.5473 -1.5691  0.4121
 8005SOL     OW35647   4.068   0.921   0.179  1.0400  0.4693  0.1173
 8005SOL    HW135648   4.034   0.932   0.090  0.3331 -0.3549  0.2872
 8005SOL    HW235649   4.160   0.945   0.170  0.5665  0.9476 -3.4325
 8006SOL     OW35650   1.877   3.406   6.824 -0.8700 -0.6021  0.1696
 8006SOL    HW135651   1.834   3.389   6.908  0.0692 -2.1422  0.3327
 8006SOL    HW235652   1.833   3.487   6.796  0.3618 -0.1082 -0.3217
 8007SOL     OW35653   1.501   4.458   1.546  0.3437 -0.3677 -0.2601
 8007SOL    HW135654   1.579   4.420   1.585  0.6379  0.7165  0.2013
 8007SOL    HW235655   1.529   4.548   1.529 -0.7065 -0.3390 -1.8580
 8008SOL     OW35656   0.580   1.234   9.070 -0.0146  0.5518  0.4386
 8008SOL    HW135657   0.624   1.271   9.146  0.5530  0.0719  0.3483
 8008SOL    HW235658   0.515   1.302   9.051 -3.4874 -2.5317  1.2884
 8009SOL     OW35659   2.598   3.564   3.586 -0.1135  0.3351 -0.2251
 8009SOL    HW135660   2.598   3.647   3.633  2.3627  0.0360  0.3143
 8009SOL    HW235661   2.509   3.558   3.550 -0.5185  1.5020  0.6052
 8010SOL     OW35662   1.063   3.550   3.487 -0.3956 -0.0641  0.1030
 8010SOL    HW135663   1.097   3.538   3.575 -2.6874  0.2046  1.0250
 8010SOL    HW235664   1.078   3.644   3.475  0.5136 -0.3738 -1.2297
 8011SOL     OW35665   3.772   3.856   6.907 -0.0592 -0.6879  0.0783
 8011SOL    HW135666   3.704   3.923   6.911  0.2427 -0.3310 -0.7156
 8011SOL    HW235667   3.849   3.911   6.918 -0.5407  0.0327 -0.1901
 8012SOL     OW35668   1.449   2.078  13.108 -0.6667 -0.0919  0.2035
 8012SOL    HW135669   1.502   2.109  13.035  2.1306 -0.3236  2.1327
 8012SOL    HW235670   1.439   1.985  13.091 -0.8488  0.1611 -1.0577
 8013SOL     OW35671   4.222   0.096   8.149  0.1563 -0.2990 -0.1293
 8013SOL    HW135672   4.244   0.031   8.216 -1.1163  1.7423  2.2520
 8013SOL    HW235673   4.180   0.168   8.195 -0.6129  0.3476 -1.8182
 8014SOL     OW35674   1.752   1.117  16.818 -0.0084  0.3738  0.5272
 8014SOL    HW135675   1.836   1.073  16.834  1.1581  2.4317 -0.0272
 8014SOL    HW235676   1.719   1.143  16.904 -0.9955 -0.5337  0.4339
 8015SOL     OW35677   2.445   4.540  12.749 -0.2156 -0.2045  0.3451
 8015SOL    HW135678   2.448   4.570  12.659 -0.3320 -1.3392 -0.0472
 8015SOL    HW235679   2.535   4.513  12.768 -1.0441 -1.1151  2.9787
 8016SOL     OW35680   0.929   1.324   6.224 -0.3278  0.1749  0.5143
 8016SOL    HW135681   0.876   1.386   6.173 -0.3124 -0.1176  0.1413
 8016SOL    HW235682   0.973   1.385   6.282  1.8584 -0.6331 -0.2710
 8017SOL     OW35683   1.785   0.333  14.349 -0.1124  0.1128 -0.1868
 8017SOL    HW135684   1.748   0.409  14.395  1.1344  1.3083 -1.1233
 8017SOL    HW235685   1.856   0.317  14.411  1.4081  2.5049 -1.2867
 8018SOL     OW35686   3.242   1.425   5.151  0.1929 -0.6931  0.0479
 8018SOL    HW135687   3.249   1.520   5.161  1.1681 -0.7622  0.0341
 8018SOL    HW235688   3.155   1.413   5.114  0.5635  1.3572 -1.4963
 8019SOL     OW35689   4.170   0.394   2.044 -0.3408 -0.0756  0.1967
 8019SOL    HW135690   4.251   0.441   2.026  1.0231 -2.6432 -0.4276
 8019SOL    HW235691   4.199   0.305   2.021 -1.1543 -1.1640  3.4172
 8020SOL     OW35692   4.427   2.155   4.355  0.0037 -0.3551  0.9009
 8020SOL    HW135693   4.369   2.123   4.424 -0.4073  1.0125  1.1871
 8020SOL    HW235694   4.428   2.071   4.310 -2.1658  1.3698 -2.4168
 8021SOL     OW35695   1.643   0.153  12.759  0.0150  0.1290 -0.2828
 8021SOL    HW135696   1.722   0.130  12.807 -0.3884  0.7733  0.6855
 8021SOL    HW235697   1.652   0.248  12.753  1.8575 -0.0227  0.2434
 8022SOL     OW35698   3.580   4.529   4.389  0.2449 -0.4025 -0.0560
 8022SOL    HW135699   3.498   4.556   4.430  0.2498  1.1959 -1.0889
 8022SOL    HW235700   3.584   4.574   4.304  0.3264 -0.0833  0.1145
 8023SOL     OW35701   2.386   4.234   1.411  0.0273 -0.4639 -0.1545
 8023SOL    HW135702   2.304   4.225   1.460  0.1856  0.3341  0.2524
 8023SOL    HW235703   2.407   4.324   1.434 -2.2806  0.2508 -0.8938
 8024SOL     OW35704   2.072   0.378   0.165  0.8723 -0.1758 -0.1324
 8024SOL    HW135705   2.031   0.377   0.079  1.3935  0.5371 -0.3842
 8024SOL    HW235706   1.998   0.394   0.225  2.0036  1.2706  0.8850
 8025SOL     OW35707   4.572   4.685   5.456  0.0586  0.4906 -0.4972
 8025SOL    HW135708   4.624   0.014   5.502 -0.8673 -0.4217  1.8889
 8025SOL    HW235709   4.494   4.735   5.432 -2.1724 -1.7391  2.1835
 8026SOL     OW35710   4.230   4.352  15.432 -0.0176 -0.0949 -0.0197
 8026SOL    HW135711   4.232   4.444  15.456  1.3249 -0.1055 -0.0801
 8026SOL    HW235712   4.279   4.313  15.506  0.9682  0.4841 -0.3679
 8027SOL     OW35713   2.285   3.147   1.386 -0.6185 -0.3525  0.1063
 8027SOL    HW135714   2.325   3.149   1.298 -2.8555  0.9661 -0.8669
 8027SOL    HW235715   2.333   3.221   1.424 -1.6447  1.6270 -2.4663
 8028SOL     OW35716   2.468   1.549   5.554 -0.4399 -0.1378  0.0320
 8028SOL    HW135717   2.553   1.582   5.525 -0.5118  0.5470  0.5863
 8028SOL    HW235718   2.415   1.555   5.475  1.5113  0.8544 -1.2064
 8029SOL     OW35719   4.497   1.862  15.043 -0.2566  0.4375 -0.0156
 8029SOL    HW135720   4.546   1.863  15.126 -0.4412  0.4882  0.0947
 8029SOL    HW235721   4.509   1.953  15.015  0.2141  0.5997  0.7215
 8030SOL     OW35722   2.947   2.656   0.229  0.0348 -0.0329 -0.5935
 8030SOL    HW135723   2.878   2.615   0.177  0.5483 -1.3943 -0.2046
 8030SOL    HW235724   2.979   2.727   0.173 -0.2052 -2.1280 -3.3981
 8031SOL     OW35725   0.459   3.296   6.760  0.4812  0.1182 -0.0650
 8031SOL    HW135726   0.380   3.349   6.772  0.2530 -0.1023 -0.5951
 8031SOL    HW235727   0.502   3.333   6.683 -0.8042 -0.6736 -1.1655
 8032SOL     OW35728   4.282   0.305   5.842  0.1318  0.3795 -0.1304
 8032SOL    HW135729   4.353   0.245   5.864  1.6908  1.3870 -2.4976
 8032SOL    HW235730   4.269   0.264   5.757  1.1135  0.4794 -0.3248
 8033SOL     OW35731   0.843   1.756  16.699 -0.3691  0.2097 -0.1287
 8033SOL    HW135732   0.935   1.781  16.691 -0.0747 -0.4590  1.1680
 8033SOL    HW235733   0.807   1.834  16.740  1.1067  0.0135  1.5301
 8034SOL     OW35734   1.516   1.938   1.758  0.1986  0.0717  0.5309
 8034SOL    HW135735   1.468   1.860   1.732 -1.1925  0.9886  0.3792
 8034SOL    HW235736   1.539   1.925   1.850  1.7549 -0.3441  0.0992
 8035SOL     OW35737   2.609   1.136  13.621  0.2818 -0.3379 -0.0843
 8035SOL    HW135738   2.652   1.187  13.690  1.0460  0.1840 -0.9612
 8035SOL    HW235739   2.612   1.050  13.664  0.4260  1.0888  2.7994
 8036SOL     OW35740   1.330   1.150   6.440  0.3639 -0.4798 -0.3021
 8036SOL    HW135741   1.416   1.179   6.412  1.2374 -1.2802  1.5451
 8036SOL    HW235742   1.325   1.087   6.369 -1.7033 -2.1621  1.3144
 8037SOL     OW35743   4.327   0.447  17.348 -0.4158 -0.8280 -0.1907
 8037SOL    HW135744   4.247   0.431  17.298 -0.5670 -0.7434  0.0238
 8037SOL    HW235745   4.287   0.486  17.426  2.2302 -0.6996  1.0957
 8038SOL     OW35746   3.536   1.671   6.866  0.1277 -0.2980 -0.0884
 8038SOL    HW135747   3.478   1.683   6.790 -0.2980  0.3229  0.3362
 8038SOL    HW235748   3.604   1.730   6.833  1.0683 -0.5555  1.4308
 8039SOL     OW35749   2.963   1.008  10.930 -0.2108 -0.2411 -0.3439
 8039SOL    HW135750   2.910   0.957  10.869 -0.0059 -1.8609  0.8130
 8039SOL    HW235751   2.996   0.932  10.979 -3.3971 -0.0588  2.1094
 8040SOL     OW35752   1.231   3.810  10.766  0.7080  0.4031  0.0377
 8040SOL    HW135753   1.139   3.788  10.782  0.7222  0.6596  0.4823
 8040SOL    HW235754   1.283   3.734  10.792 -1.4893 -1.1235  0.0254
 8041SOL     OW35755   3.647   3.345   7.711  0.0674  0.4317  0.2676
 8041SOL    HW135756   3.712   3.357   7.781 -0.0336  0.3368  0.3767
 8041SOL    HW235757   3.566   3.367   7.757 -0.0206  0.8707 -0.1019
 8042SOL     OW35758   4.188   1.561   6.705  0.0715  0.9319 -0.1194
 8042SOL    HW135759   4.262   1.524   6.657  0.1287  0.2134  0.5110
 8042SOL    HW235760   4.232   1.590   6.785 -1.1433  0.7338  0.6243
 8043SOL     OW35761   3.872   2.764   2.564 -0.1108  0.0738  0.2374
 8043SOL    HW135762   3.962   2.756   2.534 -0.0043 -1.2066  0.8911
 8043SOL    HW235763   3.827   2.749   2.481 -2.3304 -2.6432  1.9086
 8044SOL     OW35764   3.754   0.304   2.384  0.2571 -0.0212 -0.3499
 8044SOL    HW135765   3.729   0.224   2.430  1.7461 -1.0370 -1.3074
 8044SOL    HW235766   3.829   0.283   2.329  1.2234  0.5910  0.7484
 8045SOL     OW35767   4.614   1.900   3.725  0.1384  0.0309 -0.4444
 8045SOL    HW135768   4.687   1.862   3.678  0.2717  0.2580 -0.4226
 8045SOL    HW235769   4.645   1.901   3.816  1.1024  0.5658 -0.7765
 8046SOL     OW35770   0.224   1.460  12.960 -0.2730  0.5347  0.1276
 8046SOL    HW135771   0.196   1.369  12.953 -0.0870  0.5921 -1.4079
 8046SOL    HW235772   0.312   1.453  12.997 -1.2249  1.7700  2.6533
 8047SOL     OW35773   0.910   4.080  15.251  0.1004 -0.3618 -0.0300
 8047SOL    HW135774   0.830   4.105  15.206 -1.0230  0.4296  2.3912
 8047SOL    HW235775   0.937   4.007  15.195  0.4106 -0.8552  0.7618
 8048SOL     OW35776   1.471   4.227   4.156  0.0808  0.0053  0.3101
 8048SOL    HW135777   1.509   4.153   4.109  0.1705  1.6490 -2.1778
 8048SOL    HW235778   1.531   4.301   4.156  0.4565 -0.3080 -1.9088
 8049SOL     OW35779   3.652   3.806   0.470 -0.1468 -0.5812  0.1257
 8049SOL    HW135780   3.729   3.830   0.419  0.2781  1.4062  1.6915
 8049SOL    HW235781   3.610   3.757   0.399 -0.0906  0.4082 -0.5836
 8050SOL     OW35782   0.416   2.804   7.530 -0.5452 -0.4262  0.1060
 8050SOL    HW135783   0.357   2.862   7.481  0.0135 -0.0929 -0.1760
 8050SOL    HW235784   0.490   2.802   7.470  1.3677  3.2997  2.3674
 8051SOL     OW35785   3.438   0.319  17.568 -0.2891  0.0455  1.0285
 8051SOL    HW135786   3.414   0.228  17.586 -0.9117  0.0777  0.3477
 8051SOL    HW235787   3.355   0.364  17.554 -0.0052  0.3984  0.4851
 8052SOL     OW35788   4.113   1.428   8.487 -0.0098 -0.0843  0.1160
 8052SOL    HW135789   4.055   1.382   8.547 -4.1335  4.0488 -0.7273
 8052SOL    HW235790   4.152   1.350   8.446 -0.6973 -0.8726  0.9890
 8053SOL     OW35791   0.565   4.625  15.021 -0.3231 -0.1371  0.0581
 8053SOL    HW135792   0.529   4.714  15.025  0.2982  0.0695  1.2829
 8053SOL    HW235793   0.489   4.571  15.003  0.1779 -1.3519  1.5349
 8054SOL     OW35794   2.112   4.662   8.819 -0.4312  0.0280 -0.4108
 8054SOL    HW135795   2.204   4.638   8.823 -0.1318  0.9377 -1.7370
 8054SOL    HW235796   2.093   4.649   8.912  1.3773  2.7601  0.3391
 8055SOL     OW35797   2.974   0.808  10.404  0.6258  0.5815 -0.3719
 8055SOL    HW135798   2.893   0.756  10.400  0.4971  0.8501 -1.4992
 8055SOL    HW235799   2.942   0.880  10.350  0.1700  0.5481 -0.1492
 8056SOL     OW35800   4.234   1.515   1.824 -0.7101  0.2688 -0.2976
 8056SOL    HW135801   4.275   1.459   1.890 -1.2336 -1.0030 -1.0437
 8056SOL    HW235802   4.177   1.569   1.879 -0.1176  0.1887  0.4003
 8057SOL     OW35803   2.278   2.946   6.129  0.1272  0.2450  0.0778
 8057SOL    HW135804   2.327   2.895   6.193  1.0975  0.9173 -0.1280
 8057SOL    HW235805   2.345   2.989   6.076 -0.5725  0.7761 -0.3781
 8058SOL     OW35806   1.236   2.027   4.808 -0.3000 -0.4070 -0.3946
 8058SOL    HW135807   1.310   2.004   4.752 -0.6777  1.4044 -1.6193
 8058SOL    HW235808   1.248   1.970   4.885  2.7418  1.1033  0.2725
 8059SOL     OW35809   2.050   2.101  10.227  0.3636  0.2888  0.4705
 8059SOL    HW135810   1.958   2.075  10.223 -0.0426  1.8019 -0.2546
 8059SOL    HW235811   2.082   2.071  10.312 -2.5201 -1.6025  0.8957
 8060SOL     OW35812   1.146   3.347   6.762 -0.0372 -0.4313  0.7698
 8060SOL    HW135813   1.233   3.378   6.789 -0.0621  0.7071 -0.4983
 8060SOL    HW235814   1.151   3.345   6.667 -0.1578 -1.6306  0.7891
 8061SOL     OW35815   0.430   2.721  11.341  0.0187  0.6875  0.5844
 8061SOL    HW135816   0.442   2.809  11.305 -0.2119  0.5250  0.1015
 8061SOL    HW235817   0.459   2.735  11.431  2.7050  2.3566 -0.5590
 8062SOL     OW35818   2.969   0.172  11.965  0.1041 -0.5621 -0.0799
 8062SOL    HW135819   2.939   0.181  12.056  2.2614  1.1850  0.4502
 8062SOL    HW235820   2.959   0.261  11.932 -1.0455 -0.9537 -0.7911
 8063SOL     OW35821   0.108   3.589  17.403 -0.2231  0.3625  0.0475
 8063SOL    HW135822   0.046   3.547  17.344  0.9583 -1.6473  0.2278
 8063SOL    HW235823   0.194   3.558  17.374  0.0523  0.0609  1.2037
 8064SOL     OW35824   0.018   0.467   5.597 -0.6448  0.5903 -0.1155
 8064SOL    HW135825   4.725   0.485   5.685 -1.3947  1.4144 -0.5536
 8064SOL    HW235826   0.044   0.553   5.564 -0.3437  1.2183  1.8164
 8065SOL     OW35827   4.420   1.331   4.585  0.1029  0.5179  0.3324
 8065SOL    HW135828   4.460   1.414   4.611  0.7511 -0.1874  1.5913
 8065SOL    HW235829   4.470   1.320   4.504 -0.6603 -1.9395  0.1945
 8066SOL     OW35830   4.122   4.604   8.360  0.1431 -0.3117 -0.1705
 8066SOL    HW135831   4.100   4.566   8.275  1.7627 -3.1695  0.6668
 8066SOL    HW235832   4.034   4.589   8.396  0.7248  0.5961  1.6483
 8067SOL     OW35833   1.386   1.064  14.055  0.4598  0.0457 -0.1710
 8067SOL    HW135834   1.335   1.019  14.121  1.8459  1.2147  1.6982
 8067SOL    HW235835   1.360   1.021  13.974 -0.2059 -0.2173  0.1908
 8068SOL     OW35836   1.352   3.750  16.357  0.2058 -0.5089 -0.1608
 8068SOL    HW135837   1.407   3.741  16.279  0.8708 -1.5321  0.4205
 8068SOL    HW235838   1.347   3.661  16.394 -0.6455  0.3234  1.7303
 8069SOL     OW35839   3.749   1.558   0.091  0.0674 -0.3057 -1.0251
 8069SOL    HW135840   3.753   1.650   0.066  0.1809 -0.1922 -0.5861
 8069SOL    HW235841   3.834   1.521   0.065  0.3292  1.2549 -2.3716
 8070SOL     OW35842   3.451   1.613   2.195 -0.1943  0.0821  0.2606
 8070SOL    HW135843   3.527   1.579   2.242  0.8941  1.1885 -0.7098
 8070SOL    HW235844   3.496   1.630   2.113 -2.1400 -0.2218 -0.8646
 8071SOL     OW35845   3.191   0.639  11.266 -0.1502  0.1060  0.1776
 8071SOL    HW135846   3.190   0.606  11.356 -1.6958  0.0354  0.1445
 8071SOL    HW235847   3.285   0.628  11.256  0.1397 -0.3861  3.3082
 8072SOL     OW35848   2.377   2.610   3.005 -0.3680  0.1730  0.0088
 8072SOL    HW135849   2.337   2.617   3.092 -1.6619 -0.5010 -0.5262
 8072SOL    HW235850   2.436   2.536   3.023 -0.6574  0.0842  0.5997
 8073SOL     OW35851   1.569   1.110   8.824 -0.2360 -0.1842 -0.0241
 8073SOL    HW135852   1.499   1.102   8.888 -1.4240  0.7910 -1.2217
 8073SOL    HW235853   1.599   1.198   8.845  3.0132 -0.6445 -2.7580
 8074SOL     OW35854   1.364   2.113  10.949 -0.6308 -0.1736 -0.0333
 8074SOL    HW135855   1.454   2.122  10.919 -0.5333 -1.9562 -0.2720
 8074SOL    HW235856   1.372   2.157  11.034  1.0775 -0.9264  0.1958
 8075SOL     OW35857   3.859   3.647   6.731 -0.0475  0.0764  0.1327
 8075SOL    HW135858   3.763   3.639   6.739 -0.1245 -0.2867 -1.2574
 8075SOL    HW235859   3.871   3.713   6.799  0.4491  1.4524 -1.2944
 8076SOL     OW35860   1.435   3.095   2.561 -0.4360 -0.2113 -0.2400
 8076SOL    HW135861   1.425   3.183   2.524  1.3369 -0.1791 -0.6605
 8076SOL    HW235862   1.407   3.053   2.480 -2.3421  1.2539 -0.3383
 8077SOL     OW35863   0.554   4.031   4.592 -0.2471  0.0153  0.0864
 8077SOL    HW135864   0.509   4.108   4.627  0.2738 -0.1664  1.1629
 8077SOL    HW235865   0.584   3.995   4.675  0.3009 -0.2239 -0.2153
 8078SOL     OW35866   4.439   1.689   0.068 -0.1044  0.2245  0.3711
 8078SOL    HW135867   4.505   1.675   0.136 -0.8251  0.3372  1.0975
 8078SOL    HW235868   4.449   1.781   0.045 -2.3378 -0.0305 -1.6727
 8079SOL     OW35869   0.304   1.027   4.602 -0.7077  0.2911 -0.2794
 8079SOL    HW135870   0.231   1.013   4.662 -0.2645  1.7049  0.5898
 8079SOL    HW235871   0.374   0.991   4.657 -2.1033 -2.1765 -0.1032
 8080SOL     OW35872   1.699   1.544  16.061  0.2980 -0.2506  0.1311
 8080SOL    HW135873   1.674   1.620  16.113 -2.8705 -1.9602  1.0453
 8080SOL    HW235874   1.615   1.518  16.024 -1.2562  1.6711  2.3457
 8081SOL     OW35875   4.481   0.041  14.666 -0.3688 -0.2353  0.2957
 8081SOL    HW135876   4.451   0.118  14.714 -0.7141  0.1596 -0.5548
 8081SOL    HW235877   4.398   4.731  14.665  0.6788 -2.0324 -0.0498
 8082SOL     OW35878   4.246   2.307   5.890  0.1850  0.3541 -0.4373
 8082SOL    HW135879   4.315   2.256   5.848  1.5485  0.9596  1.0285
 8082SOL    HW235880   4.285   2.330   5.975  2.3331 -3.2107 -0.4691
 8083SOL     OW35881   1.901   4.030   3.446 -0.0859 -0.0592  0.4174
 8083SOL    HW135882   1.905   3.940   3.414  2.0794  0.7482 -1.5838
 8083SOL    HW235883   1.928   4.006   3.535 -0.0946 -0.8552  0.2072
 8084SOL     OW35884   4.325   0.034   5.019  0.1388  0.2832 -0.6925
 8084SOL    HW135885   4.266   0.089   5.070  0.4982 -0.5650  0.6300
 8084SOL    HW235886   4.275   0.026   4.938 -1.8569 -1.1387  0.6959
 8085SOL     OW35887   4.032   2.248   5.408  0.5189 -0.5957  0.3068
 8085SOL    HW135888   3.992   2.209   5.331  0.7410  0.6019 -0.4116
 8085SOL    HW235889   3.974   2.216   5.477  1.5813 -1.3131  0.8784
 8086SOL     OW35890   2.978   3.486   3.548  0.0971 -0.3527 -0.5528
 8086SOL    HW135891   2.916   3.556   3.528  0.0749 -0.0262  0.6366
 8086SOL    HW235892   3.050   3.499   3.487  0.5069  2.0539  0.4394
 8087SOL     OW35893   2.796   2.102   0.172 -0.7600  0.4850  0.1871
 8087SOL    HW135894   2.843   2.064   0.098 -0.5443  0.0489  0.5480
 8087SOL    HW235895   2.852   2.082   0.247  0.5463  2.6620 -0.1978
 8088SOL     OW35896   0.198   3.452   9.322  0.2798 -0.3383  0.4272
 8088SOL    HW135897   0.258   3.521   9.294 -2.2401  1.5896 -0.1974
 8088SOL    HW235898   0.170   3.493   9.404 -1.7485  0.5515 -0.7165
 8089SOL     OW35899   4.638   2.342  16.923  0.1429  0.2020 -0.1691
 8089SOL    HW135900   4.628   2.419  16.867  4.0705  0.3307 -0.7142
 8089SOL    HW235901   4.606   2.373  17.008 -1.2122 -0.2972 -0.4985
 8090SOL     OW35902   0.521   1.280  16.222  0.1818  0.3838  0.1607
 8090SOL    HW135903   0.486   1.365  16.195 -1.4587 -0.7871 -1.4059
 8090SOL    HW235904   0.487   1.289  16.311 -0.7684 -0.5793 -0.0956
 8091SOL     OW35905   0.716   4.244   9.246 -0.2542  0.0711 -0.4034
 8091SOL    HW135906   0.675   4.300   9.180  1.8173  0.2954 -1.4983
 8091SOL    HW235907   0.642   4.247   9.307  3.3748  1.1483  4.0287
 8092SOL     OW35908   3.332   0.149  14.720 -0.1366  0.4197  0.4356
 8092SOL    HW135909   3.378   0.065  14.719 -0.0712  0.4832 -1.8562
 8092SOL    HW235910   3.409   0.203  14.709 -0.4558  0.4298 -1.7750
 8093SOL     OW35911   3.214   4.598   6.052 -0.6898 -0.0043 -0.2437
 8093SOL    HW135912   3.177   4.533   5.994  1.7522 -0.9901 -0.7179
 8093SOL    HW235913   3.142   4.655   6.078  0.4934  0.7157  1.5102
 8094SOL     OW35914   3.409   3.207   4.858 -0.3116 -0.1293 -0.1276
 8094SOL    HW135915   3.350   3.209   4.934  0.5525  1.5007  0.5115
 8094SOL    HW235916   3.470   3.138   4.885 -0.7118  0.2929  1.9095
 8095SOL     OW35917   0.693   3.313  11.255  0.2554  0.0074  0.3402
 8095SOL    HW135918   0.619   3.274  11.301 -0.3875  1.3946  0.4848
 8095SOL    HW235919   0.662   3.309  11.164 -2.0224  2.9829  0.9724
 8096SOL     OW35920   1.863   2.709   5.934  0.2458  0.1557  0.0817
 8096SOL    HW135921   1.809   2.788   5.924 -1.1768 -0.6427  1.4029
 8096SOL    HW235922   1.787   2.650   5.932 -0.1700  0.6926 -0.0223
 8097SOL     OW35923   3.652   2.913   2.295  0.0783 -0.1399 -0.1485
 8097SOL    HW135924   3.729   2.968   2.283  1.1613 -1.3774  1.2931
 8097SOL    HW235925   3.579   2.967   2.327  0.3715  1.1270 -1.6154
 8098SOL     OW35926   2.563   0.359   8.798  0.3120 -0.5389  0.3708
 8098SOL    HW135927   2.488   0.341   8.741 -0.7648 -1.9365  2.2597
 8098SOL    HW235928   2.541   0.435   8.852 -0.9473 -1.4392  1.1237
 8099SOL     OW35929   3.415   3.253   8.233 -0.2990 -0.2571  0.3241
 8099SOL    HW135930   3.386   3.255   8.142  0.7428  2.6367  0.0710
 8099SOL    HW235931   3.483   3.186   8.229  1.7616  1.8596  0.2738
 8100SOL     OW35932   1.233   3.133   8.609  0.9576 -0.0500  0.3022
 8100SOL    HW135933   1.270   3.100   8.527  0.0104  1.3060 -0.6713
 8100SOL    HW235934   1.247   3.225   8.588 -1.1681  0.0294 -0.8209
 8101SOL     OW35935   1.691   0.583   0.731 -0.0107 -0.3551 -0.0561
 8101SOL    HW135936   1.767   0.566   0.786 -2.2562  0.0896  3.1409
 8101SOL    HW235937   1.684   0.678   0.724 -0.9162 -0.5723 -2.2337
 8102SOL     OW35938   3.136   2.300   0.808 -0.1351 -0.6613  0.1539
 8102SOL    HW135939   3.226   2.327   0.792 -0.2183  0.2337  1.1780
 8102SOL    HW235940   3.089   2.370   0.763  0.5693  0.1860  0.7504
 8103SOL     OW35941   4.060   2.209   7.396  0.0984 -0.1680 -0.8887
 8103SOL    HW135942   4.050   2.136   7.336  0.8114 -0.4339 -0.6871
 8103SOL    HW235943   3.968   2.233   7.402  1.0203  3.0361  0.4673
 8104SOL     OW35944   1.798   3.296  14.134 -0.3154  0.5500 -0.0464
 8104SOL    HW135945   1.846   3.318  14.054 -0.3407 -0.5338 -0.3599
 8104SOL    HW235946   1.785   3.389  14.156  0.1742  0.5494  0.2367
 8105SOL     OW35947   0.181   3.668   8.381  0.4940 -0.1453 -0.2354
 8105SOL    HW135948   0.186   3.579   8.415 -1.5825 -0.1620  0.0129
 8105SOL    HW235949   0.123   3.715   8.441 -2.8859 -1.7577 -2.1934
 8106SOL     OW35950   3.866   3.410   3.246  0.3045  0.3009  0.3507
 8106SOL    HW135951   3.926   3.392   3.173 -1.8339 -2.6057 -0.6902
 8106SOL    HW235952   3.920   3.436   3.320  0.2579  0.6809  0.2550
 8107SOL     OW35953   0.251   4.096  15.597  0.3879 -0.3098 -0.4320
 8107SOL    HW135954   0.317   4.124  15.534  0.3652 -0.8544 -0.6893
 8107SOL    HW235955   0.232   4.004  15.579 -2.0472 -0.2828  1.9744
 8108SOL     OW35956   3.729   0.956  12.842  0.1371  0.6600  0.3517
 8108SOL    HW135957   3.752   0.872  12.881 -0.8127 -0.8869 -2.3862
 8108SOL    HW235958   3.673   0.927  12.769 -0.7392  3.0296  0.0933
 8109SOL     OW35959   2.946   1.599   8.184  0.4134  0.6435  0.7816
 8109SOL    HW135960   2.951   1.512   8.224 -4.0901  0.6443  1.3437
 8109SOL    HW235961   2.909   1.579   8.098  0.1993  0.0461  1.0123
 8110SOL     OW35962   2.501   4.041   2.150 -0.0813  0.1211  0.0112
 8110SOL    HW135963   2.485   4.078   2.063  2.9736  2.1865  0.3477
 8110SOL    HW235964   2.586   4.072   2.181 -0.4874  0.0217  1.1975
 8111SOL     OW35965   3.162   1.772   0.023  0.8169 -0.1000  0.3083
 8111SOL    HW135966   3.180   1.866   0.033 -0.9484  0.3273 -0.5210
 8111SOL    HW235967   3.251   1.737   0.026  0.8919  0.0693  0.0777
 8112SOL     OW35968   1.659   2.318   1.048  0.4266  0.0749  0.1489
 8112SOL    HW135969   1.731   2.275   1.002 -0.0369  0.0927 -0.5982
 8112SOL    HW235970   1.648   2.406   1.012  1.9228  0.5434  0.8580
 8113SOL     OW35971   0.284   1.902  12.908  0.3631  0.2044  0.1499
 8113SOL    HW135972   0.216   1.855  12.956  0.9005 -0.6176  0.1083
 8113SOL    HW235973   0.354   1.838  12.896 -0.7643 -0.9637 -0.1048
 8114SOL     OW35974   1.408   0.172   8.135 -0.0415  0.3252 -0.4556
 8114SOL    HW135975   1.458   0.222   8.199  0.8308  1.3506 -1.9347
 8114SOL    HW235976   1.382   0.245   8.079 -2.6738  1.8410  2.7738
 8115SOL     OW35977   1.369   3.767  15.065  0.3875 -0.5549 -0.6258
 8115SOL    HW135978   1.327   3.844  15.103  0.9510 -1.3469  1.5997
 8115SOL    HW235979   1.367   3.805  14.978  2.3631 -0.7724 -0.7613
 8116SOL     OW35980   2.994   1.610  10.829  0.2441 -0.5750 -0.5827
 8116SOL    HW135981   3.089   1.609  10.843  0.1921  1.7671 -0.0166
 8116SOL    HW235982   2.963   1.561  10.905  1.5989 -1.4885 -0.6225
 8117SOL     OW35983   4.102   1.818   0.036 -0.0631 -0.6211  0.2737
 8117SOL    HW135984   4.188   1.832  17.745  1.3906 -4.1960  2.0897
 8117SOL    HW235985   4.092   1.890   0.098 -0.5408  0.1042 -0.6554
 8118SOL     OW35986   1.655   0.949   6.263  0.1702  0.6385  0.2480
 8118SOL    HW135987   1.678   0.997   6.343  0.8567  1.0533 -0.1929
 8118SOL    HW235988   1.642   0.858   6.287  0.9907  0.2755 -0.7013
 8119SOL     OW35989   2.718   2.083   2.137 -0.1965  0.3455  1.0122
 8119SOL    HW135990   2.741   2.138   2.212  0.8160  1.4729 -0.1225
 8119SOL    HW235991   2.625   2.100   2.149 -0.1224  2.4599 -1.5751
 8120SOL     OW35992   2.670   3.436   3.835 -0.1122 -0.0546  0.3987
 8120SOL    HW135993   2.745   3.388   3.799 -0.4908 -0.4081  0.0916
 8120SOL    HW235994   2.642   3.466   3.749 -3.2423  0.4918  1.6015
 8121SOL     OW35995   4.046   0.391   4.768 -0.9357 -0.3309  0.2377
 8121SOL    HW135996   4.141   0.392   4.781 -1.1722 -0.3730  1.9601
 8121SOL    HW235997   4.041   0.298   4.745 -0.3580 -0.2185 -0.3668
 8122SOL     OW35998   3.727   0.709  12.984  0.1594 -0.4436 -0.7604
 8122SOL    HW135999   3.730   0.619  12.951 -1.7244 -0.0567 -1.9582
 8122SOL    HW236000   3.755   0.696  13.075  1.7008 -0.2375 -1.1960
 8123SOL     OW36001   3.319   0.111  17.279 -0.0998 -0.6820  0.3505
 8123SOL    HW136002   3.248   0.117  17.216  1.5941 -1.7586 -1.6787
 8123SOL    HW236003   3.394   0.149  17.233 -1.2508  0.1908 -0.8163
 8124SOL     OW36004   2.975   4.654   5.186 -0.2405 -0.1831  0.4426
 8124SOL    HW136005   2.996   4.721   5.121 -1.5398 -0.8652 -0.6849
 8124SOL    HW236006   3.002   4.575   5.139  2.7694  0.2957  1.3987
 8125SOL     OW36007   0.737   0.945   6.513  0.5199  0.1220  0.3266
 8125SOL    HW136008   0.766   1.033   6.535 -1.3480  1.3696 -2.2113
 8125SOL    HW236009   0.790   0.916   6.439 -0.1094  1.8006 -0.7777
 8126SOL     OW36010   2.055   2.622   2.635  0.9699 -0.2269  0.0674
 8126SOL    HW136011   2.095   2.672   2.564  0.9739 -1.3496 -0.7340
 8126SOL    HW236012   2.135   2.589   2.674  1.1230 -1.9199 -1.6489
 8127SOL     OW36013   1.848   0.373  13.345  0.2213 -0.0227 -0.4129
 8127SOL    HW136014   1.917   0.387  13.410 -0.8444  2.2744  0.2260
 8127SOL    HW236015   1.787   0.442  13.374 -2.4747 -3.1023  1.2688
 8128SOL     OW36016   1.198   0.304   8.895 -0.1574  0.1821  0.1868
 8128SOL    HW136017   1.292   0.294   8.912  0.0015 -0.0194 -0.8607
 8128SOL    HW236018   1.207   0.361   8.819 -1.3195  0.9589  0.6198
 8129SOL     OW36019   3.617   3.075   8.797  0.1627  0.5310 -0.4945
 8129SOL    HW136020   3.658   3.142   8.850 -0.5152  0.7376 -0.2328
 8129SOL    HW236021   3.543   3.128   8.767  0.3947 -0.9292 -3.6603
 8130SOL     OW36022   0.407   1.782  12.013  0.2883 -0.6576 -0.4184
 8130SOL    HW136023   0.466   1.710  11.994  1.5865  1.0811 -2.9885
 8130SOL    HW236024   0.459   1.845  12.064 -0.3821  0.6389 -1.3462
 8131SOL     OW36025   4.310   0.429   6.786 -0.5427 -0.4053 -0.6659
 8131SOL    HW136026   4.235   0.450   6.729 -1.3073  0.4376  0.6542
 8131SOL    HW236027   4.261   0.419   6.868 -1.3403  2.8712 -0.7721
 8132SOL     OW36028   3.501   1.834  11.443 -0.1034 -0.2698  0.0103
 8132SOL    HW136029   3.538   1.779  11.374 -1.4015 -2.4577  1.0598
 8132SOL    HW236030   3.411   1.803  11.438 -0.2596  0.1308  0.3022
 8133SOL     OW36031   2.718   0.274   9.187  0.1117  0.5285  0.3508
 8133SOL    HW136032   2.777   0.339   9.148 -0.3239  1.6192  1.5171
 8133SOL    HW236033   2.778   0.219   9.238  0.3321  0.3476 -0.1060
 8134SOL     OW36034   1.631   4.203  14.146  0.5236  0.6728  0.0330
 8134SOL    HW136035   1.576   4.126  14.134  2.0235 -0.2054 -1.2608
 8134SOL    HW236036   1.598   4.226  14.232 -1.1571  2.8647 -1.2196
 8135SOL     OW36037   2.050   4.170   2.456 -0.1895 -0.2139 -0.0893
 8135SOL    HW136038   2.096   4.105   2.508 -1.1235 -0.5388  0.3250
 8135SOL    HW236039   1.961   4.160   2.489 -0.1495 -0.0073  0.0775
 8136SOL     OW36040   0.512   2.224  12.312 -0.3208 -0.0977 -0.6200
 8136SOL    HW136041   0.478   2.155  12.368 -2.2011  1.7703  0.5497
 8136SOL    HW236042   0.440   2.287  12.313 -0.2419  0.0017 -0.9367
 8137SOL     OW36043   2.994   3.045  11.559 -0.0671  0.1527 -0.8909
 8137SOL    HW136044   2.952   2.974  11.608  0.0805  1.4482  1.1309
 8137SOL    HW236045   3.067   2.987  11.540  0.2680  0.3993 -0.3562
 8138SOL     OW36046   2.452   2.212  17.643  0.1318 -0.5701  0.7263
 8138SOL    HW136047   2.479   2.274  17.575 -0.0076 -2.3525 -0.9607
 8138SOL    HW236048   2.468   2.130  17.595 -1.2180  1.2061 -2.7737
 8139SOL     OW36049   0.573   0.018   6.749 -0.1221 -0.3972 -0.1362
 8139SOL    HW136050   0.504   4.726   6.807  0.7227 -0.1344  1.0114
 8139SOL    HW236051   0.531   0.006   6.664  2.3811 -1.1607 -1.2622
 8140SOL     OW36052   1.174   4.080   6.744  0.1708 -0.0261  0.1190
 8140SOL    HW136053   1.167   4.142   6.671  0.4253 -0.9468 -0.6767
 8140SOL    HW236054   1.111   4.015   6.716  3.0439 -2.0080 -1.7178
 8141SOL     OW36055   3.010   0.621  10.716 -0.1641 -0.5015  0.1417
 8141SOL    HW136056   3.020   0.670  10.635 -2.9696  0.4014  0.3416
 8141SOL    HW236057   2.917   0.638  10.734 -0.7464 -0.9050 -2.4917
 8142SOL     OW36058   1.166   2.108   9.315  0.5255 -0.2613 -0.2084
 8142SOL    HW136059   1.141   2.070   9.399 -2.1844  2.3068  0.1571
 8142SOL    HW236060   1.193   2.196   9.343  0.5273 -0.5177  0.5897
 8143SOL     OW36061   4.253   4.697   3.424 -0.3419  0.3177  0.0313
 8143SOL    HW136062   4.204   4.732   3.349  0.2874  0.3227 -0.3798
 8143SOL    HW236063   4.181   4.697   3.487  0.7138 -2.2519  1.1981
 8144SOL     OW36064   3.369   0.233   7.515 -0.3177  0.4158 -0.6688
 8144SOL    HW136065   3.426   0.235   7.592  0.6638  0.1423 -1.3820
 8144SOL    HW236066   3.279   0.233   7.548 -0.2862  2.8984 -0.6200
 8145SOL     OW36067   4.541   1.780   5.129 -0.0585 -0.7373  0.8439
 8145SOL    HW136068   4.623   1.741   5.157  0.3896 -0.2278  0.2281
 8145SOL    HW236069   4.566   1.872   5.140  0.0591 -0.5299 -1.1180
 8146SOL     OW36070   0.232   0.506  10.863 -0.1736  0.4138 -0.0989
 8146SOL    HW136071   0.193   0.422  10.888  0.6175  0.7309  2.2423
 8146SOL    HW236072   0.159   0.535  10.809 -1.0556 -0.0945  0.8177
 8147SOL     OW36073   4.255   1.614  17.492 -0.4181  0.0561 -0.1244
 8147SOL    HW136074   4.274   1.525  17.461 -0.5680 -0.1879  0.4763
 8147SOL    HW236075   4.277   1.664  17.414  1.5689  0.5357  0.7511
 8148SOL     OW36076   2.546   4.628  16.605 -0.2241 -0.3242 -0.1180
 8148SOL    HW136077   2.578   4.655  16.691  1.7804 -1.7625 -0.4260
 8148SOL    HW236078   2.576   4.537  16.607  0.4170 -0.0958  0.4695
 8149SOL     OW36079   1.582   4.023   5.888  0.5306 -0.6408  0.5015
 8149SOL    HW136080   1.549   4.028   5.977  0.5233  4.1822  0.2484
 8149SOL    HW236081   1.667   3.984   5.906  0.3756 -0.9398  0.5847
 8150SOL     OW36082   0.152   0.020   1.071 -0.2095 -0.1574 -0.8263
 8150SOL    HW136083   0.177   4.674   1.109 -1.3972 -0.0269  0.2606
 8150SOL    HW236084   0.118   4.735   0.984 -3.3875 -3.4235  1.2785
 8151SOL     OW36085   3.372   4.076   7.188  0.7870 -0.4629 -0.1889
 8151SOL    HW136086   3.295   4.061   7.134 -0.2418  1.0621  0.8888
 8151SOL    HW236087   3.349   4.119   7.270  0.8526  0.0154 -0.4270
 8152SOL     OW36088   3.768   4.002  10.307 -0.0964  0.1348  0.2734
 8152SOL    HW136089   3.826   4.050  10.248  2.0692 -1.7180  0.8665
 8152SOL    HW236090   3.766   3.917  10.263  1.0012  0.7576 -0.9845
 8153SOL     OW36091   3.288   3.318   7.678 -0.2222 -0.0602  0.1252
 8153SOL    HW136092   3.214   3.379   7.672 -0.4254 -0.5560 -2.2470
 8153SOL    HW236093   3.277   3.249   7.614  1.4418  0.6143 -0.8950
 8154SOL     OW36094   0.438   3.625   1.884  0.3531  0.0884  0.4108
 8154SOL    HW136095   0.390   3.542   1.885  2.8848 -1.3711  0.8256
 8154SOL    HW236096   0.435   3.630   1.979 -0.7955  2.6677  0.2506
 8155SOL     OW36097   3.313   1.361   3.337 -0.0426  0.4423 -0.2505
 8155SOL    HW136098   3.319   1.454   3.358 -0.5734  0.1766  1.1264
 8155SOL    HW236099   3.399   1.334   3.368 -0.6955 -1.9498 -0.5233
 8156SOL     OW36100   2.703   1.781   4.934 -0.3227  0.3328 -0.0610
 8156SOL    HW136101   2.656   1.752   5.012 -0.9010  1.0653 -0.1294
 8156SOL    HW236102   2.776   1.722   4.950 -1.1718 -0.8771 -0.6207
 8157SOL     OW36103   2.876   0.844   8.203 -0.1133  0.5996  0.2724
 8157SOL    HW136104   2.888   0.923   8.151 -1.1208 -0.4274 -1.5259
 8157SOL    HW236105   2.791   0.847   8.245 -0.0489  0.5801  0.4053
 8158SOL     OW36106   2.657   1.738  12.746  0.7890 -0.0618 -0.0146
 8158SOL    HW136107   2.746   1.757  12.717  1.3150 -0.0525  1.5954
 8158SOL    HW236108   2.685   1.767  12.833 -2.0045 -0.6804  1.0845
 8159SOL     OW36109   3.326   1.132   4.880 -0.1463  0.7096  0.2116
 8159SOL    HW136110   3.341   1.038   4.873  0.6529  1.0254 -2.2744
 8159SOL    HW236111   3.416   1.158   4.858  0.2213 -0.2408  0.5896
 8160SOL     OW36112   4.149   1.904   5.283 -0.1534 -0.8158  0.1655
 8160SOL    HW136113   4.215   1.971   5.267 -1.0152  0.4842  2.0413
 8160SOL    HW236114   4.202   1.825   5.277 -0.2928 -1.0727  2.3185
 8161SOL     OW36115   3.890   3.423   7.860  0.3650 -0.0090  0.1042
 8161SOL    HW136116   3.866   3.465   7.943  0.4372  0.2205  0.0107
 8161SOL    HW236117   3.924   3.342   7.897  1.7272 -0.7149 -2.7008
 8162SOL     OW36118   0.787   3.050   9.599 -0.1655 -0.3273  1.1379
 8162SOL    HW136119   0.792   3.128   9.655  1.0418  0.2841  0.1734
 8162SOL    HW236120   0.736   2.992   9.657  1.0293 -1.5777  0.9346
 8163SOL     OW36121   1.849   4.203   0.151 -0.0855  0.0889 -0.0256
 8163SOL    HW136122   1.765   4.160   0.138  0.5166 -0.9808 -0.3339
 8163SOL    HW236123   1.907   4.127   0.152  0.6302  0.6427  2.0942
 8164SOL     OW36124   3.936   4.058   4.018 -0.4008  0.0895 -0.1300
 8164SOL    HW136125   3.917   4.080   3.927 -0.9562 -0.6186 -0.1812
 8164SOL    HW236126   4.030   4.039   4.017 -0.4419 -0.1417  0.6062
 8165SOL     OW36127   4.511   3.394   3.878 -0.4618 -0.6035 -0.5400
 8165SOL    HW136128   4.583   3.335   3.902 -0.0973  0.1835  0.3054
 8165SOL    HW236129   4.464   3.335   3.819 -2.7630  1.0967 -0.3850
 8166SOL     OW36130   3.550   1.438   9.208  0.0928  0.0138  0.7030
 8166SOL    HW136131   3.517   1.487   9.284 -0.3054  1.0647 -0.1549
 8166SOL    HW236132   3.602   1.504   9.161 -1.2401  1.7323  1.6567
 8167SOL     OW36133   1.660   2.568   3.428  0.1411 -0.1355 -0.0385
 8167SOL    HW136134   1.611   2.489   3.451  0.2042 -0.4036 -0.8149
 8167SOL    HW236135   1.609   2.600   3.353  0.6015 -0.6086 -0.5589
 8168SOL     OW36136   0.997   3.069   4.807  0.1554  0.7422 -0.4649
 8168SOL    HW136137   0.937   3.138   4.778 -0.8336 -0.0571 -0.3463
 8168SOL    HW236138   1.077   3.115   4.829 -0.6106  1.5401  0.6761
 8169SOL     OW36139   0.720   0.496   3.789 -0.6914  0.2245  0.1135
 8169SOL    HW136140   0.750   0.413   3.754 -0.7542  0.1512  0.2315
 8169SOL    HW236141   0.710   0.475   3.882 -0.0601  2.6151  0.7220
 8170SOL     OW36142   3.808   2.083   8.225 -0.2206  0.0587  0.2873
 8170SOL    HW136143   3.900   2.091   8.248  0.0030  1.7321 -1.2320
 8170SOL    HW236144   3.788   2.034   8.305 -0.8234  0.9030  0.6564
 8171SOL     OW36145   0.049   0.024   8.322 -0.0323  0.2518  0.0642
 8171SOL    HW136146   0.035   0.119   8.326 -3.0469 -0.2403  0.8873
 8171SOL    HW236147   4.718   4.719   8.373 -0.4931  0.3549 -0.4719
 8172SOL     OW36148   3.033   0.559   2.697 -0.2412  0.3164 -0.0329
 8172SOL    HW136149   3.079   0.614   2.761 -1.1142  0.8987  0.0878
 8172SOL    HW236150   2.946   0.559   2.736 -0.8861  2.3128 -1.5032
 8173SOL     OW36151   0.574   4.314   3.880 -0.1063 -0.5236  0.1767
 8173SOL    HW136152   0.483   4.283   3.875  0.3224 -1.2678 -2.4950
 8173SOL    HW236153   0.616   4.282   3.801 -0.2716 -1.3026  0.4027
 8174SOL     OW36154   4.029   4.705   3.574  0.0306  0.3902  0.0264
 8174SOL    HW136155   3.978   4.629   3.602  3.8540 -2.0057  0.4495
 8174SOL    HW236156   3.969   0.040   3.594 -0.2093  0.6646 -1.6772
 8175SOL     OW36157   0.511   0.758   5.848  0.3301  0.4919  0.8840
 8175SOL    HW136158   0.458   0.815   5.793 -1.6395  0.7018  2.9719
 8175SOL    HW236159   0.464   0.776   5.930 -1.7169 -1.6571  0.1860
 8176SOL     OW36160   4.466   0.951   2.575  0.2734 -0.0301  0.4178
 8176SOL    HW136161   4.375   0.950   2.545  0.6010 -1.0762 -0.5710
 8176SOL    HW236162   4.484   1.039   2.606 -0.8533  0.4498 -0.3084
 8177SOL     OW36163   4.151   1.692   8.541 -0.2547  0.3541 -0.2857
 8177SOL    HW136164   4.120   1.605   8.519 -0.0869 -0.0709  1.1657
 8177SOL    HW236165   4.227   1.670   8.595 -2.5673 -1.6987  2.1023
 8178SOL     OW36166   3.293   0.362   5.641 -0.4508  0.2867 -0.0623
 8178SOL    HW136167   3.262   0.395   5.556 -0.0941  0.2589 -0.2059
 8178SOL    HW236168   3.350   0.296   5.600 -2.0240 -2.4598  2.1952
 8179SOL     OW36169   0.929   1.188   3.529  0.3961 -0.2293  0.1132
 8179SOL    HW136170   0.886   1.103   3.540  0.3208  0.0654  2.1634
 8179SOL    HW236171   0.889   1.244   3.595  0.8344  0.4282 -0.1795
 8180SOL     OW36172   3.592   3.932   7.505  0.5462  0.2119 -0.2595
 8180SOL    HW136173   3.563   4.023   7.499 -1.5295 -0.2865  2.4382
 8180SOL    HW236174   3.567   3.897   7.419 -1.3691 -1.9664  1.1942
 8181SOL     OW36175   2.095   1.512   5.144  0.0403  0.2415 -0.1634
 8181SOL    HW136176   2.116   1.464   5.064  2.3176  0.2266  0.4355
 8181SOL    HW236177   1.999   1.515   5.141  0.0730  1.9658  0.2106
 8182SOL     OW36178   4.082   2.744   5.714 -0.0964 -0.3872  0.0468
 8182SOL    HW136179   4.061   2.718   5.625 -2.0129 -2.5169  1.1161
 8182SOL    HW236180   4.041   2.830   5.721 -0.4776 -0.6296  0.9000
 8183SOL     OW36181   1.055   0.708  12.279 -0.4321 -0.6528 -0.2362
 8183SOL    HW136182   0.994   0.730  12.349 -0.9519  0.8261 -1.1674
 8183SOL    HW236183   1.047   0.785  12.224  0.5416 -1.7059 -1.8482
 8184SOL     OW36184   2.970   0.893   5.509 -0.4971 -0.5478 -0.1721
 8184SOL    HW136185   2.900   0.840   5.471  0.0806 -0.7234 -0.9907
 8184SOL    HW236186   2.921   0.935   5.580 -0.1678  0.7979 -0.7348
 8185SOL     OW36187   3.843   2.651   6.660  0.0037  0.5352  0.3300
 8185SOL    HW136188   3.917   2.612   6.613  1.2546  2.1487  0.9682
 8185SOL    HW236189   3.805   2.715   6.600  0.1746  1.0535  0.7804
 8186SOL     OW36190   3.371   2.454   5.862 -0.0564  0.5631 -0.0332
 8186SOL    HW136191   3.427   2.449   5.940 -1.7839  0.4267  1.2073
 8186SOL    HW236192   3.428   2.473   5.788 -1.5531 -0.3515 -1.4232
 8187SOL     OW36193   2.884   3.142   8.810  0.3964 -0.2379 -0.0279
 8187SOL    HW136194   2.828   3.150   8.887 -0.4247 -1.7400 -0.4908
 8187SOL    HW236195   2.841   3.205   8.753  0.0081 -0.9326 -0.4955
 8188SOL     OW36196   2.908   3.481   8.236 -0.4417 -0.5933 -0.0277
 8188SOL    HW136197   2.966   3.436   8.175 -0.6939 -0.0402 -0.6777
 8188SOL    HW236198   2.937   3.445   8.320  0.2686 -1.0316 -0.4652
 8189SOL     OW36199   3.457   2.973  10.759  1.0355 -0.2563  1.1832
 8189SOL    HW136200   3.395   3.044  10.777 -0.3351 -0.8230 -1.3203
 8189SOL    HW236201   3.454   2.969  10.664 -2.6839  1.0314  1.2186
 8190SOL     OW36202   2.415   1.674   4.578 -0.0390 -0.4090 -0.2443
 8190SOL    HW136203   2.496   1.632   4.608 -0.3547 -0.4459  0.5554
 8190SOL    HW236204   2.361   1.596   4.591 -0.1945 -0.6017 -2.1447
 8191SOL     OW36205   4.165   1.229   9.412  0.0656  0.3271  0.0780
 8191SOL    HW136206   4.116   1.157   9.453  1.8704 -1.0594 -0.2433
 8191SOL    HW236207   4.106   1.302   9.433  0.3547  0.3291  0.8879
 8192SOL     OW36208   3.856   3.724   1.348 -0.0756 -0.6624  0.3818
 8192SOL    HW136209   3.818   3.647   1.390 -0.5404 -0.3286  0.5770
 8192SOL    HW236210   3.805   3.791   1.393  2.0133 -0.3669  2.3191
 8193SOL     OW36211   3.161   2.426   7.124  0.0105  0.4385  0.3377
 8193SOL    HW136212   3.110   2.390   7.051 -0.5144  2.3124 -0.2134
 8193SOL    HW236213   3.242   2.440   7.076  0.6010 -1.3468  0.8020
 8194SOL     OW36214   3.948   4.725   1.951  0.1353 -0.0427  0.6228
 8194SOL    HW136215   3.885   4.656   1.934  1.9362 -1.0037 -1.9894
 8194SOL    HW236216   3.993   4.706   2.033  0.6165  3.5347  1.2172
 8195SOL     OW36217   4.551   3.815   5.999  0.1343 -0.1625 -0.5637
 8195SOL    HW136218   4.457   3.807   6.015 -0.0885  1.2639 -1.2151
 8195SOL    HW236219   4.591   3.731   6.023  0.6169 -0.5092 -2.6498
 8196SOL     OW36220   1.251   1.464   8.927 -0.6547 -0.6762 -0.0764
 8196SOL    HW136221   1.274   1.536   8.986 -4.5400 -1.8825  2.9351
 8196SOL    HW236222   1.193   1.414   8.986 -0.1723 -0.4061  0.6292
 8197SOL     OW36223   1.097   2.461   6.118  0.7085  0.6268  0.3808
 8197SOL    HW136224   1.030   2.431   6.057  0.9314  0.3711  0.2569
 8197SOL    HW236225   1.054   2.443   6.201 -2.0028 -1.5977 -1.5319
 8198SOL     OW36226   2.354   3.524   3.497  0.0155  0.0945 -0.2931
 8198SOL    HW136227   2.309   3.451   3.454  1.2163 -0.3227 -0.8489
 8198SOL    HW236228   2.364   3.590   3.429  2.0047 -0.2608 -0.3355
 8199SOL     OW36229   4.228   2.943   0.426 -0.4278 -0.0582 -0.0064
 8199SOL    HW136230   4.156   2.893   0.387 -1.1691  0.4068  0.7700
 8199SOL    HW236231   4.290   2.871   0.436 -0.0490  0.1402 -0.8779
 8200SOL     OW36232   1.842   1.369   8.592 -0.2640 -0.3540  0.0976
 8200SOL    HW136233   1.909   1.314   8.633 -0.3823  0.8229  1.8411
 8200SOL    HW236234   1.879   1.404   8.511 -0.1867  1.5410  0.9601
 8201SOL     OW36235   0.574   3.923   9.596  0.5603  0.0911  0.8417
 8201SOL    HW136236   0.584   4.012   9.629 -1.1376  0.4877  0.3208
 8201SOL    HW236237   0.543   3.881   9.677  2.4703 -0.9406  1.0442
 8202SOL     OW36238   4.655   2.677   1.946 -0.0590 -0.3096 -0.1906
 8202SOL    HW136239   4.620   2.623   2.017 -0.0960 -2.1525 -1.5837
 8202SOL    HW236240   4.627   2.625   1.870 -0.5536  0.1212 -0.2974
 8203SOL     OW36241   2.067   2.395  17.673  0.4405  0.1793  0.0893
 8203SOL    HW136242   2.120   2.365  17.747 -1.3591  1.6897  1.9753
 8203SOL    HW236243   2.028   2.474  17.709 -0.2228 -0.8274  1.5647
 8204SOL     OW36244   4.610   4.589   8.514 -0.5715 -0.6154 -0.2291
 8204SOL    HW136245   4.644   4.502   8.495 -1.0694 -0.6373 -1.0356
 8204SOL    HW236246   4.520   4.577   8.481 -1.6076  1.8132  1.7469
 8205SOL     OW36247   1.050   2.963  16.883  0.0399 -0.3021  0.5271
 8205SOL    HW136248   1.101   3.023  16.827 -0.7536  1.6639  1.9114
 8205SOL    HW236249   1.119   2.900  16.904  2.1075  1.4167 -0.9795
 8206SOL     OW36250   3.970   0.204   0.278 -0.1406 -0.6467 -0.2302
 8206SOL    HW136251   3.962   0.264   0.352  2.0318  1.4026 -1.6705
 8206SOL    HW236252   3.932   0.265   0.214  0.7580 -0.5494 -0.6797
 8207SOL     OW36253   4.301   1.409   5.896  0.3283  0.0798 -0.0057
 8207SOL    HW136254   4.251   1.488   5.914 -0.3140 -0.2766 -0.2361
 8207SOL    HW236255   4.310   1.370   5.983 -2.0286 -0.7642 -0.1374
 8208SOL     OW36256   4.308   0.844  14.220 -0.4599  0.1015 -0.1766
 8208SOL    HW136257   4.313   0.795  14.138  0.1571  0.2565 -0.2342
 8208SOL    HW236258   4.350   0.783  14.282 -2.0240 -0.9864 -0.2114
 8209SOL     OW36259   4.486   1.176   2.726  0.4140 -0.7224  0.1497
 8209SOL    HW136260   4.445   1.261   2.712  1.3577 -0.2397  0.3269
 8209SOL    HW236261   4.466   1.179   2.819 -0.7170  2.3256 -0.1987
 8210SOL     OW36262   3.526   2.734   2.635 -0.2056  0.5262  0.4171
 8210SOL    HW136263   3.554   2.819   2.600 -0.8056 -0.5955 -2.7687
 8210SOL    HW236264   3.433   2.737   2.612 -0.2843 -3.0762  0.3579
 8211SOL     OW36265   1.946   4.667   6.496  0.3204  0.0656  0.3261
 8211SOL    HW136266   1.922   4.729   6.427 -0.8030 -0.2272  0.4613
 8211SOL    HW236267   1.974   4.733   6.560  0.7102 -0.6528  0.9005
 8212SOL     OW36268   1.940   4.297   9.247 -0.4803  0.1628  0.4470
 8212SOL    HW136269   1.933   4.207   9.279 -0.0534  0.7721  2.2951
 8212SOL    HW236270   1.853   4.323   9.278 -0.7462  1.1108 -1.1286
 8213SOL     OW36271   1.866   1.744  10.099  0.0456 -0.1578  0.6598
 8213SOL    HW136272   1.947   1.706  10.131  1.8152  2.0386 -1.2402
 8213SOL    HW236273   1.847   1.682  10.030 -0.5501 -0.4778  1.1093
 8214SOL     OW36274   3.523   3.437   1.818  0.8474  0.4341  0.2036
 8214SOL    HW136275   3.477   3.484   1.888  1.7007 -2.0659  2.4328
 8214SOL    HW236276   3.604   3.485   1.800  1.4723 -0.5888  0.2999
 8215SOL     OW36277   0.276   1.220   4.422 -0.0737 -0.4623  0.1502
 8215SOL    HW136278   0.295   1.182   4.336  0.0632  1.9838 -0.8921
 8215SOL    HW236279   0.264   1.146   4.482  0.6766  0.8007  1.8567
 8216SOL     OW36280   0.708   1.037   7.694  0.4623 -0.3465 -0.2279
 8216SOL    HW136281   0.644   0.977   7.655 -0.3067 -0.8488  1.7552
 8216SOL    HW236282   0.746   1.086   7.622 -0.9034 -0.0656 -0.7649
 8217SOL     OW36283   4.220   2.701   5.087 -0.5793  0.0149 -0.2499
 8217SOL    HW136284   4.275   2.762   5.136  1.0391 -0.8087 -1.0361
 8217SOL    HW236285   4.140   2.709   5.138  0.1430  0.8395  0.7458
 8218SOL     OW36286   2.816   2.448   2.396  0.4721  0.1709 -0.3643
 8218SOL    HW136287   2.824   2.529   2.446 -1.5495  0.0891  0.0980
 8218SOL    HW236288   2.897   2.401   2.414  1.3606  2.6279  1.9111
 8219SOL     OW36289   3.860   1.115  16.531 -0.5850 -0.1784 -0.3053
 8219SOL    HW136290   3.789   1.174  16.505  1.7845  3.1553  0.7745
 8219SOL    HW236291   3.924   1.166  16.481 -2.4401  1.6004 -0.8978
 8220SOL     OW36292   3.764   3.618  12.933  0.4693  0.2608  0.4721
 8220SOL    HW136293   3.832   3.580  12.988 -1.5004 -1.4837  1.6775
 8220SOL    HW236294   3.771   3.713  12.943  2.8514  0.1810 -0.3180
 8221SOL     OW36295   2.178   0.697   5.738 -0.0425  0.0714  0.0480
 8221SOL    HW136296   2.212   0.769   5.685  3.3080 -0.0579  1.9783
 8221SOL    HW236297   2.127   0.744   5.804 -1.1890  1.6186 -1.9376
 8222SOL     OW36298   2.354   3.257  12.726  0.3232 -0.5718  0.7512
 8222SOL    HW136299   2.267   3.252  12.687 -0.1805 -0.0422  1.7873
 8222SOL    HW236300   2.376   3.348  12.703  0.8806 -0.6527  0.9570
 8223SOL     OW36301   1.265   1.079   1.765 -0.0599 -0.5413  0.2080
 8223SOL    HW136302   1.223   1.148   1.815  0.2233 -0.0266 -0.2639
 8223SOL    HW236303   1.229   1.001   1.807 -2.5240  1.3113  1.4650
 8224SOL     OW36304   1.513   1.048   0.417  0.4622  0.3000 -0.2090
 8224SOL    HW136305   1.490   1.005   0.335  0.6325  0.0986 -0.1531
 8224SOL    HW236306   1.461   1.126   0.431  0.1911 -0.3270  2.2685
 8225SOL     OW36307   1.136   2.929  15.016  0.4484  0.0798  0.4108
 8225SOL    HW136308   1.133   2.967  15.103  0.2541 -0.5629  0.6805
 8225SOL    HW236309   1.217   2.877  15.016  1.0130  0.9311 -1.8186
 8226SOL     OW36310   0.870   4.498   2.147 -0.2724  0.4362 -0.1672
 8226SOL    HW136311   0.936   4.460   2.089 -0.4332  2.3046 -1.5683
 8226SOL    HW236312   0.851   4.584   2.109 -1.2222 -1.1314 -3.2586
 8227SOL     OW36313   0.815   4.381  15.899 -0.3443  0.2121 -0.7797
 8227SOL    HW136314   0.770   4.367  15.982 -0.5216 -0.1868 -0.9440
 8227SOL    HW236315   0.783   4.308  15.845 -2.3007  1.4552 -1.3073
 8228SOL     OW36316   3.088   3.597   4.383  0.0863  0.0547  0.2834
 8228SOL    HW136317   3.009   3.650   4.373  1.3310  1.6405 -1.2622
 8228SOL    HW236318   3.137   3.625   4.306 -0.0622 -0.3581  0.0415
 8229SOL     OW36319   0.152   3.853  12.697  0.2386  0.0262  0.2449
 8229SOL    HW136320   0.219   3.911  12.734  2.8191 -2.0786 -1.1345
 8229SOL    HW236321   0.073   3.906  12.705 -1.3318 -2.1524 -1.0662
 8230SOL     OW36322   3.439   3.161   6.642 -0.0780 -0.2712 -0.2825
 8230SOL    HW136323   3.475   3.104   6.710  1.2270 -0.3393 -1.0274
 8230SOL    HW236324   3.367   3.198   6.692  0.7418 -0.6129  1.1522
 8231SOL     OW36325   3.764   1.610   9.166  0.3650  0.2599  0.2724
 8231SOL    HW136326   3.850   1.569   9.159  0.2778 -0.3667  2.9954
 8231SOL    HW236327   3.793   1.701   9.172 -0.4589  0.3198  3.0344
 8232SOL     OW36328   0.353   1.401  17.334 -0.3318 -0.5255 -0.3341
 8232SOL    HW136329   0.322   1.336  17.270  2.7086  0.8276 -3.1470
 8232SOL    HW236330   0.285   1.467  17.322 -1.5260 -1.3918  1.5588
 8233SOL     OW36331   2.742   1.228   5.901  0.0909 -0.2710 -0.0257
 8233SOL    HW136332   2.762   1.321   5.913 -2.2126  0.1458  0.5942
 8233SOL    HW236333   2.687   1.235   5.823 -0.7485  1.0826  0.6690
 8234SOL     OW36334   2.724   3.771   9.913  0.2434 -0.0886 -0.9712
 8234SOL    HW136335   2.731   3.748   9.821 -1.9102 -2.2918 -0.5929
 8234SOL    HW236336   2.633   3.801   9.901 -0.4164 -0.7618  2.2262
 8235SOL     OW36337   2.140   1.623   8.652 -0.3649  0.3649  0.0511
 8235SOL    HW136338   2.056   1.654   8.617 -0.1818  0.6945 -0.1000
 8235SOL    HW236339   2.176   1.573   8.579 -0.6991 -0.2302  0.2972
 8236SOL     OW36340   1.706   2.489  12.358  0.8693 -0.2123  0.8804
 8236SOL    HW136341   1.677   2.468  12.269  0.8053 -0.8594  1.0504
 8236SOL    HW236342   1.634   2.543  12.391  0.9265  0.9298 -0.9038
 8237SOL     OW36343   4.472   4.734   4.017 -0.5131 -0.6433  0.3485
 8237SOL    HW136344   4.535   0.064   3.993  0.5790 -1.9352 -0.3946
 8237SOL    HW236345   4.491   4.670   3.949 -0.2912 -0.8532  0.6083
 8238SOL     OW36346   2.588   2.869   6.723 -0.0237 -0.8808 -0.1043
 8238SOL    HW136347   2.497   2.856   6.699  0.5896  0.2677 -3.0566
 8238SOL    HW236348   2.617   2.779   6.705  2.1028 -0.4861  1.2890
 8239SOL     OW36349   0.815   3.863   6.884  0.1085  0.1592 -0.3529
 8239SOL    HW136350   0.834   3.905   6.800 -2.0692 -0.0964 -0.9833
 8239SOL    HW236351   0.779   3.938   6.933  0.5850 -1.0799  1.9003
 8240SOL     OW36352   2.385   3.241   9.805  0.1040 -0.3090 -0.0876
 8240SOL    HW136353   2.439   3.174   9.847 -1.4313  0.0680  2.4580
 8240SOL    HW236354   2.308   3.188   9.785 -0.7436  0.0388  2.2078
 8241SOL     OW36355   1.227   0.313   1.626 -0.1899 -0.1241 -0.0505
 8241SOL    HW136356   1.184   0.397   1.640 -1.8475 -1.2872  1.7840
 8241SOL    HW236357   1.152   0.258   1.603 -0.2628  0.1520 -0.4836
 8242SOL     OW36358   4.664   0.667  11.335 -0.1531 -0.0660  0.0158
 8242SOL    HW136359   4.729   0.634  11.398 -2.1143 -1.9610  1.0270
 8242SOL    HW236360   4.698   0.624  11.256 -1.1786  0.9400 -0.9662
 8243SOL     OW36361   3.446   0.784   7.576 -0.3406 -0.1839 -0.0411
 8243SOL    HW136362   3.488   0.717   7.628 -0.5737  0.1571  0.5876
 8243SOL    HW236363   3.438   0.745   7.489  0.4081 -1.0425  0.2869
 8244SOL     OW36364   0.844   0.551  16.519  0.1027  0.3814  0.1107
 8244SOL    HW136365   0.874   0.637  16.549  1.1844  0.1162 -0.2318
 8244SOL    HW236366   0.822   0.509  16.602 -1.3691 -2.8885 -1.9662
 8245SOL     OW36367   2.078   4.518   4.086 -0.1522 -0.0266 -0.3417
 8245SOL    HW136368   2.159   4.569   4.086  0.8971 -1.7033 -1.5088
 8245SOL    HW236369   2.107   4.444   4.139 -3.3855 -0.6300  0.5904
 8246SOL     OW36370   1.456   3.006  13.608  0.2207  0.5620 -0.1836
 8246SOL    HW136371   1.547   3.032  13.591  1.2968 -3.3677 -0.2705
 8246SOL    HW236372   1.466   2.917  13.639 -1.0969  1.2637  2.1899
 8247SOL     OW36373   4.480   3.303   7.611 -0.4497  0.1472 -0.1464
 8247SOL    HW136374   4.452   3.238   7.546 -1.9855 -0.9368  1.5833
 8247SOL    HW236375   4.499   3.377   7.553  1.9050 -1.0001 -0.8137
 8248SOL     OW36376   3.841   0.268   5.316  0.3045  0.1913  0.0310
 8248SOL    HW136377   3.867   0.275   5.224 -1.1467 -1.3713 -0.5152
 8248SOL    HW236378   3.793   0.185   5.318 -0.6810  0.6063 -4.2695
 8249SOL     OW36379   4.171   2.621   3.827  0.6927  0.2984 -0.0010
 8249SOL    HW136380   4.097   2.597   3.770  0.1927  0.9573  0.3680
 8249SOL    HW236381   4.234   2.653   3.762  2.1063 -2.4512  0.0153
 8250SOL     OW36382   4.428   1.458   8.201  0.3273 -0.4320 -0.3225
 8250SOL    HW136383   4.465   1.541   8.173  0.5477  0.2704  2.0322
 8250SOL    HW236384   4.341   1.488   8.228 -0.4150 -2.1654 -0.7577
 8251SOL     OW36385   0.987   1.537  10.350  0.6851  0.0196  0.1314
 8251SOL    HW136386   1.067   1.571  10.391  2.0065 -2.3170 -0.5019
 8251SOL    HW236387   0.926   1.599  10.390  1.7298  0.8801  0.4035
 8252SOL     OW36388   3.470   2.595   7.144  0.5356 -0.4274  0.2152
 8252SOL    HW136389   3.445   2.569   7.233 -0.1574  1.7843  0.6702
 8252SOL    HW236390   3.456   2.690   7.146 -0.3424 -0.6240  3.3101
 8253SOL     OW36391   0.447   3.487   8.607  0.1635 -0.4870  0.4952
 8253SOL    HW136392   0.502   3.409   8.617 -0.0407 -0.9367 -1.8059
 8253SOL    HW236393   0.481   3.518   8.524  0.3137 -0.1849  0.6711
 8254SOL     OW36394   2.277   0.562   6.782 -0.0154 -0.7635 -0.1429
 8254SOL    HW136395   2.372   0.573   6.789  0.0180 -0.4818 -1.0945
 8254SOL    HW236396   2.244   0.640   6.826  1.6263  0.5159 -1.1839
 8255SOL     OW36397   1.795   3.939   7.135  0.3792 -0.1141 -0.1595
 8255SOL    HW136398   1.870   3.881   7.142  0.5167  0.1441  0.5613
 8255SOL    HW236399   1.721   3.880   7.145 -1.3300  2.0714  0.2709
 8256SOL     OW36400   0.301   3.757   9.993  0.4390 -0.1399  0.0320
 8256SOL    HW136401   0.326   3.848  10.011  3.9721 -0.7377 -1.9789
 8256SOL    HW236402   0.270   3.733  10.081 -0.0842 -2.4959 -0.8015
 8257SOL     OW36403   0.698   2.738   8.642 -0.0554  0.1229 -0.3153
 8257SOL    HW136404   0.655   2.808   8.690  0.7847 -0.4969  1.3629
 8257SOL    HW236405   0.712   2.670   8.708 -0.3978 -0.6770 -1.0651
 8258SOL     OW36406   2.167   1.724   6.265  0.1063 -0.3132  0.1867
 8258SOL    HW136407   2.090   1.766   6.302  1.8250  0.1017  3.3653
 8258SOL    HW236408   2.238   1.789   6.273 -2.2655  2.2579  0.2059
 8259SOL     OW36409   3.113   2.129   4.219 -0.6996  0.5898  0.4261
 8259SOL    HW136410   3.205   2.105   4.213 -0.8580  0.0279  0.2088
 8259SOL    HW236411   3.108   2.199   4.285  2.4977 -1.0885  2.4520
 8260SOL     OW36412   2.998   3.074   2.357  0.7736  0.7260 -0.4402
 8260SOL    HW136413   2.924   3.112   2.308 -0.6860  0.7727  1.8110
 8260SOL    HW236414   2.949   3.046   2.435 -1.0664 -0.9087 -2.1662
 8261SOL     OW36415   4.484   3.746  17.291 -0.9109 -0.8430 -0.3977
 8261SOL    HW136416   4.460   3.711  17.377 -1.3582 -1.1211 -0.6360
 8261SOL    HW236417   4.555   3.800  17.324  0.4545 -1.5190 -2.1913
 8262SOL     OW36418   4.662   3.833   1.778  0.5596  0.4491  0.2333
 8262SOL    HW136419   4.732   3.799   1.834 -0.5409  0.3369  1.5639
 8262SOL    HW236420   4.697   3.918   1.754  0.9088  0.5059  0.9391
 8263SOL     OW36421   1.727   4.120   8.761 -0.5246 -0.1431 -0.5241
 8263SOL    HW136422   1.685   4.046   8.806 -0.1064 -0.9471 -1.4396
 8263SOL    HW236423   1.652   4.169   8.730 -0.5391 -0.1813 -0.5496
 8264SOL     OW36424   1.053   1.542   7.527 -0.2372  0.3363  0.5901
 8264SOL    HW136425   1.062   1.472   7.463  0.9626  1.2819 -0.2863
 8264SOL    HW236426   1.097   1.511   7.606 -0.5542 -0.7274  0.3391
 8265SOL     OW36427   2.679   0.272   4.960  0.7893  0.2368 -0.7215
 8265SOL    HW136428   2.674   0.184   4.923  1.9484  0.7568 -2.1380
 8265SOL    HW236429   2.687   0.335   4.888 -0.8949  0.7675 -0.4271
 8266SOL     OW36430   2.152   0.179   4.187 -0.2674  0.4310  0.5409
 8266SOL    HW136431   2.101   0.260   4.183 -1.2057 -0.3061 -2.3266
 8266SOL    HW236432   2.114   0.132   4.261 -0.1287 -3.4666 -1.8467
 8267SOL     OW36433   0.499   2.752   2.966  0.4678 -0.6188  0.5029
 8267SOL    HW136434   0.594   2.740   2.968  0.9320  2.8565 -0.0302
 8267SOL    HW236435   0.482   2.739   2.872  1.7399  0.4492  0.1321
 8268SOL     OW36436   0.937   0.488   5.128 -0.3973 -0.1758  0.2580
 8268SOL    HW136437   0.951   0.435   5.049 -1.0002 -0.6855  0.4946
 8268SOL    HW236438   0.900   0.418   5.182 -0.0283  1.4734  2.6659
 8269SOL     OW36439   2.782   4.072   5.790  0.1547  0.7499 -0.3371
 8269SOL    HW136440   2.789   3.978   5.774  2.2480  0.6104  1.5325
 8269SOL    HW236441   2.804   4.082   5.882  0.2624  0.9606 -0.3871
 8270SOL     OW36442   1.135   2.736   2.684  0.6757 -0.0488 -0.3809
 8270SOL    HW136443   1.209   2.798   2.681  0.7809 -0.2228 -1.3132
 8270SOL    HW236444   1.073   2.781   2.627  0.3860  0.8429  0.6443
 8271SOL     OW36445   3.805   2.119   7.335  0.2684  0.3395 -0.3732
 8271SOL    HW136446   3.752   2.087   7.262 -0.6045  0.3558  0.2490
 8271SOL    HW236447   3.845   2.041   7.373 -2.7486 -1.3739 -0.6600
 8272SOL     OW36448   2.022   4.043   6.925 -0.1344  0.0674  0.0957
 8272SOL    HW136449   2.093   4.098   6.894  0.1791  1.0008  2.4393
 8272SOL    HW236450   2.025   4.055   7.020 -1.1821  0.6282  0.0529
 8273SOL     OW36451   0.629   0.947  16.581 -0.3174 -0.0586 -0.1844
 8273SOL    HW136452   0.628   1.025  16.637 -0.6227 -0.9299  1.0435
 8273SOL    HW236453   0.601   0.869  16.631 -3.0260 -0.1945 -1.9009
 8274SOL     OW36454   0.653   3.678   0.356 -0.0243 -0.1267 -0.1772
 8274SOL    HW136455   0.577   3.641   0.401 -0.4245  2.7213  1.4713
 8274SOL    HW236456   0.728   3.635   0.399 -0.4701  0.9315  1.6576
 8275SOL     OW36457   3.821   2.483   8.852 -0.6619 -0.3731  0.5977
 8275SOL    HW136458   3.735   2.467   8.813 -0.8721  0.3408  0.7740
 8275SOL    HW236459   3.874   2.422   8.801  1.4080  1.1918  0.9214
 8276SOL     OW36460   3.998   3.221   3.033 -0.2112 -0.2097 -0.5328
 8276SOL    HW136461   4.091   3.196   3.040  0.0515  1.0997  0.7305
 8276SOL    HW236462   3.973   3.174   3.112 -0.3099 -2.0391 -1.6613
 8277SOL     OW36463   1.664   0.296   3.945  0.0039 -0.4012 -0.0694
 8277SOL    HW136464   1.729   0.236   3.981  1.0299  3.4006  4.3447
 8277SOL    HW236465   1.697   0.295   3.855 -1.7786 -0.1341 -0.7238
 8278SOL     OW36466   0.631   4.432   6.103 -0.7556  0.3507 -0.1575
 8278SOL    HW136467   0.561   4.450   6.040 -0.8554 -0.6502 -0.3338
 8278SOL    HW236468   0.584   4.372   6.160  1.2040 -1.0682 -0.0530
 8279SOL     OW36469   0.988   0.568  15.711  0.0811 -0.7737  0.4382
 8279SOL    HW136470   0.897   0.570  15.685 -0.4459  0.1188  2.3528
 8279SOL    HW236471   1.036   0.575  15.628 -1.7305  0.4226 -0.4879
 8280SOL     OW36472   3.769   1.918   7.045  0.0405  0.1321 -0.5858
 8280SOL    HW136473   3.791   1.857   7.115  1.3905 -0.1250 -1.2209
 8280SOL    HW236474   3.744   1.849   6.983 -0.0821  0.0864 -0.4843
 8281SOL     OW36475   1.881   1.568   2.860 -0.2436  0.0078 -0.2732
 8281SOL    HW136476   1.859   1.500   2.923  1.1084 -0.2041 -0.0231
 8281SOL    HW236477   1.800   1.614   2.839  0.1288  0.8665  0.1328
 8282SOL     OW36478   2.934   3.375   2.550 -0.2442  0.0889  0.1333
 8282SOL    HW136479   2.912   3.379   2.643  1.4489  3.3167  0.4083
 8282SOL    HW236480   3.030   3.366   2.543 -0.3866  0.4898 -2.3487
 8283SOL     OW36481   3.523   1.422   7.651 -0.3397 -0.8064  0.2427
 8283SOL    HW136482   3.569   1.453   7.573 -1.6134 -0.4896 -0.3805
 8283SOL    HW236483   3.598   1.393   7.703 -0.0567  1.8457  1.2803
 8284SOL     OW36484   2.913   1.881   8.617 -0.4292  0.0092 -0.3955
 8284SOL    HW136485   2.898   1.790   8.592  0.2998 -1.1653  3.5341
 8284SOL    HW236486   2.843   1.931   8.575 -0.1601 -0.4116 -1.3630
 8285SOL     OW36487   0.010   4.214  11.176  0.4375  0.0546  0.0710
 8285SOL    HW136488   0.006   4.232  11.082 -0.4696 -2.1145 -0.3099
 8285SOL    HW236489   4.702   4.131  11.191 -0.5424  0.5231 -0.3155
 8286SOL     OW36490   2.846   0.073   3.705  0.6378  0.0169 -0.3100
 8286SOL    HW136491   2.868   0.108   3.791  0.2662  0.5152 -0.4165
 8286SOL    HW236492   2.784   0.004   3.730 -0.3675  0.3890 -1.7879
 8287SOL     OW36493   3.724   2.718   5.469 -0.2893  0.2148 -0.0533
 8287SOL    HW136494   3.712   2.629   5.437  0.3001 -0.9931  3.0917
 8287SOL    HW236495   3.750   2.705   5.560 -1.2864  1.5281  0.4247
 8288SOL     OW36496   1.990   0.396   4.143  0.1098 -0.6745  0.0490
 8288SOL    HW136497   2.017   0.462   4.079  5.0180 -1.6582  1.1257
 8288SOL    HW236498   1.938   0.446   4.206 -0.5319  1.2262 -1.9871
 8289SOL     OW36499   1.050   3.909   1.592 -0.1447  0.0420 -0.2787
 8289SOL    HW136500   1.107   3.985   1.604  0.1982 -0.3658  0.7044
 8289SOL    HW236501   1.005   3.933   1.512 -2.5368 -0.3041  0.9740
 8290SOL     OW36502   1.788   0.181   9.703 -0.1010 -0.6199 -0.0420
 8290SOL    HW136503   1.853   0.161   9.770 -2.0930 -3.6371  1.0234
 8290SOL    HW236504   1.821   0.134   9.627 -3.0358 -4.1643  0.8639
 8291SOL     OW36505   3.688   2.960  13.399  0.0520  0.8142 -0.2671
 8291SOL    HW136506   3.771   2.965  13.351  0.7241  2.3159  1.0546
 8291SOL    HW236507   3.633   2.899  13.349  0.0767 -0.5625  1.4032
 8292SOL     OW36508   3.879   0.472   4.177  0.1485  0.4729  0.0622
 8292SOL    HW136509   3.974   0.473   4.167  0.1966 -0.9444  0.4309
 8292SOL    HW236510   3.869   0.390   4.225  1.0009 -0.2936 -1.0698
 8293SOL     OW36511   0.898   2.861  14.647  0.3355 -0.3251 -0.0743
 8293SOL    HW136512   0.828   2.867  14.582  0.0207  1.7110  0.4297
 8293SOL    HW236513   0.861   2.797  14.708  0.8024  0.6785  1.2638
 8294SOL     OW36514   0.664   2.278  13.544 -0.0162  0.2491  0.6586
 8294SOL    HW136515   0.594   2.212  13.539 -1.3154  1.7151 -0.5661
 8294SOL    HW236516   0.742   2.230  13.517 -0.6065 -1.7987  2.6171
 8295SOL     OW36517   2.925   4.126  16.071 -0.3170  0.3312 -0.2239
 8295SOL    HW136518   2.902   4.054  16.130 -0.9925 -0.8971 -1.9638
 8295SOL    HW236519   2.974   4.075  16.006 -2.2125  1.5518 -2.5937
 8296SOL     OW36520   0.543   3.304   1.704  0.1643  0.6261 -0.2349
 8296SOL    HW136521   0.480   3.272   1.639 -0.4050 -0.6598  0.9434
 8296SOL    HW236522   0.549   3.394   1.672  3.7168  0.2363 -0.5750
 8297SOL     OW36523   1.057   3.515   2.309  0.8455  0.2291  0.2261
 8297SOL    HW136524   1.060   3.500   2.214  1.1755  3.5688 -0.2603
 8297SOL    HW236525   1.147   3.498   2.336  0.9635  0.8443  0.2161
 8298SOL     OW36526   0.890   1.517   4.526  0.2238  0.3093  0.2237
 8298SOL    HW136527   0.849   1.543   4.609 -1.3788  3.7394 -1.6307
 8298SOL    HW236528   0.977   1.556   4.535  0.6242 -0.4465 -0.3930
 8299SOL     OW36529   1.315   1.189   0.195 -0.1357  0.4656  0.3938
 8299SOL    HW136530   1.338   1.265   0.142  1.9081 -2.0791 -2.3665
 8299SOL    HW236531   1.236   1.221   0.237  1.3751  1.1914  2.6611
 8300SOL     OW36532   3.008   0.414   7.501 -0.1208 -0.7667 -0.2455
 8300SOL    HW136533   2.960   0.465   7.565 -0.4126 -1.1936 -0.1221
 8300SOL    HW236534   3.071   0.372   7.560  2.0142  2.5061 -0.1746
 8301SOL     OW36535   2.056   1.266  14.514 -0.5536  0.1541 -0.5881
 8301SOL    HW136536   2.072   1.270  14.609 -0.7990 -0.4554 -0.5181
 8301SOL    HW236537   2.115   1.200  14.476 -0.2372 -0.2867  0.6649
 8302SOL     OW36538   2.795   1.401   9.858 -0.4574  0.0013  0.2143
 8302SOL    HW136539   2.737   1.382   9.785  1.5998 -0.1773 -1.3955
 8302SOL    HW236540   2.769   1.482   9.901  0.3839  0.6477 -0.4711
 8303SOL     OW36541   3.486   1.242   8.950 -0.3070 -0.2319  0.0105
 8303SOL    HW136542   3.446   1.328   8.959  2.0637  0.8760 -0.1706
 8303SOL    HW236543   3.568   1.256   8.997  0.2855 -3.0001 -0.1979
 8304SOL     OW36544   4.227   0.758   6.408 -0.3394  0.0490 -0.2640
 8304SOL    HW136545   4.265   0.674   6.435 -1.8841  0.4466  3.1446
 8304SOL    HW236546   4.270   0.769   6.323  2.4072 -1.7621  0.8747
 8305SOL     OW36547   0.474   3.775   4.736  0.0457 -0.1751 -0.1719
 8305SOL    HW136548   0.394   3.810   4.698  0.1419  0.4891  0.2382
 8305SOL    HW236549   0.487   3.836   4.809  4.1548  0.1615 -1.1717
 8306SOL     OW36550   4.700   2.252   4.442 -1.2481  0.5211 -0.4525
 8306SOL    HW136551   4.619   2.201   4.447 -0.4968 -0.6811 -0.6140
 8306SOL    HW236552   4.689   2.327   4.502  1.1951 -0.7725  1.5884
 8307SOL     OW36553   1.783   3.973   3.863  0.6029  0.0310 -0.2595
 8307SOL    HW136554   1.857   3.954   3.806 -0.2211  1.4174 -1.7941
 8307SOL    HW236555   1.751   4.056   3.829 -1.8604 -1.4306 -1.5349
 8308SOL     OW36556   4.654   0.675   5.130 -0.4367 -0.6406  0.1979
 8308SOL    HW136557   4.568   0.636   5.114  0.9594 -2.7575 -2.1975
 8308SOL    HW236558   4.670   0.628   5.212 -3.4851 -4.6586 -1.5290
 8309SOL     OW36559   3.413   4.122   4.835  0.1997  0.4215  0.0968
 8309SOL    HW136560   3.331   4.149   4.792 -1.0043 -0.9740  1.4917
 8309SOL    HW236561   3.465   4.199   4.812 -0.1147  0.2811 -1.0830
 8310SOL     OW36562   3.294   1.373  11.120  0.0362 -0.5525  0.6496
 8310SOL    HW136563   3.301   1.417  11.036 -0.6405  0.6974  1.2432
 8310SOL    HW236564   3.375   1.395  11.167  0.2067  0.8549 -0.3156
 8311SOL     OW36565   2.524   0.159   9.553 -0.4474  0.4914 -0.1153
 8311SOL    HW136566   2.594   0.103   9.520 -2.3038 -1.9586  0.0617
 8311SOL    HW236567   2.565   0.237   9.517  1.4539 -0.9746 -1.1023
 8312SOL     OW36568   1.043   3.829  13.351 -0.0723  0.2576  0.0483
 8312SOL    HW136569   0.955   3.860  13.373  0.0333 -0.3850  1.3940
 8312SOL    HW236570   1.047   3.750  13.406  1.7418  1.4907  1.6739
 8313SOL     OW36571   2.365   2.312   8.788 -0.3211 -0.8537 -0.5603
 8313SOL    HW136572   2.331   2.318   8.699  0.6321 -1.3351 -0.9594
 8313SOL    HW236573   2.442   2.261   8.763  0.8220 -1.2008  3.5872
 8314SOL     OW36574   0.869   0.032   5.662 -0.1387 -0.3694 -0.1307
 8314SOL    HW136575   0.854   4.728   5.747  1.0642 -0.0275  0.2466
 8314SOL    HW236576   0.939   0.093   5.681 -1.3513  0.3194  2.1167
 8315SOL     OW36577   3.442   2.810   9.102 -0.1099 -0.0639  0.1748
 8315SOL    HW136578   3.454   2.897   9.063  1.5380  0.1204  1.0499
 8315SOL    HW236579   3.465   2.828   9.194  1.7276 -2.5082  0.1982
 8316SOL     OW36580   4.632   0.437  11.685  0.2761  0.3583 -0.3712
 8316SOL    HW136581   4.546   0.454  11.647  2.0330  1.9809 -3.6626
 8316SOL    HW236582   4.609   0.355  11.730 -0.7610  1.9279  1.9213
 8317SOL     OW36583   2.735   3.700   9.657  0.5054 -0.2691  0.1439
 8317SOL    HW136584   2.744   3.624   9.600 -0.8119 -1.9540  2.1834
 8317SOL    HW236585   2.764   3.770   9.598  2.9070 -1.0032  0.4534
 8318SOL     OW36586   2.683   3.414  10.084 -0.0187 -0.1998  0.0818
 8318SOL    HW136587   2.714   3.430   9.995  0.6105  0.9922  0.5075
 8318SOL    HW236588   2.653   3.501  10.110  0.7381  0.0908 -0.0235
 8319SOL     OW36589   1.542   0.899   6.931  0.1651 -0.4987 -0.4520
 8319SOL    HW136590   1.470   0.913   6.992  0.2862  2.9723 -1.1256
 8319SOL    HW236591   1.618   0.909   6.988  1.1265 -0.4119 -1.7418
 8320SOL     OW36592   2.341   3.185   8.160 -0.1782  0.3642  0.2784
 8320SOL    HW136593   2.329   3.276   8.132  2.1806  0.5871 -0.0108
 8320SOL    HW236594   2.428   3.191   8.199  0.1185 -0.0793 -0.2987
 8321SOL     OW36595   0.731   0.591   6.437  0.2984  0.8348 -0.2919
 8321SOL    HW136596   0.812   0.642   6.440  0.1488  1.0289  0.4791
 8321SOL    HW236597   0.675   0.652   6.389  2.0793  0.9542 -2.2330
 8322SOL     OW36598   3.386   2.402  11.450  0.2065 -0.3535  0.0764
 8322SOL    HW136599   3.439   2.419  11.372  0.3704  0.7037  0.4056
 8322SOL    HW236600   3.389   2.307  11.453 -0.2545 -0.4007 -1.3062
 8323SOL     OW36601   0.764   4.308   8.257 -0.1024  0.5366  0.0164
 8323SOL    HW136602   0.701   4.293   8.328 -1.4840  0.5647 -1.1894
 8323SOL    HW236603   0.845   4.266   8.285 -0.1235 -0.3672 -1.3326
 8324SOL     OW36604   3.387   0.091   6.636  0.6306  0.5477  0.4469
 8324SOL    HW136605   3.392   0.022   6.569 -0.9575  0.2198  0.6704
 8324SOL    HW236606   3.406   0.163   6.576  1.7865  0.0680  0.2200
 8325SOL     OW36607   4.215   3.335  17.343  0.5083  0.0522  0.3894
 8325SOL    HW136608   4.205   3.240  17.351 -2.2370  0.1773 -1.3004
 8325SOL    HW236609   4.191   3.361  17.433  1.6482  2.4809 -0.0098
 8326SOL     OW36610   1.563   1.243   6.172  0.5252 -0.3994  0.3615
 8326SOL    HW136611   1.602   1.159   6.197  0.7903  0.4705  2.8190
 8326SOL    HW236612   1.617   1.301   6.225  0.6416  1.5095 -1.8678
 8327SOL     OW36613   0.543   0.217  12.563 -0.0861 -0.1399 -0.3566
 8327SOL    HW136614   0.602   0.290  12.544  1.9254 -1.8298 -0.5926
 8327SOL    HW236615   0.533   0.235  12.657  2.0612 -0.2108 -0.1180
 8328SOL     OW36616   2.390   2.061   2.486  0.2660  0.0878  0.1160
 8328SOL    HW136617   2.348   1.976   2.472 -1.9513  1.0307  1.0403
 8328SOL    HW236618   2.323   2.113   2.442  0.8085  0.2030 -0.5631
 8329SOL     OW36619   3.755   4.568   6.149  0.0824 -0.3822 -0.3056
 8329SOL    HW136620   3.743   4.657   6.182  0.7249 -0.7599  0.9341
 8329SOL    HW236621   3.663   4.559   6.125 -0.3400  0.4218  1.0396
 8330SOL     OW36622   1.251   0.169   6.724 -0.1017  0.0476 -0.1822
 8330SOL    HW136623   1.339   0.179   6.688  0.4583 -2.4282  0.5204
 8330SOL    HW236624   1.273   0.163   6.817 -0.5850 -0.6156 -0.1124
 8331SOL     OW36625   1.693   2.055   0.292 -0.0959  0.4220  0.4537
 8331SOL    HW136626   1.763   2.003   0.253  0.4480  2.2387 -1.0327
 8331SOL    HW236627   1.730   2.143   0.287  0.9539 -0.0563 -0.3139
 8332SOL     OW36628   3.054   0.812  11.090  0.3120  0.2503 -0.2275
 8332SOL    HW136629   2.995   0.754  11.138  2.1262 -0.0863  1.5675
 8332SOL    HW236630   3.137   0.796  11.133  1.0747  0.0931 -1.7579
 8333SOL     OW36631   0.351   4.528   3.373  0.1949 -0.2809 -0.2461
 8333SOL    HW136632   0.321   4.463   3.310 -2.5125  0.1458  0.6273
 8333SOL    HW236633   0.439   4.545   3.339 -0.1743 -2.1397 -2.1479
 8334SOL     OW36634   3.826   4.678   4.435 -0.2267  0.0099 -0.9927
 8334SOL    HW136635   3.758   4.614   4.456  1.2163 -0.7618  1.3051
 8334SOL    HW236636   3.796   0.017   4.484  0.4230 -1.3757  1.5839
 8335SOL     OW36637   2.273   1.062  16.248 -0.1050 -0.7761 -0.1911
 8335SOL    HW136638   2.179   1.059  16.266  0.1787 -0.2949  1.4101
 8335SOL    HW236639   2.273   1.019  16.163  0.5043 -1.4836  0.1696
 8336SOL     OW36640   2.440   4.097  14.481 -0.1069  0.2161  0.0048
 8336SOL    HW136641   2.495   4.117  14.406  0.6467 -0.8630  0.2732
 8336SOL    HW236642   2.382   4.028  14.449 -1.6585  0.9852  1.1889
 8337SOL     OW36643   4.008   3.220   8.007  0.1152  0.1353  0.5387
 8337SOL    HW136644   4.038   3.296   8.057 -2.7396  1.0884  0.8137
 8337SOL    HW236645   3.998   3.158   8.080  1.6683  0.3989  0.9859
 8338SOL     OW36646   2.195   3.488   5.415 -0.0251  0.5938 -0.6551
 8338SOL    HW136647   2.195   3.495   5.510  2.3833  1.4299 -0.7407
 8338SOL    HW236648   2.114   3.440   5.396  0.5915  0.3648 -2.7589
 8339SOL     OW36649   4.091   4.157   6.617 -0.1108  0.0631 -0.2134
 8339SOL    HW136650   4.043   4.162   6.534  0.9368 -0.6566 -0.8690
 8339SOL    HW236651   4.079   4.065   6.642 -1.1589  1.0171  2.7657
 8340SOL     OW36652   3.953   1.087  14.902  0.4739 -0.0548  0.4345
 8340SOL    HW136653   4.001   1.066  14.982 -1.6472 -0.8917  1.4891
 8340SOL    HW236654   3.890   1.152  14.934  2.2572  1.4157  0.9412
 8341SOL     OW36655   2.653   2.430   0.315 -0.3106 -0.3585  0.0833
 8341SOL    HW136656   2.693   2.431   0.229  1.2263 -1.2130  0.7936
 8341SOL    HW236657   2.712   2.377   0.369 -0.6668  1.5261  2.3572
 8342SOL     OW36658   4.679   1.825  14.079  0.2917 -0.3940 -0.1267
 8342SOL    HW136659   4.678   1.914  14.042 -1.1932 -0.6827 -0.7833
 8342SOL    HW236660   4.712   1.756  14.021 -0.6835 -0.0718 -1.0609
 8343SOL     OW36661   2.164   0.018   5.689 -0.5139 -0.2474 -0.2197
 8343SOL    HW136662   2.075   4.721   5.699 -1.0376  0.9417 -0.6433
 8343SOL    HW236663   2.173   0.060   5.775 -0.7911 -1.6003  0.4736
 8344SOL     OW36664   2.555   2.482  17.139  0.2159 -0.9811 -0.1950
 8344SOL    HW136665   2.545   2.432  17.058 -1.7344  0.6717 -0.9865
 8344SOL    HW236666   2.640   2.526  17.129  0.3533 -1.1536  0.2195
 8345SOL     OW36667   2.817   1.186   9.629  0.6180 -0.2189  0.1000
 8345SOL    HW136668   2.736   1.237   9.635  0.5104 -0.4301  0.4144
 8345SOL    HW236669   2.865   1.232   9.560  0.2044  1.5917  1.0140
 8346SOL     OW36670   3.316   0.537   9.186  0.0862 -0.9685  0.3304
 8346SOL    HW136671   3.303   0.616   9.134 -0.3889 -1.1009  0.2398
 8346SOL    HW236672   3.298   0.478   9.112  0.8813 -1.3100  0.4197
 8347SOL     OW36673   2.005   2.781   4.902  0.0065 -0.1569  0.0167
 8347SOL    HW136674   2.064   2.807   4.831  1.1159 -1.1342  0.5846
 8347SOL    HW236675   2.018   2.844   4.972 -0.4543 -1.1907  1.0255
 8348SOL     OW36676   3.255   3.305  12.167 -0.0625 -0.3722  0.3123
 8348SOL    HW136677   3.252   3.213  12.141  1.3062 -1.5922  4.3585
 8348SOL    HW236678   3.162   3.326  12.168  0.2903  1.2488 -1.4930
 8349SOL     OW36679   2.868   1.023  10.574  0.2517 -0.1345 -0.1623
 8349SOL    HW136680   2.946   0.986  10.534 -0.1288 -2.1396  0.9665
 8349SOL    HW236681   2.848   0.970  10.651  2.9354  0.0527  0.6578
 8350SOL     OW36682   0.082   4.546   4.910 -0.3448 -0.0798 -0.5630
 8350SOL    HW136683   0.096   4.640   4.898  1.9117 -0.6130 -2.0841
 8350SOL    HW236684   0.064   4.524   4.819 -1.1812 -1.6796 -0.0317
 8351SOL     OW36685   1.136   4.583  11.754 -0.1437 -0.1094 -0.7036
 8351SOL    HW136686   1.142   4.677  11.739  2.7844 -0.2527 -0.2985
 8351SOL    HW236687   1.156   4.565  11.846  0.0475  1.8688 -0.3568
 8352SOL     OW36688   2.220   1.874   8.123  0.6195 -0.0116 -0.0874
 8352SOL    HW136689   2.183   1.787   8.107  3.3463 -1.6723  2.5547
 8352SOL    HW236690   2.187   1.926   8.050  1.4046  2.4051  1.2963
 8353SOL     OW36691   1.970   3.023   7.769  0.3770 -0.4489  0.0578
 8353SOL    HW136692   2.035   2.953   7.771  1.4101  0.5714  2.7647
 8353SOL    HW236693   2.031   3.075   7.822 -1.4080  2.7306 -0.9961
 8354SOL     OW36694   2.468   0.119   3.586  0.4067 -0.3045  0.4377
 8354SOL    HW136695   2.523   0.097   3.510  0.5280 -1.9678  0.9948
 8354SOL    HW236696   2.448   0.209   3.560  0.9735 -0.0619  0.8545
 8355SOL     OW36697   3.047   0.492   8.244  0.0935 -0.1629  0.0212
 8355SOL    HW136698   2.973   0.439   8.274 -2.0710  1.5504 -2.2731
 8355SOL    HW236699   3.013   0.507   8.156 -0.7664  0.0425  0.3900
 8356SOL     OW36700   1.950   4.257   2.206 -0.0142 -0.2827 -0.2236
 8356SOL    HW136701   1.966   4.236   2.298  0.2170 -1.2940 -0.4897
 8356SOL    HW236702   1.949   4.166   2.175  2.0189 -0.5873  0.6262
 8357SOL     OW36703   4.176   0.877   1.820  0.1207 -0.2661 -0.5759
 8357SOL    HW136704   4.092   0.848   1.787 -0.6497  0.0218  1.1379
 8357SOL    HW236705   4.224   0.892   1.738  0.0133  0.6974 -0.4694
 8358SOL     OW36706   1.179   4.369  10.494 -0.3330 -0.2436  0.5059
 8358SOL    HW136707   1.170   4.276  10.515  2.3545  0.0184  2.7177
 8358SOL    HW236708   1.267   4.402  10.513 -0.3747  0.2488 -0.1373
 8359SOL     OW36709   4.620   3.209   6.373  0.4937  0.0642 -0.1487
 8359SOL    HW136710   4.581   3.293   6.351 -0.6987 -0.5453 -0.3339
 8359SOL    HW236711   4.642   3.176   6.286 -0.9425 -1.0364 -0.0926
 8360SOL     OW36712   2.222   1.216  16.503  0.1342  0.2867 -0.2366
 8360SOL    HW136713   2.268   1.166  16.436 -1.2953 -1.5997  0.1880
 8360SOL    HW236714   2.181   1.144  16.551  0.2410 -0.1923 -0.8638
 8361SOL     OW36715   2.256   3.917  15.774  0.2463 -0.2838 -0.0907
 8361SOL    HW136716   2.310   3.984  15.817 -0.6683  0.0419  0.5514
 8361SOL    HW236717   2.292   3.905  15.686  1.3499  3.2770 -0.1297
 8362SOL     OW36718   4.453   1.100   3.350  0.3638  0.5054  0.0646
 8362SOL    HW136719   4.462   1.066   3.260 -0.8700 -0.5627  0.3456
 8362SOL    HW236720   4.360   1.121   3.349  0.0984 -0.6421  0.7973
 8363SOL     OW36721   3.598   0.929   1.541  0.5236 -0.4970 -0.1661
 8363SOL    HW136722   3.516   0.946   1.495  0.9756  0.8699 -0.4547
 8363SOL    HW236723   3.588   0.974   1.625 -0.9093 -0.8672 -0.1371
 8364SOL     OW36724   4.340   2.723   7.810  0.2768 -0.2670  0.0926
 8364SOL    HW136725   4.369   2.643   7.765  2.1086  1.3788 -1.6181
 8364SOL    HW236726   4.425   2.764   7.826 -0.2588  1.5468 -1.8021
 8365SOL     OW36727   1.413   2.825   5.175  0.0784  0.4674 -0.0098
 8365SOL    HW136728   1.389   2.773   5.098 -2.2999 -0.0154  1.0438
 8365SOL    HW236729   1.506   2.811   5.162  0.0521  0.4294 -0.1592
 8366SOL     OW36730   0.034   1.237   7.102  0.2430 -0.3445 -1.0669
 8366SOL    HW136731   4.717   1.159   7.094 -2.2266  1.2183  0.6406
 8366SOL    HW236732   0.074   1.221   7.188 -1.9905 -2.7002 -0.4754
 8367SOL     OW36733   0.005   3.409   6.711  0.1025  0.1445 -0.0094
 8367SOL    HW136734   4.708   3.452   6.632  1.2549  0.9716 -0.0562
 8367SOL    HW236735   4.719   3.317   6.705  0.2711 -0.0015  1.6428
 8368SOL     OW36736   2.409   1.253   2.080  0.7160 -0.2546  0.3212
 8368SOL    HW136737   2.445   1.303   2.153 -2.0539  1.1704  0.7463
 8368SOL    HW236738   2.319   1.287   2.074  1.4838  1.2302 -2.5971
 8369SOL     OW36739   4.147   0.521   0.146 -0.1968  0.6615  0.1864
 8369SOL    HW136740   4.058   0.491   0.126  0.7281 -1.6060 -0.5646
 8369SOL    HW236741   4.131   0.563   0.231  0.4448  0.8402  0.2209
 8370SOL     OW36742   1.694   4.284   3.792 -0.0380  0.0340  0.2071
 8370SOL    HW136743   1.605   4.263   3.763 -0.6556  0.1960  2.0011
 8370SOL    HW236744   1.727   4.303   3.704  0.6936 -2.0646  0.0162
 8371SOL     OW36745   2.180   3.738   5.148 -0.0321 -0.6523 -0.2339
 8371SOL    HW136746   2.094   3.771   5.124 -0.2096 -0.4890  0.6081
 8371SOL    HW236747   2.200   3.790   5.226 -2.3979 -1.2498  0.7778
 8372SOL     OW36748   3.893   2.110   5.581  0.1796 -0.2937  0.7434
 8372SOL    HW136749   3.836   2.036   5.602  0.9486 -0.7565  1.2317
 8372SOL    HW236750   3.914   2.147   5.667  0.8465  1.8041 -0.3354
 8373SOL     OW36751   3.174   1.502   5.592 -0.7466 -0.3610 -0.2785
 8373SOL    HW136752   3.262   1.497   5.555 -0.2614 -1.3611  1.0105
 8373SOL    HW236753   3.126   1.532   5.515  0.3568  0.6945 -0.5610
 8374SOL     OW36754   0.502   1.520   4.012  0.5597 -0.0833 -0.0538
 8374SOL    HW136755   0.434   1.570   3.967 -0.0649 -0.0642  0.9306
 8374SOL    HW236756   0.581   1.560   3.975  1.1313 -1.8319 -0.7106
 8375SOL     OW36757   0.948   4.159   3.906  0.0593  1.1456 -0.5391
 8375SOL    HW136758   0.986   4.155   3.818  1.4912 -1.7799  0.2110
 8375SOL    HW236759   0.893   4.082   3.895  0.3859  0.3481  3.4700
 8376SOL     OW36760   1.816   4.607   4.472  0.2442  0.2481 -0.2872
 8376SOL    HW136761   1.842   4.646   4.389  0.6733  0.1425 -0.2022
 8376SOL    HW236762   1.720   4.603   4.470  0.1481  2.7703  0.1378
 8377SOL     OW36763   3.771   2.566   5.740 -0.2002 -0.1921  0.0458
 8377SOL    HW136764   3.835   2.500   5.767 -0.5364 -1.1263 -1.4539
 8377SOL    HW236765   3.703   2.505   5.712  0.8683 -0.5735 -1.7437
 8378SOL     OW36766   0.580   4.501  16.871 -0.6522 -0.0757  0.2234
 8378SOL    HW136767   0.581   4.573  16.934  1.5648 -0.8790  1.1020
 8378SOL    HW236768   0.507   4.451  16.907 -1.8909  1.5334 -0.0532
 8379SOL     OW36769   2.333   4.210   3.099 -0.1753  0.3553 -0.4966
 8379SOL    HW136770   2.297   4.201   3.187  1.3652 -1.4462 -0.0517
 8379SOL    HW236771   2.424   4.214   3.128 -0.3617 -2.7683  0.5138
 8380SOL     OW36772   4.348   2.623   3.608  0.9582  0.0475  0.5952
 8380SOL    HW136773   4.405   2.663   3.542  1.1387  1.0605  1.3725
 8380SOL    HW236774   4.404   2.552   3.637  1.8047 -0.2285 -1.6827
 8381SOL     OW36775   0.038   2.921   1.953 -0.0214  0.3577 -0.1858
 8381SOL    HW136776   4.717   2.848   1.969  2.1372 -1.3841 -0.1894
 8381SOL    HW236777   0.030   2.911   1.858  2.5780 -3.2597 -0.0468
 8382SOL     OW36778   3.715   3.103   7.652 -0.3915  0.0608  0.3038
 8382SOL    HW136779   3.808   3.122   7.668 -0.5883 -1.0028  2.8120
 8382SOL    HW236780   3.675   3.185   7.681  0.3563  0.8520 -0.9396
 8383SOL     OW36781   3.764   4.399  16.786  0.3898 -0.1275  0.0004
 8383SOL    HW136782   3.675   4.400  16.823  0.6476  2.6076  0.5343
 8383SOL    HW236783   3.802   4.320  16.825  0.1213  0.2949  1.1267
 8384SOL     OW36784   3.930   4.253   7.965  0.0960  0.2374 -0.0156
 8384SOL    HW136785   3.971   4.339   7.970  1.2557 -0.3221  0.0057
 8384SOL    HW236786   3.872   4.242   8.040 -1.5216 -1.2268 -1.4646
 8385SOL     OW36787   2.386   2.042   5.464 -0.1767  0.4209 -0.1765
 8385SOL    HW136788   2.420   2.090   5.539  0.1220 -0.8351  0.4973
 8385SOL    HW236789   2.468   2.023   5.417  0.4856 -0.2355  1.2342
 8386SOL     OW36790   1.013   0.426   2.688  0.0678 -0.5812  0.1289
 8386SOL    HW136791   1.057   0.382   2.761  0.2430  0.7110  0.8161
 8386SOL    HW236792   1.086   0.409   2.629 -0.2606  1.2665 -0.8031
 8387SOL     OW36793   0.888   4.717  10.537 -0.9526  0.7900 -0.6470
 8387SOL    HW136794   0.818   4.716  10.602 -1.3053 -0.4330 -1.0464
 8387SOL    HW236795   0.849   0.027  10.464 -0.1546  2.8611  0.2796
 8388SOL     OW36796   0.430   1.898  13.679 -0.2227  0.4756  0.4303
 8388SOL    HW136797   0.468   1.857  13.601  0.0239 -0.9417  1.2946
 8388SOL    HW236798   0.445   1.826  13.741  2.4501  0.6283 -0.0479
 8389SOL     OW36799   2.209   2.725   6.890  0.8286  0.1844  0.2387
 8389SOL    HW136800   2.203   2.637   6.927  1.1304 -0.8996 -2.2782
 8389SOL    HW236801   2.117   2.753   6.882  0.4498 -0.9787  0.6603
 8390SOL     OW36802   0.682   3.188  10.913  0.1508  0.2004 -0.6343
 8390SOL    HW136803   0.636   3.105  10.926 -1.1060  0.7992 -1.1996
 8390SOL    HW236804   0.640   3.250  10.973 -0.3526  1.9074 -2.7247
 8391SOL     OW36805   0.223   0.489   7.733  0.1305 -0.2204  0.2309
 8391SOL    HW136806   0.277   0.419   7.769  0.0870  0.5873  1.8739
 8391SOL    HW236807   0.291   0.557   7.735 -0.1230  0.0852 -1.8406
 8392SOL     OW36808   1.173   3.718   3.152  0.5821  0.1492  0.2989
 8392SOL    HW136809   1.166   3.763   3.236  0.7266  0.6906  0.0176
 8392SOL    HW236810   1.252   3.754   3.112 -0.5546  1.5652 -0.6579
 8393SOL     OW36811   1.298   1.802   9.322 -0.2276 -0.1119  0.1122
 8393SOL    HW136812   1.323   1.843   9.405  0.6803  0.0724 -0.2530
 8393SOL    HW236813   1.365   1.841   9.267 -1.0568  1.0459 -0.0828
 8394SOL     OW36814   1.703   3.613   6.678 -0.0658  0.1690  0.0882
 8394SOL    HW136815   1.719   3.643   6.588 -1.0828  1.2283  0.2636
 8394SOL    HW236816   1.608   3.603   6.670 -0.1840 -0.1675  2.1007
 8395SOL     OW36817   3.352   3.113  16.216 -0.5701 -0.2744 -0.0973
 8395SOL    HW136818   3.409   3.176  16.173 -0.2498 -0.5832 -0.1215
 8395SOL    HW236819   3.337   3.167  16.294 -1.8283 -1.5921  0.5666
 8396SOL     OW36820   3.181   2.168  15.367 -0.3452 -0.0704 -0.0506
 8396SOL    HW136821   3.113   2.116  15.411 -0.1798 -0.0964  0.1741
 8396SOL    HW236822   3.143   2.256  15.369  2.3593  1.0628  1.3083
 8397SOL     OW36823   2.194   1.940   9.688  0.2356 -0.2816  0.2707
 8397SOL    HW136824   2.115   1.970   9.733  2.3154  2.9492  1.8157
 8397SOL    HW236825   2.238   2.017   9.652  2.2644 -1.5827 -0.0394
 8398SOL     OW36826   1.878   1.586   2.489  0.0787 -0.3239 -0.1974
 8398SOL    HW136827   1.940   1.654   2.514 -1.0679  1.4067 -2.1347
 8398SOL    HW236828   1.810   1.590   2.556 -0.7257 -1.5781 -0.9356
 8399SOL     OW36829   0.173   4.376  12.617 -0.0359  0.0897 -0.2337
 8399SOL    HW136830   0.100   4.321  12.589  0.4498 -0.4348 -0.4907
 8399SOL    HW236831   0.142   4.465  12.606  1.2814  0.8699  2.2083
 8400SOL     OW36832   4.503   0.884   2.304  0.2265 -0.7616 -0.3035
 8400SOL    HW136833   4.526   0.889   2.397  0.3117 -1.9609 -0.2531
 8400SOL    HW236834   4.450   0.960   2.281 -0.1682 -1.6592 -2.4013
 8401SOL     OW36835   1.715   1.328  16.214  0.5928  0.1950  0.0101
 8401SOL    HW136836   1.794   1.281  16.188 -0.7951 -1.4799 -1.1719
 8401SOL    HW236837   1.715   1.415  16.174  0.8091 -0.7747 -2.1261
 8402SOL     OW36838   3.125   2.362   2.983 -0.2779  0.5970 -0.2014
 8402SOL    HW136839   3.078   2.389   3.062 -1.5331  0.4945 -0.9149
 8402SOL    HW236840   3.051   2.363   2.923  0.2349 -2.3065 -0.8860
 8403SOL     OW36841   1.529   0.372   9.206  0.4335  0.0003 -0.3094
 8403SOL    HW136842   1.480   0.378   9.123 -0.9612  2.0843  0.6654
 8403SOL    HW236843   1.519   0.462   9.236  0.2415  0.6993 -2.4728
 8404SOL     OW36844   2.774   3.161  10.060  0.1423  0.2862 -0.1610
 8404SOL    HW136845   2.747   3.154  10.152 -0.0289 -1.0648 -0.3180
 8404SOL    HW236846   2.741   3.250  10.054 -0.5612 -0.0354 -0.8998
 8405SOL     OW36847   4.124   2.799   2.489 -0.6059  0.7959  0.1176
 8405SOL    HW136848   4.163   2.735   2.429  0.9312  1.9580 -0.1324
 8405SOL    HW236849   4.165   2.873   2.445 -0.7213  1.3544  0.9567
 8406SOL     OW36850   4.469   0.698   3.115 -0.3141 -0.1619 -0.0902
 8406SOL    HW136851   4.551   0.676   3.069  0.3974  0.0498  1.0909
 8406SOL    HW236852   4.488   0.646   3.193  1.3039 -0.2031 -0.5013
 8407SOL     OW36853   1.708   4.311   6.528  0.0875 -0.4883 -0.1730
 8407SOL    HW136854   1.783   4.269   6.569  0.7255  0.1181 -0.7241
 8407SOL    HW236855   1.654   4.319   6.607 -0.5671 -0.0716 -0.6563
 8408SOL     OW36856   0.468   0.559   8.967 -0.3140 -0.3407  0.2479
 8408SOL    HW136857   0.510   0.572   8.882 -0.0114 -0.9413  0.3086
 8408SOL    HW236858   0.515   0.477   8.978  1.5043  0.4757 -1.2855
 8409SOL     OW36859   3.811   3.484   6.473 -0.0962  0.3295 -0.3355
 8409SOL    HW136860   3.725   3.447   6.494  0.8354  0.4267  3.7320
 8409SOL    HW236861   3.823   3.537   6.552 -1.9531  2.9584 -1.8153
 8410SOL     OW36862   3.878   3.926   8.473  0.3197 -0.0791 -0.3625
 8410SOL    HW136863   3.809   3.860   8.461  1.6166 -1.5003  0.0901
 8410SOL    HW236864   3.949   3.869   8.501 -1.0073 -0.2738  2.6079
 8411SOL     OW36865   1.174   0.580   3.315 -0.0174  0.0006  0.0301
 8411SOL    HW136866   1.098   0.603   3.368  0.8506 -0.3404  1.4305
 8411SOL    HW236867   1.246   0.602   3.374 -0.1974 -0.7866  0.5422
 8412SOL     OW36868   2.706   3.238   5.225  0.0906 -0.0118  0.4862
 8412SOL    HW136869   2.687   3.325   5.192  0.5912  0.4827  1.4967
 8412SOL    HW236870   2.623   3.200   5.197  0.9779  0.2001 -2.3666
 8413SOL     OW36871   0.128   4.521  17.520 -0.2366  0.1521 -0.0492
 8413SOL    HW136872   0.041   4.531  17.480 -0.7285  1.4395  1.3448
 8413SOL    HW236873   0.173   4.467  17.455  0.1037  0.6999 -0.2752
 8414SOL     OW36874   3.485   1.150   9.321  0.4556  0.0732  0.1124
 8414SOL    HW136875   3.472   1.232   9.274 -0.8240 -0.5783 -0.6774
 8414SOL    HW236876   3.578   1.168   9.331  0.3936  0.4479 -0.0073
 8415SOL     OW36877   0.779   2.657   3.292 -0.1339 -0.1824 -0.5212
 8415SOL    HW136878   0.684   2.649   3.305  0.0269  1.7701  1.7486
 8415SOL    HW236879   0.786   2.738   3.241 -1.3000  0.5205  0.4378
 8416SOL     OW36880   4.243   0.722   8.045  0.4015 -0.0330  0.1231
 8416SOL    HW136881   4.208   0.769   7.970 -0.3839 -0.9107 -0.0645
 8416SOL    HW236882   4.210   0.777   8.116 -0.8795  1.2854 -1.5121
 8417SOL     OW36883   4.671   1.377  16.960 -0.0478  0.0854  0.0227
 8417SOL    HW136884   4.693   1.354  17.050 -0.7744 -3.9296 -0.8093
 8417SOL    HW236885   4.576   1.389  16.966  0.1997  2.2420 -0.2915
 8418SOL     OW36886   3.622   4.458   5.637 -0.6404  0.6941  0.7094
 8418SOL    HW136887   3.576   4.427   5.715  0.6588 -1.0359  0.7912
 8418SOL    HW236888   3.705   4.467   5.685 -0.8569 -2.0779  1.6389
 8419SOL     OW36889   1.226   2.507   4.714  0.1597 -0.0415  0.2076
 8419SOL    HW136890   1.256   2.524   4.625 -1.2628 -2.3297 -0.7037
 8419SOL    HW236891   1.262   2.576   4.769 -1.6135 -1.1081  2.7193
 8420SOL     OW36892   2.805   2.757   8.963  0.4788  0.1030  0.3465
 8420SOL    HW136893   2.833   2.805   8.885  0.7276  1.0709  1.0316
 8420SOL    HW236894   2.712   2.737   8.949  0.6572 -0.4351 -0.0674
 8421SOL     OW36895   0.686   4.489   1.382 -0.1210  0.2496  0.2131
 8421SOL    HW136896   0.689   4.416   1.321  1.1077 -0.6909  1.4152
 8421SOL    HW236897   0.641   4.452   1.457  1.8776 -0.4688  1.0427
 8422SOL     OW36898   1.866   0.135   6.845  0.3416  0.0953 -0.1740
 8422SOL    HW136899   1.895   0.136   6.936  0.0399  0.0622 -0.0779
 8422SOL    HW236900   1.781   0.094   6.864  1.5811 -2.2661  0.2169
 8423SOL     OW36901   3.982   2.047   2.756 -0.0808  0.4354 -0.5472
 8423SOL    HW136902   3.894   2.084   2.743 -0.0267  0.4078 -0.9895
 8423SOL    HW236903   4.008   2.114   2.820 -1.3619  0.1471  0.2926
 8424SOL     OW36904   1.989   1.881   5.692  0.1085  0.2375  0.3121
 8424SOL    HW136905   1.985   1.869   5.787  0.1756 -1.9694  0.0344
 8424SOL    HW236906   2.079   1.848   5.687  0.7408  1.4938  2.9290
 8425SOL     OW36907   3.286   3.533  14.541  0.6448 -0.2467 -0.5671
 8425SOL    HW136908   3.291   3.438  14.556  1.1543  0.2047  2.1895
 8425SOL    HW236909   3.193   3.550  14.532  0.2348 -1.1510  1.8903
 8426SOL     OW36910   2.169   0.739   7.891 -0.7233  0.3519  0.1005
 8426SOL    HW136911   2.173   0.676   7.963  0.1446 -1.1249 -1.2479
 8426SOL    HW236912   2.090   0.792   7.904 -1.0257 -0.3984  1.2521
 8427SOL     OW36913   0.202   2.486   5.350  0.3555  0.0303  0.6048
 8427SOL    HW136914   0.292   2.497   5.319  0.0274 -0.7988 -0.6409
 8427SOL    HW236915   0.181   2.393   5.359  0.0565 -0.0936 -1.4284
 8428SOL     OW36916   1.396   2.003   3.064  0.3538 -0.5555  0.1371
 8428SOL    HW136917   1.434   1.920   3.036 -1.6073 -1.4960  0.2091
 8428SOL    HW236918   1.390   2.047   2.979 -1.8134  0.8954  1.0306
 8429SOL     OW36919   3.466   3.586   8.555 -0.5789 -0.3362 -0.6838
 8429SOL    HW136920   3.490   3.505   8.599  1.3824 -0.1042 -1.3190
 8429SOL    HW236921   3.386   3.566   8.507  0.3546 -3.1062 -1.0498
 8430SOL     OW36922   4.313   1.725   7.439  0.0257  0.2081  0.4735
 8430SOL    HW136923   4.252   1.732   7.512  1.7646  0.1954  1.9352
 8430SOL    HW236924   4.374   1.795   7.463  2.6239 -0.5086 -4.1173
 8431SOL     OW36925   1.728   0.343   6.204  0.2304 -0.9019 -0.6622
 8431SOL    HW136926   1.663   0.376   6.143  0.4943  1.5095  0.3579
 8431SOL    HW236927   1.735   0.412   6.269 -1.7226 -0.2381 -1.1693
 8432SOL     OW36928   0.732   0.058   2.319 -0.2838  0.0660  0.5769
 8432SOL    HW136929   0.725   0.152   2.334  0.2224  0.3421 -0.9493
 8432SOL    HW236930   0.819   0.048   2.357  0.1828  0.0723 -0.4955
 8433SOL     OW36931   1.703   3.380   3.015  0.1545 -0.1427 -0.5091
 8433SOL    HW136932   1.727   3.408   2.927  0.3765 -0.4994 -0.5632
 8433SOL    HW236933   1.729   3.459   3.061  0.3261  1.1040 -2.7526
 8434SOL     OW36934   1.892   2.248   2.350  0.2876  0.1524 -0.6146
 8434SOL    HW136935   1.895   2.209   2.263  0.5315 -0.0741 -0.5041
 8434SOL    HW236936   1.798   2.252   2.367  0.2024 -0.1662 -1.0074
 8435SOL     OW36937   2.755   0.092   8.365 -0.4326  0.3727 -0.0285
 8435SOL    HW136938   2.732   0.038   8.290 -0.7713 -1.6430  1.5239
 8435SOL    HW236939   2.756   0.026   8.435  1.4654 -0.3586 -0.7419
 8436SOL     OW36940   1.485   0.436  12.958 -0.7368  0.0691  0.2010
 8436SOL    HW136941   1.526   0.523  12.961 -1.1081  0.1944  1.4380
 8436SOL    HW236942   1.533   0.402  12.882  1.1793 -1.5761  2.1588
 8437SOL     OW36943   0.030   1.258   5.038 -0.3826  0.4561  0.3924
 8437SOL    HW136944   0.039   1.163   5.039  1.0493  0.5948 -0.2027
 8437SOL    HW236945   0.112   1.294   5.006 -0.5002 -0.3645 -0.8208
 8438SOL     OW36946   3.462   3.572   7.123 -0.2426 -0.2782  0.0102
 8438SOL    HW136947   3.467   3.636   7.052  0.3969 -0.6283 -0.2602
 8438SOL    HW236948   3.529   3.619   7.172 -0.9414 -1.5465  2.2006
 8439SOL     OW36949   0.996   0.420  16.318  0.1084  0.0006  0.2238
 8439SOL    HW136950   0.949   0.474  16.381  1.6265  2.9924 -1.2027
 8439SOL    HW236951   0.943   0.416  16.238  1.0660  1.1995 -0.4782
 8440SOL     OW36952   2.560   4.519  14.354  1.2738 -0.0263  0.1357
 8440SOL    HW136953   2.630   4.582  14.371  0.5746  0.7675  0.0567
 8440SOL    HW236954   2.544   4.480  14.440 -0.7933 -0.9305 -0.6555
 8441SOL     OW36955   4.619   1.402   1.770  0.4349  0.1547  0.3645
 8441SOL    HW136956   4.573   1.343   1.830 -0.5259  0.3021 -0.2311
 8441SOL    HW236957   4.710   1.381   1.789  0.7273  1.1207 -0.0221
 8442SOL     OW36958   2.291   1.580   5.330 -0.2653 -0.2662 -0.4376
 8442SOL    HW136959   2.251   1.658   5.368  0.0706  0.3808 -1.4086
 8442SOL    HW236960   2.220   1.554   5.272 -0.9670  1.0856 -0.1843
 8443SOL     OW36961   2.067   3.726   0.569 -0.0769 -0.1398  0.1418
 8443SOL    HW136962   2.128   3.769   0.629 -0.8041  0.8523  0.1631
 8443SOL    HW236963   2.130   3.695   0.504 -1.5496  0.1021 -1.3983
 8444SOL     OW36964   1.564   4.460   3.067  0.5889  0.1367 -0.1278
 8444SOL    HW136965   1.561   4.504   2.982 -1.2030  0.5976  0.1642
 8444SOL    HW236966   1.609   4.379   3.043 -0.4281 -0.8790  1.3810
 8445SOL     OW36967   0.907   2.376   2.409 -0.3331 -0.0031  0.0800
 8445SOL    HW136968   0.912   2.364   2.314  4.8992 -1.8868  0.5986
 8445SOL    HW236969   0.957   2.457   2.418 -0.9159  0.4609 -0.8241
 8446SOL     OW36970   1.344   0.145  16.102 -0.4582 -0.2402 -0.5685
 8446SOL    HW136971   1.265   0.093  16.091 -1.2999  0.8431  0.4090
 8446SOL    HW236972   1.382   0.140  16.014  0.1746  1.1715 -0.3750
 8447SOL     OW36973   1.783   1.231  12.641 -0.2813 -0.4326 -0.2188
 8447SOL    HW136974   1.756   1.316  12.675  0.0038  0.3399 -1.9592
 8447SOL    HW236975   1.866   1.261  12.604  0.9949 -2.3319  1.0516
 8448SOL     OW36976   1.536   1.199   7.911 -0.1065  0.2799 -0.3486
 8448SOL    HW136977   1.472   1.248   7.962 -1.6167 -1.5676 -0.4451
 8448SOL    HW236978   1.491   1.116   7.897  0.0425  0.4073 -1.6022
 8449SOL     OW36979   3.593   0.574  17.119 -0.5299  0.2559 -0.0771
 8449SOL    HW136980   3.544   0.572  17.037  1.8479 -0.3218 -1.4643
 8449SOL    HW236981   3.619   0.482  17.122 -0.1739  0.3297 -0.9251
 8450SOL     OW36982   1.840   2.748   8.948  0.1010  0.2489  0.0706
 8450SOL    HW136983   1.794   2.833   8.950 -0.8069 -0.2499  0.5887
 8450SOL    HW236984   1.765   2.695   8.919 -0.3234 -0.1298  1.8841
 8451SOL     OW36985   2.614   1.789   3.582  0.1446 -0.4658  0.3888
 8451SOL    HW136986   2.613   1.714   3.522 -1.9396 -0.6924  0.7010
 8451SOL    HW236987   2.540   1.755   3.631  1.0342 -1.5440  0.9814
 8452SOL     OW36988   0.095   4.644  15.565  0.3105 -0.4233  0.3734
 8452SOL    HW136989   0.168   4.593  15.531  1.9680  1.4602  1.1058
 8452SOL    HW236990   0.038   4.623  15.492  2.7295  2.0318 -2.2194
 8453SOL     OW36991   2.634   2.657  14.241 -0.1495 -0.1689 -0.2063
 8453SOL    HW136992   2.651   2.698  14.326 -0.1138 -0.0964 -0.2490
 8453SOL    HW236993   2.592   2.734  14.203 -0.1955 -0.7016 -1.2353
 8454SOL     OW36994   2.702   1.498   9.337  0.1430 -0.3298 -0.8283
 8454SOL    HW136995   2.644   1.573   9.327 -0.6293 -0.5059  2.2903
 8454SOL    HW236996   2.729   1.508   9.429 -0.8891 -1.2823 -0.4289
 8455SOL     OW36997   0.533   3.006  14.020 -0.4511  0.2088  0.0272
 8455SOL    HW136998   0.443   3.036  14.031 -0.5126  0.0243  0.0263
 8455SOL    HW236999   0.571   3.074  13.965  0.4305 -0.4627 -0.1893
 8456SOL     OW37000   3.268   1.496   4.356 -0.3445  0.0605 -0.2328
 8456SOL    HW137001   3.282   1.591   4.353 -0.8092  0.1590  0.7478
 8456SOL    HW237002   3.190   1.493   4.411 -0.8016  0.0322 -0.8750
 8457SOL     OW37003   4.464   3.631   0.847 -0.1170  0.0172 -0.1418
 8457SOL    HW137004   4.400   3.634   0.918  1.2784 -2.3791  1.2293
 8457SOL    HW237005   4.456   3.717   0.806  0.3426  1.1196  2.1004
 8458SOL     OW37006   0.724   0.730   7.697  0.0524  0.2131  0.2909
 8458SOL    HW137007   0.663   0.682   7.640 -0.2706  1.2121 -0.2010
 8458SOL    HW237008   0.791   0.750   7.632  0.1900  2.2578  1.0672
 8459SOL     OW37009   1.669   0.833   5.717 -0.5508 -0.6051  0.2751
 8459SOL    HW137010   1.661   0.874   5.802 -1.8371  0.3960 -0.3299
 8459SOL    HW237011   1.751   0.785   5.731  0.1154  1.5638  3.5832
 8460SOL     OW37012   3.254   1.155  17.711  0.1390  0.0814 -0.5199
 8460SOL    HW137013   3.289   1.113   0.039  0.8622  2.0492  0.1935
 8460SOL    HW237014   3.212   1.233  17.748 -0.3907  0.5748 -2.1350
 8461SOL     OW37015   0.992   0.239   7.608 -0.3678 -0.3396 -0.4499
 8461SOL    HW137016   1.015   0.146   7.611  1.5416  0.1795  1.7716
 8461SOL    HW237017   0.901   0.239   7.579 -0.2952  0.4593 -0.6651
 8462SOL     OW37018   2.587   1.582   3.395 -0.0251 -0.2899  0.1630
 8462SOL    HW137019   2.574   1.488   3.405  2.0637 -0.5730  0.1424
 8462SOL    HW237020   2.671   1.586   3.350 -1.7113 -0.9612 -3.0260
 8463SOL     OW37021   1.142   4.442   5.375 -0.2362  0.1578 -0.4537
 8463SOL    HW137022   1.216   4.458   5.434 -0.1329  1.8474 -1.0508
 8463SOL    HW237023   1.174   4.476   5.291 -1.0800  1.2031 -0.3586
 8464SOL     OW37024   3.259   4.694  13.517  0.3653  0.0361  0.2748
 8464SOL    HW137025   3.260   0.016  13.442  0.2440 -0.4559 -0.1191
 8464SOL    HW237026   3.173   4.713  13.553  0.4793  1.2577 -0.1039
 8465SOL     OW37027   1.657   3.254   9.072  0.1574 -0.2794 -0.0928
 8465SOL    HW137028   1.729   3.208   9.115  1.0905  0.4021 -0.8983
 8465SOL    HW237029   1.589   3.188   9.078  0.0030 -0.0777  0.3484
 8466SOL     OW37030   2.348   0.771   9.593 -0.2172  0.5345  0.7218
 8466SOL    HW137031   2.416   0.734   9.649  1.7161  2.0466 -0.6223
 8466SOL    HW237032   2.414   0.798   9.529 -0.1256 -0.4512  0.3828
 8467SOL     OW37033   0.325   1.657   4.673  0.0750 -0.2978 -0.6118
 8467SOL    HW137034   0.323   1.594   4.601 -0.1453 -0.0110 -0.8595
 8467SOL    HW237035   0.263   1.616   4.733 -0.1666  1.6421  0.4780
 8468SOL     OW37036   0.348   3.277   7.783  0.0894  0.2999  0.4176
 8468SOL    HW137037   0.367   3.368   7.804  1.9513  0.3096 -1.3523
 8468SOL    HW237038   0.313   3.277   7.694 -2.3259 -0.8912  1.3582
 8469SOL     OW37039   4.709   4.513   5.988  0.4879 -0.6697  0.3599
 8469SOL    HW137040   4.732   4.432   6.035  0.0870 -1.0351 -0.0733
 8469SOL    HW237041   4.689   4.477   5.902  1.7201 -0.7701  0.1112
 8470SOL     OW37042   2.878   1.938  13.152 -0.7742  0.0171 -0.0996
 8470SOL    HW137043   2.805   1.980  13.196 -2.6709 -0.8526 -2.4295
 8470SOL    HW237044   2.941   1.908  13.217  0.3817  0.9060 -0.8046
 8471SOL     OW37045   3.669   1.087   7.012  0.1793 -0.2408 -0.3860
 8471SOL    HW137046   3.678   1.052   6.923  1.4922 -0.8239 -0.0164
 8471SOL    HW237047   3.602   1.028   7.044  0.4788 -0.4439 -0.1418
 8472SOL     OW37048   0.053   4.644   8.730  0.2708  0.8582 -0.1701
 8472SOL    HW137049   0.116   4.713   8.709  0.7603  0.7605  0.9702
 8472SOL    HW237050   4.720   4.650   8.666 -1.6138  2.7197  2.0671
 8473SOL     OW37051   1.443   4.094   3.630 -0.2566  0.4143  0.6340
 8473SOL    HW137052   1.395   4.176   3.616 -0.2195  0.7038  2.1762
 8473SOL    HW237053   1.534   4.120   3.620 -0.6988  1.2194 -1.2350
 8474SOL     OW37054   3.915   0.366  17.083  0.9216  0.0869  0.0169
 8474SOL    HW137055   3.979   0.359  17.012 -2.0212 -2.6881 -2.4321
 8474SOL    HW237056   3.960   0.389  17.164  0.3196 -0.2311  0.4446
 8475SOL     OW37057   3.544   3.250  12.243 -0.2768 -0.0196 -0.1621
 8475SOL    HW137058   3.451   3.270  12.254  0.1770  1.0179  1.9027
 8475SOL    HW237059   3.571   3.219  12.330 -0.1471  0.3044 -0.0864
 8476SOL     OW37060   0.374   0.180   1.005  0.0483 -0.0675 -0.4183
 8476SOL    HW137061   0.295   0.127   1.006 -0.2988  0.4416 -0.5456
 8476SOL    HW237062   0.429   0.142   0.937  1.0633  0.7712 -0.0698
 8477SOL     OW37063   0.036   1.078   0.399  0.0090 -0.1153 -0.3444
 8477SOL    HW137064   4.687   1.117   0.407  0.6654  1.2621  0.0877
 8477SOL    HW237065   0.037   1.036   0.484 -0.5306  0.8791  0.1567
 8478SOL     OW37066   1.471   2.440   2.777  0.2950  0.1869 -0.4468
 8478SOL    HW137067   1.490   2.516   2.723  0.4625 -1.2458 -2.4283
 8478SOL    HW237068   1.428   2.386   2.709 -0.8182  1.3427 -0.6547
 8479SOL     OW37069   0.266   2.415   1.072  0.2265 -0.1866  0.0880
 8479SOL    HW137070   0.272   2.375   1.159  1.4138 -2.1374 -0.8949
 8479SOL    HW237071   0.349   2.463   1.071  1.4959 -2.4011  0.7321
 8480SOL     OW37072   2.895   3.989   5.244  0.1257 -0.1683  0.4277
 8480SOL    HW137073   2.962   3.939   5.197 -1.5404 -0.6105 -1.4433
 8480SOL    HW237074   2.815   3.938   5.231 -0.6702  1.2871 -0.3629
 8481SOL     OW37075   2.630   3.731   9.353 -0.1491 -0.2484 -0.4905
 8481SOL    HW137076   2.568   3.659   9.353  0.6639 -0.9391 -0.7277
 8481SOL    HW237077   2.622   3.750   9.260 -2.9797  0.9503  0.0078
 8482SOL     OW37078   1.830   2.305   9.626  0.2148  0.1313 -0.2795
 8482SOL    HW137079   1.893   2.319   9.556  1.1325  0.8854  0.7072
 8482SOL    HW237080   1.900   2.284   9.688  1.9683  1.2818 -1.9057
 8483SOL     OW37081   1.448   0.453  15.296  0.7281  0.4458 -0.1334
 8483SOL    HW137082   1.368   0.420  15.338  0.6323 -0.7872 -1.3010
 8483SOL    HW237083   1.398   0.513  15.239  0.2022  1.0493  0.9536
 8484SOL     OW37084   3.625   3.205  13.344 -0.5863 -0.2376  0.3884
 8484SOL    HW137085   3.656   3.125  13.387  1.2036  0.9841  1.3546
 8484SOL    HW237086   3.637   3.179  13.253  0.4340  0.9280  0.2010
 8485SOL     OW37087   3.223   3.304  15.483  0.0298  0.0424 -0.3962
 8485SOL    HW137088   3.284   3.256  15.540 -0.6360 -0.3980 -0.0530
 8485SOL    HW237089   3.250   3.396  15.479 -1.9461  0.5588 -1.5357
 8486SOL     OW37090   3.540   4.182   0.728 -0.1325 -0.2399  0.1442
 8486SOL    HW137091   3.487   4.220   0.658 -0.5322  1.8956  1.6092
 8486SOL    HW237092   3.498   4.213   0.808  0.8404  1.5487 -0.0303
 8487SOL     OW37093   0.410   1.864   5.961 -0.1542 -0.0344  0.0999
 8487SOL    HW137094   0.420   1.780   6.005  2.5351  0.7482  0.9711
 8487SOL    HW237095   0.464   1.844   5.884  2.5054 -0.0914  2.0076
 8488SOL     OW37096   4.128   4.705   6.912  0.1221  0.8209 -0.6171
 8488SOL    HW137097   4.223   4.693   6.902  0.0211 -1.2046  0.9216
 8488SOL    HW237098   4.135   0.038   6.977  0.4332  0.1362  0.1058
 8489SOL     OW37099   1.541   3.938   1.431  0.1208  0.0450  0.3091
 8489SOL    HW137100   1.623   3.975   1.400  1.1808 -2.1424  0.5184
 8489SOL    HW237101   1.560   3.844   1.435  1.5800  0.2806 -1.2313
 8490SOL     OW37102   0.371   1.968   2.730 -0.0075 -0.7491 -0.5685
 8490SOL    HW137103   0.358   1.884   2.775  0.6678  1.3341  3.4150
 8490SOL    HW237104   0.405   2.026   2.797 -0.1703 -0.9565 -0.3049
 8491SOL     OW37105   3.907   2.934   0.066 -0.2691 -0.2123  0.6167
 8491SOL    HW137106   3.818   2.922   0.099 -0.3732  1.4921  0.9739
 8491SOL    HW237107   3.905   2.888  17.732  1.0283 -1.8238  1.4817
 8492SOL     OW37108   2.987   0.450   7.245 -0.3500  0.3558  0.0672
 8492SOL    HW137109   2.987   0.453   7.340  0.2645 -0.7184  0.1027
 8492SOL    HW237110   3.079   0.430   7.230  0.3155  1.5293  2.6040
 8493SOL     OW37111   2.303   0.434  10.645 -0.4153  0.2253  0.2952
 8493SOL    HW137112   2.382   0.385  10.667  0.1397  0.4681 -1.2158
 8493SOL    HW237113   2.240   0.371  10.680  0.9386 -1.8962 -1.0935
 8494SOL     OW37114   2.474   2.094   8.349 -0.4885  0.3332 -0.5425
 8494SOL    HW137115   2.552   2.149   8.342 -0.7131  0.6924 -0.2375
 8494SOL    HW237116   2.502   2.012   8.309 -3.0163 -1.1758  0.7829
 8495SOL     OW37117   0.901   1.274  13.315 -0.1014 -1.0347 -0.6073
 8495SOL    HW137118   0.950   1.220  13.376 -0.1790 -1.7273 -1.1509
 8495SOL    HW237119   0.837   1.207  13.290 -0.5998  0.1784 -2.5755
 8496SOL     OW37120   0.220   2.330  13.520  0.0931  0.0412 -0.7007
 8496SOL    HW137121   0.202   2.243  13.484 -0.7020 -0.2420  0.3686
 8496SOL    HW237122   0.313   2.347  13.509  0.2502  0.0954  0.7631
 8497SOL     OW37123   4.219   2.782   2.744  0.3437 -0.4025 -0.1191
 8497SOL    HW137124   4.159   2.804   2.674 -0.3817  0.1169  0.6637
 8497SOL    HW237125   4.302   2.806   2.703  1.4286 -1.0525  1.6800
 8498SOL     OW37126   0.592   1.203   0.009  0.3028  0.0069  0.4065
 8498SOL    HW137127   0.524   1.194  17.692  1.7065 -1.2274 -0.8402
 8498SOL    HW237128   0.572   1.284   0.055  2.2527  0.6542  0.1437
 8499SOL     OW37129   1.760   4.089   1.395  0.3676 -0.2526 -0.5990
 8499SOL    HW137130   1.759   4.168   1.449 -1.7248  0.7929 -2.1531
 8499SOL    HW237131   1.853   4.070   1.399  0.5442  0.9394  1.0185
 8500SOL     OW37132   3.531   0.127   3.945 -0.3408  0.0934 -0.1672
 8500SOL    HW137133   3.595   0.076   3.895 -0.3004 -2.1952  2.2057
 8500SOL    HW237134   3.580   0.209   3.955  2.7979 -1.8042  0.1194
 8501SOL     OW37135   0.743   1.281   4.512  1.3483  0.5183 -0.1329
 8501SOL    HW137136   0.684   1.297   4.439 -1.1582 -1.3708  1.4771
 8501SOL    HW237137   0.791   1.364   4.515 -1.1715  1.9099  1.8506
 8502SOL     OW37138   2.221   4.477  14.141  0.0397  0.1732  0.0613
 8502SOL    HW137139   2.135   4.505  14.173 -1.2272 -0.7942 -2.4879
 8502SOL    HW237140   2.201   4.445  14.053 -1.6140 -2.4141  1.3683
 8503SOL     OW37141   3.931   1.177  15.290 -0.3905 -0.3933  0.4289
 8503SOL    HW137142   3.955   1.188  15.382  0.7872 -2.3071  0.3439
 8503SOL    HW237143   4.014   1.166  15.243  0.8178  2.4715  1.8730
 8504SOL     OW37144   2.712   4.415   7.075  0.0138 -0.4313  0.6826
 8504SOL    HW137145   2.713   4.386   7.166  2.4894 -0.2456  0.7277
 8504SOL    HW237146   2.624   4.450   7.061 -0.7649 -1.8724  1.8849
 8505SOL     OW37147   0.177   1.397   6.089  0.1291 -0.1198 -0.1272
 8505SOL    HW137148   0.215   1.363   6.171  0.2843 -2.8008 -1.2976
 8505SOL    HW237149   0.164   1.315   6.042  2.7461 -1.4680  1.4663
 8506SOL     OW37150   4.165   4.107  12.499  0.4472 -0.2050 -0.6772
 8506SOL    HW137151   4.215   4.180  12.463  1.5201 -0.8976 -0.6094
 8506SOL    HW237152   4.232   4.075  12.559 -1.8226  1.5075  2.7283
 8507SOL     OW37153   4.082   4.248  11.925 -0.1619 -0.1076  0.3524
 8507SOL    HW137154   3.996   4.241  11.968  0.0694 -2.4370  0.4618
 8507SOL    HW237155   4.138   4.190  11.978  1.9607  0.9874 -0.7157
 8508SOL     OW37156   1.269   0.490  12.273  0.0394  0.5250 -0.0282
 8508SOL    HW137157   1.337   0.506  12.338  1.2534  1.4791 -1.5077
 8508SOL    HW237158   1.275   0.578  12.234 -0.8088  0.9889  0.8759
 8509SOL     OW37159   2.765   2.583   9.269 -0.0492  0.0281 -0.4188
 8509SOL    HW137160   2.792   2.563   9.359 -0.0585  1.1961 -0.1506
 8509SOL    HW237161   2.745   2.676   9.280  1.2459  0.4422 -1.6781
 8510SOL     OW37162   1.307   0.630  15.142  0.0653  0.0367 -0.1350
 8510SOL    HW137163   1.332   0.699  15.079  0.1146 -0.5744 -0.7870
 8510SOL    HW237164   1.215   0.654  15.141  0.0376 -0.0700  1.5447
 8511SOL     OW37165   3.867   2.726  13.953 -0.4467 -0.2370 -0.0325
 8511SOL    HW137166   3.820   2.799  13.913 -2.4934 -1.6620 -0.2624
 8511SOL    HW237167   3.943   2.727  13.895 -0.3813 -1.1815  0.0435
 8512SOL     OW37168   2.983   0.174   9.165 -0.0853 -0.3864  0.0425
 8512SOL    HW137169   2.988   0.263   9.130  2.2119 -0.3906  0.3433
 8512SOL    HW237170   3.002   0.121   9.088 -0.6835  1.8285 -1.5995
 8513SOL     OW37171   2.848   1.234   4.206  0.4605  0.0504 -0.4232
 8513SOL    HW137172   2.936   1.223   4.243  0.1915 -1.0376 -0.1072
 8513SOL    HW237173   2.865   1.214   4.114  1.5429  0.4964 -0.3259
 8514SOL     OW37174   3.752   3.160   3.656 -0.2319 -0.2323  0.1223
 8514SOL    HW137175   3.777   3.224   3.590  1.1030 -0.9338 -0.0416
 8514SOL    HW237176   3.679   3.204   3.700 -0.5175  0.8453 -1.4139
 8515SOL     OW37177   1.980   4.393   2.908  0.5684 -0.1422  0.9233
 8515SOL    HW137178   1.997   4.487   2.912  1.7628 -0.3624  0.9702
 8515SOL    HW237179   2.067   4.355   2.907  0.3217 -0.7153  1.3863
 8516SOL     OW37180   4.408   3.955   4.936 -0.2392 -0.1415  0.3450
 8516SOL    HW137181   4.357   3.882   4.970  0.4906 -1.2370 -0.8839
 8516SOL    HW237182   4.411   3.927   4.845  1.2286 -0.7441  0.5726
 8517SOL     OW37183   4.292   0.989   6.558  1.0525  0.0311 -0.2976
 8517SOL    HW137184   4.228   1.027   6.498  0.5369 -0.1197  0.1462
 8517SOL    HW237185   4.265   0.903   6.524 -2.3620  0.6883  0.7101
 8518SOL     OW37186   0.151   1.347  14.993 -0.1496 -0.1658  0.0866
 8518SOL    HW137187   0.166   1.426  14.942 -0.3488  1.0627  1.9407
 8518SOL    HW237188   0.242   1.324  15.014 -0.6834 -0.9622  1.5437
 8519SOL     OW37189   0.480   1.568   7.344  0.2122  0.2147  0.2835
 8519SOL    HW137190   0.511   1.653   7.315  2.3340 -0.4570  0.5243
 8519SOL    HW237191   0.532   1.499   7.302 -0.7592 -0.5511  0.3341
 8520SOL     OW37192   2.190   2.867   8.744  0.2597 -0.0242 -0.8944
 8520SOL    HW137193   2.275   2.838   8.777  0.5647 -1.2976 -2.7796
 8520SOL    HW237194   2.211   2.958   8.723 -2.1791  0.9609  0.8884
 8521SOL     OW37195   2.806   2.929   1.612  0.2265 -0.1607 -0.3071
 8521SOL    HW137196   2.743   2.865   1.645  0.1676  1.2845  2.4195
 8521SOL    HW237197   2.753   3.008   1.606 -0.7148 -0.8951 -1.6176
 8522SOL     OW37198   3.900   2.015   1.455  0.8952  0.3011  0.1511
 8522SOL    HW137199   3.995   2.027   1.462  1.3241 -2.0776 -1.1687
 8522SOL    HW237200   3.871   2.087   1.399 -3.1757 -0.4526  1.3368
 8523SOL     OW37201   1.167   1.897   8.886  0.0556 -0.1488 -0.3334
 8523SOL    HW137202   1.129   1.864   8.967 -0.9566  0.8980 -0.3778
 8523SOL    HW237203   1.217   1.971   8.922 -0.4694 -0.4879  1.1124
 8524SOL     OW37204   3.444   3.773   4.323  0.6637  0.1545  0.3694
 8524SOL    HW137205   3.480   3.688   4.296  0.4858 -0.0785  0.8590
 8524SOL    HW237206   3.509   3.810   4.382  1.2822 -1.7446  0.8926
 8525SOL     OW37207   3.880   2.416   7.284  0.0493 -0.2909  0.0435
 8525SOL    HW137208   3.841   2.419   7.197  2.3784 -0.6234 -1.0103
 8525SOL    HW237209   3.810   2.386   7.342  0.4320 -0.5037  0.4003
 8526SOL     OW37210   0.266   2.805   7.747  0.0897 -0.7700 -0.3940
 8526SOL    HW137211   0.308   2.807   7.661  2.0414 -2.0845  0.5265
 8526SOL    HW237212   0.326   2.756   7.804  0.8235  0.6314  0.0399
 8527SOL     OW37213   3.492   1.693  12.299  0.0642 -0.0217 -0.4651
 8527SOL    HW137214   3.510   1.724  12.388 -1.4080  0.9526 -0.5087
 8527SOL    HW237215   3.475   1.601  12.319  2.0563 -0.1827  0.5301
 8528SOL     OW37216   0.089   1.381  12.108  0.1063  0.0791  0.4737
 8528SOL    HW137217   0.115   1.290  12.124  1.0791  0.3569  0.4707
 8528SOL    HW237218   0.050   1.413  12.189 -2.8004 -0.6003 -0.6413
 8529SOL     OW37219   0.919   0.508   8.845 -0.1436  0.1002  0.1950
 8529SOL    HW137220   0.847   0.471   8.793  0.4603 -1.0737  0.2139
 8529SOL    HW237221   0.966   0.545   8.771 -0.5725  1.3073  0.5190
 8530SOL     OW37222   2.847   0.997   6.996 -0.7194 -0.6969 -0.0881
 8530SOL    HW137223   2.819   1.046   6.918 -1.1839 -0.3892  0.2716
 8530SOL    HW237224   2.810   1.054   7.063 -0.7192 -0.2782 -0.4420
 8531SOL     OW37225   3.000   3.656   2.412 -0.0080  0.0327 -0.5796
 8531SOL    HW137226   2.949   3.673   2.333  2.0907 -0.9149 -2.1431
 8531SOL    HW237227   2.970   3.568   2.432  1.3248 -0.2960  0.0135
 8532SOL     OW37228   1.047   0.783   3.519 -0.1462 -0.0601  0.3490
 8532SOL    HW137229   1.013   0.839   3.449 -0.0793 -0.0785  0.3011
 8532SOL    HW237230   0.984   0.790   3.590  0.1100  1.6041  0.3925
 8533SOL     OW37231   1.101   1.224  12.315 -0.3126 -0.4430 -0.3999
 8533SOL    HW137232   1.049   1.166  12.259 -0.8158  0.4475 -0.8611
 8533SOL    HW237233   1.187   1.181  12.323 -0.9466 -1.5357  0.4675
 8534SOL     OW37234   2.235   1.568  10.935  0.1640 -0.0205 -0.1234
 8534SOL    HW137235   2.142   1.568  10.913 -0.1134 -1.5288  1.0586
 8534SOL    HW237236   2.278   1.604  10.857 -0.7151  1.5367  0.1284
 8535SOL     OW37237   2.949   3.833   9.489 -0.2834 -0.2286  0.1408
 8535SOL    HW137238   3.014   3.763   9.492  1.2321  1.1922 -0.1971
 8535SOL    HW237239   3.003   3.904   9.455  1.4836 -2.0896 -0.9236
 8536SOL     OW37240   3.508   0.677   4.290 -0.1248 -0.5142 -0.3063
 8536SOL    HW137241   3.439   0.725   4.336 -0.3063 -0.2912 -0.8112
 8536SOL    HW237242   3.517   0.598   4.342 -0.9222 -1.1776 -1.1659
 8537SOL     OW37243   4.542   0.901   5.760 -0.0167  1.0636 -0.3134
 8537SOL    HW137244   4.568   0.993   5.766 -0.2992  1.1092  0.2010
 8537SOL    HW237245   4.620   0.880   5.708 -0.4853 -0.0455 -0.5676
 8538SOL     OW37246   2.614   3.051   6.504 -0.6449 -0.8737 -0.2161
 8538SOL    HW137247   2.624   2.978   6.566  0.3667  0.0933  0.7697
 8538SOL    HW237248   2.703   3.087   6.504 -1.1075  0.2664 -1.1626
 8539SOL     OW37249   0.714   2.417   9.849  0.3448  0.1129 -0.1793
 8539SOL    HW137250   0.733   2.505   9.814 -1.5748  0.7235  0.2894
 8539SOL    HW237251   0.795   2.370   9.829  0.5425 -0.4412  2.0182
 8540SOL     OW37252   1.428   4.736   3.934 -0.2406 -0.2709  0.3102
 8540SOL    HW137253   1.469   4.709   4.016 -1.5672  0.3104  1.1635
 8540SOL    HW237254   1.348   4.683   3.927 -0.2120 -0.4421  1.3421
 8541SOL     OW37255   0.681   2.832  17.648  0.1902 -0.4677 -0.4975
 8541SOL    HW137256   0.697   2.925  17.662  1.1512 -0.5716 -0.9084
 8541SOL    HW237257   0.654   2.846  17.558 -1.9061  0.2363  0.2367
 8542SOL     OW37258   2.535   2.231   7.271 -0.3239 -0.3887 -0.3377
 8542SOL    HW137259   2.561   2.184   7.350  1.2615  0.7491 -0.1750
 8542SOL    HW237260   2.625   2.250   7.245 -0.9970  1.8982 -1.0194
 8543SOL     OW37261   4.369   0.643   2.187 -0.0756 -0.6499  0.0195
 8543SOL    HW137262   4.352   0.649   2.093 -3.2875  1.8888  0.7767
 8543SOL    HW237263   4.429   0.716   2.201 -1.3471 -0.1104  2.7387
 8544SOL     OW37264   0.922   2.651  17.514 -0.0493  0.3856  0.0076
 8544SOL    HW137265   0.876   2.571  17.540 -0.6022  0.6939 -0.0099
 8544SOL    HW237266   0.920   2.691  17.601 -0.3234 -0.1842  0.2637
 8545SOL     OW37267   3.013   3.768   7.032  0.1051 -0.0384 -0.6154
 8545SOL    HW137268   3.057   3.684   7.042  2.3908  1.3410  0.8110
 8545SOL    HW237269   3.001   3.778   7.126 -0.3596 -1.9712 -0.4861
 8546SOL     OW37270   0.416   1.324   2.409  0.2437 -0.4850  0.2613
 8546SOL    HW137271   0.488   1.386   2.419 -1.4089  1.2722  1.0986
 8546SOL    HW237272   0.344   1.385   2.420  1.6677  0.8680  1.9954
 8547SOL     OW37273   4.641   4.061   0.566 -0.3962  0.1574  0.1661
 8547SOL    HW137274   4.634   4.094   0.476  1.7337 -0.3618 -0.1887
 8547SOL    HW237275   4.569   4.117   0.596 -0.3818 -0.3092  1.0695
 8548SOL     OW37276   2.018   4.097   8.823  0.1075 -0.0305  0.3970
 8548SOL    HW137277   2.016   4.170   8.885  1.9779 -0.8153  1.3944
 8548SOL    HW237278   1.926   4.093   8.797  0.3768  0.3211 -0.5985
 8549SOL     OW37279   0.237   0.031   2.734 -0.1177  0.1121  0.5561
 8549SOL    HW137280   0.166   0.072   2.685 -0.7535 -1.1875  0.4201
 8549SOL    HW237281   0.310   0.028   2.672 -1.0995 -0.6860 -0.5593
 8550SOL     OW37282   1.566   2.736   2.896 -0.4381  0.2432  0.0882
 8550SOL    HW137283   1.513   2.725   2.975 -1.7109 -1.9417 -1.0753
 8550SOL    HW237284   1.634   2.674   2.921 -0.3487 -0.2168 -1.2549
 8551SOL     OW37285   1.036   1.670   5.732  0.2629  0.1250  0.0517
 8551SOL    HW137286   1.065   1.690   5.821 -0.8690 -1.1635  0.7016
 8551SOL    HW237287   1.104   1.608   5.706 -0.4915 -1.4441  1.8578
 8552SOL     OW37288   0.761   4.704   1.241  0.3212 -0.7557  0.1349
 8552SOL    HW137289   0.685   0.024   1.238  0.3046 -0.8809 -2.1193
 8552SOL    HW237290   0.733   4.645   1.310 -2.0296  0.0734 -0.1140
 8553SOL     OW37291   4.624   4.248   8.108  0.3133 -0.1242  0.1829
 8553SOL    HW137292   4.547   4.285   8.150  1.1767  1.7796  0.0901
 8553SOL    HW237293   4.584   4.161   8.103  0.5570 -0.1511 -1.3617
 8554SOL     OW37294   1.926   2.034   2.181 -0.1657  0.1520 -0.2332
 8554SOL    HW137295   1.924   2.016   2.087  2.0105  2.0821 -0.6605
 8554SOL    HW237296   1.844   1.992   2.208 -0.6249 -0.0408 -1.9185
 8555SOL     OW37297   4.556   3.709   7.745 -0.2822 -0.4626 -0.1293
 8555SOL    HW137298   4.503   3.640   7.705  1.4910 -1.1507 -1.2994
 8555SOL    HW237299   4.488   3.777   7.750  0.4542  0.2684 -0.0887
 8556SOL     OW37300   3.242   3.124   8.471  0.1621  0.0722  0.8404
 8556SOL    HW137301   3.323   3.126   8.420 -1.6613 -0.7392 -2.0890
 8556SOL    HW237302   3.268   3.056   8.532  0.3743  0.2995  1.0019
 8557SOL     OW37303   3.944   0.873   1.687 -0.0283 -0.2756  0.2174
 8557SOL    HW137304   3.851   0.848   1.682  0.6109 -2.7271  0.6287
 8557SOL    HW237305   3.960   0.905   1.598 -1.8525  0.5177  0.1705
 8558SOL     OW37306   2.836   0.369  14.506 -0.3138 -0.3101 -0.0973
 8558SOL    HW137307   2.755   0.350  14.553 -0.5114 -0.6993 -0.5888
 8558SOL    HW237308   2.807   0.371  14.414  1.1330  0.7833 -0.5303
 8559SOL     OW37309   2.888   4.677   2.671 -0.2984 -0.0278  0.2008
 8559SOL    HW137310   2.897   4.653   2.579  1.7527 -2.4892  1.0491
 8559SOL    HW237311   2.800   4.715   2.670  0.3033  1.3586  0.2013
 8560SOL     OW37312   3.898   0.867   4.723  0.5872 -0.1414  0.3008
 8560SOL    HW137313   3.895   0.772   4.740  2.2780 -0.5445 -1.6095
 8560SOL    HW237314   3.884   0.866   4.629 -0.2837 -0.0134  0.4322
 8561SOL     OW37315   4.176   3.704   9.548  0.2002 -0.9696 -0.5825
 8561SOL    HW137316   4.252   3.647   9.542 -0.3219 -1.4276 -2.8649
 8561SOL    HW237317   4.224   3.780   9.579 -1.4188  0.3976 -1.3694
 8562SOL     OW37318   3.004   0.875   2.293  0.1660 -0.4049  0.0231
 8562SOL    HW137319   3.008   0.788   2.333  1.1829 -0.7967 -0.9249
 8562SOL    HW237320   2.990   0.858   2.200 -1.0002 -1.0858  0.3217
 8563SOL     OW37321   1.097   2.333   5.702  0.1786 -0.5077 -0.2519
 8563SOL    HW137322   1.113   2.253   5.653 -0.8113  0.3990 -2.0422
 8563SOL    HW237323   1.179   2.384   5.695 -0.2037  0.0657 -0.5616
 8564SOL     OW37324   2.019   2.135   3.758 -0.0547 -0.8105 -0.1213
 8564SOL    HW137325   2.096   2.092   3.795  0.0531  0.0591  0.6833
 8564SOL    HW237326   1.950   2.070   3.768  1.1382 -1.9306  0.8183
 8565SOL     OW37327   3.300   1.946  10.857  0.0388 -0.0120  0.1202
 8565SOL    HW137328   3.352   1.868  10.876 -0.8350 -0.3431  1.1713
 8565SOL    HW237329   3.349   2.009  10.910 -0.9936  0.4379  0.5431
 8566SOL     OW37330   0.234   0.757   8.815 -0.7611  0.1908 -0.2737
 8566SOL    HW137331   0.285   0.811   8.875 -1.7842 -1.1175  1.7594
 8566SOL    HW237332   0.152   0.739   8.861 -0.0582  1.4825  1.4947
 8567SOL     OW37333   4.455   3.795   2.466  0.5284  0.3935  0.9487
 8567SOL    HW137334   4.444   3.744   2.547 -0.7795 -0.2212  0.3924
 8567SOL    HW237335   4.375   3.771   2.419 -0.2313 -0.6053  2.7231
 8568SOL     OW37336   4.521   2.902   6.585  0.2378  0.7678 -0.6041
 8568SOL    HW137337   4.571   2.937   6.659 -1.4034 -0.8983  1.3091
 8568SOL    HW237338   4.436   2.910   6.629  1.6010  0.8409  2.0126
 8569SOL     OW37339   3.694   3.303   6.847  0.2827 -0.3106  0.9144
 8569SOL    HW137340   3.712   3.387   6.806 -0.8888  0.0463  1.1518
 8569SOL    HW237341   3.741   3.245   6.787 -0.8600 -1.0503  0.7347
 8570SOL     OW37342   0.681   1.152   5.114  0.4036  0.0494 -0.2933
 8570SOL    HW137343   0.745   1.091   5.078  2.4642  2.0288  0.0059
 8570SOL    HW237344   0.731   1.233   5.130  0.6721  0.0941 -1.3695
 8571SOL     OW37345   0.794   0.188   9.354 -0.1359  0.1697 -0.4534
 8571SOL    HW137346   0.837   0.263   9.396 -1.0502  0.8351 -0.6971
 8571SOL    HW237347   0.735   0.163   9.425 -2.1201  3.1009 -1.0618
 8572SOL     OW37348   3.437   3.897   6.416  0.1838 -0.1607  0.6401
 8572SOL    HW137349   3.456   3.894   6.322 -1.3779  3.9715  0.2214
 8572SOL    HW237350   3.447   3.989   6.439  0.7053  0.6587 -2.9058
 8573SOL     OW37351   2.805   3.924   3.794 -0.4179  0.0015 -0.5056
 8573SOL    HW137352   2.837   3.896   3.708 -2.4076 -2.0369 -0.5676
 8573SOL    HW237353   2.714   3.897   3.783 -0.1034 -1.3825  0.3686
 8574SOL     OW37354   0.028   2.963   4.169  0.8277  0.0769 -0.1815
 8574SOL    HW137355   0.087   2.995   4.237 -1.1434  1.4950  0.8546
 8574SOL    HW237356   4.707   2.914   4.225  0.8994  0.1648 -0.0276
 8575SOL     OW37357   2.950   3.566   8.616  0.0250 -0.1002  0.2567
 8575SOL    HW137358   2.863   3.605   8.611  0.1912  0.2674  0.2888
 8575SOL    HW237359   2.933   3.471   8.623  2.8181 -0.8444 -3.5888
 8576SOL     OW37360   0.609   1.779   6.716  0.2234 -0.2662  0.0658
 8576SOL    HW137361   0.681   1.836   6.743  0.2197 -0.4671  0.5011
 8576SOL    HW237362   0.609   1.795   6.622  0.4403 -4.9802 -0.7498
 8577SOL     OW37363   3.562   0.146   7.148  0.1530  0.1418  0.0603
 8577SOL    HW137364   3.586   0.216   7.088  0.1952 -0.7129 -0.9084
 8577SOL    HW237365   3.590   0.063   7.108 -1.7724 -0.8013  0.6565
 8578SOL     OW37366   2.649   0.953   3.249  0.2614  0.0242  0.2445
 8578SOL    HW137367   2.570   0.901   3.256  0.8763 -1.3823 -3.1142
 8578SOL    HW237368   2.649   0.951   3.153 -2.2752 -2.4773  0.2883
 8579SOL     OW37369   4.298   2.161   5.151  0.6176  0.3225 -0.3006
 8579SOL    HW137370   4.270   2.250   5.129 -2.3139 -0.8445 -1.2171
 8579SOL    HW237371   4.325   2.168   5.243  1.3077  2.8254 -0.6695
 8580SOL     OW37372   2.771   1.441   8.531  0.1738 -0.0658  0.3802
 8580SOL    HW137373   2.779   1.363   8.585  1.5140 -1.1268 -1.3675
 8580SOL    HW237374   2.857   1.480   8.546  1.9123 -3.4331 -0.8154
 8581SOL     OW37375   1.792   3.787   1.604 -0.4576 -0.3781 -0.0426
 8581SOL    HW137376   1.776   3.842   1.528  3.0111 -2.4387 -2.2483
 8581SOL    HW237377   1.810   3.705   1.559 -0.4346  0.4739 -1.5798
 8582SOL     OW37378   4.715   0.196   7.543  0.1618 -0.2520 -0.2463
 8582SOL    HW137379   4.661   0.204   7.621  0.0098 -0.0451 -0.3735
 8582SOL    HW237380   0.011   0.284   7.530  1.0675 -0.5381  0.1573
 8583SOL     OW37381   0.502   1.956   6.510  0.4879 -0.0788 -0.3317
 8583SOL    HW137382   0.502   1.901   6.431 -3.0817 -1.3986  0.6256
 8583SOL    HW237383   0.410   1.980   6.498  0.2918 -0.7793 -0.2339
 8584SOL     OW37384   1.762   4.420   8.363  0.0190  0.0940 -0.7557
 8584SOL    HW137385   1.834   4.472   8.327  2.3739 -2.6485  0.0143
 8584SOL    HW237386   1.692   4.480   8.338  0.3293  0.0484 -1.7461
 8585SOL     OW37387   2.841   2.804  16.135  0.1884  0.1054  0.0835
 8585SOL    HW137388   2.933   2.783  16.122 -0.2652 -3.0097  1.7277
 8585SOL    HW237389   2.822   2.868  16.066 -0.6604  1.4363  1.5583
 8586SOL     OW37390   4.437   4.573   4.794 -0.6600 -0.3900  0.0207
 8586SOL    HW137391   4.490   4.507   4.749 -0.4363 -1.4876  1.9046
 8586SOL    HW237392   4.434   4.531   4.880 -1.9016 -1.4905 -0.5572
 8587SOL     OW37393   1.717   4.199   1.141  0.4343  0.4267  0.5926
 8587SOL    HW137394   1.709   4.294   1.131 -0.5447  0.2850  0.0634
 8587SOL    HW237395   1.718   4.195   1.237  0.2841 -0.3012  0.5646
 8588SOL     OW37396   4.505   1.850   4.587  0.4855  0.4570 -0.4246
 8588SOL    HW137397   4.434   1.787   4.599 -0.0670  0.8668 -1.6142
 8588SOL    HW237398   4.573   1.818   4.647  0.0973 -0.5843 -0.5391
 8589SOL     OW37399   2.123   3.396   8.939  0.8080  0.4555  0.3413
 8589SOL    HW137400   2.218   3.389   8.927  0.5854 -2.8023  0.2500
 8589SOL    HW237401   2.095   3.458   8.872  0.7484 -0.0676 -0.1271
 8590SOL     OW37402   0.312   1.497   3.625 -0.2630 -0.4337 -0.0512
 8590SOL    HW137403   0.373   1.425   3.610 -0.3841 -1.0285  2.3022
 8590SOL    HW237404   0.248   1.462   3.687  1.8353  0.4401  2.5692
 8591SOL     OW37405   1.755   1.076   6.517 -0.1528 -0.7205 -0.0712
 8591SOL    HW137406   1.712   1.065   6.602 -1.3143  1.8714 -0.3254
 8591SOL    HW237407   1.844   1.102   6.539 -0.0857  0.5116 -1.7169
 8592SOL     OW37408   0.119   2.955   2.202  0.3100 -0.3725 -0.1678
 8592SOL    HW137409   0.196   2.904   2.176 -1.2141 -1.4855 -2.4527
 8592SOL    HW237410   0.062   2.948   2.126 -1.4521 -2.4239  1.3353
 8593SOL     OW37411   3.893   3.292   8.491 -0.0109 -0.4754  0.1868
 8593SOL    HW137412   3.908   3.356   8.560 -0.3166 -0.3218  0.1116
 8593SOL    HW237413   3.975   3.242   8.491  1.1304  1.4050 -1.7385
 8594SOL     OW37414   3.514   4.677  14.692  0.2603  0.4275 -0.0565
 8594SOL    HW137415   3.602   4.708  14.668  1.2215 -0.2871  2.5993
 8594SOL    HW237416   3.492   4.628  14.612 -1.1242 -0.0486  0.6263
 8595SOL     OW37417   3.682   1.027   1.057 -0.0249  0.3326  0.0288
 8595SOL    HW137418   3.656   1.054   0.969  1.5136  1.1844 -0.1771
 8595SOL    HW237419   3.699   1.115   1.091  3.4974 -0.1018 -0.6007
 8596SOL     OW37420   4.321   1.294   6.131 -0.3826 -0.5477 -0.4342
 8596SOL    HW137421   4.341   1.365   6.193 -3.3510 -2.7139  3.0170
 8596SOL    HW237422   4.393   1.238   6.157 -0.3069  0.6141  1.8399
 8597SOL     OW37423   2.842   1.548   6.023 -0.3311 -0.0353 -0.0689
 8597SOL    HW137424   2.904   1.590   5.964  0.9894 -1.6986  0.1160
 8597SOL    HW237425   2.815   1.627   6.070 -1.1985 -1.7643  2.3653
 8598SOL     OW37426   4.629   1.327  10.190 -0.0666  0.0545 -0.2120
 8598SOL    HW137427   4.594   1.252  10.142 -2.4493  1.4877 -0.7137
 8598SOL    HW237428   4.705   1.288  10.234 -0.8048  1.0420  1.9193
 8599SOL     OW37429   0.569   2.623   4.542 -0.6737 -0.3788  0.2303
 8599SOL    HW137430   0.609   2.555   4.487  0.1726  1.5661 -1.5252
 8599SOL    HW237431   0.605   2.601   4.628 -0.3992 -0.3738  0.1160
 8600SOL     OW37432   1.453   0.256   8.984 -0.1721  0.1985 -0.6827
 8600SOL    HW137433   1.507   0.297   8.917 -0.9955 -2.6376 -3.0791
 8600SOL    HW237434   1.492   0.171   9.007 -0.9291  0.2840  0.9672
 8601SOL     OW37435   4.027   1.674   3.605  0.0045 -0.0369  0.0700
 8601SOL    HW137436   4.069   1.713   3.682 -1.3883 -2.4871  2.0669
 8601SOL    HW237437   3.935   1.700   3.608  0.4558  1.7414 -1.5953
 8602SOL     OW37438   3.828   3.840   4.390 -0.5330 -0.3774 -0.2277
 8602SOL    HW137439   3.754   3.901   4.381 -0.6340 -0.6913 -1.4203
 8602SOL    HW237440   3.908   3.893   4.399  0.6170 -1.9371 -1.3191
 8603SOL     OW37441   1.309   4.491   5.157 -0.2275  0.0777  0.7667
 8603SOL    HW137442   1.390   4.442   5.164  0.2706  0.4300 -2.3853
 8603SOL    HW237443   1.346   4.580   5.154 -0.6731  0.1338 -2.9910
 8604SOL     OW37444   0.214   1.331   8.771 -0.1084 -0.3951  0.0698
 8604SOL    HW137445   0.135   1.291   8.736 -0.0839 -0.8176  0.5038
 8604SOL    HW237446   0.257   1.256   8.811  1.5943  1.2210  1.2951
 8605SOL     OW37447   1.525   0.162   6.637  0.6366 -0.7455 -0.2049
 8605SOL    HW137448   1.618   0.181   6.640  0.1525  1.4729  0.8865
 8605SOL    HW237449   1.537   0.073   6.668 -0.0630 -0.7827 -0.0419
 8606SOL     OW37450   2.128   4.028   9.183 -0.1904 -0.0884 -0.1007
 8606SOL    HW137451   2.165   3.987   9.260  1.2184 -0.0872 -0.7749
 8606SOL    HW237452   2.036   4.030   9.210  0.1506  0.4518  1.0163
 8607SOL     OW37453   1.333   2.715   7.260 -0.2937 -0.0365 -0.5688
 8607SOL    HW137454   1.377   2.770   7.325  0.4901  1.3620 -2.2911
 8607SOL    HW237455   1.412   2.671   7.227  0.5385  0.3293  0.9255
 8608SOL     OW37456   2.961   2.276   5.336  0.4271 -0.0656  0.4463
 8608SOL    HW137457   2.979   2.366   5.309 -1.0170 -0.0969 -0.5707
 8608SOL    HW237458   2.866   2.283   5.346  0.4097 -0.8136  0.8067
 8609SOL     OW37459   2.457   3.914   8.138  0.5006 -0.5653 -0.0607
 8609SOL    HW137460   2.458   3.928   8.233 -2.7014  4.7662 -0.8321
 8609SOL    HW237461   2.547   3.899   8.111  0.6963  0.2711  0.1649
 8610SOL     OW37462   0.179   0.880   7.030 -0.2619  0.0654  0.3178
 8610SOL    HW137463   0.125   0.856   7.105  2.1427 -0.3717  1.9137
 8610SOL    HW237464   0.234   0.802   7.024 -1.0290 -0.4038 -0.6176
 8611SOL     OW37465   0.863   3.387  16.165  0.0331  0.3261  0.2644
 8611SOL    HW137466   0.894   3.445  16.235 -0.1148  1.4184 -0.5789
 8611SOL    HW237467   0.936   3.387  16.103  1.8751 -1.3932  2.4037
 8612SOL     OW37468   0.173   3.407   8.686  0.1670 -0.1226 -0.1352
 8612SOL    HW137469   0.223   3.391   8.766  0.1356 -1.7999 -0.4519
 8612SOL    HW237470   0.250   3.406   8.629  0.7904 -1.3798  0.7329
 8613SOL     OW37471   1.301   1.465   3.841  0.4885  0.1284 -0.2171
 8613SOL    HW137472   1.249   1.492   3.765  2.0983 -1.8809 -2.0204
 8613SOL    HW237473   1.227   1.446   3.899  1.7715 -0.8983  1.0494
 8614SOL     OW37474   2.128   1.365   7.545  0.3274  0.0313  0.5111
 8614SOL    HW137475   2.191   1.431   7.575 -0.7459  1.2825  0.0361
 8614SOL    HW237476   2.059   1.428   7.522  1.5921  1.4156  0.4726
 8615SOL     OW37477   2.750   0.022   2.153  0.8161  0.1961 -0.1525
 8615SOL    HW137478   2.668   0.053   2.189  0.8526  0.3359 -0.1920
 8615SOL    HW237479   2.723   4.673   2.121  3.1851 -0.5268 -0.2332
 8616SOL     OW37480   3.168   4.175   8.447  1.0039  0.3319  0.7923
 8616SOL    HW137481   3.214   4.164   8.530  0.2712 -0.3815  1.1052
 8616SOL    HW237482   3.113   4.250   8.470 -1.1576 -0.8535 -0.4693
 8617SOL     OW37483   1.246   4.557   8.415  0.1666  0.0405 -0.7088
 8617SOL    HW137484   1.256   4.640   8.368 -1.8800  1.8456  2.0778
 8617SOL    HW237485   1.182   4.516   8.356 -0.8040 -2.5934  2.1792
 8618SOL     OW37486   1.423   3.276  17.687 -0.3336 -0.3298  0.3795
 8618SOL    HW137487   1.444   3.214   0.007 -1.6688 -0.3072  0.8108
 8618SOL    HW237488   1.514   3.289  17.661 -0.2112 -0.7745  0.5762
 8619SOL     OW37489   0.539   2.298   4.313  0.2586 -0.1380 -0.3254
 8619SOL    HW137490   0.594   2.221   4.328  0.2409 -0.0855  0.0089
 8619SOL    HW237491   0.488   2.301   4.394 -0.7306 -4.0149 -0.8404
 8620SOL     OW37492   4.192   2.520   3.138  0.5180 -0.0238  0.5267
 8620SOL    HW137493   4.109   2.485   3.107  1.0981 -2.4189  1.6637
 8620SOL    HW237494   4.206   2.463   3.214 -2.2215  0.1539  1.1456
 8621SOL     OW37495   0.692   0.486  16.140  0.2975 -0.2995 -0.8258
 8621SOL    HW137496   0.692   0.581  16.145 -3.2567 -0.3623 -0.0213
 8621SOL    HW237497   0.750   0.465  16.067  0.7912 -1.0069 -0.2379
 8622SOL     OW37498   2.665   4.661  16.358 -0.0535  0.3077 -0.5173
 8622SOL    HW137499   2.606   4.645  16.284 -0.7919 -1.6014  0.4741
 8622SOL    HW237500   2.612   4.664  16.438 -1.4995 -0.5089 -1.4441
 8623SOL     OW37501   0.106   3.769   6.518 -0.4088  0.6770 -0.0216
 8623SOL    HW137502   0.055   3.706   6.467  0.5509 -0.0024 -0.1304
 8623SOL    HW237503   0.061   3.846   6.482  0.4408  2.3087  2.4315
 8624SOL     OW37504   0.328   2.024   7.989 -0.0437 -0.4925 -0.1888
 8624SOL    HW137505   0.264   2.094   8.001  0.4445 -0.1937  0.6887
 8624SOL    HW237506   0.384   2.025   8.066  0.1724  3.8275 -0.3815
 8625SOL     OW37507   2.794   2.367  14.764 -0.1554 -0.2375 -0.0170
 8625SOL    HW137508   2.837   2.437  14.815 -3.6624  1.8238  0.1365
 8625SOL    HW237509   2.860   2.298  14.758 -0.0785 -0.3258  1.6867
 8626SOL     OW37510   1.173   3.894   4.695 -0.2556 -0.1142  0.1236
 8626SOL    HW137511   1.225   3.964   4.734 -1.8278  0.5983  0.9054
 8626SOL    HW237512   1.204   3.904   4.605  0.3996  2.4471  0.6448
 8627SOL     OW37513   1.238   2.718   6.267 -0.1341 -0.2329  0.9285
 8627SOL    HW137514   1.184   2.796   6.278 -2.7898 -1.7672 -1.2602
 8627SOL    HW237515   1.183   2.647   6.235  1.0522 -0.0152 -1.6651
 8628SOL     OW37516   4.645   0.400   1.443 -0.2130  0.4468  0.3379
 8628SOL    HW137517   4.550   0.407   1.439 -0.2430  0.1848  0.5929
 8628SOL    HW237518   4.661   0.310   1.416  1.8279  0.1200  2.5816
 8629SOL     OW37519   3.339   3.240   2.238  0.2734 -0.2274  0.5100
 8629SOL    HW137520   3.413   3.204   2.189 -1.4365 -1.3012 -1.2658
 8629SOL    HW237521   3.340   3.335   2.225  0.4103  0.0394  2.3449
 8630SOL     OW37522   3.227   3.645   8.161 -0.3124 -0.6815 -0.1943
 8630SOL    HW137523   3.207   3.565   8.112 -0.3629 -0.6818 -0.1732
 8630SOL    HW237524   3.306   3.612   8.204 -0.2879 -1.1604 -0.6029
 8631SOL     OW37525   2.616   2.052   1.060  0.4947  0.1479  0.1428
 8631SOL    HW137526   2.618   1.959   1.040 -0.3137 -0.0112  0.7627
 8631SOL    HW237527   2.677   2.095   1.000 -0.1825 -0.2995 -0.8680
 8632SOL     OW37528   4.573   4.395  13.402  0.2402 -0.3490 -0.5610
 8632SOL    HW137529   4.658   4.355  13.384  0.5900  0.5862 -0.9824
 8632SOL    HW237530   4.539   4.400  13.312  1.0519  3.8707 -0.6389
 8633SOL     OW37531   3.503   0.946   3.971  0.2245  0.2242  0.2049
 8633SOL    HW137532   3.597   0.930   3.983  0.6455  1.1345 -2.0138
 8633SOL    HW237533   3.498   1.027   4.023  1.4008 -0.7097  1.7984
 8634SOL     OW37534   1.503   4.557   7.631  0.3740  0.5198 -0.0811
 8634SOL    HW137535   1.468   4.641   7.661 -1.1549  0.2373 -1.0548
 8634SOL    HW237536   1.442   4.539   7.560 -0.4648  0.4979  0.6452
 8635SOL     OW37537   0.664   4.412  11.756 -0.0689  0.5876  0.5255
 8635SOL    HW137538   0.751   4.373  11.754  0.2195  1.2066  0.9636
 8635SOL    HW237539   0.690   4.504  11.750  0.5279  0.3393 -0.7529
 8636SOL     OW37540   0.091   3.750   8.862 -0.0226 -0.4471  0.6396
 8636SOL    HW137541   0.078   3.814   8.931 -0.3824  1.8405 -1.5387
 8636SOL    HW237542   0.184   3.730   8.866 -0.5962 -2.4381  3.6892
 8637SOL     OW37543   4.708   4.388   4.047  0.1075  0.2579  0.0330
 8637SOL    HW137544   4.682   4.410   3.958 -1.4756 -0.8317  0.2203
 8637SOL    HW237545   4.622   4.376   4.086 -0.0553  1.7649  0.1131
 8638SOL     OW37546   3.035   1.019  10.218 -0.6889 -0.0894 -0.2056
 8638SOL    HW137547   3.079   1.017  10.134  1.7979 -2.4300  1.1588
 8638SOL    HW237548   3.110   1.045  10.272  0.1060 -2.0712 -0.3767
 8639SOL     OW37549   0.481   3.126   7.489  0.3539 -0.6915 -0.0706
 8639SOL    HW137550   0.404   3.131   7.432  1.3332 -0.0049 -1.3645
 8639SOL    HW237551   0.464   3.205   7.541  1.1076 -1.7321  1.7470
 8640SOL     OW37552   2.945   0.855   0.084  0.7270  0.3196 -0.5999
 8640SOL    HW137553   2.975   0.866  17.744  1.4718  0.4290 -0.3358
 8640SOL    HW237554   3.000   0.921   0.127  0.5798  1.2458 -1.8091
 8641SOL     OW37555   1.091   0.980   3.999  0.3110 -0.4866 -0.7714
 8641SOL    HW137556   1.115   0.901   4.047  1.1729  1.1894  1.5570
 8641SOL    HW237557   1.169   0.994   3.946  0.4985  2.2952  0.2471
 8642SOL     OW37558   4.062   2.754   8.584  0.7873  0.6131  0.3114
 8642SOL    HW137559   4.107   2.702   8.517 -0.8988  0.3681 -0.6353
 8642SOL    HW237560   3.989   2.693   8.598  0.8297  0.0358 -1.9799
 8643SOL     OW37561   4.209   3.631  11.094 -0.2213  0.0184  0.1440
 8643SOL    HW137562   4.201   3.584  11.011  1.1261  2.3048 -1.2709
 8643SOL    HW237563   4.119   3.613  11.121  0.5971 -1.0959  2.1781
 8644SOL     OW37564   1.250   3.060   8.086 -0.6437 -0.4852 -0.2208
 8644SOL    HW137565   1.292   2.975   8.101  1.7398  0.8613  0.7600
 8644SOL    HW237566   1.307   3.112   8.030 -1.0262  0.3958  0.2068
 8645SOL     OW37567   2.806   2.466  16.704  0.1420 -0.2242 -0.0354
 8645SOL    HW137568   2.847   2.425  16.628 -1.1573 -0.1434 -0.7772
 8645SOL    HW237569   2.772   2.549  16.670 -0.5480 -0.1752  0.7441
 8646SOL     OW37570   3.068   1.459   7.347  0.2654  0.6880  0.5844
 8646SOL    HW137571   3.111   1.441   7.264 -1.6803  0.0496 -0.2636
 8646SOL    HW237572   3.127   1.512   7.401  0.7754  0.8850 -0.1655
 8647SOL     OW37573   3.092   2.187  10.075 -0.3152 -0.3131  0.4275
 8647SOL    HW137574   3.056   2.254  10.134 -1.3071 -0.5393  0.0881
 8647SOL    HW237575   3.087   2.116  10.140  0.2198 -0.8953 -0.1737
 8648SOL     OW37576   2.686   3.798   5.718  0.0244  0.3159  0.3320
 8648SOL    HW137577   2.638   3.763   5.644 -0.1395  1.0659  0.0858
 8648SOL    HW237578   2.619   3.856   5.755  1.6250  2.5349 -0.2475
 8649SOL     OW37579   4.534   4.456  15.023 -0.4497  0.0808 -0.1888
 8649SOL    HW137580   4.486   4.444  14.941 -0.6705  1.1849 -0.2275
 8649SOL    HW237581   4.466   4.427  15.084 -1.6718  0.9178 -1.1377
 8650SOL     OW37582   2.449   2.449  12.022 -0.2039 -0.7091 -0.6167
 8650SOL    HW137583   2.471   2.464  12.114 -0.2837  3.0720 -1.2262
 8650SOL    HW237584   2.353   2.442  12.027 -0.0991 -0.0885  1.8777
 8651SOL     OW37585   1.988   4.037  12.423  0.1027 -0.2245 -0.8528
 8651SOL    HW137586   1.991   4.066  12.331 -0.1204  0.8246 -0.5338
 8651SOL    HW237587   1.894   4.032  12.440  0.0850 -0.7907 -1.1199
 8652SOL     OW37588   2.447   1.257  13.334  0.1515  0.3534  0.4902
 8652SOL    HW137589   2.429   1.337  13.384 -1.5923 -1.3483  2.5834
 8652SOL    HW237590   2.516   1.282  13.273 -2.2738 -0.3858 -2.5113
 8653SOL     OW37591   4.073   0.908   6.071 -0.5635  0.0138 -0.0035
 8653SOL    HW137592   4.167   0.910   6.051 -0.8469  1.4982 -1.2104
 8653SOL    HW237593   4.034   0.898   5.984 -0.5331 -0.3522  0.0275
 8654SOL     OW37594   0.549   3.067   6.837  0.2697 -0.4134  0.2346
 8654SOL    HW137595   0.531   3.031   6.750  0.0531  1.1408 -0.3701
 8654SOL    HW237596   0.535   3.161   6.827  0.3963 -0.3829  0.3511
 8655SOL     OW37597   3.487   2.178   6.582  0.5483  0.1275 -0.2264
 8655SOL    HW137598   3.512   2.166   6.673 -0.1638  2.6955  0.3179
 8655SOL    HW237599   3.570   2.156   6.539 -0.3679 -1.0165 -1.4267
 8656SOL     OW37600   1.631   2.216  14.677  0.4225 -0.4125  0.0392
 8656SOL    HW137601   1.604   2.295  14.630 -0.3128 -1.1892 -0.8531
 8656SOL    HW237602   1.662   2.160  14.606  0.6146 -0.7358  0.3793
 8657SOL     OW37603   3.172   2.454   2.192  0.0613 -0.6570  0.2462
 8657SOL    HW137604   3.246   2.454   2.131 -0.0399 -1.1075  0.1271
 8657SOL    HW237605   3.208   2.409   2.268 -1.6001 -3.5518 -0.6955
 8658SOL     OW37606   1.895   4.182   5.306 -0.2626  0.0636  0.2870
 8658SOL    HW137607   1.888   4.236   5.228  2.5854  0.1721  0.0892
 8658SOL    HW237608   1.976   4.137   5.280 -0.7672 -0.9026  0.3788
 8659SOL     OW37609   0.798   0.017   4.500  0.2821  0.1532  0.4489
 8659SOL    HW137610   0.822   4.667   4.472  2.0860  1.2193 -1.3556
 8659SOL    HW237611   0.869   0.070   4.463 -1.1230  2.0696  0.5084
 8660SOL     OW37612   1.351   1.340  14.070  0.0835  0.0780 -0.4256
 8660SOL    HW137613   1.358   1.245  14.065  1.1024  0.1196  0.2190
 8660SOL    HW237614   1.347   1.354  13.975 -1.7440 -0.5712 -0.4437
 8661SOL     OW37615   1.362   2.695   0.627 -0.3514 -0.8092  0.0075
 8661SOL    HW137616   1.439   2.719   0.575 -0.8074  0.2733 -0.1669
 8661SOL    HW237617   1.389   2.729   0.712 -0.3699 -0.4547 -0.1286
 8662SOL     OW37618   3.921   1.451   5.722 -0.1467 -0.2931  0.1118
 8662SOL    HW137619   3.974   1.425   5.647 -0.4214  2.0538 -0.9149
 8662SOL    HW237620   3.985   1.428   5.789 -1.2127 -0.8934  0.9302
 8663SOL     OW37621   4.724   3.976   3.281 -0.2593 -0.5362  0.6335
 8663SOL    HW137622   0.022   4.008   3.198 -0.2418  0.3977  0.9919
 8663SOL    HW237623   0.041   4.018   3.347  0.5037 -2.4428  1.2108
 8664SOL     OW37624   2.018   2.693   9.970  0.0771 -0.8373  0.0541
 8664SOL    HW137625   2.051   2.782   9.983  1.3882 -1.1183 -1.4340
 8664SOL    HW237626   2.021   2.683   9.875 -1.5089 -1.3622  0.0515
 8665SOL     OW37627   3.952   1.361   6.018  0.4753  0.1958  0.0490
 8665SOL    HW137628   3.968   1.431   6.081 -1.8854  0.5202  0.2636
 8665SOL    HW237629   3.997   1.291   6.066 -1.4392 -0.9097  0.2246
 8666SOL     OW37630   4.432   2.022   7.836  0.0455 -0.1924 -0.4791
 8666SOL    HW137631   4.514   2.065   7.812  0.4588 -1.5879 -1.6356
 8666SOL    HW237632   4.467   1.933   7.839 -0.1890 -0.3220 -1.4998
 8667SOL     OW37633   1.153   4.433   0.757  0.8468 -0.0433  0.0305
 8667SOL    HW137634   1.122   4.483   0.833  0.5473  1.2278 -0.9388
 8667SOL    HW237635   1.104   4.477   0.688  0.8390  0.2167  0.2039
 8668SOL     OW37636   1.843   1.293   0.499 -0.5841 -0.3806  0.0541
 8668SOL    HW137637   1.885   1.220   0.453 -0.6054 -1.7831  2.2650
 8668SOL    HW237638   1.918   1.316   0.554 -0.2497 -0.1601 -0.4878
 8669SOL     OW37639   3.700   4.115   4.635 -0.5615 -0.6514  0.1455
 8669SOL    HW137640   3.766   4.165   4.586  1.1054  0.6238  3.7407
 8669SOL    HW237641   3.741   4.076   4.711  0.2615 -0.7598 -0.3573
 8670SOL     OW37642   1.822   1.805   8.722 -0.4523 -0.2793  0.4825
 8670SOL    HW137643   1.858   1.797   8.810  0.0474 -1.6115  0.1524
 8670SOL    HW237644   1.781   1.718   8.717 -0.7847 -0.1942  1.7304
 8671SOL     OW37645   2.765   2.390   1.919 -0.0216 -0.6057 -0.4019
 8671SOL    HW137646   2.827   2.388   1.993  2.7892 -0.2435 -2.7531
 8671SOL    HW237647   2.826   2.402   1.847  0.2807 -3.1330 -0.5492
 8672SOL     OW37648   3.116   1.119  17.402  0.2160 -0.5535 -0.2845
 8672SOL    HW137649   3.147   1.134  17.491 -0.4398 -0.6877 -0.0303
 8672SOL    HW237650   3.193   1.081  17.360 -0.9149  1.2446 -3.9899
 8673SOL     OW37651   0.921   3.031  14.876 -0.5669 -0.5364  0.2100
 8673SOL    HW137652   0.995   3.001  14.929 -1.2007  0.3743  1.6213
 8673SOL    HW237653   0.939   2.987  14.793 -1.5420 -0.4635 -0.0464
 8674SOL     OW37654   1.137   2.764   8.987  0.1325 -0.6104 -0.2490
 8674SOL    HW137655   1.050   2.762   8.949 -1.2717 -1.0184  2.9842
 8674SOL    HW237656   1.190   2.801   8.916  0.0486 -1.9996 -1.0257
 8675SOL     OW37657   1.646   0.467   2.079  0.5088  0.2934  0.0211
 8675SOL    HW137658   1.694   0.518   2.015 -0.9123  1.2390 -0.2675
 8675SOL    HW237659   1.713   0.399   2.090 -0.9156 -1.1287 -0.0556
 8676SOL     OW37660   1.373   1.549  16.363 -0.3582 -0.3415  0.4792
 8676SOL    HW137661   1.284   1.555  16.399 -0.4616  1.9583 -0.1814
 8676SOL    HW237662   1.389   1.455  16.352 -1.3063 -0.6674  1.9092
 8677SOL     OW37663   0.352   1.949   7.243 -0.3095  0.3834  0.3133
 8677SOL    HW137664   0.386   2.010   7.177  0.2687 -1.1196 -0.7650
 8677SOL    HW237665   0.439   1.921   7.272 -0.3699  1.8892  1.9018
 8678SOL     OW37666   3.757   2.828   1.739 -0.8628  0.3416 -1.0305
 8678SOL    HW137667   3.685   2.832   1.803  1.4675 -1.4015  1.6811
 8678SOL    HW237668   3.707   2.827   1.657  0.2789 -1.4900 -1.7082
 8679SOL     OW37669   0.970   3.743  16.619  0.4155  0.0570  0.1057
 8679SOL    HW137670   1.058   3.777  16.604  0.1730  0.4433 -0.4241
 8679SOL    HW237671   0.980   3.648  16.615 -3.0124 -0.2957 -0.2536
 8680SOL     OW37672   2.021   2.568   4.349 -0.3804 -0.2431  0.3009
 8680SOL    HW137673   2.031   2.661   4.326  0.1101 -0.3792 -0.0402
 8680SOL    HW237674   2.038   2.533   4.262 -0.1937 -0.5613  0.4642
 8681SOL     OW37675   1.003   3.830  15.195 -0.0497  0.2711 -0.0942
 8681SOL    HW137676   1.032   3.763  15.133 -0.5176  1.0745 -1.1848
 8681SOL    HW237677   0.947   3.779  15.253  2.1500 -0.1649  1.6523
 8682SOL     OW37678   2.479   1.066   1.008  0.1917  0.7124  0.4213
 8682SOL    HW137679   2.552   1.054   1.069  2.4175  0.4243 -2.3104
 8682SOL    HW237680   2.442   1.148   1.042  0.0142  0.5058  0.7324
 8683SOL     OW37681   0.180   4.468  10.764  0.3630 -0.1981  0.7344
 8683SOL    HW137682   0.246   4.519  10.812  0.4306  0.9599 -0.5878
 8683SOL    HW237683   0.105   4.473  10.823 -2.1964  1.8836 -2.6621
 8684SOL     OW37684   0.190   2.793  16.485 -0.4999 -0.5234  0.4488
 8684SOL    HW137685   0.268   2.781  16.432  1.0562 -0.5516  2.7329
 8684SOL    HW237686   0.210   2.874  16.533  1.4112 -1.3248  1.0190
 8685SOL     OW37687   3.695   1.344   3.747  0.7595 -0.1207  0.3402
 8685SOL    HW137688   3.728   1.330   3.836 -1.8083 -2.0214  1.0000
 8685SOL    HW237689   3.600   1.358   3.757  0.5628 -1.5612  0.4162
 8686SOL     OW37690   1.612   0.696   6.435  1.2279 -0.1679 -0.4184
 8686SOL    HW137691   1.683   0.642   6.400  0.1328 -1.7735 -0.1786
 8686SOL    HW237692   1.665   0.730   6.507 -1.3311 -1.3014  1.9827
 8687SOL     OW37693   0.353   2.775   2.172  0.2121  0.7209  0.2402
 8687SOL    HW137694   0.392   2.704   2.121 -1.1707 -0.3006  0.6072
 8687SOL    HW237695   0.399   2.857   2.154 -0.7286  0.8281 -1.6894
 8688SOL     OW37696   3.536   1.760  17.014  0.8764 -0.3529 -0.2476
 8688SOL    HW137697   3.442   1.775  17.013  0.6652 -1.6923  1.1241
 8688SOL    HW237698   3.566   1.811  16.938 -0.2971  0.9737  0.1861
 8689SOL     OW37699   2.266   1.944   7.403  0.0836  0.3027 -0.1977
 8689SOL    HW137700   2.200   2.013   7.397 -1.2918 -0.8256  1.8803
 8689SOL    HW237701   2.333   1.975   7.464  0.6067  0.0161 -0.6264
 8690SOL     OW37702   3.775   0.248   5.955 -0.1385 -0.4530 -0.0054
 8690SOL    HW137703   3.859   0.202   5.949 -1.5134 -2.9765  0.1889
 8690SOL    HW237704   3.764   0.267   6.048 -0.1366 -0.5965  0.0243
 8691SOL     OW37705   1.838   1.107   5.321 -0.0345  0.2399 -0.4065
 8691SOL    HW137706   1.890   1.129   5.244  1.0340  1.1595  0.5780
 8691SOL    HW237707   1.909   1.110   5.386  1.6208  0.5457 -2.2430
 8692SOL     OW37708   4.090   2.463  12.904  0.6980  0.1924  0.0553
 8692SOL    HW137709   4.175   2.425  12.922  0.3739 -0.1335  0.9180
 8692SOL    HW237710   4.056   2.464  12.994 -2.2658 -1.8991 -1.0146
 8693SOL     OW37711   1.883   1.703   4.223 -0.0039 -0.3022  0.2094
 8693SOL    HW137712   1.835   1.645   4.282  0.2881 -0.6927  0.0628
 8693SOL    HW237713   1.833   1.783   4.240 -0.5983 -0.5603 -0.3649
 8694SOL     OW37714   3.153   0.448  14.854  0.5576  0.1101 -0.3411
 8694SOL    HW137715   3.246   0.427  14.853  0.6212  0.4229 -0.9004
 8694SOL    HW237716   3.163   0.540  14.877 -2.0890  0.4435 -0.5633
 8695SOL     OW37717   4.174   0.887   9.620  0.0755  0.1224 -0.0076
 8695SOL    HW137718   4.114   0.825   9.579  1.7168 -0.9632 -0.7713
 8695SOL    HW237719   4.250   0.882   9.562  0.0408 -1.5410  0.0913
 8696SOL     OW37720   1.337   0.223   1.937  0.1235  0.1313 -0.3966
 8696SOL    HW137721   1.422   0.183   1.919 -1.1926 -2.6427 -0.4922
 8696SOL    HW237722   1.297   0.151   1.986 -1.3724 -0.5485 -2.5498
 8697SOL     OW37723   2.495   4.680   8.615 -0.2387 -0.8323 -0.1963
 8697SOL    HW137724   2.414   4.727   8.597 -0.7003 -1.4813  0.1507
 8697SOL    HW237725   2.554   0.014   8.593 -0.3545 -1.4336 -2.4571
 8698SOL     OW37726   0.852   0.276   3.698  0.3989  0.1685  0.5918
 8698SOL    HW137727   0.826   0.212   3.632 -2.6308  1.3674  0.6440
 8698SOL    HW237728   0.893   0.223   3.766  0.5804 -0.0946  0.2777
 8699SOL     OW37729   2.806   3.402   4.380  0.1651  0.0389 -0.6098
 8699SOL    HW137730   2.883   3.361   4.419 -0.6274 -0.4756  0.3983
 8699SOL    HW237731   2.809   3.365   4.291  2.7955 -0.6596 -0.2521
 8700SOL     OW37732   2.976   2.923  11.240 -0.1411  0.0634 -0.2276
 8700SOL    HW137733   3.038   2.915  11.312  3.2578 -2.2048 -3.4198
 8700SOL    HW237734   3.036   2.957  11.174  1.2783 -0.9005  0.5762
 8701SOL     OW37735   0.669   2.334   5.336  0.3963 -0.4525  0.2102
 8701SOL    HW137736   0.751   2.344   5.287  0.1593  1.6833  0.2514
 8701SOL    HW237737   0.706   2.287   5.411  0.6757  1.5122  1.2926
 8702SOL     OW37738   2.093   1.331   4.898  0.1472  0.0829 -0.1316
 8702SOL    HW137739   2.171   1.304   4.849  0.3932  0.6726 -0.0613
 8702SOL    HW237740   2.036   1.256   4.879  0.7184 -0.1900 -0.7820
 8703SOL     OW37741   0.350   2.753   4.442 -0.2583 -0.1475  0.3893
 8703SOL    HW137742   0.324   2.665   4.412  1.6504 -1.2610  2.1040
 8703SOL    HW237743   0.431   2.737   4.489  0.9020  0.9621 -1.2006
 8704SOL     OW37744   2.547   3.632  12.447  0.0797 -0.3615 -0.1606
 8704SOL    HW137745   2.588   3.716  12.430 -2.6773  1.4934  2.2462
 8704SOL    HW237746   2.627   3.580  12.437 -2.2025 -3.7642 -0.9072
 8705SOL     OW37747   0.972   0.892   4.511 -0.1131  0.0439 -0.4609
 8705SOL    HW137748   0.985   0.824   4.445 -2.0752 -1.4100  0.6351
 8705SOL    HW237749   0.931   0.847   4.585  1.5462 -0.9727 -0.1696
 8706SOL     OW37750   2.216   1.894   0.156 -0.1593  0.3891 -0.3582
 8706SOL    HW137751   2.242   1.892   0.248  1.5543  3.0770 -0.7763
 8706SOL    HW237752   2.295   1.852   0.123 -0.5516 -1.0024  0.4873
 8707SOL     OW37753   0.252   1.300  15.823  0.2115  0.8178  0.1434
 8707SOL    HW137754   0.191   1.332  15.890  1.1290 -0.7893  1.7502
 8707SOL    HW237755   0.213   1.232  15.767  0.1754  2.1101 -1.4070
 8708SOL     OW37756   1.752   3.243  10.607  0.0870 -0.3979 -0.0058
 8708SOL    HW137757   1.818   3.177  10.626 -0.3990 -0.8005  0.2912
 8708SOL    HW237758   1.712   3.247  10.694 -1.2265 -0.2983 -0.6094
 8709SOL     OW37759   0.903   2.163   6.703 -0.3307  0.5262 -1.2276
 8709SOL    HW137760   0.863   2.082   6.733  1.3489  1.1176  2.6132
 8709SOL    HW237761   0.841   2.189   6.635 -1.6983 -0.2904 -0.2895
 8710SOL     OW37762   0.290   3.200   1.575  0.2702 -0.4963  0.2303
 8710SOL    HW137763   0.246   3.285   1.582  0.4445 -0.5768  2.2224
 8710SOL    HW237764   0.226   3.145   1.621 -0.3165 -0.1636 -0.1926
 8711SOL     OW37765   1.318   2.562  17.126 -0.0814 -0.3762  0.0697
 8711SOL    HW137766   1.347   2.581  17.215 -0.5055 -1.0566  0.3574
 8711SOL    HW237767   1.395   2.599  17.083 -1.7267  2.0204 -0.8164
 8712SOL     OW37768   1.790   2.224   2.863  0.4657 -0.4288 -0.0916
 8712SOL    HW137769   1.836   2.275   2.797  0.7261  1.9762  1.9651
 8712SOL    HW237770   1.836   2.251   2.943  2.0199  0.5858 -1.3526
 8713SOL     OW37771   2.616   0.181   1.848 -0.0868  0.0914  0.1954
 8713SOL    HW137772   2.590   0.096   1.884 -1.1442 -0.2363 -1.3849
 8713SOL    HW237773   2.708   0.179   1.822 -0.3653 -1.1383 -0.6855
 8714SOL     OW37774   2.430   3.158   9.357 -0.1659 -0.2029 -0.7892
 8714SOL    HW137775   2.365   3.175   9.426 -0.2590 -0.6482 -0.7687
 8714SOL    HW237776   2.435   3.063   9.353 -2.3384 -0.4279  1.4700
 8715SOL     OW37777   0.087   2.813   4.587  0.0602  0.4126  0.2502
 8715SOL    HW137778   0.095   2.774   4.674  0.2004 -0.4763 -0.1538
 8715SOL    HW237779   0.177   2.825   4.557 -0.3023  0.0068 -1.0073
 8716SOL     OW37780   3.527   2.573   1.969 -0.2143  0.7930  0.0784
 8716SOL    HW137781   3.516   2.488   2.011 -1.1719  1.4334  1.0803
 8716SOL    HW237782   3.601   2.547   1.914 -2.2342  0.2531 -2.3927
 8717SOL     OW37783   3.451   1.457   6.989 -0.2353 -0.0755  0.3951
 8717SOL    HW137784   3.384   1.433   6.925  0.3622  2.2795 -1.1247
 8717SOL    HW237785   3.500   1.529   6.949 -1.0687 -0.3266 -1.0825
 8718SOL     OW37786   3.296   0.308   8.988 -0.5893 -0.0024 -0.2876
 8718SOL    HW137787   3.358   0.235   8.990  1.7898  2.0194 -0.8644
 8718SOL    HW237788   3.218   0.253   8.972 -1.9124  1.3550  1.5676
 8719SOL     OW37789   4.575   0.669   7.385  0.4614 -0.5268  0.2572
 8719SOL    HW137790   4.531   0.664   7.301  0.7351  0.5335  0.0434
 8719SOL    HW237791   4.514   0.726   7.432  0.6663  1.7600 -2.2728
 8720SOL     OW37792   1.805   2.230   7.447  0.4970 -0.1514 -0.8654
 8720SOL    HW137793   1.818   2.229   7.542  1.2445 -0.2228 -0.9670
 8720SOL    HW237794   1.711   2.245   7.434  0.7624  0.4426 -2.0550
 8721SOL     OW37795   1.539   1.339   3.542 -0.0206 -0.1676 -0.2487
 8721SOL    HW137796   1.574   1.392   3.614 -0.5088 -2.2283  1.5218
 8721SOL    HW237797   1.537   1.404   3.472 -0.6659 -0.0114 -0.0778
 8722SOL     OW37798   3.881   0.587   1.129 -0.4651 -0.2866  0.4971
 8722SOL    HW137799   3.939   0.623   1.063  1.1131 -1.4243  1.2457
 8722SOL    HW237800   3.862   0.667   1.178 -1.7553 -1.2622  1.6125
 8723SOL     OW37801   1.628   2.524   9.276  0.3719  0.3016  0.0677
 8723SOL    HW137802   1.567   2.475   9.331  1.4404  0.5380  1.4824
 8723SOL    HW237803   1.617   2.615   9.304  0.3946 -0.2294  1.8400
 8724SOL     OW37804   0.610   1.449  12.608 -0.2512  0.7838 -0.1292
 8724SOL    HW137805   0.525   1.411  12.632  0.2069  1.8643  3.3141
 8724SOL    HW237806   0.659   1.367  12.600 -0.4143  0.8847 -2.0047
 8725SOL     OW37807   1.509   0.810   3.613 -0.1601 -0.2821  0.7592
 8725SOL    HW137808   1.491   0.903   3.631  2.6180  0.3546  0.2470
 8725SOL    HW237809   1.570   0.790   3.684 -0.2378  0.2339  0.9745
 8726SOL     OW37810   3.875   4.214   3.803 -0.2040 -0.1745 -0.8222
 8726SOL    HW137811   3.904   4.289   3.751  0.4038 -0.5131 -0.9685
 8726SOL    HW237812   3.783   4.221   3.777 -0.3087  3.3991  0.5779
 8727SOL     OW37813   0.913   4.683  11.094 -1.0500 -0.1646  0.2229
 8727SOL    HW137814   0.867   4.663  11.012  1.6212  0.7982 -1.5235
 8727SOL    HW237815   0.976   4.613  11.106  0.0250  0.2533 -2.9486
 8728SOL     OW37816   2.605   2.767   7.560  0.3818 -0.2218 -0.8460
 8728SOL    HW137817   2.686   2.802   7.599  0.4718 -2.7588  1.2083
 8728SOL    HW237818   2.622   2.778   7.466 -4.7411 -1.1281 -1.8535
 8729SOL     OW37819   1.980   2.432  12.189  0.4413  0.1839  0.5449
 8729SOL    HW137820   2.052   2.491  12.166 -0.2183  0.2679 -1.3075
 8729SOL    HW237821   1.909   2.469  12.137  0.7606 -1.3865 -0.9898
 8730SOL     OW37822   0.465   1.645   5.264  0.2049 -0.1514 -0.4573
 8730SOL    HW137823   0.537   1.605   5.314 -1.0290 -0.3129  1.1573
 8730SOL    HW237824   0.477   1.621   5.172  0.4958 -0.5978 -0.3013
 8731SOL     OW37825   1.000   4.330  17.596 -0.2602 -0.8604  0.4662
 8731SOL    HW137826   0.996   4.244  17.636  1.9044  0.1060  2.8073
 8731SOL    HW237827   0.987   4.378  17.678  0.7700  0.0681  0.0978
 8732SOL     OW37828   2.732   4.189   4.063 -0.1966 -0.1922 -0.2153
 8732SOL    HW137829   2.756   4.097   4.064 -0.1730 -0.1901 -0.8639
 8732SOL    HW237830   2.763   4.213   4.150 -0.9604 -0.0245  0.0142
 8733SOL     OW37831   1.355   3.715  13.018  0.1275  0.5021  0.3932
 8733SOL    HW137832   1.393   3.696  13.103 -2.3226 -0.8467  1.2086
 8733SOL    HW237833   1.372   3.808  13.004  1.1842 -0.0387 -1.9874
 8734SOL     OW37834   0.368   3.471   1.291  0.2411 -0.3079 -0.0718
 8734SOL    HW137835   0.348   3.461   1.384 -0.1849 -0.6943 -0.2032
 8734SOL    HW237836   0.299   3.420   1.250  1.1919 -1.3651 -0.3353
 8735SOL     OW37837   2.115   2.918   1.315 -0.1190  0.1065 -0.2542
 8735SOL    HW137838   2.186   2.976   1.343  0.7649 -0.4284 -1.3573
 8735SOL    HW237839   2.128   2.839   1.367 -1.2857  1.4812  2.1150
 8736SOL     OW37840   1.051   0.762   7.222  0.3488 -0.3953  0.3560
 8736SOL    HW137841   1.092   0.772   7.135 -1.2940  2.5630 -0.0789
 8736SOL    HW237842   1.119   0.715   7.269  0.8333 -0.2260 -0.1772
 8737SOL     OW37843   0.026   0.135   7.293  0.0754 -0.0258  0.4066
 8737SOL    HW137844   0.080   0.059   7.317  1.7400  1.1765  0.4778
 8737SOL    HW237845   0.014   0.162   7.384  0.2070 -0.6098  0.5972
 8738SOL     OW37846   3.476   0.941   5.805 -0.0799 -0.7321  1.0105
 8738SOL    HW137847   3.545   0.978   5.750 -1.3169 -1.3851 -0.9405
 8738SOL    HW237848   3.418   1.016   5.820  0.2731 -0.4540  0.9756
 8739SOL     OW37849   2.595   3.098   5.534 -0.0514  0.2220  0.2603
 8739SOL    HW137850   2.592   3.054   5.449 -1.8403 -1.0481  0.9884
 8739SOL    HW237851   2.658   3.047   5.585 -1.7119 -1.5934  0.4962
 8740SOL     OW37852   2.602   1.763  10.964  0.1128  0.8555  0.3121
 8740SOL    HW137853   2.553   1.709  10.902 -1.8134  1.7548  1.0646
 8740SOL    HW237854   2.669   1.794  10.903  0.4406 -0.4298  0.0130
 8741SOL     OW37855   3.368   2.620   4.158 -0.2284  0.6039 -0.1645
 8741SOL    HW137856   3.434   2.551   4.149  0.2207  0.8488  1.3364
 8741SOL    HW237857   3.305   2.580   4.216  0.4971  0.0554  0.2380
 8742SOL     OW37858   3.480   0.172   5.561 -0.4046  0.7066  0.0675
 8742SOL    HW137859   3.515   0.165   5.472 -0.7052  0.1441 -0.0081
 8742SOL    HW237860   3.540   0.123   5.618  1.2213  0.2832 -1.9868
 8743SOL     OW37861   4.111   0.686  17.270  0.4270 -0.0625  0.6093
 8743SOL    HW137862   4.088   0.658  17.181  0.1810 -0.0467  0.6671
 8743SOL    HW237863   4.032   0.666  17.321 -1.0223  0.8274 -1.2843
 8744SOL     OW37864   1.624   3.331   8.761 -0.4904  0.5578  1.1221
 8744SOL    HW137865   1.692   3.342   8.694 -0.2448  0.8902  1.4231
 8744SOL    HW237866   1.680   3.339   8.838  1.5152 -1.2800 -0.1353
 8745SOL     OW37867   4.134   1.995   4.383  0.5702  0.0631 -0.6245
 8745SOL    HW137868   4.170   2.005   4.471 -0.3623 -1.5818 -0.0612
 8745SOL    HW237869   4.040   2.011   4.393  0.4417 -0.9490 -0.2378
 8746SOL     OW37870   1.984   1.155   6.737 -0.8146  0.1942 -0.3099
 8746SOL    HW137871   2.070   1.151   6.696 -0.1540 -3.1552  1.4161
 8746SOL    HW237872   1.963   1.249   6.738  0.3616  0.4389  1.0971
 8747SOL     OW37873   3.685   3.583  12.676 -0.4741 -0.1348  0.0544
 8747SOL    HW137874   3.694   3.603  12.769  3.5485 -0.0225 -0.3560
 8747SOL    HW237875   3.709   3.491  12.676 -0.2555 -0.0706  0.7981
 8748SOL     OW37876   3.787   0.231   1.487 -0.1311 -0.4599 -0.0426
 8748SOL    HW137877   3.766   0.143   1.455  0.0429  0.1291 -1.7209
 8748SOL    HW237878   3.847   0.264   1.421 -2.7346 -0.6323 -2.4938
 8749SOL     OW37879   4.516   2.685   0.658 -0.4050  0.1723  0.4552
 8749SOL    HW137880   4.535   2.760   0.601 -0.7035 -0.5140 -0.5474
 8749SOL    HW237881   4.423   2.696   0.679 -0.6771  0.3668 -0.8465
 8750SOL     OW37882   0.783   4.328   2.347 -0.7247  0.4343 -0.0226
 8750SOL    HW137883   0.825   4.385   2.282 -0.3578  0.6643  0.4177
 8750SOL    HW237884   0.746   4.263   2.287 -1.4427  1.3390 -0.5720
 8751SOL     OW37885   3.508   0.441   2.281  0.4166 -0.2116  0.3649
 8751SOL    HW137886   3.574   0.424   2.349  0.8683  2.0835  0.5009
 8751SOL    HW237887   3.430   0.390   2.306  0.5155  0.2429  1.6330
 8752SOL     OW37888   1.084   3.000   0.194  0.1311  0.5818  0.7197
 8752SOL    HW137889   1.145   3.073   0.207  1.6362 -0.7015  0.9045
 8752SOL    HW237890   1.130   2.950   0.126 -0.2316  2.5370 -0.9491
 8753SOL     OW37891   4.145   1.462   2.764 -0.2647  0.1772  0.0714
 8753SOL    HW137892   4.230   1.490   2.796 -1.2388  1.0183  1.9582
 8753SOL    HW237893   4.142   1.494   2.674  0.5434  1.9125  0.6498
 8754SOL     OW37894   3.993   2.880   8.833 -0.1585 -0.3151 -0.1078
 8754SOL    HW137895   4.018   2.855   8.744  1.4648 -1.5730  0.7105
 8754SOL    HW237896   3.926   2.818   8.863 -0.0306  0.4537  1.7716
 8755SOL     OW37897   2.781   2.273   7.179  0.2599  0.2463  0.3846
 8755SOL    HW137898   2.874   2.266   7.199  0.9483  2.9602 -1.8754
 8755SOL    HW237899   2.793   2.327   7.101 -0.3897  0.6163  0.5323
 8756SOL     OW37900   2.184   3.572   2.653  0.7050 -0.5863 -0.2895
 8756SOL    HW137901   2.130   3.627   2.709  1.0776  1.3350 -1.8385
 8756SOL    HW237902   2.128   3.553   2.578 -1.0814  1.6060  0.4835
 8757SOL     OW37903   4.256   2.067  12.596 -0.3974 -0.2971 -0.0110
 8757SOL    HW137904   4.185   2.036  12.653 -0.3135 -1.4300 -0.5156
 8757SOL    HW237905   4.295   1.984  12.569  0.6312  0.4671 -0.8693
 8758SOL     OW37906   0.540   2.366   2.350 -0.3401  0.2116  0.3388
 8758SOL    HW137907   0.560   2.459   2.359  3.7796 -0.4888 -1.3603
 8758SOL    HW237908   0.536   2.353   2.445  0.5999  1.1558  0.5192
 8759SOL     OW37909   3.020   0.419   4.071 -0.1513  0.2168  0.3894
 8759SOL    HW137910   3.065   0.425   4.156  1.1651 -1.0093 -0.2090
 8759SOL    HW237911   3.082   0.458   4.010  0.7814 -0.9637  0.5697
 8760SOL     OW37912   0.009   2.886   5.665 -0.0885  0.1264 -0.5103
 8760SOL    HW137913   4.665   2.867   5.618  0.1327  2.7199 -1.9265
 8760SOL    HW237914   0.053   2.938   5.597 -0.6060  3.9598  2.1142
 8761SOL     OW37915   1.601   0.114  12.081 -0.1585 -0.3770  0.1269
 8761SOL    HW137916   1.695   0.105  12.100 -0.1225  0.7364  0.4546
 8761SOL    HW237917   1.599   0.207  12.058 -0.3568 -0.1441  1.0861
 8762SOL     OW37918   0.331   3.685  13.748 -0.2130 -0.7510  0.0576
 8762SOL    HW137919   0.389   3.752  13.785 -1.1669 -0.3762  0.8684
 8762SOL    HW237920   0.246   3.716  13.778  1.6227  1.8534  2.5981
 8763SOL     OW37921   2.549   0.820   6.459  0.0582  0.0459  0.3476
 8763SOL    HW137922   2.526   0.728   6.451  0.0015  0.0644  0.2960
 8763SOL    HW237923   2.501   0.829   6.542  0.2008  0.6043  0.3737
 8764SOL     OW37924   1.582   2.734  17.147 -0.1438 -0.7865  0.0528
 8764SOL    HW137925   1.648   2.750  17.080  0.8320  1.3095  1.5011
 8764SOL    HW237926   1.600   2.643  17.173  1.0091 -0.2673  1.1310
 8765SOL     OW37927   2.368   2.931  12.075 -0.5605  0.3650  0.5486
 8765SOL    HW137928   2.434   2.996  12.054  0.6720 -0.7060  1.0986
 8765SOL    HW237929   2.377   2.918  12.169 -0.8477  2.1585  0.8261
 8766SOL     OW37930   2.479   0.422   2.623 -0.0110 -0.0983  0.2215
 8766SOL    HW137931   2.423   0.406   2.547 -0.1766 -0.2006  0.3654
 8766SOL    HW237932   2.413   0.448   2.688  1.5144  0.3173  1.5909
 8767SOL     OW37933   3.066   4.155   8.198  0.5843  0.2544  0.1686
 8767SOL    HW137934   3.131   4.158   8.268  0.0387  0.6863  0.6624
 8767SOL    HW237935   3.112   4.109   8.128  1.9461 -0.9930  1.8815
 8768SOL     OW37936   1.162   3.338   9.624  0.3025  0.3367 -0.4365
 8768SOL    HW137937   1.191   3.412   9.677  0.3230  0.1240 -0.1519
 8768SOL    HW237938   1.190   3.267   9.681 -0.5706  0.5140  0.2137
 8769SOL     OW37939   1.852   0.468   5.792 -0.1466 -0.2741 -0.6756
 8769SOL    HW137940   1.882   0.536   5.853 -0.9590  2.4141 -3.2660
 8769SOL    HW237941   1.780   0.433   5.844 -0.5476 -1.5739 -2.1113
 8770SOL     OW37942   1.869   4.250   1.622 -0.4036  0.1698 -0.4096
 8770SOL    HW137943   1.851   4.192   1.696 -1.9593  1.2497  0.0400
 8770SOL    HW237944   1.831   4.330   1.657 -0.7229  0.1605 -0.7416
 8771SOL     OW37945   0.600   0.469   3.500  0.2365 -0.6827 -0.2230
 8771SOL    HW137946   0.636   0.501   3.583 -0.4869 -0.6003  0.0638
 8771SOL    HW237947   0.557   0.390   3.534 -0.1114 -0.1876  0.5053
 8772SOL     OW37948   2.648   1.865   9.335 -0.1229 -0.3499 -0.0193
 8772SOL    HW137949   2.586   1.795   9.316 -1.3726  1.0279 -1.0268
 8772SOL    HW237950   2.670   1.834   9.422 -0.1280  1.2864  0.5725
 8773SOL     OW37951   4.525   1.937   7.504  0.1496  0.0786 -0.3046
 8773SOL    HW137952   4.467   2.006   7.536 -0.7396 -0.9494  0.2875
 8773SOL    HW237953   4.608   1.969   7.539 -0.8055 -0.0276  2.0873
 8774SOL     OW37954   2.343   2.681  10.569  0.9232 -0.3452  0.3190
 8774SOL    HW137955   2.335   2.593  10.604 -2.6191  0.6658  2.0258
 8774SOL    HW237956   2.296   2.729  10.637  1.0093  2.1100 -1.3245
 8775SOL     OW37957   2.017   2.401   5.260  0.2308  0.2360  0.2408
 8775SOL    HW137958   1.973   2.321   5.291  1.9613 -1.3533 -1.4052
 8775SOL    HW237959   1.978   2.457   5.327 -0.2943  2.6489 -2.0788
 8776SOL     OW37960   1.624   3.110   6.701 -0.2488  0.4883 -0.7950
 8776SOL    HW137961   1.558   3.160   6.653  0.3141  2.3819  0.4104
 8776SOL    HW237962   1.707   3.151   6.678 -0.4119  0.4020 -1.5360
 8777SOL     OW37963   0.431   0.287   3.176  0.2958 -0.4057  0.0666
 8777SOL    HW137964   0.350   0.333   3.197 -0.1677 -1.3265  0.2935
 8777SOL    HW237965   0.436   0.320   3.086 -0.1197 -0.8354 -0.1155
 8778SOL     OW37966   4.231   3.296   2.365  0.5741 -0.3714 -0.8802
 8778SOL    HW137967   4.293   3.356   2.324  2.1629 -0.1759  1.8087
 8778SOL    HW237968   4.144   3.323   2.334 -0.0176 -1.6857 -0.4042
 8779SOL     OW37969   1.807   1.092   3.046 -0.0627 -0.1478  0.2314
 8779SOL    HW137970   1.843   1.043   3.120  1.5036 -0.8810 -1.0112
 8779SOL    HW237971   1.751   1.023   3.013  0.4731  0.1336 -1.2621
 8780SOL     OW37972   1.588   3.648   4.848 -0.0443  0.2870  0.4985
 8780SOL    HW137973   1.617   3.687   4.930  1.7120  0.0246  0.0048
 8780SOL    HW237974   1.647   3.701   4.794  1.4539  0.3345  2.1962
 8781SOL     OW37975   2.003   3.625   7.138  0.6366  0.1871  0.5758
 8781SOL    HW137976   1.956   3.622   7.054 -0.3104  2.5305  1.0226
 8781SOL    HW237977   1.983   3.541   7.178 -1.3706  0.3774 -0.0287
 8782SOL     OW37978   4.103   0.496   8.008 -0.8821 -0.0765  0.1529
 8782SOL    HW137979   4.157   0.575   8.020  1.6488 -1.7963  0.0825
 8782SOL    HW237980   4.025   0.519   8.059 -2.0509  0.2303 -1.7579
 8783SOL     OW37981   4.148   2.777  11.702  0.3883 -0.6509 -0.4635
 8783SOL    HW137982   4.219   2.833  11.671 -0.1362 -0.9305 -2.1568
 8783SOL    HW237983   4.136   2.707  11.638 -1.1609 -1.8132  1.1054
 8784SOL     OW37984   2.823   1.736   9.913  0.8745  0.7231 -0.2389
 8784SOL    HW137985   2.807   1.727  10.007  2.6355  2.8700  0.2724
 8784SOL    HW237986   2.750   1.795   9.892  0.0474 -0.9063 -1.9555
 8785SOL     OW37987   1.188   3.178   2.782 -0.2334 -0.1094  0.1050
 8785SOL    HW137988   1.118   3.220   2.732 -1.5425 -0.5278  1.6096
 8785SOL    HW237989   1.265   3.230   2.757 -0.8248  1.0243  0.6510
 8786SOL     OW37990   2.117   1.424   3.008 -0.1234 -0.4934  0.0271
 8786SOL    HW137991   2.150   1.513   2.998 -0.1291 -0.2311  2.3322
 8786SOL    HW237992   2.022   1.430   3.002 -0.0658  1.7906  1.7652
 8787SOL     OW37993   1.824   0.586  16.669  0.1388  0.3584 -0.1392
 8787SOL    HW137994   1.768   0.658  16.697 -0.2548 -0.6194  1.5786
 8787SOL    HW237995   1.860   0.616  16.585  0.5943 -1.2077 -0.5051
 8788SOL     OW37996   3.018   0.532   6.354 -0.7612 -0.5087 -0.2352
 8788SOL    HW137997   2.930   0.523   6.319  0.2708  0.2842 -3.0811
 8788SOL    HW237998   3.066   0.550   6.273 -1.1290 -0.8924 -0.5379
 8789SOL     OW37999   0.934   2.789   6.000  0.3713 -0.0663  0.0182
 8789SOL    HW138000   0.913   2.778   5.907 -1.5109  1.1423  0.3134
 8789SOL    HW238001   1.007   2.728   6.015  1.1735  0.4675 -1.6774
 8790SOL     OW38002   2.995   4.524  16.178  0.1203 -0.0511 -0.0349
 8790SOL    HW138003   2.980   4.588  16.248  0.4175 -2.6542  2.4241
 8790SOL    HW238004   2.906   4.492  16.166 -0.4928  0.8381  1.9793
 8791SOL     OW38005   3.929   3.230  17.631 -0.1530  0.6414 -0.1464
 8791SOL    HW138006   3.903   3.285  17.556  0.1660  0.1360 -0.6239
 8791SOL    HW238007   3.997   3.178  17.589 -1.0386 -0.7361  0.1034
 8792SOL     OW38008   2.289   2.649   8.026  0.6983  0.0444  0.2821
 8792SOL    HW138009   2.357   2.702   7.985 -0.1920  0.2651 -0.9089
 8792SOL    HW238010   2.219   2.637   7.963  1.4770  0.1390 -0.5960
 8793SOL     OW38011   2.539   3.034   9.882 -0.1312  0.1611  0.0719
 8793SOL    HW138012   2.608   3.032   9.949 -0.4622 -0.2084  0.3983
 8793SOL    HW238013   2.536   2.941   9.862 -0.2897  0.6544 -2.1877
 8794SOL     OW38014   2.855   3.865   8.558 -0.0617  0.1926 -0.3363
 8794SOL    HW138015   2.849   3.909   8.643 -0.8276 -0.1232 -0.2330
 8794SOL    HW238016   2.793   3.792   8.559 -0.8378  0.8840  1.7132
 8795SOL     OW38017   2.116   1.296  17.209  0.2603 -0.4323 -0.0808
 8795SOL    HW138018   2.177   1.326  17.141 -0.6617  0.6778 -0.4148
 8795SOL    HW238019   2.028   1.287  17.173  0.9837 -2.2609 -1.4274
 8796SOL     OW38020   4.584   1.134   7.928 -0.0197 -0.2401  0.8408
 8796SOL    HW138021   4.512   1.113   7.868  0.4322 -0.7729  0.4887
 8796SOL    HW238022   4.605   1.226   7.915 -1.7160 -0.2527 -2.0301
 8797SOL     OW38023   0.888   1.063   6.306 -0.3539  0.3951  0.2093
 8797SOL    HW138024   0.807   1.063   6.255  0.3288  1.8684 -0.8959
 8797SOL    HW238025   0.914   1.155   6.308  2.3797 -0.3504 -0.4283
 8798SOL     OW38026   4.682   0.476   5.299  0.1100 -0.3460 -0.6647
 8798SOL    HW138027   0.030   0.488   5.339  0.1645  0.4020 -1.0155
 8798SOL    HW238028   4.633   0.430   5.367 -0.2381 -0.7030 -1.1520
 8799SOL     OW38029   4.278   3.462   2.640 -0.3454 -0.8103  0.1405
 8799SOL    HW138030   4.214   3.456   2.711 -0.2564  1.9812  0.4362
 8799SOL    HW238031   4.224   3.465   2.561  0.0148  1.7170  0.0188
 8800SOL     OW38032   3.737   1.244   9.054 -0.1121 -0.0160  0.0160
 8800SOL    HW138033   3.767   1.237   9.144  0.5875  1.0565 -0.1355
 8800SOL    HW238034   3.810   1.296   9.021  0.1702  0.9185  2.1404
 8801SOL     OW38035   2.785   1.113   8.615  0.1608  0.4968 -0.6711
 8801SOL    HW138036   2.762   1.123   8.707 -1.5141 -1.7527 -0.8391
 8801SOL    HW238037   2.729   1.039   8.590 -0.8113  0.5318  1.3665
 8802SOL     OW38038   3.806   0.712   6.023  0.5986 -0.2942 -0.0955
 8802SOL    HW138039   3.854   0.645   5.973  2.4184 -0.7136  2.2308
 8802SOL    HW238040   3.721   0.688   5.987  0.4939 -1.0480  0.6601
 8803SOL     OW38041   0.097   1.766   4.192  0.2096 -0.6924  0.2497
 8803SOL    HW138042   0.016   1.805   4.225  1.0742  0.1001  1.4046
 8803SOL    HW238043   0.089   1.794   4.101  1.1908  0.0635  0.4086
 8804SOL     OW38044   2.715   3.800   7.862  0.0436  0.0287  0.2909
 8804SOL    HW138045   2.725   3.837   7.950  1.4489 -0.4465  0.3370
 8804SOL    HW238046   2.688   3.709   7.878 -0.4527  0.0189 -0.6223
 8805SOL     OW38047   0.355   4.177  11.719 -0.6196  0.0282  0.0716
 8805SOL    HW138048   0.339   4.269  11.701 -1.0230 -0.5237 -2.4318
 8805SOL    HW238049   0.443   4.150  11.692 -1.4688 -2.7582  0.0463
 8806SOL     OW38050   4.189   4.289   4.994  0.3726  0.1004 -0.2910
 8806SOL    HW138051   4.228   4.248   5.072 -0.8367  1.2650  0.9054
 8806SOL    HW238052   4.236   4.372   4.999  1.8146 -0.7486  0.5579
 8807SOL     OW38053   1.319   2.385   4.165  0.1246  0.2089  0.5202
 8807SOL    HW138054   1.375   2.308   4.168  0.9218  0.6712 -2.5958
 8807SOL    HW238055   1.239   2.342   4.196 -0.2879 -0.3797 -1.3894
 8808SOL     OW38056   0.260   2.742   1.247 -0.5437 -0.5045 -0.0866
 8808SOL    HW138057   0.351   2.726   1.223 -1.0994 -0.8844 -1.9601
 8808SOL    HW238058   0.271   2.832   1.277 -0.0131 -0.4009 -0.5963
 8809SOL     OW38059   2.789   1.360  12.734  0.3785 -0.5053  0.1695
 8809SOL    HW138060   2.844   1.436  12.754 -1.6845  0.0168  3.9675
 8809SOL    HW238061   2.821   1.303  12.804 -3.7399 -2.1684  0.6818
 8810SOL     OW38062   4.320   0.299   8.767  0.0330 -0.4669 -0.1207
 8810SOL    HW138063   4.308   0.210   8.735 -1.8119 -0.6109  0.9638
 8810SOL    HW238064   4.358   0.344   8.692 -0.9737  2.0849  0.8992
 8811SOL     OW38065   2.127   0.068  16.277 -0.1551  0.3664 -0.8015
 8811SOL    HW138066   2.181   0.122  16.220  0.7000 -0.4000 -0.7240
 8811SOL    HW238067   2.078   0.015  16.214  2.0832 -1.4514 -0.9800
 8812SOL     OW38068   3.160   1.109   9.995  0.2630 -0.2155 -0.6392
 8812SOL    HW138069   3.178   1.202  10.005 -1.8469  0.3245 -2.1136
 8812SOL    HW238070   3.082   1.115   9.941 -0.4536 -0.6016  0.3440
 8813SOL     OW38071   1.287   2.274   8.068 -0.2554  0.3520 -0.3132
 8813SOL    HW138072   1.242   2.196   8.100 -0.7031  0.7540  0.0331
 8813SOL    HW238073   1.332   2.303   8.148 -1.4333  2.7237 -0.5182
 8814SOL     OW38074   0.315   2.832   8.291 -0.3168 -0.2114  0.3311
 8814SOL    HW138075   0.235   2.780   8.286 -0.9450  0.7532  0.1669
 8814SOL    HW238076   0.289   2.904   8.232 -0.1547  1.1266  1.9012
 8815SOL     OW38077   3.787   4.719  14.595  0.8125  1.4064 -0.5519
 8815SOL    HW138078   3.862   4.662  14.611 -1.5694 -1.3064  0.8179
 8815SOL    HW238079   3.797   0.051  14.661  0.4034  1.9600 -1.0730
 8816SOL     OW38080   2.684   2.233   7.668  0.0932 -0.6604  0.2192
 8816SOL    HW138081   2.634   2.284   7.732  1.2017  1.4376 -0.5956
 8816SOL    HW238082   2.756   2.291   7.644 -0.0023 -0.8041 -0.4193
 8817SOL     OW38083   2.695   2.224   5.174 -0.4013  0.2832 -0.4955
 8817SOL    HW138084   2.676   2.317   5.164  0.0563  0.6056  1.6633
 8817SOL    HW238085   2.670   2.197   5.086 -1.7884 -0.5302  0.1260
 8818SOL     OW38086   0.814   1.543   2.755 -0.5146 -0.5686 -0.0123
 8818SOL    HW138087   0.789   1.622   2.803  2.8740  0.5003 -0.0019
 8818SOL    HW238088   0.909   1.548   2.761 -0.6188  0.9685  0.2687
 8819SOL     OW38089   4.423   3.903   1.530  0.3951  0.1110  0.0835
 8819SOL    HW138090   4.482   3.891   1.604  0.4649  0.7484  0.1305
 8819SOL    HW238091   4.397   3.995   1.533 -0.0286  0.0262 -0.8647
 8820SOL     OW38092   0.311   1.832   5.404  0.2393  1.0572 -0.1620
 8820SOL    HW138093   0.364   1.771   5.353 -1.9535 -1.8690  1.0673
 8820SOL    HW238094   0.329   1.808   5.495  1.1111  2.3885  0.0255
 8821SOL     OW38095   2.978   3.530   9.696 -0.1887  0.0983 -0.6622
 8821SOL    HW138096   3.044   3.599   9.693 -1.8705  1.7356  0.1804
 8821SOL    HW238097   3.023   3.450   9.669  0.7940  0.8411 -1.2400
 8822SOL     OW38098   2.400   3.234   5.690  0.2963  0.2751 -0.1714
 8822SOL    HW138099   2.327   3.172   5.681  1.5489 -0.9803 -1.5970
 8822SOL    HW238100   2.451   3.193   5.620 -1.8055 -0.2518 -1.3944
 8823SOL     OW38101   3.408   3.785  14.460  0.2866 -0.1070 -0.0237
 8823SOL    HW138102   3.371   3.704  14.494  0.6027 -0.1907  0.1154
 8823SOL    HW238103   3.497   3.760  14.437  0.3915 -0.4666  0.7626
 8824SOL     OW38104   1.522   3.829  14.484 -0.2102 -0.1328  0.8763
 8824SOL    HW138105   1.603   3.810  14.534 -0.2758 -2.4261  0.1363
 8824SOL    HW238106   1.461   3.763  14.518  0.6877 -0.7726  1.2744
 8825SOL     OW38107   2.198   3.327  12.373  0.6508 -0.3881 -0.2235
 8825SOL    HW138108   2.267   3.261  12.381 -0.3401 -1.0212  3.0351
 8825SOL    HW238109   2.234   3.387  12.308 -0.7736  0.2295 -0.4515
 8826SOL     OW38110   2.630   2.507   4.714  0.5789  0.1820 -0.2142
 8826SOL    HW138111   2.663   2.419   4.697 -0.4311 -0.7572  2.5697
 8826SOL    HW238112   2.563   2.478   4.776  0.5142  1.4817  0.3376
 8827SOL     OW38113   2.899   0.959   7.644  0.5590  0.4283  0.1579
 8827SOL    HW138114   2.938   0.920   7.722  0.8045 -1.9930 -1.1849
 8827SOL    HW238115   2.821   1.000   7.681 -0.6860 -0.6021 -1.3148
 8828SOL     OW38116   1.860   3.435   6.436 -0.5134  0.4717  0.6340
 8828SOL    HW138117   1.779   3.456   6.390 -1.1909  0.8266  1.9764
 8828SOL    HW238118   1.911   3.515   6.426  0.0256  0.1500  0.8153
 8829SOL     OW38119   1.327   0.024   4.612  0.4387  0.2178  0.1110
 8829SOL    HW138120   1.284   0.025   4.697 -0.8999  0.9224 -0.5614
 8829SOL    HW238121   1.278   4.694   4.565 -0.6564  1.0961 -0.0284
 8830SOL     OW38122   0.687   3.862  12.757 -0.0995  0.0549  0.0614
 8830SOL    HW138123   0.659   3.796  12.694  0.0204 -0.1764  0.2497
 8830SOL    HW238124   0.659   3.941  12.711  0.1921  0.8286  1.1970
 8831SOL     OW38125   1.867   2.996  15.373  0.2043 -0.1797  0.2269
 8831SOL    HW138126   1.774   2.992  15.395 -0.1715 -1.2659 -1.5139
 8831SOL    HW238127   1.875   2.917  15.319  3.8616  0.2739  0.0927
 8832SOL     OW38128   1.147   2.759   1.900 -0.0461 -0.4011 -0.2398
 8832SOL    HW138129   1.134   2.849   1.871 -1.4851 -1.2219 -2.1655
 8832SOL    HW238130   1.056   2.733   1.914 -0.4510  1.6391  0.9766
 8833SOL     OW38131   0.061   3.091   4.577  0.4258 -0.0148 -0.3273
 8833SOL    HW138132   0.112   3.055   4.504  0.1515 -1.3969  0.1454
 8833SOL    HW238133   0.021   3.006   4.598  0.7845 -0.1811 -0.3050
 8834SOL     OW38134   2.611   0.621   7.617 -0.0774 -0.3466  0.2150
 8834SOL    HW138135   2.604   0.627   7.522  0.7139 -0.8569  0.1283
 8834SOL    HW238136   2.579   0.706   7.648  1.3165  0.8383 -1.6418
 8835SOL     OW38137   1.411   0.134   2.377 -0.5649 -0.2173 -0.4816
 8835SOL    HW138138   1.398   0.041   2.355  0.7463 -0.5387  0.0959
 8835SOL    HW238139   1.357   0.144   2.456 -0.1026  2.1925 -0.4879
 8836SOL     OW38140   2.172   2.168   1.444 -0.6995  0.5771  0.8447
 8836SOL    HW138141   2.160   2.157   1.349  0.7252 -0.7781  0.8216
 8836SOL    HW238142   2.081   2.179   1.471 -0.5376  0.5875  1.3688
 8837SOL     OW38143   3.509   1.933   4.417 -0.0776  0.5637 -0.3901
 8837SOL    HW138144   3.581   1.878   4.446 -0.9245 -0.8902 -1.0268
 8837SOL    HW238145   3.491   1.968   4.504 -1.0169  1.8129 -1.0770
 8838SOL     OW38146   4.566   3.631   9.777  0.2921 -0.3519  0.1106
 8838SOL    HW138147   4.636   3.614   9.840  0.4222  2.0181  0.6011
 8838SOL    HW238148   4.554   3.726   9.787  0.9279 -0.2902  0.2945
 8839SOL     OW38149   3.188   0.637  10.314 -0.0413  0.3299  0.2177
 8839SOL    HW138150   3.148   0.712  10.358  1.4821  0.3071  1.6469
 8839SOL    HW238151   3.244   0.680  10.249 -1.6418  2.5571  0.3168
 8840SOL     OW38152   2.032   1.371  12.513 -0.1232 -0.0009 -0.2719
 8840SOL    HW138153   2.104   1.431  12.532  0.4862 -1.2450  1.3825
 8840SOL    HW238154   1.976   1.418  12.451 -2.2278 -2.3355 -0.1494
 8841SOL     OW38155   0.952   3.712   2.049 -0.5289 -0.4026 -0.3192
 8841SOL    HW138156   0.937   3.711   1.955 -0.8519  0.4599 -0.2757
 8841SOL    HW238157   0.992   3.627   2.071 -0.2144 -0.0653  0.4138
 8842SOL     OW38158   2.925   4.178   3.859 -0.2019  0.2177 -0.9319
 8842SOL    HW138159   2.916   4.083   3.853 -1.7343  0.3388 -0.5239
 8842SOL    HW238160   2.854   4.201   3.919  0.7290 -1.3385  0.7699
 8843SOL     OW38161   4.148   4.547   4.799 -0.3726  0.0441  0.2072
 8843SOL    HW138162   4.244   4.543   4.802 -0.2504  0.9111 -1.8576
 8843SOL    HW238163   4.142   4.528   4.705 -0.2641  1.0912 -0.0135
 8844SOL     OW38164   2.055   0.538   8.218 -0.1654  0.6361 -0.6038
 8844SOL    HW138165   2.071   0.626   8.254  1.3380 -0.0559  0.4372
 8844SOL    HW238166   1.963   0.526   8.240  0.2829  0.7794  1.3632
 8845SOL     OW38167   3.925   0.220   0.640  0.0028 -0.2821 -0.1986
 8845SOL    HW138168   3.882   0.138   0.614  3.5753 -2.6798  1.3954
 8845SOL    HW238169   3.849   0.259   0.682  2.1481  1.0226  2.4650
 8846SOL     OW38170   1.008   4.386   8.880  1.2718 -0.5937 -0.1772
 8846SOL    HW138171   1.024   4.321   8.948  0.3426 -0.8415 -0.1952
 8846SOL    HW238172   1.094   4.429   8.876  0.0658  1.9152  0.5639
 8847SOL     OW38173   0.033   3.866   7.649  0.2745 -0.3686  0.6922
 8847SOL    HW138174   4.693   3.814   7.665 -0.6336  0.5227 -0.8370
 8847SOL    HW238175   0.040   3.915   7.731  0.4178  1.2214 -0.2632
 8848SOL     OW38176   1.505   1.678   8.051  0.2195 -0.3281  0.4821
 8848SOL    HW138177   1.591   1.654   8.086 -0.2179  0.6410  2.2579
 8848SOL    HW238178   1.463   1.596   8.074 -0.5211 -0.2944 -0.7825
 8849SOL     OW38179   4.625   0.204   3.862  0.5326 -0.2662  0.1970
 8849SOL    HW138180   4.659   0.205   3.772  0.8540  1.0657  0.3281
 8849SOL    HW238181   4.680   0.137   3.901 -1.1730 -0.7886  1.6535
 8850SOL     OW38182   2.316   1.577   1.723  0.0201  0.0853  0.0897
 8850SOL    HW138183   2.348   1.504   1.669  0.8926  0.6951 -0.2151
 8850SOL    HW238184   2.378   1.578   1.795  0.2023 -0.3035 -0.0602
 8851SOL     OW38185   2.687   2.282   3.577 -0.2041  0.7070  0.0858
 8851SOL    HW138186   2.633   2.225   3.522  1.6103  0.7911 -1.7460
 8851SOL    HW238187   2.745   2.226   3.628  2.5381 -0.0186 -3.8175
 8852SOL     OW38188   0.756   0.130   8.020  0.0478 -0.2398  0.0604
 8852SOL    HW138189   0.775   0.088   7.936 -1.2926 -2.6294  0.9343
 8852SOL    HW238190   0.826   0.106   8.081 -0.1049  1.3973  0.8716
 8853SOL     OW38191   3.629   2.504   6.695 -0.6261  0.5891 -0.2392
 8853SOL    HW138192   3.657   2.418   6.725  2.5904  2.0232  0.8742
 8853SOL    HW238193   3.713   2.547   6.676  0.5772 -1.0788  1.3334
 8854SOL     OW38194   3.192   1.085   7.865  0.3973  0.3322 -0.1950
 8854SOL    HW138195   3.171   1.035   7.786 -0.4117  0.3139  0.0349
 8854SOL    HW238196   3.242   1.019   7.914 -0.4819  0.2003  0.5192
 8855SOL     OW38197   1.008   2.037   5.559 -0.1335  0.5896  0.7736
 8855SOL    HW138198   1.027   2.020   5.467  0.8286 -0.1915  1.1144
 8855SOL    HW238199   1.061   1.980   5.615  0.2253 -0.9478 -1.1461
 8856SOL     OW38200   2.312   2.640   6.058  0.1757  0.6108  0.0170
 8856SOL    HW138201   2.308   2.700   6.132  0.1624 -1.5569  1.7396
 8856SOL    HW238202   2.398   2.600   6.063  0.4921  1.1409 -1.0242
 8857SOL     OW38203   1.338   2.923   0.070 -0.1031  0.4511 -0.1070
 8857SOL    HW138204   1.362   2.924  17.727 -0.5875 -3.1534 -0.2732
 8857SOL    HW238205   1.395   2.996   0.093 -0.7501  1.0532 -0.4330
 8858SOL     OW38206   0.367   3.994  12.815 -0.2903  0.1571  0.0905
 8858SOL    HW138207   0.459   3.972  12.806 -0.0478  1.9931 -1.8651
 8858SOL    HW238208   0.371   4.089  12.802 -1.3487  0.1894  0.0167
 8859SOL     OW38209   1.666   1.204  13.806 -0.4281  0.5171 -0.1691
 8859SOL    HW138210   1.743   1.222  13.751  0.5771 -2.5763  0.1925
 8859SOL    HW238211   1.692   1.243  13.889 -0.2108 -1.2752  0.6142
 8860SOL     OW38212   0.751   3.082   4.357  0.0319  0.3588  0.1805
 8860SOL    HW138213   0.715   3.006   4.312  2.1656  0.4426 -1.6901
 8860SOL    HW238214   0.819   3.115   4.298  1.7208  0.3663  2.1619
 8861SOL     OW38215   0.152   2.832  14.990 -0.7258 -0.0466 -0.1459
 8861SOL    HW138216   0.221   2.897  15.004 -0.7898 -0.0492  0.1724
 8861SOL    HW238217   0.181   2.759  15.044  0.8135 -0.7321 -1.9198
 8862SOL     OW38218   1.576   1.253   2.378  0.0615 -0.1516 -0.0584
 8862SOL    HW138219   1.518   1.189   2.336 -0.1690 -0.2729  0.4456
 8862SOL    HW238220   1.615   1.273   2.293  0.3167  3.3577  0.8993
 8863SOL     OW38221   2.216   3.302   3.426  0.3454  0.1116 -0.1409
 8863SOL    HW138222   2.181   3.261   3.505  3.8418 -2.3661  0.1309
 8863SOL    HW238223   2.212   3.230   3.363 -1.2717  0.0263  0.0724
 8864SOL     OW38224   2.311   3.982   2.935 -0.4072  0.0427  0.3552
 8864SOL    HW138225   2.334   4.020   3.020  3.6389 -1.0664 -0.2445
 8864SOL    HW238226   2.340   4.053   2.878  0.5669  1.5480  2.7104
 8865SOL     OW38227   0.925   2.666   8.069 -0.3478  0.1350  0.5107
 8865SOL    HW138228   0.934   2.599   8.001 -1.0798  0.7079 -0.1493
 8865SOL    HW238229   0.836   2.691   8.043 -1.2694 -0.2220  3.2997
 8866SOL     OW38230   3.077   3.369   1.742  0.0723 -0.3847 -0.2117
 8866SOL    HW138231   3.098   3.296   1.800 -3.9691 -1.4152 -0.1095
 8866SOL    HW238232   2.983   3.380   1.750  0.5282  3.8731 -0.5170
 8867SOL     OW38233   2.907   3.097   3.389 -0.5371 -0.1825 -0.4287
 8867SOL    HW138234   2.827   3.062   3.429 -1.1036  0.2965 -1.1452
 8867SOL    HW238235   2.932   3.035   3.320  0.7751 -0.2325  0.0935
 8868SOL     OW38236   1.947   2.049   6.149 -0.0771 -0.2276 -0.0950
 8868SOL    HW138237   2.005   2.061   6.074 -0.0655 -1.5664 -0.3016
 8868SOL    HW238238   1.910   2.137   6.160  1.8523  0.6872 -1.0117
 8869SOL     OW38239   3.770   1.316  11.760 -0.1309  0.1257  0.3540
 8869SOL    HW138240   3.844   1.272  11.802 -0.5258 -0.9088 -0.0312
 8869SOL    HW238241   3.763   1.402  11.802  1.0303  0.9893 -1.2106
 8870SOL     OW38242   3.829   4.534   2.220  0.2523  0.0001 -0.0482
 8870SOL    HW138243   3.761   4.601   2.211 -0.1217 -0.0721  2.1102
 8870SOL    HW238244   3.811   4.489   2.303  2.8975  0.8550  0.9962
 8871SOL     OW38245   3.586   3.933   2.321  0.5538 -0.5844 -0.1523
 8871SOL    HW138246   3.533   3.930   2.401  0.7549  0.9427  0.0395
 8871SOL    HW238247   3.663   3.982   2.351 -0.5695 -0.2934  2.3334
 8872SOL     OW38248   0.630   3.463   2.153  0.1990 -1.0081 -0.5330
 8872SOL    HW138249   0.538   3.443   2.171  0.0619  1.1281  1.0975
 8872SOL    HW238250   0.644   3.437   2.062  1.5179 -1.0033 -0.3241
 8873SOL     OW38251   3.393   1.077  14.412  0.3995 -0.0198  0.0416
 8873SOL    HW138252   3.391   1.136  14.336 -1.2152 -0.6410 -0.4012
 8873SOL    HW238253   3.300   1.066  14.433 -0.2207  0.3475 -2.4834
 8874SOL     OW38254   2.203   3.090   3.838  0.1565  0.4270 -0.0178
 8874SOL    HW138255   2.265   3.017   3.836 -1.0229 -0.6199  1.1882
 8874SOL    HW238256   2.248   3.147   3.901 -0.1155  0.1252  0.4552
 8875SOL     OW38257   1.790   2.869   9.374  0.2093 -0.1411 -0.2513
 8875SOL    HW138258   1.727   2.797   9.371  0.4863 -0.3618 -0.5845
 8875SOL    HW238259   1.781   2.886   9.468  0.7394  0.2514 -0.2758
 8876SOL     OW38260   3.003   3.614  16.597 -0.2113  0.0331 -0.0686
 8876SOL    HW138261   3.016   3.709  16.594  3.0870 -0.4606 -1.5663
 8876SOL    HW238262   2.948   3.598  16.674  1.5946  0.2644  1.2724
 8877SOL     OW38263   4.244   2.477   5.666  0.1343 -0.2798  0.1013
 8877SOL    HW138264   4.167   2.532   5.681  0.1579 -0.9890  2.7403
 8877SOL    HW238265   4.255   2.437   5.752  0.7092 -1.9563 -0.7622
 8878SOL     OW38266   4.500   2.677  16.523 -0.5511  0.2080 -0.0379
 8878SOL    HW138267   4.425   2.729  16.553 -0.6376 -0.4400  0.8557
 8878SOL    HW238268   4.472   2.673  16.432  0.7286  2.0839 -0.5090
 8879SOL     OW38269   0.540   4.674   9.731 -0.0993 -0.3690  0.3189
 8879SOL    HW138270   0.542   4.671   9.827  1.0653 -1.3480  0.2604
 8879SOL    HW238271   0.586   0.018   9.713  1.1258 -0.9619  0.7442
 8880SOL     OW38272   2.497   2.606   3.882 -0.6508 -0.3033  0.4490
 8880SOL    HW138273   2.476   2.522   3.922  1.2945 -0.8740  0.2886
 8880SOL    HW238274   2.534   2.580   3.797  0.0832 -1.5390  1.1533
 8881SOL     OW38275   2.484   4.086   3.893  0.0551  0.4657 -0.6126
 8881SOL    HW138276   2.562   4.134   3.921  2.0017 -1.2437 -3.1042
 8881SOL    HW238277   2.412   4.115   3.949 -0.5194 -0.8473 -0.6791
 8882SOL     OW38278   0.214   0.084   2.312 -0.2630  0.0883  0.2174
 8882SOL    HW138279   0.285   0.148   2.310 -0.6221  0.5628  1.9533
 8882SOL    HW238280   0.169   0.110   2.393 -2.2361 -0.0758 -0.8236
 8883SOL     OW38281   2.193   1.581   3.381  0.2095 -0.3143 -0.1407
 8883SOL    HW138282   2.118   1.568   3.439 -0.5185 -0.1781 -1.0536
 8883SOL    HW238283   2.214   1.491   3.356 -2.3119 -0.6231 -1.1228
 8884SOL     OW38284   1.880   0.382   0.767  0.1733 -0.2348 -0.4593
 8884SOL    HW138285   1.908   0.439   0.695  2.0093 -0.7548 -0.1546
 8884SOL    HW238286   1.864   0.305   0.713  0.3266  0.6593 -1.7655
 8885SOL     OW38287   3.376   0.531   3.515  0.3548  0.6874 -0.0486
 8885SOL    HW138288   3.322   0.608   3.533 -0.9763 -0.7345  2.2311
 8885SOL    HW238289   3.459   0.554   3.557 -1.0075 -0.2960  3.2347
 8886SOL     OW38290   3.616   2.156   6.229  0.0726  0.6843  0.4635
 8886SOL    HW138291   3.638   2.163   6.322 -0.8030  2.6862  0.5068
 8886SOL    HW238292   3.545   2.091   6.234  1.1253 -0.4150  1.2030
 8887SOL     OW38293   4.446   1.402  17.390 -0.0112 -0.4999  0.5057
 8887SOL    HW138294   4.434   1.317  17.433 -1.3552 -1.5892 -2.0489
 8887SOL    HW238295   4.537   1.402  17.363  0.2398  1.3579  1.3449
 8888SOL     OW38296   3.087   3.255   4.437 -0.0755 -0.1467  0.3869
 8888SOL    HW138297   3.056   3.168   4.460 -0.3826 -0.4822 -1.2802
 8888SOL    HW238298   3.144   3.272   4.511  0.6524  2.7983 -0.8167
 8889SOL     OW38299   2.891   2.513   2.141 -0.2664 -0.9467  0.0513
 8889SOL    HW138300   2.984   2.494   2.126 -0.3537 -2.1201  1.0302
 8889SOL    HW238301   2.874   2.519   2.235  0.9405  0.6012  0.1583
 8890SOL     OW38302   0.060   1.430   6.497 -0.2800 -0.6673 -0.1350
 8890SOL    HW138303   0.051   1.368   6.569  1.5538 -0.1303  0.5573
 8890SOL    HW238304   0.129   1.386   6.448  0.5674 -1.0919  1.4442
 8891SOL     OW38305   1.861   0.981   3.344 -0.1292 -0.1663  0.1123
 8891SOL    HW138306   1.806   0.910   3.375  0.3725 -1.5261 -2.0816
 8891SOL    HW238307   1.792   1.047   3.335  0.7280  0.6228 -0.8116
 8892SOL     OW38308   0.638   3.203   4.587 -0.0725 -0.4226  0.2423
 8892SOL    HW138309   0.563   3.249   4.548  1.0086  0.7502 -0.4320
 8892SOL    HW238310   0.678   3.156   4.514  1.0126  0.8840  0.0054
 8893SOL     OW38311   1.972   4.622   8.308 -0.1003  0.1547 -0.6342
 8893SOL    HW138312   2.019   4.608   8.390 -0.4135  1.4195 -0.2479
 8893SOL    HW238313   1.968   4.717   8.306  0.6355  0.2084  0.8750
 8894SOL     OW38314   3.832   3.972   4.866 -0.1645 -0.3417 -0.1241
 8894SOL    HW138315   3.889   3.984   4.943  0.9575 -0.0082 -1.0045
 8894SOL    HW238316   3.752   4.007   4.904 -1.2802 -0.8742 -1.9756
 8895SOL     OW38317   1.720   0.536   4.015  0.4218  0.2419 -0.6705
 8895SOL    HW138318   1.697   0.509   4.104 -0.1905  0.4831 -0.7555
 8895SOL    HW238319   1.707   0.455   3.965  0.4764  0.4485 -1.0152
 8896SOL     OW38320   3.872   3.085   9.686  0.2522 -0.3133  0.0927
 8896SOL    HW138321   3.783   3.068   9.655  1.0150 -4.8827  0.5034
 8896SOL    HW238322   3.860   3.099   9.780 -1.7732  0.6027 -0.3014
 8897SOL     OW38323   0.586   1.083   3.276  0.1196 -0.0013 -0.5567
 8897SOL    HW138324   0.680   1.099   3.285  0.3332 -0.3402 -2.3689
 8897SOL    HW238325   0.574   1.022   3.349  1.0715  1.7981  1.1004
 8898SOL     OW38326   1.016   1.672   3.889  0.3799  0.2182  0.5702
 8898SOL    HW138327   1.083   1.655   3.955  0.2167 -0.1446  0.6461
 8898SOL    HW238328   0.981   1.754   3.923 -0.3495  0.4600 -0.8009
 8899SOL     OW38329   0.351   4.447   4.420 -0.1871  0.6261  0.1046
 8899SOL    HW138330   0.292   4.506   4.467 -1.3137 -0.7998  0.5198
 8899SOL    HW238331   0.339   4.472   4.329  1.1290  0.8644 -0.0044
 8900SOL     OW38332   3.129   4.358   9.428 -0.5989  0.2281 -0.4827
 8900SOL    HW138333   3.155   4.282   9.375  1.3314  1.7729 -1.7959
 8900SOL    HW238334   3.045   4.330   9.465 -0.8231 -0.1745 -1.3018
 8901SOL     OW38335   1.781   3.868   7.516 -0.3782  0.3687  0.5345
 8901SOL    HW138336   1.817   3.790   7.473  2.5250  1.3562  1.1533
 8901SOL    HW238337   1.700   3.886   7.468  0.5749 -0.5801 -1.4258
 8902SOL     OW38338   0.798   2.967   4.976  0.4744  0.0419 -0.2473
 8902SOL    HW138339   0.724   2.941   4.922  0.1039  1.4108 -0.3917
 8902SOL    HW238340   0.869   2.982   4.914 -0.6938  0.4978 -1.4694
 8903SOL     OW38341   2.686   4.382  16.605  0.5236  0.3938 -0.2930
 8903SOL    HW138342   2.668   4.388  16.511 -1.6696 -1.0726  0.0219
 8903SOL    HW238343   2.660   4.291  16.619  0.0139  0.1926 -2.5727
 8904SOL     OW38344   2.600   2.917   4.089  0.6121  0.6112  0.4652
 8904SOL    HW138345   2.526   2.897   4.146 -0.8321  1.2342 -1.2067
 8904SOL    HW238346   2.626   3.004   4.119  0.6323  0.5833  0.5282
 8905SOL     OW38347   4.661   0.541  10.864  0.1492  0.0992 -0.3308
 8905SOL    HW138348   4.675   0.635  10.852 -3.2886  0.1119 -4.1745
 8905SOL    HW238349   4.682   0.532  10.957 -0.1709 -0.4721 -0.3158
 8906SOL     OW38350   0.682   0.245   6.748  0.2059 -0.3728 -0.4950
 8906SOL    HW138351   0.724   0.213   6.668  0.1586 -2.2702  0.2422
 8906SOL    HW238352   0.633   0.168   6.777  0.5780 -0.1217  0.8111
 8907SOL     OW38353   1.177   2.985  11.455  0.4255  0.0458  0.5921
 8907SOL    HW138354   1.110   2.917  11.453  1.6086 -1.1334  1.3856
 8907SOL    HW238355   1.195   2.974  11.548 -1.1890 -2.6503  0.5693
 8908SOL     OW38356   2.907   4.624   7.498  0.4771 -0.8758  0.3806
 8908SOL    HW138357   2.939   4.546   7.453 -1.0901 -1.7901  0.8536
 8908SOL    HW238358   2.964   4.681   7.445  1.7677 -0.9000  1.7473
 8909SOL     OW38359   0.429   2.105   8.655  0.4366  0.2572  0.2833
 8909SOL    HW138360   0.466   2.175   8.601  0.7165 -0.1442 -0.0445
 8909SOL    HW238361   0.497   2.115   8.722 -1.3090  0.3242  2.0193
 8910SOL     OW38362   3.697   3.802   6.419  0.3371 -0.0948 -0.2323
 8910SOL    HW138363   3.707   3.828   6.327  0.6123  3.1500  0.7205
 8910SOL    HW238364   3.612   3.839   6.442 -0.5723 -1.5662 -1.1929
 8911SOL     OW38365   3.155   1.763   4.108 -0.1308 -0.0296 -0.0103
 8911SOL    HW138366   3.236   1.776   4.157  0.9532 -1.5011 -1.4015
 8911SOL    HW238367   3.086   1.759   4.175 -1.1517 -2.4957 -1.2064
 8912SOL     OW38368   2.322   3.681   6.586 -0.5314 -0.4164  0.2810
 8912SOL    HW138369   2.244   3.730   6.613 -1.0811 -0.8709 -0.4577
 8912SOL    HW238370   2.296   3.590   6.600 -2.3256  0.2971  1.5724
 8913SOL     OW38371   0.493   2.569   6.265 -0.0699 -0.1665  0.4326
 8913SOL    HW138372   0.416   2.548   6.212  1.4866  0.3212 -2.0369
 8913SOL    HW238373   0.551   2.593   6.193 -2.8142 -1.0864 -2.1030
 8914SOL     OW38374   4.244   1.392   7.973 -0.3904  0.3694  0.1036
 8914SOL    HW138375   4.289   1.413   8.054  0.4964 -0.4094 -0.1858
 8914SOL    HW238376   4.278   1.459   7.913  0.7640  0.0216  0.3822
 8915SOL     OW38377   2.937   1.801   5.202 -0.4242 -0.2462  0.2065
 8915SOL    HW138378   2.850   1.818   5.237 -1.1104  0.9113 -2.0528
 8915SOL    HW238379   2.973   1.889   5.208 -4.0280  1.0907  1.8207
 8916SOL     OW38380   0.208   4.100   3.735  0.4614 -0.2656 -0.0503
 8916SOL    HW138381   0.279   4.051   3.777  0.8311  1.2487  1.0609
 8916SOL    HW238382   0.131   4.048   3.759 -0.1290  1.5385  1.9068
 8917SOL     OW38383   2.421   2.421   5.819  0.2596 -0.3913 -0.1633
 8917SOL    HW138384   2.414   2.376   5.903  0.3082 -1.9409 -0.9885
 8917SOL    HW238385   2.328   2.425   5.799 -0.1361  2.0828  2.1539
 8918SOL     OW38386   1.559   0.974   8.124  0.1919 -0.2110 -0.1502
 8918SOL    HW138387   1.509   0.975   8.205  0.6726  3.5639  0.0664
 8918SOL    HW238388   1.645   1.001   8.156  0.3442 -1.0360  0.1422
 8919SOL     OW38389   0.428   3.184  10.238  0.5789 -0.6212  0.2358
 8919SOL    HW138390   0.462   3.155  10.322  0.9845  0.8141  0.5584
 8919SOL    HW238391   0.340   3.146  10.234  0.7290 -0.9280 -0.1999
 8920SOL     OW38392   1.756   0.300   3.046  0.0458 -0.2924  0.2044
 8920SOL    HW138393   1.801   0.275   2.965  0.1355 -1.5016  0.6320
 8920SOL    HW238394   1.818   0.260   3.106 -0.2207 -0.6680  0.2258
 8921SOL     OW38395   3.484   2.418   4.474 -0.1695  0.0846 -0.9700
 8921SOL    HW138396   3.475   2.361   4.397  0.1868  1.4786 -2.0505
 8921SOL    HW238397   3.559   2.472   4.451  0.1464  0.8225  1.8425
 8922SOL     OW38398   0.863   3.571   7.558 -0.4364 -0.1232  0.1239
 8922SOL    HW138399   0.788   3.528   7.598 -0.8736 -0.5112 -1.1227
 8922SOL    HW238400   0.829   3.648   7.513  1.2460  0.1011 -0.7696
 8923SOL     OW38401   1.238   2.026   5.905 -0.0986  0.0348 -0.2891
 8923SOL    HW138402   1.295   2.095   5.940  0.5956 -0.0453 -1.2517
 8923SOL    HW238403   1.283   2.005   5.823  1.4362 -0.4158  0.6665
 8924SOL     OW38404   1.260   1.265   1.354  0.3313  0.2234 -0.3441
 8924SOL    HW138405   1.312   1.209   1.412  0.2595 -0.2751 -0.7591
 8924SOL    HW238406   1.228   1.201   1.290  2.0989 -0.6600 -0.3634
 8925SOL     OW38407   2.970   0.491  13.391  0.2949 -0.0473  0.1728
 8925SOL    HW138408   3.033   0.560  13.371 -1.4588  0.6280 -2.9964
 8925SOL    HW238409   3.034   0.421  13.404  1.0396  0.8684  1.4365
 8926SOL     OW38410   4.641   3.826   2.220  0.2939  0.1197  0.2512
 8926SOL    HW138411   4.719   3.783   2.254  1.0499  0.6350 -0.8338
 8926SOL    HW238412   4.601   3.867   2.297 -0.0062 -0.6810  0.5119
 8927SOL     OW38413   0.960   0.313   2.400  0.7244 -0.1409  0.2038
 8927SOL    HW138414   0.993   0.335   2.313  2.3280  1.4806  1.2275
 8927SOL    HW238415   0.900   0.387   2.411 -0.4303 -0.9813 -0.4496
 8928SOL     OW38416   4.038   1.246  16.398 -0.3935  0.3345  0.1292
 8928SOL    HW138417   4.089   1.191  16.338  0.3167  0.5878  0.5043
 8928SOL    HW238418   4.087   1.328  16.397 -1.4799  0.9823 -0.0075
 8929SOL     OW38419   1.127   3.628   1.611 -0.1352 -0.6271 -0.5181
 8929SOL    HW138420   1.139   3.613   1.517 -3.4982 -0.4502 -0.9741
 8929SOL    HW238421   1.078   3.711   1.608 -1.4222 -1.2833  2.1070
 8930SOL     OW38422   4.084   0.104   4.790  0.4248 -0.5158 -0.0006
 8930SOL    HW138423   4.170   0.122   4.754 -0.0974 -0.3126 -1.1567
 8930SOL    HW238424   4.084   0.008   4.799 -3.5442 -0.2463  3.0883
 8931SOL     OW38425   0.752   0.662   5.790 -0.0942 -0.4235  0.2274
 8931SOL    HW138426   0.656   0.658   5.788 -0.0996  0.0052 -0.5029
 8931SOL    HW238427   0.762   0.736   5.730  1.9111  0.0453  1.1407
 8932SOL     OW38428   2.919   2.477   5.604 -0.0137 -0.0031  0.4434
 8932SOL    HW138429   3.013   2.458   5.601 -0.4607 -1.9542 -0.8335
 8932SOL    HW238430   2.922   2.563   5.561  1.1441  1.0260  2.5996
 8933SOL     OW38431   1.881   1.431  14.059  0.3197 -0.0327 -0.0149
 8933SOL    HW138432   1.902   1.524  14.052 -0.6099  0.2458  0.9208
 8933SOL    HW238433   1.785   1.427  14.049  0.3046  1.4091 -0.3395
 8934SOL     OW38434   4.030   0.103  11.801 -0.8232 -0.2429  0.2546
 8934SOL    HW138435   4.004   0.031  11.744  1.0673 -0.9423  0.2790
 8934SOL    HW238436   4.125   0.099  11.789 -0.9065  0.1094 -0.4794
 8935SOL     OW38437   1.185   1.688   8.031  0.0801 -0.0384 -0.1856
 8935SOL    HW138438   1.200   1.756   8.096  1.6104 -0.1712 -0.4122
 8935SOL    HW238439   1.131   1.618   8.069  1.5281 -2.2012 -2.1101
 8936SOL     OW38440   2.720   2.823   8.546  0.2370  0.0251  0.0820
 8936SOL    HW138441   2.794   2.821   8.607  0.7845  0.3477 -0.5788
 8936SOL    HW238442   2.724   2.919   8.540  1.9962 -0.1348 -1.1773
 8937SOL     OW38443   3.821   1.896   7.559 -0.2751 -0.1143 -0.0643
 8937SOL    HW138444   3.804   1.806   7.588 -1.1003  1.1739  3.4300
 8937SOL    HW238445   3.860   1.930   7.640 -1.6047  1.8778 -0.2772
 8938SOL     OW38446   0.682   0.521   6.689  0.1024  0.0067 -0.5942
 8938SOL    HW138447   0.697   0.527   6.594  0.2680 -1.1857 -0.6403
 8938SOL    HW238448   0.690   0.427   6.706  1.6011 -0.0880 -1.8862
 8939SOL     OW38449   2.381   1.398  15.418  0.1666 -0.1372  0.0073
 8939SOL    HW138450   2.412   1.484  15.445 -0.4211  0.5836 -1.6777
 8939SOL    HW238451   2.386   1.346  15.499 -0.9660  0.0064  0.1625
 8940SOL     OW38452   2.283   0.907  15.159 -0.7290 -0.0094  0.2084
 8940SOL    HW138453   2.366   0.948  15.133 -2.2649  2.9047 -0.0968
 8940SOL    HW238454   2.263   0.946  15.244 -1.8266  0.0502 -0.0778
 8941SOL     OW38455   0.227   0.932  16.943 -0.0378 -0.1924  0.3358
 8941SOL    HW138456   0.191   0.857  16.990  0.7452 -0.5814  0.3232
 8941SOL    HW238457   0.242   0.879  16.865 -2.5339  0.8001 -0.8026
 8942SOL     OW38458   3.281   2.381   2.719  0.0361 -0.4520  0.2187
 8942SOL    HW138459   3.348   2.423   2.773 -0.5713 -0.3853  0.9128
 8942SOL    HW238460   3.224   2.348   2.789  0.1121  2.5078  1.6448
 8943SOL     OW38461   1.072   4.021  16.801 -0.1240 -0.4733 -0.1257
 8943SOL    HW138462   0.995   4.000  16.748  0.8316 -0.6998 -1.4000
 8943SOL    HW238463   1.146   3.983  16.755  0.1512  0.2541 -0.2805
 8944SOL     OW38464   0.517   4.583   2.265  0.7683 -0.5368  0.1728
 8944SOL    HW138465   0.603   4.625   2.269 -0.4339  1.9250 -0.0706
 8944SOL    HW238466   0.524   4.540   2.180  1.2179 -2.1004  0.9942
 8945SOL     OW38467   1.188   0.033   8.247 -0.5231  0.3965 -0.2379
 8945SOL    HW138468   1.121   0.094   8.278 -0.9308  0.9723 -2.2702
 8945SOL    HW238469   1.257   0.088   8.210 -0.3881 -1.3579 -2.6019
 8946SOL     OW38470   0.461   1.600   9.173  0.3741  0.0962  0.0157
 8946SOL    HW138471   0.548   1.582   9.208  0.1642 -0.9120  0.0351
 8946SOL    HW238472   0.454   1.543   9.096  1.9734  0.4266 -0.3712
 8947SOL     OW38473   1.978   0.302  14.512  0.2691 -0.1943  0.3465
 8947SOL    HW138474   2.062   0.345  14.500  1.2815 -2.1685  0.3696
 8947SOL    HW238475   1.975   0.285  14.607  1.9226  0.2471  0.4717
 8948SOL     OW38476   3.609   3.850  11.498  0.3009  0.2719  0.0351
 8948SOL    HW138477   3.615   3.835  11.404  0.0838 -1.2754  0.2651
 8948SOL    HW238478   3.703   3.858  11.514 -0.3219  4.7660  1.4611
 8949SOL     OW38479   0.056   1.446   1.188 -0.2027 -0.0997  0.1931
 8949SOL    HW138480   0.016   1.529   1.159  1.2286  0.9691  1.2968
 8949SOL    HW238481   0.106   1.483   1.261  0.6788  0.2389 -0.5817
 8950SOL     OW38482   4.114   3.611  10.633  0.9564 -0.2134 -0.7648
 8950SOL    HW138483   4.089   3.699  10.661 -2.2712 -1.7907  1.3283
 8950SOL    HW238484   4.152   3.647  10.553  0.2240 -0.7243 -1.3390
 8951SOL     OW38485   3.079   4.695   8.649  0.3147  0.4237 -0.0087
 8951SOL    HW138486   2.998   4.696   8.597  2.1049  1.7293 -2.7634
 8951SOL    HW238487   3.051   0.025   8.710 -1.2900 -1.6173  1.5657
 8952SOL     OW38488   3.666   2.204  15.049  0.5902 -0.1688  0.0312
 8952SOL    HW138489   3.686   2.110  15.057  0.2598 -0.5191 -3.2728
 8952SOL    HW238490   3.752   2.246  15.054  0.5656 -0.2562  1.1551
 8953SOL     OW38491   2.510   1.974   6.074 -0.4598  0.3450 -0.0065
 8953SOL    HW138492   2.599   1.970   6.038 -1.5409  0.1930 -2.6490
 8953SOL    HW238493   2.488   1.885   6.049  0.2293 -0.9081  3.7310
 8954SOL     OW38494   1.100   1.518   1.318  0.1029 -0.0452  0.7278
 8954SOL    HW138495   1.137   1.431   1.331 -2.2011 -0.8958  1.5040
 8954SOL    HW238496   1.181   1.567   1.305  1.2409 -1.6341  1.8136
 8955SOL     OW38497   1.211   4.116  10.545  0.0473  0.5627 -0.3296
 8955SOL    HW138498   1.297   4.122  10.586 -0.1129 -1.1281  0.2260
 8955SOL    HW238499   1.219   4.033  10.498  0.0454  0.9303 -0.9853
 8956SOL     OW38500   1.419   3.813   3.093 -0.4971  0.2633 -0.0896
 8956SOL    HW138501   1.434   3.900   3.129  2.0435 -0.7646  1.3929
 8956SOL    HW238502   1.507   3.775   3.085 -1.8560 -2.8253 -0.3798
 8957SOL     OW38503   0.505   4.538   8.725  0.0242  0.0343 -0.5854
 8957SOL    HW138504   0.545   4.606   8.670 -0.8559  1.1611  0.1726
 8957SOL    HW238505   0.568   4.467   8.718  1.9333  1.6323  0.3524
 8958SOL     OW38506   2.054   2.662  17.681 -0.6182  0.5849  0.0925
 8958SOL    HW138507   2.104   2.599  17.629 -0.6829 -0.6782  1.5523
 8958SOL    HW238508   2.100   2.673   0.014 -0.3510  0.2154 -0.0059
 8959SOL     OW38509   2.394   1.735   3.235  0.0339 -0.4272  0.1464
 8959SOL    HW138510   2.432   1.707   3.318 -1.3151 -0.5733  0.7204
 8959SOL    HW238511   2.310   1.691   3.246 -1.7062  2.4356 -1.7583
 8960SOL     OW38512   0.047   3.667   1.573 -0.3801 -0.3153 -0.0857
 8960SOL    HW138513   0.005   3.594   1.619  1.1467 -1.7475 -0.9268
 8960SOL    HW238514   4.733   3.733   1.618 -0.4582  0.4469 -1.2994
 8961SOL     OW38515   0.107   0.759   0.965 -0.2029 -0.3289  0.3287
 8961SOL    HW138516   0.164   0.809   1.023 -0.0465  0.3271 -0.3884
 8961SOL    HW238517   0.170   0.708   0.914 -0.6673  0.2083 -0.7731
 8962SOL     OW38518   4.167   3.596   3.104  0.3852 -0.0081 -0.4186
 8962SOL    HW138519   4.220   3.571   3.180  0.5622  1.4752 -0.0660
 8962SOL    HW238520   4.080   3.603   3.143  0.7707  0.6423  0.3267
 8963SOL     OW38521   0.580   4.665   7.146 -0.9544  0.1729 -0.2396
 8963SOL    HW138522   0.671   4.638   7.130 -1.4281 -2.3176  1.1911
 8963SOL    HW238523   0.553   4.584   7.190  1.6137  0.7963  2.5047
 8964SOL     OW38524   2.523   2.928   1.478 -0.2605  0.1445  0.2011
 8964SOL    HW138525   2.581   3.004   1.481  3.1949 -2.4059 -1.7880
 8964SOL    HW238526   2.468   2.953   1.553  0.1366  0.9402  0.2295
 8965SOL     OW38527   2.880   0.342   6.168  0.0540  0.0647  0.3240
 8965SOL    HW138528   2.881   0.438   6.169  2.7334  0.0373  0.2653
 8965SOL    HW238529   2.812   0.326   6.103  0.0026 -0.5230  0.5236
 8966SOL     OW38530   4.527   0.586   6.923  0.7648  0.4343 -0.0563
 8966SOL    HW138531   4.597   0.525   6.901  0.2377 -0.6907  1.3441
 8966SOL    HW238532   4.466   0.549   6.860  0.5227 -0.4273  0.6769
 8967SOL     OW38533   4.117   4.464   6.653 -0.8037  0.3129 -0.6328
 8967SOL    HW138534   4.042   4.429   6.605  0.0002 -0.1068 -1.5944
 8967SOL    HW238535   4.085   4.451   6.742  0.1791 -0.7840 -0.4473
 8968SOL     OW38536   0.452   1.951   3.232  0.6264  0.2621 -0.0676
 8968SOL    HW138537   0.459   1.949   3.327  1.7399  2.4176 -0.1141
 8968SOL    HW238538   0.408   2.036   3.228  0.2439  0.0991  0.5613
 8969SOL     OW38539   0.701   3.265   9.785  0.7442 -1.0533  0.1911
 8969SOL    HW138540   0.637   3.317   9.833  2.8377  2.4040 -0.7901
 8969SOL    HW238541   0.745   3.342   9.748  0.2921 -1.3979 -1.0634
 8970SOL     OW38542   2.902   2.402   4.405 -0.4087  0.5048 -0.8053
 8970SOL    HW138543   2.890   2.488   4.365 -3.1325  0.3133 -0.4290
 8970SOL    HW238544   2.816   2.360   4.395 -1.0737  1.4498  0.8226
 8971SOL     OW38545   4.235   2.461   2.620  0.1734 -0.2628  0.4195
 8971SOL    HW138546   4.291   2.384   2.634  0.3334 -0.3352 -0.6413
 8971SOL    HW238547   4.266   2.521   2.688 -0.1171 -0.9385  1.1377
 8972SOL     OW38548   4.612   1.919  15.322  0.1444 -0.0554  0.3696
 8972SOL    HW138549   4.619   1.824  15.322 -1.9116 -0.2074 -2.5168
 8972SOL    HW238550   4.701   1.933  15.354  0.1026  0.9542  0.0425
 8973SOL     OW38551   2.368   4.034   4.723  0.9111 -0.2741  0.8053
 8973SOL    HW138552   2.422   4.091   4.777  0.1979  0.9360  0.2213
 8973SOL    HW238553   2.281   4.056   4.758 -0.2052 -0.5984 -1.7848
 8974SOL     OW38554   2.246   1.110  14.323 -0.0277  0.4371 -0.3442
 8974SOL    HW138555   2.310   1.114  14.394 -1.9704 -0.3480  1.4585
 8974SOL    HW238556   2.308   1.141  14.257 -1.1717  4.6670  0.5742
 8975SOL     OW38557   2.611   1.521   4.742 -0.2627  0.0104  0.8820
 8975SOL    HW138558   2.616   1.427   4.759 -0.1874  0.0280  0.9542
 8975SOL    HW238559   2.565   1.558   4.818  1.3177  0.9707  1.3641
 8976SOL     OW38560   4.051   3.057   3.221 -0.3111  0.1192 -0.6737
 8976SOL    HW138561   4.043   3.096   3.308  1.2989 -1.2320  0.0888
 8976SOL    HW238562   4.089   2.971   3.239 -2.0908 -0.6591 -0.7258
 8977SOL     OW38563   3.350   4.003   9.662 -0.0806  0.4782 -0.0269
 8977SOL    HW138564   3.254   4.001   9.662 -0.0468 -0.9664 -0.8480
 8977SOL    HW238565   3.354   4.080   9.719  0.9516 -0.8291  1.6734
 8978SOL     OW38566   1.377   3.465  10.660  0.0732  0.1897 -0.2566
 8978SOL    HW138567   1.367   3.504  10.746 -2.6721  0.0900 -0.5307
 8978SOL    HW238568   1.290   3.431  10.642  0.3330  0.0232 -1.2338
 8979SOL     OW38569   1.325   3.186  14.903 -0.1978  0.1712  1.0017
 8979SOL    HW138570   1.259   3.128  14.863 -0.5971  1.1166  0.2937
 8979SOL    HW238571   1.288   3.194  14.991  3.3136 -0.8946  2.5505
 8980SOL     OW38572   4.703   1.656  11.553 -0.5587 -0.2034 -0.3583
 8980SOL    HW138573   4.731   1.568  11.529  0.6475 -0.3296  1.5340
 8980SOL    HW238574   0.050   1.698  11.541 -1.3152  0.2771 -4.0508
 8981SOL     OW38575   4.000   0.361   1.361  0.3705  0.1321  0.0802
 8981SOL    HW138576   4.091   0.358   1.332 -0.4701 -1.3607 -2.4775
 8981SOL    HW238577   3.969   0.412   1.286  2.1503  0.9765 -0.0890
 8982SOL     OW38578   0.547   0.559   2.264 -0.1451 -0.6935 -0.6313
 8982SOL    HW138579   0.551   0.643   2.310  1.0700 -0.6769 -0.7859
 8982SOL    HW238580   0.470   0.583   2.213 -1.5308 -1.6892  0.9893
 8983SOL     OW38581   1.957   4.123  16.473  0.2452  0.0464  0.0323
 8983SOL    HW138582   2.050   4.146  16.468  0.3146 -0.1001  0.6343
 8983SOL    HW238583   1.919   4.193  16.527  2.6568 -1.6675  3.9259
 8984SOL     OW38584   2.662   2.055   5.397  0.4711  0.0940  0.0366
 8984SOL    HW138585   2.731   2.101   5.445  1.3532 -1.8269  0.6428
 8984SOL    HW238586   2.671   2.100   5.313  1.5103  0.3143  0.2600
 8985SOL     OW38587   0.012   0.438   6.245  0.2873  0.0505  0.1538
 8985SOL    HW138588   4.658   0.417   6.257  0.4038  0.1258  1.1802
 8985SOL    HW238589   0.043   0.411   6.331  1.2707  1.7915  0.3506
 8986SOL     OW38590   1.540   4.331   5.199 -0.1647 -0.7014  0.0458
 8986SOL    HW138591   1.514   4.252   5.247  0.6015 -0.1556  1.3349
 8986SOL    HW238592   1.634   4.326   5.215 -0.4701 -1.4655  1.6286
 8987SOL     OW38593   2.975   2.500   1.773  0.9154 -0.1291 -0.1257
 8987SOL    HW138594   3.063   2.533   1.760  0.3311  1.5637  0.2420
 8987SOL    HW238595   2.929   2.583   1.785 -2.2942 -1.7902 -0.8657
 8988SOL     OW38596   0.387   0.137  17.127  0.1007 -0.6133 -0.0680
 8988SOL    HW138597   0.335   0.144  17.047 -1.6503  0.1830  1.1448
 8988SOL    HW238598   0.434   0.220  17.118  0.1439 -0.6985 -0.6519
 8989SOL     OW38599   2.747   0.471   5.483 -0.2021 -0.0718 -0.2412
 8989SOL    HW138600   2.653   0.480   5.503  0.1486  1.1651  0.8357
 8989SOL    HW238601   2.743   0.429   5.397 -1.7894  0.2647 -0.3299
 8990SOL     OW38602   4.338   4.317  15.170 -0.1095 -0.3924 -0.6217
 8990SOL    HW138603   4.258   4.350  15.128 -0.6880  1.0037  1.5655
 8990SOL    HW238604   4.305   4.311  15.260 -0.5822  2.2620 -0.6127
 8991SOL     OW38605   0.044   2.282   5.611  0.1250  0.3388  0.1680
 8991SOL    HW138606   0.137   2.259   5.609  0.3177  1.1089  0.2078
 8991SOL    HW238607   0.019   2.294   5.519 -0.7616  2.9321  0.7484
 8992SOL     OW38608   3.984   1.427  15.147  0.4884 -0.0970 -0.4058
 8992SOL    HW138609   3.925   1.488  15.101  0.9709  0.8399  0.2286
 8992SOL    HW238610   4.056   1.423  15.084  2.2008  1.8787  1.4282
 8993SOL     OW38611   1.689   0.806  16.781 -0.1938 -0.2646 -0.1505
 8993SOL    HW138612   1.712   0.899  16.783 -2.8677  0.4042  0.1605
 8993SOL    HW238613   1.665   0.799  16.873  1.6147  3.4873  0.5859
 8994SOL     OW38614   1.012   4.125  15.616  0.1661 -0.1117  0.1999
 8994SOL    HW138615   0.975   4.046  15.578  3.2135  0.6340 -4.3359
 8994SOL    HW238616   1.102   4.093  15.623 -0.7195 -2.2401  1.8639
 8995SOL     OW38617   2.596   3.985   2.622 -0.0977 -0.0341  0.8150
 8995SOL    HW138618   2.568   3.894   2.611 -1.3626  0.3414  0.8774
 8995SOL    HW238619   2.510   4.027   2.625 -0.7540 -1.2606 -1.1068
 8996SOL     OW38620   2.105   1.281   8.391  0.1483 -0.1582  0.5126
 8996SOL    HW138621   2.047   1.357   8.386 -1.1010 -1.1641 -0.1097
 8996SOL    HW238622   2.191   1.310   8.420  0.5956  0.3758 -1.3606
 8997SOL     OW38623   2.798   3.148  17.340  0.3124 -0.1823  0.5954
 8997SOL    HW138624   2.809   3.225  17.285  0.4824 -0.9995 -0.5276
 8997SOL    HW238625   2.862   3.170  17.408  0.5203 -1.3344  0.7857
 8998SOL     OW38626   3.094   4.494   2.223  0.0327 -0.6971  0.6298
 8998SOL    HW138627   3.171   4.548   2.242  0.6344 -0.7752 -1.6201
 8998SOL    HW238628   3.121   4.426   2.162  1.5668 -1.8879  2.6726
 8999SOL     OW38629   2.047   0.422   5.257 -0.6179 -0.6789 -0.0451
 8999SOL    HW138630   1.967   0.445   5.305  0.1196  0.9781  0.3953
 8999SOL    HW238631   2.089   0.362   5.319  1.1258 -1.5102 -2.0275
 9000SOL     OW38632   1.612   3.397   1.916 -0.1435 -0.1071 -0.5327
 9000SOL    HW138633   1.688   3.423   1.969 -1.3807  0.8929  0.7505
 9000SOL    HW238634   1.604   3.476   1.863  3.6289 -0.9606 -2.3540
 9001SOL     OW38635   1.648   2.758   4.610 -0.5417 -0.1118 -0.9298
 9001SOL    HW138636   1.688   2.701   4.675 -0.9728  0.6301 -0.0148
 9001SOL    HW238637   1.728   2.794   4.573 -0.9524  1.1058 -0.6379
 9002SOL     OW38638   4.199   2.719   8.144 -0.4511  0.0817  0.0688
 9002SOL    HW138639   4.243   2.651   8.092  2.2579 -0.2821  2.8469
 9002SOL    HW238640   4.110   2.684   8.150  0.3760 -2.2373 -1.3484
 9003SOL     OW38641   3.805   1.990   4.126 -0.0279 -0.1467  0.2215
 9003SOL    HW138642   3.889   1.950   4.148  0.8094  2.2130  1.3912
 9003SOL    HW238643   3.754   1.914   4.152  0.2744  0.5879  3.0531
 9004SOL     OW38644   3.226   4.268   2.159  0.0599 -0.0737  0.6254
 9004SOL    HW138645   3.282   4.198   2.191  0.2299  0.8003  2.2587
 9004SOL    HW238646   3.242   4.277   2.065 -0.9098  0.8194  0.5520
 9005SOL     OW38647   0.622   0.023   3.904 -0.1822 -0.4179 -0.2586
 9005SOL    HW138648   0.541   0.073   3.909 -0.5913 -1.0023 -0.9520
 9005SOL    HW238649   0.604   4.714   3.822  0.2985  0.7509 -1.0318
 9006SOL     OW38650   2.394   1.356  16.018 -0.1766 -0.2920  0.1858
 9006SOL    HW138651   2.429   1.308  16.094  1.5850 -0.1209 -0.5180
 9006SOL    HW238652   2.333   1.414  16.062  0.7272  1.1377 -0.4565
 9007SOL     OW38653   0.695   1.012  13.709  0.2815 -0.4624 -0.5965
 9007SOL    HW138654   0.743   0.967  13.640  0.2211  0.1645 -1.0432
 9007SOL    HW238655   0.664   1.088  13.659  0.4507 -1.4294 -2.1676
 9008SOL     OW38656   4.553   2.834   9.846  0.4621 -0.4510 -0.1152
 9008SOL    HW138657   4.538   2.789   9.929 -0.7592 -1.9788 -1.1723
 9008SOL    HW238658   4.608   2.772   9.799 -0.4812 -2.1619  1.0694
 9009SOL     OW38659   1.044   0.038   6.010 -0.1787  0.2544  0.1453
 9009SOL    HW138660   0.969   0.096   5.994  0.1703  0.0134 -2.3956
 9009SOL    HW238661   1.005   4.699   6.052 -1.8369  1.0707  0.1112
 9010SOL     OW38662   2.685   4.427   8.816 -0.1148 -0.0454 -0.0001
 9010SOL    HW138663   2.739   4.488   8.867  0.4795 -1.0761  0.5867
 9010SOL    HW238664   2.760   4.374   8.793 -0.8237  0.3474 -3.2160
 9011SOL     OW38665   4.368   2.613  16.278  0.3764 -0.5699  0.2613
 9011SOL    HW138666   4.336   2.530  16.314 -2.1009 -0.1924 -1.0391
 9011SOL    HW238667   4.345   2.594  16.187  4.1424 -0.7816 -0.6580
 9012SOL     OW38668   0.655   1.892   3.702 -0.8788 -0.1485 -0.2197
 9012SOL    HW138669   0.684   1.865   3.789  2.0784  1.9435 -0.5423
 9012SOL    HW238670   0.728   1.865   3.647 -0.9028 -0.7285  0.0360
 9013SOL     OW38671   0.776   1.501   7.745  0.1912  0.2935  0.3621
 9013SOL    HW138672   0.838   1.435   7.774  0.8626  1.8427  2.4215
 9013SOL    HW238673   0.715   1.506   7.818 -0.9584  1.0884 -0.6485
 9014SOL     OW38674   3.636   1.110   5.669 -0.2623 -0.2000  0.1198
 9014SOL    HW138675   3.683   1.160   5.736 -2.7808 -2.3086  3.5076
 9014SOL    HW238676   3.665   1.162   5.595  2.7644 -1.1821  0.6303
 9015SOL     OW38677   0.326   1.339  16.722 -0.1013  0.3507 -0.7247
 9015SOL    HW138678   0.255   1.275  16.720  0.9178 -0.7437 -1.9442
 9015SOL    HW238679   0.308   1.396  16.797 -1.5190  0.0774 -0.8514
 9016SOL     OW38680   2.460   3.201   7.010 -0.1445 -0.4442 -0.4400
 9016SOL    HW138681   2.382   3.167   6.967 -2.2844  2.7382  0.9567
 9016SOL    HW238682   2.530   3.157   6.962  0.9933  1.2079 -0.2991
 9017SOL     OW38683   3.208   1.010   8.269  0.1643  0.8093 -0.4215
 9017SOL    HW138684   3.265   1.079   8.301 -0.1636  0.7270  0.3431
 9017SOL    HW238685   3.133   1.019   8.328  0.6154 -0.2411  0.3133
 9018SOL     OW38686   0.619   0.307  17.518  0.4532  0.0499  0.2753
 9018SOL    HW138687   0.547   0.360  17.486  0.6466  0.9316  1.2914
 9018SOL    HW238688   0.597   0.306  17.612 -2.5221  0.4373 -0.4291
 9019SOL     OW38689   1.537   3.664   0.977 -1.0746  0.0611  0.2567
 9019SOL    HW138690   1.591   3.692   0.904 -2.8580  0.3728 -0.9386
 9019SOL    HW238691   1.476   3.734   0.999  0.6356  0.5089  3.6016
 9020SOL     OW38692   2.265   0.717  11.734  0.1889 -0.1029 -0.1617
 9020SOL    HW138693   2.306   0.800  11.708  0.6030 -0.6870 -1.3575
 9020SOL    HW238694   2.256   0.715  11.829 -1.2700 -0.7152 -0.3288
 9021SOL     OW38695   2.568   0.378  14.650  0.9017 -0.1674  0.3625
 9021SOL    HW138696   2.548   0.330  14.730 -0.5658 -2.1564 -1.2192
 9021SOL    HW238697   2.530   0.323  14.582 -0.3071 -0.6559  1.4235
 9022SOL     OW38698   4.079   0.860  11.305 -0.2306 -0.0758  0.3627
 9022SOL    HW138699   4.003   0.805  11.324 -1.9690  2.1080 -0.3024
 9022SOL    HW238700   4.125   0.812  11.237  0.5034 -0.9512  1.4751
 9023SOL     OW38701   3.035   4.110  13.971  0.4821 -0.0746  0.0096
 9023SOL    HW138702   3.090   4.077  14.042 -1.0182  2.0531  2.1628
 9023SOL    HW238703   3.071   4.068  13.893 -0.6812 -1.1394  0.0632
 9024SOL     OW38704   2.491   4.590   9.232  0.2156 -0.2697  0.1143
 9024SOL    HW138705   2.488   4.659   9.166 -1.2658 -0.3401  0.1045
 9024SOL    HW238706   2.399   4.582   9.258 -0.0066 -0.2028 -0.6762
 9025SOL     OW38707   4.511   4.642   3.119 -0.1286  0.1625 -0.3205
 9025SOL    HW138708   4.494   4.697   3.043 -0.3023 -0.2134 -0.5569
 9025SOL    HW238709   4.532   4.712   3.180  0.9269 -0.7863  0.4009
 9026SOL     OW38710   4.314   4.273  12.387  0.2520 -0.3365 -0.4851
 9026SOL    HW138711   4.384   4.221  12.348 -0.7679 -1.8237 -0.3174
 9026SOL    HW238712   4.336   4.362  12.359 -0.7324 -0.4595 -1.6446
 9027SOL     OW38713   4.339   1.664   6.910  0.4192 -0.4494 -0.4132
 9027SOL    HW138714   4.380   1.751   6.911 -0.2001 -0.1750  0.3795
 9027SOL    HW238715   4.376   1.629   6.991 -0.7425 -1.2759 -0.2441
 9028SOL     OW38716   3.103   2.723  16.114 -0.0463  0.1422 -0.4129
 9028SOL    HW138717   3.167   2.767  16.170  0.7952 -0.5929 -0.7963
 9028SOL    HW238718   3.144   2.720  16.027  1.4906  2.9493  0.2150
 9029SOL     OW38719   4.046   1.502   9.441  0.0182 -0.1332  0.2066
 9029SOL    HW138720   3.954   1.512   9.466 -0.5507 -1.2749 -1.4539
 9029SOL    HW238721   4.054   1.572   9.377 -2.5564 -0.0437 -0.0022
 9030SOL     OW38722   4.672   3.895  14.864 -0.0166 -0.7162  0.6543
 9030SOL    HW138723   4.658   3.983  14.900  0.7463 -0.9516  1.5443
 9030SOL    HW238724   4.582   3.867  14.849  0.0478 -1.1171  1.0114
 9031SOL     OW38725   3.061   1.793   7.349  0.3381 -0.0092 -0.4357
 9031SOL    HW138726   3.141   1.808   7.400 -0.1746  0.8051  0.1343
 9031SOL    HW238727   2.996   1.820   7.414  0.5474 -0.4447 -0.0425
 9032SOL     OW38728   2.746   2.960   9.304 -0.3106 -0.1644 -0.2681
 9032SOL    HW138729   2.762   2.997   9.391 -2.6125 -0.6306  0.3536
 9032SOL    HW238730   2.653   2.938   9.308 -0.8041  1.6799 -1.6966
 9033SOL     OW38731   3.042   2.329   2.487 -0.2541  0.1346  0.2931
 9033SOL    HW138732   3.136   2.312   2.477  0.0603  2.4927 -0.8683
 9033SOL    HW238733   3.043   2.393   2.557 -1.9728  0.1250  0.3209
 9034SOL     OW38734   0.433   0.607   8.332 -0.5537 -0.5142 -0.4582
 9034SOL    HW138735   0.452   0.607   8.238 -2.5320 -0.2232 -0.8418
 9034SOL    HW238736   0.416   0.515   8.351  1.5017 -1.0205 -1.0896
 9035SOL     OW38737   0.828   3.085   2.933 -0.1281 -0.1311  0.1050
 9035SOL    HW138738   0.885   3.098   3.009 -0.1032 -0.1047  0.0818
 9035SOL    HW238739   0.855   2.996   2.913  0.1243 -0.0540  0.1046
 9036SOL     OW38740   2.267   4.533   5.233  0.0154  0.6486 -0.3124
 9036SOL    HW138741   2.347   4.571   5.195  1.0299 -0.9402  0.2318
 9036SOL    HW238742   2.275   4.565   5.323 -1.7438 -1.5729  0.6170
 9037SOL     OW38743   4.241   2.285   8.697  0.0526 -0.0481  0.0736
 9037SOL    HW138744   4.286   2.344   8.757  1.0832  0.5387 -1.3003
 9037SOL    HW238745   4.313   2.229   8.667 -0.3814  0.0524 -1.1663
 9038SOL     OW38746   1.032   3.412   7.990  0.0427  0.3839  0.0501
 9038SOL    HW138747   1.092   3.465   8.041 -0.3396  0.2203  0.6732
 9038SOL    HW238748   0.988   3.361   8.057  2.9684 -0.4358  1.3316
 9039SOL     OW38749   3.160   4.029   7.026  0.0160 -0.2007 -0.2609
 9039SOL    HW138750   3.096   4.096   7.047  1.3568  0.5946  1.2907
 9039SOL    HW238751   3.125   3.948   7.064  3.2246 -1.4795 -0.0218
 9040SOL     OW38752   0.571   1.314   4.918  0.6162  0.0348 -0.1572
 9040SOL    HW138753   0.593   1.245   4.981 -1.1893 -0.0554  0.3744
 9040SOL    HW238754   0.628   1.294   4.843  1.3389 -0.7752  0.6138
 9041SOL     OW38755   0.370   2.088   0.140  0.1309  0.6536 -0.5978
 9041SOL    HW138756   0.456   2.049   0.154 -1.0133 -1.8282 -0.5478
 9041SOL    HW238757   0.348   2.059   0.051 -3.6946 -1.9971  1.2033
 9042SOL     OW38758   1.754   1.848   2.301 -0.3109  0.2852  0.1350
 9042SOL    HW138759   1.771   1.755   2.286  4.3618  1.1382  0.0066
 9042SOL    HW238760   1.767   1.857   2.395  2.0008  0.0711 -0.1526
 9043SOL     OW38761   1.866   1.350  11.884 -0.2543  0.2512  0.5487
 9043SOL    HW138762   1.941   1.330  11.829 -1.9365 -2.1407 -0.8785
 9043SOL    HW238763   1.860   1.445  11.872  1.6577  0.1736 -0.9039
 9044SOL     OW38764   2.406   4.717   1.690 -0.2269 -0.1933  0.2613
 9044SOL    HW138765   2.432   0.019   1.608 -1.6385 -0.1087 -0.1407
 9044SOL    HW238766   2.320   0.016   1.711 -0.0802  1.0327 -1.2802
 9045SOL     OW38767   3.290   1.227  13.266  0.2734  0.4412 -0.3132
 9045SOL    HW138768   3.240   1.307  13.253 -3.6107 -2.0063 -0.5988
 9045SOL    HW238769   3.375   1.255  13.299 -0.0163  0.0664  0.7805
 9046SOL     OW38770   3.769   2.902  16.586  0.5050  0.3414  0.1074
 9046SOL    HW138771   3.801   2.896  16.496  0.1649  0.4445 -0.0225
 9046SOL    HW238772   3.841   2.954  16.621  0.2460  0.2769  0.7194
 9047SOL     OW38773   0.160   0.840   9.610  0.6337 -0.3740 -0.0651
 9047SOL    HW138774   0.161   0.856   9.515  1.7263  2.6373  0.4778
 9047SOL    HW238775   0.097   0.769   9.619 -1.1231  1.1617 -0.2358
 9048SOL     OW38776   1.907   1.008   2.694  0.3497 -0.5201  0.1439
 9048SOL    HW138777   1.988   1.036   2.651 -1.1619  2.6058 -0.6711
 9048SOL    HW238778   1.875   1.098   2.696 -2.6483 -1.5918  0.9491
 9049SOL     OW38779   0.516   3.502   5.170  0.0913 -0.4810 -0.4118
 9049SOL    HW138780   0.426   3.482   5.145  0.2253 -3.8026  1.6967
 9049SOL    HW238781   0.551   3.418   5.202  0.2714 -0.4351 -0.4837
 9050SOL     OW38782   2.285   2.346   4.630 -0.7143  0.3022  0.0584
 9050SOL    HW138783   2.289   2.346   4.726  0.7617  3.0033 -0.0022
 9050SOL    HW238784   2.355   2.284   4.610 -0.9156 -0.9261  3.2200
 9051SOL     OW38785   0.658   4.683  13.763  0.1885  0.1076  0.5576
 9051SOL    HW138786   0.695   4.595  13.759  0.4296  0.1930  0.9383
 9051SOL    HW238787   0.740   4.733  13.760 -0.1618  0.5129 -1.7715
 9052SOL     OW38788   4.164   1.873   3.444  0.1490  0.4092 -0.4498
 9052SOL    HW138789   4.212   1.818   3.382  2.1482  1.5152  0.1233
 9052SOL    HW238790   4.128   1.799   3.493 -0.2242 -0.1596 -1.5758
 9053SOL     OW38791   2.598   2.373  11.820 -0.0128 -0.3934  0.5298
 9053SOL    HW138792   2.539   2.409  11.886  2.7848  2.7055  1.3163
 9053SOL    HW238793   2.571   2.281  11.816 -0.5920 -0.2645  1.3044
 9054SOL     OW38794   4.109   3.350   7.461 -0.7857 -0.6733 -0.0542
 9054SOL    HW138795   4.023   3.328   7.495 -0.0222 -3.1470  0.2472
 9054SOL    HW238796   4.124   3.267   7.416 -3.3631 -1.7392  1.0990
 9055SOL     OW38797   0.453   3.777  17.332 -0.4225 -0.6093  0.2733
 9055SOL    HW138798   0.435   3.866  17.302  1.6375 -0.5950 -0.9657
 9055SOL    HW238799   0.379   3.725  17.302 -0.2555  0.4310 -1.9002
 9056SOL     OW38800   0.023   4.304   5.783  0.2578 -0.1124 -0.4808
 9056SOL    HW138801   0.079   4.231   5.756  0.3309 -0.8762  1.7376
 9056SOL    HW238802   0.059   4.374   5.728 -0.2373  2.2544  2.2196
 9057SOL     OW38803   1.099   1.071  13.231  0.6369  0.6057  0.2981
 9057SOL    HW138804   1.025   1.132  13.238  0.9242  0.9987 -0.1119
 9057SOL    HW238805   1.114   1.059  13.325 -1.2939  0.7291  0.6232
 9058SOL     OW38806   1.119   1.368   4.037  0.0294 -0.2867 -0.3444
 9058SOL    HW138807   1.025   1.372   4.017  0.0243 -3.9880 -1.1883
 9058SOL    HW238808   1.118   1.403   4.126 -1.8242 -2.7837  0.6221
 9059SOL     OW38809   3.180   0.453  12.823 -0.1396  0.6370  0.4317
 9059SOL    HW138810   3.099   0.505  12.823 -0.8945 -0.4958 -1.9034
 9059SOL    HW238811   3.246   0.517  12.796  0.2466  0.7070  1.5707
 9060SOL     OW38812   4.484   2.285   9.526  0.6436  0.0240 -0.3124
 9060SOL    HW138813   4.523   2.308   9.442  0.5266  0.1929 -0.3211
 9060SOL    HW238814   4.395   2.288   9.492  0.2649  1.0666  0.7733
 9061SOL     OW38815   1.562   1.713  16.237  0.0433 -0.5417 -0.3385
 9061SOL    HW138816   1.506   1.653  16.287 -1.3135 -0.2294 -1.5026
 9061SOL    HW238817   1.500   1.786  16.236  0.3031 -0.3150  0.1294
 9062SOL     OW38818   2.395   1.124   3.797 -0.3423  0.2428  0.4945
 9062SOL    HW138819   2.425   1.089   3.713 -0.9744  0.3497  0.2234
 9062SOL    HW238820   2.303   1.142   3.777 -0.1634  1.7005  0.9731
 9063SOL     OW38821   0.230   1.928   6.549 -0.3350 -0.1006  0.3642
 9063SOL    HW138822   0.139   1.903   6.533  0.4527 -1.5777 -1.7101
 9063SOL    HW238823   0.231   1.918   6.645  0.3997 -0.3839  0.3235
 9064SOL     OW38824   3.416   3.599   2.609  0.5501  0.1402 -0.0708
 9064SOL    HW138825   3.460   3.598   2.524 -0.2382  0.0114 -0.4823
 9064SOL    HW238826   3.491   3.566   2.657  0.3001 -2.3060 -1.3817
 9065SOL     OW38827   1.181   0.771  13.552 -0.0070  0.2653 -0.2751
 9065SOL    HW138828   1.216   0.683  13.566  0.5206  0.1934 -2.0313
 9065SOL    HW238829   1.101   0.775  13.604  0.4964  2.0280  0.3752
 9066SOL     OW38830   2.600   2.782   9.945 -0.6493 -0.4026 -0.3592
 9066SOL    HW138831   2.513   2.769   9.983  0.8022 -1.1872  2.7481
 9066SOL    HW238832   2.607   2.702   9.894  1.1324  0.3545 -1.2967
 9067SOL     OW38833   0.377   0.606   1.705 -0.0654 -0.2285 -0.1150
 9067SOL    HW138834   0.351   0.674   1.768 -0.5247 -1.0097  0.5308
 9067SOL    HW238835   0.459   0.630   1.662 -0.7745  0.5559 -1.0226
 9068SOL     OW38836   1.410   3.548   1.416  0.0886  0.4136  0.1829
 9068SOL    HW138837   1.355   3.627   1.424  0.9434  1.4110 -4.1065
 9068SOL    HW238838   1.411   3.537   1.321  1.0324 -1.3092  0.4088
 9069SOL     OW38839   0.696   0.486   4.396 -0.0280 -0.7290  0.5116
 9069SOL    HW138840   0.680   0.473   4.490 -1.2349  0.0893  0.4266
 9069SOL    HW238841   0.617   0.447   4.357 -0.8763  1.2041  0.2902
 9070SOL     OW38842   1.838   2.295   3.983 -0.3656  0.1558  0.5268
 9070SOL    HW138843   1.919   2.260   3.948 -0.3177 -2.1246  2.9531
 9070SOL    HW238844   1.779   2.274   3.910  1.7138 -0.1813 -1.0531
 9071SOL     OW38845   2.277   2.340   7.109 -0.3153 -0.2759  0.0815
 9071SOL    HW138846   2.356   2.369   7.063  0.5695 -1.4748  0.8572
 9071SOL    HW238847   2.301   2.251   7.136  2.6628 -0.0677 -1.9457
 9072SOL     OW38848   1.699   4.161   8.301 -0.4814 -0.0623  0.1830
 9072SOL    HW138849   1.712   4.247   8.341 -0.8665 -0.0206  0.2187
 9072SOL    HW238850   1.633   4.187   8.237 -1.0615  0.4196  0.9777
 9073SOL     OW38851   0.106   4.431   1.432  0.4835  0.2060 -0.1137
 9073SOL    HW138852   0.151   4.352   1.404  0.3881  0.7091 -1.6773
 9073SOL    HW238853   0.029   4.377   1.453 -0.1851  2.0809  2.2539
 9074SOL     OW38854   4.537   1.627   2.580 -0.0348 -0.3318 -0.2520
 9074SOL    HW138855   4.615   1.659   2.624 -0.4404 -0.1608  0.3456
 9074SOL    HW238856   4.480   1.703   2.583 -0.2053 -0.4755  0.2054
 9075SOL     OW38857   3.255   1.676  17.021 -0.3949  0.4793 -0.1710
 9075SOL    HW138858   3.235   1.585  17.042  0.3695  0.2696 -0.3497
 9075SOL    HW238859   3.210   1.708  17.099 -1.3463 -1.2545 -0.0271
 9076SOL     OW38860   3.934   3.720   6.148  0.2336  0.0367  0.0200
 9076SOL    HW138861   3.875   3.689   6.079  0.9799 -1.1558 -0.0802
 9076SOL    HW238862   3.957   3.638   6.190  2.2748  0.8216  0.4140
 9077SOL     OW38863   2.264   0.369   4.941 -0.5048  0.2350  0.2207
 9077SOL    HW138864   2.245   0.356   4.848  1.4354 -0.5463 -0.0767
 9077SOL    HW238865   2.177   0.396   4.969 -1.5319 -2.8504 -0.0078
 9078SOL     OW38866   3.009   2.070   4.910 -0.0581  0.2890  0.3331
 9078SOL    HW138867   3.094   2.037   4.882 -0.3583  0.0011 -0.2305
 9078SOL    HW238868   2.957   2.012   4.855 -0.2655 -0.5271  1.3888
 9079SOL     OW38869   0.260   2.861   5.058 -0.6460  0.0781 -0.9124
 9079SOL    HW138870   0.300   2.858   5.145 -0.3950  0.1500 -1.0240
 9079SOL    HW238871   0.299   2.938   5.016 -0.1612  1.1068  1.4334
 9080SOL     OW38872   0.066   1.615   7.985 -0.2028 -0.4580  0.3198
 9080SOL    HW138873   0.109   1.564   8.054  1.2154  0.3172  0.0167
 9080SOL    HW238874   0.136   1.675   7.958 -1.0403  0.0932 -0.6083
 9081SOL     OW38875   3.497   0.975   5.309  0.3463  0.5599  0.2750
 9081SOL    HW138876   3.451   0.959   5.392  0.5515  2.7657  0.8102
 9081SOL    HW238877   3.476   1.067   5.297 -1.6419 -0.0021 -0.5250
 9082SOL     OW38878   2.471   1.007   3.535 -0.0528 -0.1127 -0.3553
 9082SOL    HW138879   2.497   0.941   3.471 -0.1717  0.3099 -0.8370
 9082SOL    HW238880   2.434   1.070   3.473 -1.9620 -2.1354 -1.2841
 9083SOL     OW38881   0.124   4.242   9.154 -0.1341 -0.0289  0.1442
 9083SOL    HW138882   0.220   4.249   9.158 -0.0993 -0.3721 -0.0659
 9083SOL    HW238883   0.101   4.207   9.240 -0.3351 -0.1639  0.0339
 9084SOL     OW38884   3.296   1.741   7.054 -0.4595  0.1847 -0.4980
 9084SOL    HW138885   3.297   1.803   6.981  2.3718  0.9595  0.2070
 9084SOL    HW238886   3.381   1.700   7.040 -0.5753  0.1437 -1.0876
 9085SOL     OW38887   3.045   3.289  17.480 -0.5126 -0.6100 -0.0727
 9085SOL    HW138888   3.123   3.312  17.430 -1.4246  0.0766 -1.1656
 9085SOL    HW238889   3.078   3.276  17.569  1.3672  1.1081 -0.5229
 9086SOL     OW38890   3.287   1.385   6.753  0.7240  0.2525 -0.5060
 9086SOL    HW138891   3.217   1.446   6.773  0.7738  0.8781 -2.3351
 9086SOL    HW238892   3.321   1.419   6.671 -0.4783  0.4345 -0.9238
 9087SOL     OW38893   3.254   2.861   6.905 -0.1777 -0.0218  0.1845
 9087SOL    HW138894   3.289   2.788   6.854 -0.1370  0.4588 -0.4813
 9087SOL    HW238895   3.334   2.895   6.945  0.1461 -1.1313  0.4805
 9088SOL     OW38896   1.344   2.894   2.709 -0.4287 -0.5109  0.0370
 9088SOL    HW138897   1.385   2.910   2.794 -1.0274  1.9470 -0.1439
 9088SOL    HW238898   1.377   2.971   2.664 -0.2911 -1.2387 -1.1209
 9089SOL     OW38899   2.611   1.434   8.033  0.2707  0.1923  0.1359
 9089SOL    HW138900   2.671   1.505   8.010  1.7300 -1.2007 -0.3599
 9089SOL    HW238901   2.601   1.394   7.947 -0.1986 -0.0623  0.3105
 9090SOL     OW38902   1.655   1.144   3.363 -0.0061  0.0905 -0.0226
 9090SOL    HW138903   1.583   1.094   3.325  1.1000 -1.4394 -0.0751
 9090SOL    HW238904   1.609   1.196   3.430 -2.0512 -1.9181  0.1229
 9091SOL     OW38905   3.292   1.732  11.299  0.7438  0.0490 -0.0776
 9091SOL    HW138906   3.241   1.731  11.218  2.1783  0.9680 -0.9825
 9091SOL    HW238907   3.288   1.639  11.318  0.7396  0.6518  2.8851
 9092SOL     OW38908   0.487   3.304   2.590  0.0012  0.0931 -0.7182
 9092SOL    HW138909   0.550   3.305   2.661 -2.2047 -0.6401  1.2398
 9092SOL    HW238910   0.519   3.230   2.538 -1.2172 -0.6059 -0.4738
 9093SOL     OW38911   2.199   4.362   5.770 -0.3718 -0.2533  0.2171
 9093SOL    HW138912   2.187   4.294   5.703 -3.0329 -0.3298  0.8046
 9093SOL    HW238913   2.239   4.428   5.714 -0.7041  0.6623  1.0794
 9094SOL     OW38914   0.205   4.629  17.219 -0.4348  0.0358  0.5631
 9094SOL    HW138915   0.196   4.550  17.273  1.1768 -0.6909 -0.2213
 9094SOL    HW238916   0.301   4.633  17.226 -0.5328 -0.4233  2.3687
 9095SOL     OW38917   4.674   2.496   4.646 -0.3347 -0.0605 -0.4131
 9095SOL    HW138918   4.643   2.494   4.737  4.5781 -1.8918  1.1647
 9095SOL    HW238919   4.600   2.534   4.599 -3.2866 -0.3265  3.9374
 9096SOL     OW38920   0.965   2.272   9.825 -0.3973  0.4974  0.4133
 9096SOL    HW138921   0.985   2.237   9.912  0.3845  2.1655  0.9000
 9096SOL    HW238922   1.031   2.229   9.770 -0.9365  1.8066 -1.2419
 9097SOL     OW38923   1.731   1.959   5.371  0.0667 -0.0342 -0.5557
 9097SOL    HW138924   1.669   1.899   5.329  1.2173 -2.2070  0.8379
 9097SOL    HW238925   1.814   1.911   5.364 -1.5355 -2.4437 -3.1258
 9098SOL     OW38926   0.687   1.481   7.175  0.1570 -0.1651  0.1116
 9098SOL    HW138927   0.771   1.492   7.219 -0.7669  2.0947  1.3128
 9098SOL    HW238928   0.700   1.534   7.096 -1.1361 -1.6650 -1.1077
 9099SOL     OW38929   0.359   4.602   9.253  0.4026  0.0057  0.2940
 9099SOL    HW138930   0.334   4.513   9.230 -2.4186  0.9351 -0.2117
 9099SOL    HW238931   0.359   4.649   9.170  1.2998 -0.0859  0.2444
 9100SOL     OW38932   1.677   1.714   3.173  0.1843 -0.6319 -0.0145
 9100SOL    HW138933   1.664   1.785   3.110  0.3531  0.0223  0.6842
 9100SOL    HW238934   1.773   1.711   3.170  0.2099  2.9455 -2.2952
 9101SOL     OW38935   1.026   2.009  15.090  0.1753  0.0869 -0.2302
 9101SOL    HW138936   1.113   2.047  15.098 -0.4772  1.2474  1.4565
 9101SOL    HW238937   0.975   2.084  15.057  0.4873  0.3017 -0.2285
 9102SOL     OW38938   3.956   3.203  16.119  0.9269  0.0867  0.8447
 9102SOL    HW138939   3.989   3.280  16.073 -0.4422 -0.8635 -1.7443
 9102SOL    HW238940   4.038   3.178  16.160  0.7292  0.2994  1.3622
 9103SOL     OW38941   4.366   3.110   9.157 -0.6880  0.2708 -0.0933
 9103SOL    HW138942   4.442   3.103   9.215 -0.1932  0.6508 -0.7009
 9103SOL    HW238943   4.367   3.026   9.110  1.6828 -0.9579  2.1525
 9104SOL     OW38944   1.578   3.759   9.107  0.5128 -0.1926  0.0538
 9104SOL    HW138945   1.655   3.755   9.164 -0.7167  0.8352  1.7762
 9104SOL    HW238946   1.556   3.668   9.086 -0.2034  0.0903 -0.4034
 9105SOL     OW38947   1.835   3.589   9.920  0.3344 -0.1440  0.3366
 9105SOL    HW138948   1.907   3.621   9.975 -1.1940  1.6705  1.3075
 9105SOL    HW238949   1.857   3.621   9.833 -0.7571 -1.5027 -0.4313
 9106SOL     OW38950   3.272   3.570  12.793 -0.0123  0.1021 -0.4851
 9106SOL    HW138951   3.236   3.624  12.863  2.0015  0.0445  0.5990
 9106SOL    HW238952   3.326   3.631  12.742  0.4978 -1.7344 -2.1201
 9107SOL     OW38953   4.292   3.864  13.176  0.0422 -0.6224 -0.2325
 9107SOL    HW138954   4.268   3.865  13.084  0.0344  1.5992 -0.2178
 9107SOL    HW238955   4.316   3.956  13.191  0.4755 -0.9953  1.3793
 9108SOL     OW38956   0.060   3.835  14.448 -0.0011  0.1203 -0.1881
 9108SOL    HW138957   0.023   3.784  14.520 -1.3114  0.0593 -0.9107
 9108SOL    HW238958   0.096   3.756  14.407 -0.0657 -0.3453  0.6430
 9109SOL     OW38959   3.438   0.286  12.613  0.0200  0.3772  0.4156
 9109SOL    HW138960   3.390   0.366  12.588  1.6896  1.0132 -0.7953
 9109SOL    HW238961   3.463   0.297  12.704 -1.2432 -0.2077  0.8272
 9110SOL     OW38962   4.155   2.741  11.974  0.6779  0.4132 -0.0851
 9110SOL    HW138963   4.084   2.694  12.018 -1.5695  2.0100 -2.0160
 9110SOL    HW238964   4.128   2.741  11.882 -0.6187  3.2190  0.2839
 9111SOL     OW38965   0.148   0.107   6.372  0.0946 -0.1636  0.2722
 9111SOL    HW138966   0.174   0.026   6.415  0.9438  0.7645  1.4885
 9111SOL    HW238967   0.107   0.069   6.294 -0.1225 -0.0685  0.3403
 9112SOL     OW38968   4.636   1.975   4.949  0.6536  0.2792  0.2512
 9112SOL    HW138969   4.673   2.025   5.023  2.0987  1.0686 -0.9919
 9112SOL    HW238970   4.716   1.950   4.903  0.8192 -1.0524  1.2615
 9113SOL     OW38971   1.958   1.459   4.594  0.6470  0.1909  0.2393
 9113SOL    HW138972   1.910   1.380   4.570 -1.8091  1.6104  0.4562
 9113SOL    HW238973   1.994   1.466   4.505 -0.7436  2.3676 -0.1809
 9114SOL     OW38974   3.472   1.114  15.124  0.6624 -0.1174  0.0974
 9114SOL    HW138975   3.454   1.207  15.110 -0.8729 -0.5130 -0.6009
 9114SOL    HW238976   3.523   1.091  15.047 -1.0912 -0.5235 -0.9518
 9115SOL     OW38977   0.366   0.778   9.140 -0.1019 -0.2484 -0.5137
 9115SOL    HW138978   0.411   0.832   9.076 -1.1780  0.3269 -0.7931
 9115SOL    HW238979   0.358   0.690   9.104 -0.9752  0.1269 -1.2246
 9116SOL     OW38980   4.238   2.112  10.559  0.0259 -0.3774  0.1509
 9116SOL    HW138981   4.299   2.162  10.614 -1.3298  0.0324  1.2993
 9116SOL    HW238982   4.295   2.052  10.511 -1.3640 -1.3210 -0.3264
 9117SOL     OW38983   0.214   2.244  12.585  0.0378  0.1959 -0.6345
 9117SOL    HW138984   0.276   2.192  12.534  1.1781  1.0456 -0.1188
 9117SOL    HW238985   0.220   2.310  12.516  0.3872 -0.1482 -0.9357
 9118SOL     OW38986   4.059   4.350   6.083  0.3291 -0.1747 -0.2227
 9118SOL    HW138987   3.973   4.333   6.045  0.6702 -0.0412 -1.0642
 9118SOL    HW238988   4.073   4.270   6.133  0.2700  0.7190  1.2075
 9119SOL     OW38989   1.257   3.409  17.060 -0.0591 -0.3128  0.6735
 9119SOL    HW138990   1.228   3.327  17.100 -2.0510  1.5023  2.8953
 9119SOL    HW238991   1.342   3.415  17.103  0.5913  0.5740 -0.7118
 9120SOL     OW38992   4.723   4.058   2.072 -0.5619  0.1473 -0.1021
 9120SOL    HW138993   4.687   3.977   2.109  0.9439 -0.5502 -0.1776
 9120SOL    HW238994   4.659   4.065   2.001 -2.4976 -3.1919  1.2858
 9121SOL     OW38995   4.153   2.907   2.965 -0.0562  0.2016  0.1769
 9121SOL    HW138996   4.080   2.851   2.990  0.5393 -1.0728 -1.0107
 9121SOL    HW238997   4.184   2.861   2.888 -0.4294  0.1887  0.0325
 9122SOL     OW38998   2.083   2.804   8.191 -0.3190  0.4932 -0.4341
 9122SOL    HW138999   2.016   2.736   8.184 -0.3927  0.7921 -2.5667
 9122SOL    HW239000   2.159   2.755   8.158  0.2583  0.8467  0.3661
 9123SOL     OW39001   3.831   3.531   2.451  0.4810 -0.5784  0.1778
 9123SOL    HW139002   3.800   3.445   2.478 -0.4029 -0.5425 -0.7255
 9123SOL    HW239003   3.920   3.510   2.425  0.4579  1.2573 -1.4003
 9124SOL     OW39004   1.279   2.019  11.893 -0.0374 -0.2587  0.0932
 9124SOL    HW139005   1.246   2.103  11.926  0.1674  0.2646 -1.0550
 9124SOL    HW239006   1.271   1.954  11.963  0.3698  0.7553  1.0837
 9125SOL     OW39007   2.031   0.857   4.059 -0.3769 -0.1671  0.0845
 9125SOL    HW139008   2.076   0.920   4.115  0.6025 -0.7297 -0.0566
 9125SOL    HW239009   1.956   0.842   4.115  0.9911 -2.4779  1.3032
 9126SOL     OW39010   1.088   2.817   5.230  0.3054  0.6206  0.6126
 9126SOL    HW139011   1.065   2.889   5.171 -0.0149 -2.8636 -3.5016
 9126SOL    HW239012   1.184   2.811   5.227  0.3339  1.5623 -0.3492
 9127SOL     OW39013   2.596   2.715   2.284  0.2826  0.0473  0.5680
 9127SOL    HW139014   2.591   2.806   2.315  2.0943  0.1448  0.6171
 9127SOL    HW239015   2.654   2.719   2.208  0.3511  1.4810  0.6859
 9128SOL     OW39016   3.569   4.706  12.246 -0.1985 -0.4292  0.0532
 9128SOL    HW139017   3.616   4.734  12.324  2.0886  0.9667 -1.7914
 9128SOL    HW239018   3.480   4.733  12.269 -0.0511  0.1595 -0.0502
 9129SOL     OW39019   1.357   1.587   1.386 -0.7755 -0.0249 -0.0627
 9129SOL    HW139020   1.312   1.567   1.468  1.9513 -1.5037  1.0873
 9129SOL    HW239021   1.413   1.656   1.421  1.1445 -1.6903  0.1540
 9130SOL     OW39022   0.561   0.836   5.166 -0.0768  0.5350  0.3178
 9130SOL    HW139023   0.640   0.809   5.213  0.1129  2.9590  1.3734
 9130SOL    HW239024   0.582   0.923   5.132  3.0626 -0.0798  0.7689
 9131SOL     OW39025   1.616   1.943  12.637  0.0034 -0.1326 -0.1724
 9131SOL    HW139026   1.597   1.859  12.597  0.4242 -0.3674  0.1245
 9131SOL    HW239027   1.674   1.978  12.569 -1.0930  0.5724 -0.7515
 9132SOL     OW39028   3.831   1.418   4.233  0.2866  0.5477  0.2777
 9132SOL    HW139029   3.907   1.370   4.266 -0.4296  0.9825  2.5338
 9132SOL    HW239030   3.763   1.414   4.300 -0.1546  0.9269 -0.1504
 9133SOL     OW39031   3.216   3.548  15.603  0.1801 -0.0513 -0.3058
 9133SOL    HW139032   3.234   3.540  15.696 -2.6925  0.9453  0.3391
 9133SOL    HW239033   3.282   3.597  15.554  0.0917 -0.3550 -0.7296
 9134SOL     OW39034   0.184   2.477  13.059  0.1795 -0.0828  0.2903
 9134SOL    HW139035   0.180   2.437  12.973  0.8348  0.1853  0.1361
 9134SOL    HW239036   0.107   2.533  13.049 -1.1266 -1.6782  1.3656
 9135SOL     OW39037   3.162   4.521   8.293 -0.2543 -0.0376 -0.1433
 9135SOL    HW139038   3.075   4.520   8.252 -0.9274 -2.4587  1.2899
 9135SOL    HW239039   3.194   4.609   8.277  0.1785 -0.0596  0.5940
 9136SOL     OW39040   3.914   4.241   2.312 -0.9528  0.0268  0.0248
 9136SOL    HW139041   3.854   4.294   2.364  0.0720 -1.0828  2.3352
 9136SOL    HW239042   3.901   4.154   2.351  0.8580 -0.0856  0.3705
 9137SOL     OW39043   2.868   4.634   5.738  0.6894  0.0621  0.0775
 9137SOL    HW139044   2.807   4.704   5.762 -0.1198 -0.2946 -0.9549
 9137SOL    HW239045   2.850   4.616   5.646  0.4305 -0.1257  0.1638
 9138SOL     OW39046   0.592   3.565   2.521  0.1462  0.1663  0.2426
 9138SOL    HW139047   0.553   3.480   2.536 -0.0214  0.0649 -0.7564
 9138SOL    HW239048   0.670   3.534   2.475  0.6633  1.9313 -0.0890
 9139SOL     OW39049   0.668   3.508   3.962  0.3127  0.4776 -0.1016
 9139SOL    HW139050   0.675   3.459   4.043  1.8185 -0.2791 -0.6872
 9139SOL    HW239051   0.759   3.530   3.946 -0.4855  3.3048 -0.7904
 9140SOL     OW39052   1.157   4.694  10.072 -0.1565  0.1740 -0.5114
 9140SOL    HW139053   1.194   0.013  10.139  0.7880 -0.5449 -0.4292
 9140SOL    HW239054   1.160   4.604  10.104  1.3595 -0.1803 -1.6475
 9141SOL     OW39055   1.859   2.207  17.317 -0.0861 -0.8566 -0.5395
 9141SOL    HW139056   1.927   2.171  17.374  1.1368  1.7260 -0.3569
 9141SOL    HW239057   1.911   2.256  17.253 -1.3382 -0.2357 -1.0860
 9142SOL     OW39058   2.859   2.076   4.252 -0.1757 -0.1767  0.5954
 9142SOL    HW139059   2.943   2.116   4.273 -0.3711  1.4019 -1.6127
 9142SOL    HW239060   2.884   2.028   4.173  2.0928 -1.7137  2.2754
 9143SOL     OW39061   2.595   2.757  16.829  0.4857  0.1079 -0.5533
 9143SOL    HW139062   2.652   2.751  16.752  0.0389 -0.3774 -0.8489
 9143SOL    HW239063   2.568   2.666  16.839  1.5199 -0.1605 -0.1504
 9144SOL     OW39064   3.723   2.234   4.211 -0.4031  0.4857  0.0541
 9144SOL    HW139065   3.737   2.147   4.173 -0.9156  0.7861 -0.8480
 9144SOL    HW239066   3.643   2.264   4.167  0.3232  0.3582 -1.3580
 9145SOL     OW39067   1.407   1.474   7.145 -0.1154 -0.7580  0.5516
 9145SOL    HW139068   1.364   1.512   7.068  1.1449 -0.7239 -0.1278
 9145SOL    HW239069   1.479   1.533   7.166  0.9795 -1.2981 -1.7668
 9146SOL     OW39070   2.149   3.948   2.559 -0.1359 -0.6054 -0.4099
 9146SOL    HW139071   2.101   3.898   2.625  1.5419 -3.0996 -1.0917
 9146SOL    HW239072   2.195   3.886   2.503  1.4057  0.2401 -0.0853
 9147SOL     OW39073   0.030   3.375   9.830  0.3068  0.1211 -0.0872
 9147SOL    HW139074   4.712   3.426   9.889  0.8890 -0.1056  0.6642
 9147SOL    HW239075   0.096   3.346   9.893 -0.4329 -0.1198  0.5744
 9148SOL     OW39076   0.252   0.130   8.773 -0.1712  0.4369  0.1667
 9148SOL    HW139077   0.329   0.097   8.820 -1.2056  0.5877  1.9661
 9148SOL    HW239078   0.241   0.214   8.816 -3.2979  0.6379 -1.0694
 9149SOL     OW39079   4.592   2.569   3.935  0.6935 -0.0544 -0.2423
 9149SOL    HW139080   4.591   2.555   4.030 -0.3872  1.8391  0.0087
 9149SOL    HW239081   4.532   2.497   3.915  1.7841 -1.5046  1.7026
 9150SOL     OW39082   1.185   3.616   4.752  0.5020 -0.3083  0.4692
 9150SOL    HW139083   1.106   3.602   4.700  1.6023 -1.0473 -1.0304
 9150SOL    HW239084   1.207   3.706   4.729 -0.8697 -0.4592 -1.4013
 9151SOL     OW39085   4.129   3.545   2.433  0.1959 -0.0309 -0.3366
 9151SOL    HW139086   4.121   3.638   2.452  1.8508  0.0038  0.2163
 9151SOL    HW239087   4.181   3.546   2.353 -1.1085 -1.0370 -1.2018
 9152SOL     OW39088   2.199   2.376   1.623  0.1677 -0.4996  0.3497
 9152SOL    HW139089   2.112   2.406   1.597  0.7013  0.3121 -0.5177
 9152SOL    HW239090   2.191   2.297   1.571  1.4541 -0.8529  0.6718
 9153SOL     OW39091   3.153   3.153   5.561  0.0352 -0.3659  0.1718
 9153SOL    HW139092   3.068   3.189   5.534  0.3363 -1.2248 -1.9523
 9153SOL    HW239093   3.199   3.136   5.479 -0.4179  0.3755 -0.2414
 9154SOL     OW39094   4.572   2.446  17.171  0.2251 -0.4833 -0.4135
 9154SOL    HW139095   4.637   2.510  17.199 -0.8339 -0.0325  1.0621
 9154SOL    HW239096   4.516   2.500  17.115  1.9946  2.1309  0.3596
 9155SOL     OW39097   1.470   1.959   7.014  0.3746 -0.4700 -0.4231
 9155SOL    HW139098   1.448   2.049   7.038  0.9013  0.2822 -2.7592
 9155SOL    HW239099   1.414   1.911   7.075  0.7883  1.2354  1.2975
 9156SOL     OW39100   3.569   4.154   2.739 -0.0809 -0.4401  0.1627
 9156SOL    HW139101   3.659   4.159   2.771  0.0445 -0.1825 -0.2224
 9156SOL    HW239102   3.521   4.211   2.799  3.5621  1.8375  0.9192
 9157SOL     OW39103   3.093   0.337   2.996  0.0664  0.1893  0.0204
 9157SOL    HW139104   3.017   0.299   2.952 -0.2735  0.6815  0.1853
 9157SOL    HW239105   3.142   0.261   3.027 -0.4280 -0.2816 -0.3561
 9158SOL     OW39106   2.535   3.044   5.903  0.1813 -0.0490 -0.0915
 9158SOL    HW139107   2.556   3.126   5.949  0.4429 -0.8303  1.1702
 9158SOL    HW239108   2.548   2.987   5.978  0.7177 -1.0597 -0.9416
 9159SOL     OW39109   0.465   3.170   8.034  0.0239 -0.4242 -0.1428
 9159SOL    HW139110   0.558   3.160   8.051 -0.1892 -0.3829  1.0708
 9159SOL    HW239111   0.458   3.249   7.981  3.4412  1.4828  2.2993
 9160SOL     OW39112   2.622   3.290  12.179 -0.0572 -0.1950 -0.1789
 9160SOL    HW139113   2.666   3.287  12.264 -0.6819  0.4333  0.1656
 9160SOL    HW239114   2.634   3.384  12.167  0.7106 -0.5116 -1.9026
 9161SOL     OW39115   2.681   1.798  16.350  0.0843  0.2753 -0.2392
 9161SOL    HW139116   2.594   1.837  16.360 -0.4686 -0.6080 -1.5304
 9161SOL    HW239117   2.697   1.821  16.259  1.1276  0.2882 -0.0485
 9162SOL     OW39118   2.076   0.304  16.494 -0.2612  0.6582  0.0761
 9162SOL    HW139119   2.071   0.212  16.471  0.5868  0.9536 -1.2875
 9162SOL    HW239120   2.038   0.308  16.582  0.2206  0.4468  0.2960
 9163SOL     OW39121   1.073   2.460   9.171 -0.4188  0.2187 -0.0240
 9163SOL    HW139122   1.013   2.532   9.188 -0.5327  0.3887 -1.1723
 9163SOL    HW239123   1.123   2.456   9.253 -2.7170 -1.2829  1.3239
 9164SOL     OW39124   3.485   1.575   4.905 -0.3157  0.3200  0.5764
 9164SOL    HW139125   3.429   1.633   4.957 -1.6690 -0.8362  0.4021
 9164SOL    HW239126   3.569   1.587   4.949  0.7878  2.2773 -2.0170
 9165SOL     OW39127   3.969   2.387   3.057  0.2869  0.7763  0.1375
 9165SOL    HW139128   3.996   2.396   2.966 -1.8788  1.3950 -0.4258
 9165SOL    HW239129   3.952   2.293   3.061 -0.7803  0.9346 -0.8870
 9166SOL     OW39130   0.055   0.788   3.396 -0.3570 -0.0391 -0.0197
 9166SOL    HW139131   0.114   0.821   3.463 -1.6233 -0.4082  1.2787
 9166SOL    HW239132   4.711   0.825   3.430  0.2545  0.6333  0.7182
 9167SOL     OW39133   1.741   4.170  10.405  0.1302 -0.4846 -0.5504
 9167SOL    HW139134   1.812   4.234  10.404 -2.4534  2.3202 -1.5235
 9167SOL    HW239135   1.769   4.090  10.361  1.2436 -1.3395  1.7024
 9168SOL     OW39136   2.424   2.760   9.046  0.5368 -0.1509 -0.6717
 9168SOL    HW139137   2.483   2.751   8.971  1.8592 -1.6126  0.5488
 9168SOL    HW239138   2.379   2.843   9.034  1.3994  0.6321  1.7498
 9169SOL     OW39139   3.673   4.700  11.999 -0.4425  0.2267  0.8165
 9169SOL    HW139140   3.624   4.631  11.954  0.0851  0.8568 -0.7117
 9169SOL    HW239141   3.641   4.696  12.089 -1.2835 -2.4264  0.4042
 9170SOL     OW39142   2.714   0.398   4.693  0.5145 -0.8833 -0.5461
 9170SOL    HW139143   2.662   0.476   4.715  1.3968 -0.3927 -0.1744
 9170SOL    HW239144   2.805   0.428   4.692  0.5150 -0.8865 -0.6060
 9171SOL     OW39145   4.238   2.444   5.396 -0.4946 -0.8267 -0.5434
 9171SOL    HW139146   4.198   2.358   5.386  1.2800 -1.5399 -1.4530
 9171SOL    HW239147   4.264   2.429   5.487 -1.5866  0.9987  0.0887
 9172SOL     OW39148   3.998   0.701   7.314  0.6786  0.0009 -0.3388
 9172SOL    HW139149   3.988   0.705   7.219 -0.3839 -0.7125 -0.2585
 9172SOL    HW239150   3.917   0.745   7.343 -0.8559 -1.4970 -2.3607
 9173SOL     OW39151   4.619   1.248   8.293  0.0247  0.1481 -0.5304
 9173SOL    HW139152   4.546   1.291   8.248  0.5088 -0.2023 -1.6427
 9173SOL    HW239153   4.617   1.162   8.252 -2.2474  1.0505 -2.3993
 9174SOL     OW39154   1.253   4.283  11.732  0.1089 -0.2169  0.2729
 9174SOL    HW139155   1.218   4.205  11.690 -1.6042  1.5787 -1.6472
 9174SOL    HW239156   1.199   4.355  11.700 -1.6787 -1.5138  0.3299
 9175SOL     OW39157   1.197   4.515   3.822 -0.5574  0.2841  0.1696
 9175SOL    HW139158   1.163   4.558   3.900  4.1432  1.2235  1.7171
 9175SOL    HW239159   1.135   4.443   3.809  1.8731 -1.7030 -0.3582
 9176SOL     OW39160   2.570   0.443   9.481  0.2706 -0.1094 -0.8179
 9176SOL    HW139161   2.653   0.485   9.462 -0.1379  0.5610 -1.1171
 9176SOL    HW239162   2.519   0.496   9.420 -0.3536 -0.0408 -0.2383
 9177SOL     OW39163   2.266   3.754   0.380  0.3337  0.1549 -0.4165
 9177SOL    HW139164   2.288   3.746   0.287 -1.5559 -0.1721 -0.8459
 9177SOL    HW239165   2.260   3.849   0.390 -0.1018 -0.1143  1.6973
 9178SOL     OW39166   3.495   0.576   3.017 -0.8469  0.4565 -0.0937
 9178SOL    HW139167   3.573   0.605   2.971  0.3117 -0.5080  1.2593
 9178SOL    HW239168   3.483   0.490   2.979 -1.7806  1.1555 -1.3750
 9179SOL     OW39169   3.187   2.847  11.455 -0.2595 -0.6337  0.1118
 9179SOL    HW139170   3.167   2.754  11.464 -1.3453 -0.5644 -1.6636
 9179SOL    HW239171   3.282   2.846  11.456 -0.2642 -1.5529 -0.9453
 9180SOL     OW39172   2.645   2.277   8.660 -0.2185  0.4097 -0.0627
 9180SOL    HW139173   2.700   2.352   8.680 -1.0022  1.3711 -1.4451
 9180SOL    HW239174   2.606   2.322   8.585  0.0563 -1.5349 -1.3714
 9181SOL     OW39175   1.579   2.245   5.445 -0.1212  0.1381  0.4701
 9181SOL    HW139176   1.619   2.280   5.524 -0.2592  0.8918  0.2051
 9181SOL    HW239177   1.585   2.150   5.454  0.5460  0.0021 -1.2831
 9182SOL     OW39178   0.295   4.310   3.899 -0.1455  0.1419 -0.4562
 9182SOL    HW139179   0.243   4.309   3.980 -1.5430  0.3688 -1.3374
 9182SOL    HW239180   0.266   4.226   3.863 -2.7359  1.7656 -2.1073
 9183SOL     OW39181   0.258   4.436   2.127  0.7275  0.4192  0.5500
 9183SOL    HW139182   0.204   4.442   2.049  1.7556 -0.6066 -0.2574
 9183SOL    HW239183   0.223   4.355   2.164 -0.4760  0.6945  0.0057
 9184SOL     OW39184   0.071   1.309  17.508  0.2959 -0.0846  0.2551
 9184SOL    HW139185   0.140   1.357  17.552 -0.7647  1.3060  0.3867
 9184SOL    HW239186   0.049   1.243  17.574  1.7139 -0.0254  0.7817
 9185SOL     OW39187   2.612   2.978   2.372 -0.3258  0.0430 -0.0705
 9185SOL    HW139188   2.555   2.953   2.444 -1.0462 -0.9495 -0.9880
 9185SOL    HW239189   2.627   3.072   2.387  0.5746 -0.0756 -0.2107
 9186SOL     OW39190   0.878   4.003  16.586  0.1094  0.4206  0.0628
 9186SOL    HW139191   0.938   4.012  16.512  0.0908  0.6902  0.0780
 9186SOL    HW239192   0.878   3.909  16.604  1.4630 -0.0113 -2.2219
 9187SOL     OW39193   2.821   2.458  11.480  0.2158 -0.2381 -0.1903
 9187SOL    HW139194   2.814   2.542  11.434  1.9219 -0.3910 -0.7402
 9187SOL    HW239195   2.886   2.422  11.419 -1.0603 -1.7608 -0.6512
 9188SOL     OW39196   0.569   2.651  13.800 -0.1054 -0.1531  0.0782
 9188SOL    HW139197   0.505   2.588  13.834 -0.8084 -0.1978 -1.3103
 9188SOL    HW239198   0.516   2.683  13.727  0.3983  0.4326 -0.0313
 9189SOL     OW39199   3.586   3.760  14.799 -0.1410 -1.0875 -0.6535
 9189SOL    HW139200   3.623   3.677  14.767 -1.2338 -2.2963  1.1867
 9189SOL    HW239201   3.604   3.822  14.729  0.8642 -2.3480 -1.5199
 9190SOL     OW39202   3.356   2.983   3.363  0.2167  0.4277 -0.4603
 9190SOL    HW139203   3.317   3.069   3.350 -1.4145 -0.1718  0.4806
 9190SOL    HW239204   3.323   2.964   3.451 -0.6511 -1.9402 -1.2837
 9191SOL     OW39205   4.446   0.640  17.678  0.3770 -0.0581 -0.2444
 9191SOL    HW139206   4.505   0.565  17.686 -2.3520 -2.0952  1.1028
 9191SOL    HW239207   4.376   0.593  17.633  1.9432 -1.3749 -1.2858
 9192SOL     OW39208   4.698   3.102   6.143 -0.2112 -0.4731  0.3415
 9192SOL    HW139209   4.610   3.080   6.114  0.1396 -1.1313 -0.2293
 9192SOL    HW239210   0.008   3.037   6.092 -0.0360 -1.1792  1.4078
 9193SOL     OW39211   0.689   3.798   1.561  0.3505  1.1021 -0.1228
 9193SOL    HW139212   0.706   3.824   1.471  4.1285  0.4608  0.4234
 9193SOL    HW239213   0.640   3.876   1.589 -0.1854  0.6525  0.1943
 9194SOL     OW39214   1.186   2.024  17.563  0.4379  0.1609 -0.0069
 9194SOL    HW139215   1.228   2.027  17.649  2.9580 -0.6122 -1.2064
 9194SOL    HW239216   1.260   2.032  17.504 -0.0545  1.2054 -0.4953
 9195SOL     OW39217   3.897   3.947   7.929 -0.1185 -0.3845  0.1609
 9195SOL    HW139218   3.808   3.965   7.900 -0.7920 -1.4610  1.5934
 9195SOL    HW239219   3.878   3.903   8.012  1.8712 -0.5634  0.5288
 9196SOL     OW39220   1.334   0.990  13.441 -0.2630 -0.0514  0.1990
 9196SOL    HW139221   1.386   1.007  13.519 -0.2728 -2.2658  0.6956
 9196SOL    HW239222   1.280   0.921  13.481 -0.4996 -0.3651 -0.6583
 9197SOL     OW39223   0.633   4.600   5.105  1.1410 -0.4321 -0.2509
 9197SOL    HW139224   0.577   4.529   5.071 -2.2084  2.5553 -0.9712
 9197SOL    HW239225   0.635   4.650   5.023 -2.6393 -0.4872 -0.3851
 9198SOL     OW39226   1.399   2.126   9.745 -0.2403 -0.3241  0.4181
 9198SOL    HW139227   1.354   2.210   9.741 -0.2901 -0.2530  2.2644
 9198SOL    HW239228   1.482   2.157   9.783 -0.2309 -0.1880  0.2864
 9199SOL     OW39229   3.133   0.846   4.188  0.0097  0.0073  0.1627
 9199SOL    HW139230   3.194   0.803   4.128 -0.5491  0.6342 -0.8525
 9199SOL    HW239231   3.068   0.882   4.128  0.1280 -1.7390 -1.0307
 9200SOL     OW39232   3.091   3.210  14.695  0.5336  0.0648 -0.2434
 9200SOL    HW139233   3.034   3.140  14.663 -1.4658  1.0895  1.0649
 9200SOL    HW239234   3.107   3.179  14.784  2.3591  1.1556 -0.1918
 9201SOL     OW39235   3.180   2.384   5.565 -0.6300 -0.4283  0.0862
 9201SOL    HW139236   3.181   2.293   5.536 -0.3902 -0.5178  0.3782
 9201SOL    HW239237   3.257   2.425   5.524 -0.3605 -1.8272 -0.8113
 9202SOL     OW39238   0.606   1.072  10.936  0.1012  0.4077  0.0410
 9202SOL    HW139239   0.605   0.980  10.910  0.7542  0.4810 -0.2463
 9202SOL    HW239240   0.675   1.066  11.002 -0.1440 -1.0755  0.1604
 9203SOL     OW39241   4.369   4.134   7.402 -0.2997  0.1201 -0.6674
 9203SOL    HW139242   4.391   4.206   7.461 -0.3460 -0.2632 -0.1807
 9203SOL    HW239243   4.329   4.181   7.329  0.4880  0.2171 -1.0451
 9204SOL     OW39244   1.010   3.041  17.557  0.1462 -0.3150  0.2479
 9204SOL    HW139245   0.972   3.110  17.612 -1.2113  0.1249 -1.2401
 9204SOL    HW239246   1.084   3.092  17.525 -0.4058  0.4975  0.2646
 9205SOL     OW39247   3.520   2.811   7.324  0.3372  0.8511  0.4933
 9205SOL    HW139248   3.504   2.816   7.418  4.0553  0.4765  1.1422
 9205SOL    HW239249   3.612   2.783   7.327 -0.5672 -2.5386 -2.7820
 9206SOL     OW39250   0.896   1.801   4.870  0.0594 -0.3795  0.3239
 9206SOL    HW139251   0.966   1.736   4.877 -0.1793 -0.4611  1.8868
 9206SOL    HW239252   0.817   1.747   4.878 -0.5425  0.6645  1.2997
 9207SOL     OW39253   1.312   2.816   9.194  0.4992 -0.3165  0.0910
 9207SOL    HW139254   1.228   2.806   9.147 -0.1464 -0.7702  1.3536
 9207SOL    HW239255   1.360   2.759   9.134  0.8902  0.3764 -0.2436
 9208SOL     OW39256   3.210   1.806  12.203 -0.0241  0.5648 -0.3055
 9208SOL    HW139257   3.293   1.837  12.239 -0.8760 -0.0154  2.1566
 9208SOL    HW239258   3.163   1.889  12.201 -2.5848 -0.8831 -2.6147
 9209SOL     OW39259   3.480   0.067   3.483 -0.4104  0.1656  0.0473
 9209SOL    HW139260   3.483   0.087   3.576 -2.4717  1.1240 -0.1045
 9209SOL    HW239261   3.567   0.095   3.455 -1.5686  1.3964 -2.3342
 9210SOL     OW39262   0.830   2.534  12.619 -0.9148 -0.7048  0.2006
 9210SOL    HW139263   0.763   2.536  12.550 -0.6020  2.8163  0.0249
 9210SOL    HW239264   0.792   2.503  12.701  0.0723  0.6454  1.1549
 9211SOL     OW39265   0.726   3.850   5.895 -0.1718  0.4905 -0.2239
 9211SOL    HW139266   0.810   3.848   5.849 -0.5301  0.2155 -0.8663
 9211SOL    HW239267   0.705   3.942   5.913  0.2426  0.8589 -1.6380
 9212SOL     OW39268   1.244   0.851   2.254  0.2439 -0.8737 -0.3221
 9212SOL    HW139269   1.209   0.809   2.332  1.2784  1.2482  1.2904
 9212SOL    HW239270   1.243   0.768   2.208 -3.9566 -1.4806  0.8518
 9213SOL     OW39271   3.783   1.300   2.698 -0.3309  0.2359  0.3492
 9213SOL    HW139272   3.867   1.273   2.736  0.7589  2.2422 -0.6119
 9213SOL    HW239273   3.740   1.217   2.677 -0.3088 -0.0947  1.6325
 9214SOL     OW39274   2.101   0.140   7.440  0.0884 -0.7237 -0.0587
 9214SOL    HW139275   2.103   0.227   7.480 -0.0245 -1.0830  0.7235
 9214SOL    HW239276   2.186   0.102   7.462  1.1526  1.7464  0.1160
 9215SOL     OW39277   2.620   1.495   5.784 -0.0049  0.4966  0.2019
 9215SOL    HW139278   2.704   1.503   5.738 -0.6315  0.9578 -0.8492
 9215SOL    HW239279   2.564   1.528   5.714 -2.0004 -0.9838  1.1043
 9216SOL     OW39280   3.654   4.681   9.128 -0.4183 -0.0991  0.5283
 9216SOL    HW139281   3.562   4.658   9.143 -0.5557  0.0510 -0.0727
 9216SOL    HW239282   3.703   4.628   9.191 -1.9926 -1.1616  0.8496
 9217SOL     OW39283   3.748   1.105   0.440  0.4682 -0.4759 -0.5939
 9217SOL    HW139284   3.772   1.026   0.392  1.3974 -0.4458 -0.1691
 9217SOL    HW239285   3.778   1.165   0.372  1.8315 -1.9733 -1.3232
 9218SOL     OW39286   4.411   4.228   3.179 -0.3632 -0.2260  0.2162
 9218SOL    HW139287   4.403   4.181   3.262 -1.3119  2.6042  1.7229
 9218SOL    HW239288   4.365   4.310   3.196 -0.3351 -0.4816  1.5591
 9219SOL     OW39289   4.169   0.708   3.688 -0.1983  0.0406 -0.2133
 9219SOL    HW139290   4.112   0.641   3.652  1.3052 -1.6223  0.4655
 9219SOL    HW239291   4.125   0.788   3.661  0.4998  0.6559  0.4350
 9220SOL     OW39292   2.740   0.471  12.100 -0.0302 -0.0850  0.1364
 9220SOL    HW139293   2.805   0.432  12.041 -1.4206 -1.2645 -0.6000
 9220SOL    HW239294   2.807   0.479  12.168  0.9179  0.4550 -0.8539
 9221SOL     OW39295   1.189   2.257   4.480 -0.1166  0.6509  0.3463
 9221SOL    HW139296   1.281   2.267   4.505 -0.0108  0.0254  0.2042
 9221SOL    HW239297   1.154   2.346   4.476 -2.2718 -0.2209  0.1454
 9222SOL     OW39298   2.556   0.855   6.927 -0.2853  0.4064  0.0967
 9222SOL    HW139299   2.630   0.906   6.893 -0.3763 -0.1815 -0.9748
 9222SOL    HW239300   2.586   0.844   7.017  0.4613 -0.2846 -0.2412
 9223SOL     OW39301   2.401   4.105   7.112 -0.1343 -0.2152 -1.0013
 9223SOL    HW139302   2.337   4.071   7.175  1.1529  0.9153  0.9075
 9223SOL    HW239303   2.344   4.177   7.086  1.0360  1.3094  0.7172
 9224SOL     OW39304   2.874   4.609   2.401  0.1546 -0.2279  0.0356
 9224SOL    HW139305   2.881   4.636   2.309  0.3499 -0.8763 -0.1391
 9224SOL    HW239306   2.826   4.527   2.392 -1.5583  0.5848  1.7322
 9225SOL     OW39307   2.485   4.004   9.632  0.7551 -0.4808  0.1987
 9225SOL    HW139308   2.570   3.981   9.595  0.5213  0.8353 -1.1409
 9225SOL    HW239309   2.503   4.095   9.656 -0.5088 -0.2024  0.0966
 9226SOL     OW39310   2.965   0.848  11.798 -0.0620  0.6052  0.1808
 9226SOL    HW139311   3.017   0.885  11.869  1.1370  1.1263 -0.9831
 9226SOL    HW239312   3.014   0.874  11.721  0.7517  1.9351  1.1482
 9227SOL     OW39313   2.574   1.842  14.606  0.5125  0.4211  0.1441
 9227SOL    HW139314   2.641   1.854  14.674 -0.3436  0.8729  0.8981
 9227SOL    HW239315   2.601   1.905  14.540  0.8881  0.2574  0.1386
 9228SOL     OW39316   4.627   3.492   1.686 -0.0468  0.8010  0.1152
 9228SOL    HW139317   4.644   3.471   1.778  0.8809  1.6074  0.1241
 9228SOL    HW239318   4.546   3.443   1.675 -2.6663  5.1546 -0.1177
 9229SOL     OW39319   2.812   1.470   2.610  0.0020  0.2503  0.1362
 9229SOL    HW139320   2.853   1.545   2.654  1.6664 -0.6433  0.0915
 9229SOL    HW239321   2.720   1.496   2.613 -0.7729 -2.6009  0.6079
 9230SOL     OW39322   3.703   1.027   8.851  0.3895  0.2194 -0.2667
 9230SOL    HW139323   3.712   1.095   8.917 -0.1776  0.5616 -0.5408
 9230SOL    HW239324   3.607   1.024   8.853  0.3836  1.1559  1.0664
 9231SOL     OW39325   0.069   2.712  14.676 -0.3439  0.0069 -0.0033
 9231SOL    HW139326   0.078   2.807  14.672  1.8480 -0.2519 -1.2078
 9231SOL    HW239327   0.163   2.697  14.669 -0.5033 -0.0799 -1.9545
 9232SOL     OW39328   2.857   1.458   5.607 -0.1867 -0.1902 -0.1216
 9232SOL    HW139329   2.918   1.515   5.560 -0.3873  1.1534  1.2349
 9232SOL    HW239330   2.881   1.374   5.568  0.9764 -0.1220  0.4517
 9233SOL     OW39331   1.580   4.715   2.575  0.2729 -0.3083 -0.6299
 9233SOL    HW139332   1.636   0.047   2.542  0.3804 -0.0931  0.0214
 9233SOL    HW239333   1.575   4.663   2.494 -2.7780  1.2937 -1.4535
 9234SOL     OW39334   2.681   3.507   7.849 -0.4606 -0.3472  0.0807
 9234SOL    HW139335   2.716   3.418   7.849 -1.9995 -0.9569 -0.7522
 9234SOL    HW239336   2.627   3.498   7.771  1.3457  0.2923 -1.2376
 9235SOL     OW39337   1.447   3.507  15.073 -0.1493 -0.2671 -0.6132
 9235SOL    HW139338   1.421   3.599  15.078 -2.6248 -0.9834 -0.1377
 9235SOL    HW239339   1.391   3.473  15.143  0.2628 -0.1555 -0.2290
 9236SOL     OW39340   0.221   3.638  14.132  0.0494 -0.6376 -0.2656
 9236SOL    HW139341   0.130   3.667  14.139 -0.2070 -1.8443  1.3593
 9236SOL    HW239342   0.245   3.682  14.050 -0.1640  0.1577  0.1009
 9237SOL     OW39343   3.583   0.552  17.562 -0.1031  0.0469  0.4746
 9237SOL    HW139344   3.529   0.473  17.564  0.5988 -0.4865 -1.3237
 9237SOL    HW239345   3.667   0.513  17.536 -0.5128 -0.4747 -0.0643
 9238SOL     OW39346   0.968   1.397  10.609 -0.0981 -0.7088 -0.0650
 9238SOL    HW139347   0.926   1.414  10.525 -0.2381 -1.0781 -0.0739
 9238SOL    HW239348   0.917   1.459  10.662  0.8937  0.4004 -0.4410
 9239SOL     OW39349   2.365   1.320   4.771  0.8612 -0.0457 -0.7880
 9239SOL    HW139350   2.413   1.238   4.768 -0.2240 -0.7266  0.7126
 9239SOL    HW239351   2.409   1.380   4.832  0.8560 -1.0366  0.1843
 9240SOL     OW39352   3.219   3.034   2.492  0.0961  0.5568 -0.4565
 9240SOL    HW139353   3.218   3.119   2.536  1.4057  0.1562  0.3604
 9240SOL    HW239354   3.153   3.039   2.423 -1.0982 -0.6729  0.6025
 9241SOL     OW39355   2.201   1.826   5.410  0.3730 -0.2174  0.6273
 9241SOL    HW139356   2.228   1.888   5.477 -0.4108  0.0660  0.6732
 9241SOL    HW239357   2.223   1.878   5.332  0.7104 -0.0001  0.8679
 9242SOL     OW39358   3.109   0.127   8.931  0.0126 -0.5672  0.0517
 9242SOL    HW139359   3.123   0.035   8.911  0.0292  0.0425 -2.6728
 9242SOL    HW239360   3.089   0.168   8.847 -0.2737 -1.2364 -0.2051
 9243SOL     OW39361   1.341   2.971   5.412 -0.5332 -0.2879 -0.3373
 9243SOL    HW139362   1.360   2.941   5.322  0.0651  2.1069 -1.0008
 9243SOL    HW239363   1.354   3.065   5.412 -2.5129 -0.0167 -0.9664
 9244SOL     OW39364   3.208   3.730   9.535 -0.5313  0.2499  0.3668
 9244SOL    HW139365   3.252   3.698   9.456 -0.9989  0.6326 -0.0534
 9244SOL    HW239366   3.289   3.749   9.583  0.5380  0.1329 -1.3639
 9245SOL     OW39367   0.472   1.546   5.700 -0.2239  0.4636  0.3091
 9245SOL    HW139368   0.457   1.459   5.662  1.9834 -0.4461  1.5034
 9245SOL    HW239369   0.513   1.506   5.777 -1.7273 -2.4252 -0.3902
 9246SOL     OW39370   1.840   1.452   5.974  0.2363  0.0732  0.6344
 9246SOL    HW139371   1.847   1.522   6.039 -3.0180  2.2987 -1.4369
 9246SOL    HW239372   1.750   1.461   5.941  0.4672  0.0007  0.0034
 9247SOL     OW39373   3.404   1.030   9.098  0.6359 -0.5886 -0.0364
 9247SOL    HW139374   3.417   1.109   9.045 -1.6593 -1.4170 -1.8308
 9247SOL    HW239375   3.467   1.043   9.168  0.5278  0.0998 -0.0636
 9248SOL     OW39376   0.324   4.407   3.107  0.0590  0.2287  0.5505
 9248SOL    HW139377   0.377   4.328   3.118 -1.8615 -1.2310 -0.6298
 9248SOL    HW239378   0.385   4.460   3.054 -0.3546 -1.4071 -1.5776
 9249SOL     OW39379   0.964   1.156  15.371  0.1197 -0.4254 -0.0652
 9249SOL    HW139380   0.936   1.065  15.364  2.4767 -1.0735 -1.1093
 9249SOL    HW239381   0.933   1.179  15.459 -1.0411 -0.1140 -0.5526
 9250SOL     OW39382   3.958   3.566   7.369  0.7402 -0.3211  0.8595
 9250SOL    HW139383   4.040   3.541   7.327  0.1909 -0.1199 -0.3363
 9250SOL    HW239384   3.937   3.496   7.431 -3.5008 -1.8524 -2.3608
 9251SOL     OW39385   1.395   1.465   8.269  0.0814  0.4504  0.2471
 9251SOL    HW139386   1.324   1.491   8.327 -2.2414 -1.6317 -1.6759
 9251SOL    HW239387   1.455   1.453   8.342 -1.5839 -0.6918  1.4214
 9252SOL     OW39388   4.678   1.460   3.193 -0.0828 -0.4160 -0.1281
 9252SOL    HW139389   0.021   1.503   3.166 -1.0429  0.4719 -1.6332
 9252SOL    HW239390   4.677   1.395   3.123 -2.5416  0.4256 -0.8700
 9253SOL     OW39391   0.933   2.311  16.600  0.3376 -0.9535  0.2487
 9253SOL    HW139392   0.976   2.395  16.614 -2.6003  1.1151 -3.1053
 9253SOL    HW239393   0.999   2.242  16.593  0.7259 -0.4720 -0.7925
 9254SOL     OW39394   4.187   3.834   9.217  0.1864  0.4003  0.7559
 9254SOL    HW139395   4.147   3.775   9.282 -1.3346  2.0691  1.3462
 9254SOL    HW239396   4.268   3.786   9.201  0.8992  1.4952  1.1371
 9255SOL     OW39397   2.690   3.698   1.511 -0.4278 -0.1393  0.1463
 9255SOL    HW139398   2.655   3.778   1.551 -0.5778  0.5980 -1.4576
 9255SOL    HW239399   2.681   3.715   1.417  0.6431 -0.0104  0.0579
 9256SOL     OW39400   2.025   3.828   2.775 -0.0007  0.6767  0.3465
 9256SOL    HW139401   1.986   3.916   2.772  0.3457  0.7656 -1.5490
 9256SOL    HW239402   2.046   3.817   2.868 -2.6216 -1.8545  0.6411
 9257SOL     OW39403   3.452   0.114   4.631  0.4354 -0.0355  0.0816
 9257SOL    HW139404   3.489   0.049   4.691  0.0073  0.1788  0.5748
 9257SOL    HW239405   3.516   0.183   4.647 -0.6462  1.1081 -0.5793
 9258SOL     OW39406   1.767   3.428   8.541  0.9684  0.4845  0.1829
 9258SOL    HW139407   1.714   3.507   8.538  1.5948  0.9517  1.1869
 9258SOL    HW239408   1.785   3.417   8.448  1.8999  2.9650  0.0770
 9259SOL     OW39409   1.793   0.672   1.984 -0.4933  0.5640 -0.5590
 9259SOL    HW139410   1.768   0.750   2.034  2.4707  1.6762 -0.7538
 9259SOL    HW239411   1.755   0.684   1.897 -2.5479  1.4693  0.4581
 9260SOL     OW39412   3.046   0.114   3.523 -0.0229  0.0240  0.0234
 9260SOL    HW139413   3.073   0.025   3.502  0.2104  0.8084 -3.1377
 9260SOL    HW239414   2.966   0.103   3.574  0.4064 -1.2560  0.3987
 9261SOL     OW39415   3.723   0.391   7.819  0.3877  0.6883  0.3432
 9261SOL    HW139416   3.773   0.313   7.796 -1.2704 -0.1765 -0.3456
 9261SOL    HW239417   3.742   0.393   7.913  0.5973 -1.6927  0.3715
 9262SOL     OW39418   0.759   2.776   2.583  0.0834 -0.1876  0.3618
 9262SOL    HW139419   0.732   2.701   2.635 -0.0562 -0.0866  0.4356
 9262SOL    HW239420   0.681   2.829   2.600  0.4686  0.1940  0.9391
 9263SOL     OW39421   4.491   4.377   6.258 -0.3684 -0.0826 -0.0740
 9263SOL    HW139422   4.457   4.465   6.273 -0.8316  0.0666 -1.9311
 9263SOL    HW239423   4.448   4.331   6.330 -0.0427 -1.8063 -0.9682
 9264SOL     OW39424   3.503   3.468  13.345 -0.4342  0.5709  0.0498
 9264SOL    HW139425   3.556   3.390  13.359 -2.3145 -0.6420  0.3834
 9264SOL    HW239426   3.462   3.447  13.261 -0.9568  0.7490  0.2641
 9265SOL     OW39427   4.595   1.167   0.854  0.0614 -0.3592  0.5511
 9265SOL    HW139428   4.572   1.220   0.930  1.0782 -0.1667  0.7229
 9265SOL    HW239429   4.691   1.170   0.856  0.0935 -1.4856  1.4638
 9266SOL     OW39430   2.683   0.374   5.209 -0.1559  0.4681  0.0642
 9266SOL    HW139431   2.621   0.446   5.198  0.8643  1.3571  0.1091
 9266SOL    HW239432   2.685   0.340   5.120 -1.7085 -0.3683  0.3363
 9267SOL     OW39433   2.407   4.713  16.981  0.3271  0.1940  0.3035
 9267SOL    HW139434   2.493   4.696  16.943 -1.1921 -0.9279 -2.6381
 9267SOL    HW239435   2.362   0.022  16.911  0.4563  1.1733  0.8774
 9268SOL     OW39436   3.481   2.530  13.942 -0.1249 -0.2045  0.0059
 9268SOL    HW139437   3.535   2.568  14.011  2.0041 -1.5994 -0.8775
 9268SOL    HW239438   3.522   2.569  13.864 -0.3053  2.9834  1.4803
 9269SOL     OW39439   0.833   2.302   8.679  0.4000 -0.1652  0.1367
 9269SOL    HW139440   0.902   2.369   8.681 -0.0233  0.3200 -1.0661
 9269SOL    HW239441   0.871   2.215   8.690  1.8905  0.2712 -1.7395
 9270SOL     OW39442   2.360   2.620  17.269 -0.1947  0.7727 -0.1651
 9270SOL    HW139443   2.433   2.564  17.242 -1.3935 -0.1990 -1.3988
 9270SOL    HW239444   2.368   2.693  17.207  0.4006 -0.5133 -1.6204
 9271SOL     OW39445   0.565   3.622   2.828 -0.2398  0.0349  0.7838
 9271SOL    HW139446   0.534   3.694   2.773  0.2461 -0.9223 -0.7227
 9271SOL    HW239447   0.584   3.566   2.753  0.8733  0.7787  0.5170
 9272SOL     OW39448   0.898   1.634   1.616 -0.6110 -0.1005  0.4524
 9272SOL    HW139449   0.846   1.657   1.539 -0.4376  0.1660  0.4156
 9272SOL    HW239450   0.874   1.543   1.634 -0.0035 -0.1725  0.9156
 9273SOL     OW39451   3.241   0.460  10.498  0.1031 -0.0772 -0.3013
 9273SOL    HW139452   3.194   0.522  10.442  3.5049  0.5150 -2.5215
 9273SOL    HW239453   3.288   0.414  10.428 -0.5345  0.9602 -1.3972
 9274SOL     OW39454   3.429   0.467   8.813  0.0816  0.4266  0.1218
 9274SOL    HW139455   3.381   0.401   8.863  1.8513 -2.3471 -1.8386
 9274SOL    HW239456   3.439   0.536   8.879  1.7665 -0.0117  0.3307
 9275SOL     OW39457   3.111   2.781   5.269  0.3357 -0.9112  0.1329
 9275SOL    HW139458   3.032   2.835   5.265  1.7084  1.1210  0.7629
 9275SOL    HW239459   3.171   2.832   5.323  2.0342 -0.0280 -2.5753
 9276SOL     OW39460   4.581   3.487  15.041 -0.2322 -0.6247  0.0275
 9276SOL    HW139461   4.627   3.512  14.961 -0.3896 -1.8961 -0.4642
 9276SOL    HW239462   4.581   3.573  15.082 -0.2618 -0.3559 -0.5295
 9277SOL     OW39463   0.858   4.591   6.106  0.0915  0.5329  0.5060
 9277SOL    HW139464   0.923   4.525   6.083 -0.1802 -0.0574  1.4013
 9277SOL    HW239465   0.777   4.541   6.117 -1.1659  2.6899  1.0013
 9278SOL     OW39466   2.661   3.696   2.414 -0.7103 -0.2526 -0.7288
 9278SOL    HW139467   2.625   3.644   2.343  0.9075 -3.1672  0.5731
 9278SOL    HW239468   2.711   3.755   2.358  1.8756 -0.5221  1.3230
 9279SOL     OW39469   2.414   0.369   7.449  0.4620 -0.3141 -0.3712
 9279SOL    HW139470   2.455   0.455   7.436 -1.0029  0.3700 -0.5012
 9279SOL    HW239471   2.446   0.323   7.372 -0.8059  1.6273 -2.0395
 9280SOL     OW39472   1.294   3.610   2.441  0.0717 -0.0285  1.0299
 9280SOL    HW139473   1.380   3.653   2.446  0.6324 -1.3367  2.4286
 9280SOL    HW239474   1.243   3.641   2.515 -1.2724  1.3448 -0.4517
 9281SOL     OW39475   3.240   2.975   3.093 -0.2129  0.2159  0.1563
 9281SOL    HW139476   3.253   2.882   3.113 -2.9107  0.3405  2.3974
 9281SOL    HW239477   3.321   3.006   3.134 -1.4837  2.4232  1.0024
 9282SOL     OW39478   2.304   3.379   6.525  0.0400 -0.0157  0.5004
 9282SOL    HW139479   2.333   3.291   6.499  0.2522  0.0118  0.6451
 9282SOL    HW239480   2.244   3.366   6.599  1.3284 -1.4385  1.2989
 9283SOL     OW39481   0.426   1.602   6.042  0.6506  0.1723 -0.0054
 9283SOL    HW139482   0.356   1.554   5.998 -0.3668  1.3476  0.3072
 9283SOL    HW239483   0.452   1.530   6.100 -0.2339  0.0324  0.2126
 9284SOL     OW39484   3.895   0.295   2.004 -0.5431  0.4141  0.1104
 9284SOL    HW139485   3.974   0.332   2.044 -0.9159  1.8715 -0.4931
 9284SOL    HW239486   3.912   0.201   2.011  0.8919  0.6641  0.0350
 9285SOL     OW39487   2.456   1.270   5.942  0.2844 -0.6608 -0.3629
 9285SOL    HW139488   2.504   1.248   5.862  0.2904 -0.5481 -0.3892
 9285SOL    HW239489   2.495   1.354   5.963 -0.7663 -0.5051  0.9973
 9286SOL     OW39490   4.711   0.795   3.763  0.2029  0.0745  0.1313
 9286SOL    HW139491   4.622   0.803   3.732 -0.1946 -1.2921  0.9079
 9286SOL    HW239492   0.012   0.877   3.733 -1.5999  0.3239 -1.5048
 9287SOL     OW39493   1.761   3.781   2.014  0.1492 -0.5486 -0.6287
 9287SOL    HW139494   1.665   3.781   2.014  0.1504 -0.1131 -0.5992
 9287SOL    HW239495   1.768   3.740   1.928 -3.2691  0.9339 -1.6125
 9288SOL     OW39496   4.551   4.521  10.864  0.1786 -0.4519 -0.4135
 9288SOL    HW139497   4.638   4.500  10.898  0.2247 -0.1175 -0.3331
 9288SOL    HW239498   4.559   4.602  10.814 -1.3974 -1.2107 -1.8876
 9289SOL     OW39499   3.842   1.215   3.538  0.1105  0.1198  0.1064
 9289SOL    HW139500   3.800   1.263   3.610  0.5105  0.8294 -0.1318
 9289SOL    HW239501   3.865   1.290   3.483  1.5331 -0.9097 -0.6842
 9290SOL     OW39502   3.446   3.734   6.896  0.2198  0.1902 -0.1847
 9290SOL    HW139503   3.375   3.745   6.833 -0.8825  0.1494  1.0622
 9290SOL    HW239504   3.491   3.819   6.892  0.0204  0.2655 -0.9008
 9291SOL     OW39505   3.072   0.958   1.745 -0.0650  0.2473  0.2734
 9291SOL    HW139506   3.141   0.992   1.802  1.4227 -1.3242 -0.5855
 9291SOL    HW239507   2.998   0.954   1.805 -0.8394  1.9938 -0.5715
 9292SOL     OW39508   2.113   1.219   7.138 -0.3722  0.0675 -0.4707
 9292SOL    HW139509   2.089   1.311   7.148  1.3526  0.1642  2.8949
 9292SOL    HW239510   2.206   1.219   7.118 -0.0909  0.2853  0.8355
 9293SOL     OW39511   3.260   0.037   8.246  0.3200 -0.1130 -0.1919
 9293SOL    HW139512   3.350   0.047   8.217  0.9005  3.0470  2.7137
 9293SOL    HW239513   3.204   0.092   8.191 -0.9552 -0.2403  0.9662
 9294SOL     OW39514   1.370   3.476   4.174 -0.0084  0.1634 -0.1274
 9294SOL    HW139515   1.461   3.447   4.183 -0.4129 -1.4190 -0.9621
 9294SOL    HW239516   1.337   3.401   4.123 -1.0564 -0.0090  0.7957
 9295SOL     OW39517   2.376   3.379   4.582  0.9649  0.2473  0.4783
 9295SOL    HW139518   2.433   3.449   4.614  1.6298  0.0752 -0.3375
 9295SOL    HW239519   2.311   3.431   4.535 -0.2833  0.0992  2.0719
 9296SOL     OW39520   3.057   3.529   6.749 -0.4610 -0.2652 -0.3751
 9296SOL    HW139521   2.980   3.500   6.799  0.3395 -1.8763 -0.0958
 9296SOL    HW239522   3.022   3.540   6.660 -2.0377 -2.0858  0.0316
 9297SOL     OW39523   0.266   4.679   8.458 -0.3376 -0.1392  0.3778
 9297SOL    HW139524   0.194   4.716   8.407 -0.4464 -0.1965  0.4885
 9297SOL    HW239525   0.319   0.021   8.464 -2.4005  1.3547 -1.2662
 9298SOL     OW39526   3.653   2.856   8.221 -0.1646 -0.0807 -0.2205
 9298SOL    HW139527   3.677   2.943   8.191 -0.9670  0.9659  2.1829
 9298SOL    HW239528   3.723   2.837   8.284  0.3256 -0.5502 -0.9124
 9299SOL     OW39529   1.801   2.573   9.714  0.2475 -0.2012  0.7605
 9299SOL    HW139530   1.787   2.495   9.661  1.2199  0.2527 -0.1551
 9299SOL    HW239531   1.740   2.556   9.786 -0.7006  0.3313  0.0735
 9300SOL     OW39532   4.572   1.196   5.379  0.3311  0.4025 -0.1401
 9300SOL    HW139533   4.665   1.175   5.372 -0.1491 -1.9763  0.7757
 9300SOL    HW239534   4.542   1.126   5.321 -2.1751  0.3782  1.1852
 9301SOL     OW39535   0.976   4.303  11.971 -0.1150 -0.2977 -0.1236
 9301SOL    HW139536   0.991   4.315  11.878 -0.7856 -0.6618 -0.2810
 9301SOL    HW239537   1.007   4.380  12.018  0.3268  0.5337 -1.7922
 9302SOL     OW39538   3.611   4.085   7.936 -0.0300 -0.1498 -0.3073
 9302SOL    HW139539   3.663   4.101   8.014 -0.8648 -2.3370  0.7018
 9302SOL    HW239540   3.563   4.167   7.933  0.4384  0.1469  0.4589
 9303SOL     OW39541   0.266   4.420   6.892  0.2533  0.3119  0.4189
 9303SOL    HW139542   0.315   4.397   6.813  0.5909 -0.3251  0.8080
 9303SOL    HW239543   0.183   4.390   6.856  0.2765  0.9577 -0.1635
 9304SOL     OW39544   0.178   4.267   4.180  0.5672  0.4493  0.1718
 9304SOL    HW139545   0.100   4.307   4.140 -0.6509 -3.1794 -1.1117
 9304SOL    HW239546   0.166   4.174   4.160 -1.2764  0.8522 -0.6095
 9305SOL     OW39547   3.208   2.848   5.019  0.3395 -0.4545  0.0366
 9305SOL    HW139548   3.178   2.828   5.107 -1.1942  0.9401 -0.1797
 9305SOL    HW239549   3.161   2.780   4.971 -0.5769  0.7566 -0.7702
 9306SOL     OW39550   4.183   0.509   7.403 -0.1916 -0.3322 -0.0299
 9306SOL    HW139551   4.119   0.565   7.360  0.0412  0.1430  0.2418
 9306SOL    HW239552   4.192   0.561   7.482 -0.1512  0.3691 -0.4982
 9307SOL     OW39553   3.740   1.903   9.634  0.6028  0.2634  0.4468
 9307SOL    HW139554   3.833   1.890   9.651  0.9214  0.0985 -1.4207
 9307SOL    HW239555   3.702   1.841   9.697  1.5937  0.3429  1.1184
 9308SOL     OW39556   2.808   0.825   6.717  0.0242 -0.7091 -0.8146
 9308SOL    HW139557   2.879   0.845   6.777 -1.0554 -0.5283  0.4096
 9308SOL    HW239558   2.792   0.732   6.731 -2.6698 -0.3812 -1.6433
 9309SOL     OW39559   1.663   2.913   2.479 -0.2766  0.4148  0.4016
 9309SOL    HW139560   1.573   2.945   2.473 -0.2126  0.9336  2.1182
 9309SOL    HW239561   1.646   2.828   2.437 -1.3564 -0.5857  2.8122
 9310SOL     OW39562   3.609   3.550   6.739  0.0678  0.8047  0.0455
 9310SOL    HW139563   3.539   3.492   6.708  0.4487  1.1863 -1.5428
 9310SOL    HW239564   3.568   3.598   6.811 -1.1145 -0.7098  0.3714
 9311SOL     OW39565   3.194   1.177   3.552 -0.4962 -0.0310  0.4787
 9311SOL    HW139566   3.200   1.262   3.596 -0.5810 -0.5242  1.4330
 9311SOL    HW239567   3.214   1.212   3.465 -2.7256  1.5361  0.5723
 9312SOL     OW39568   1.366   0.305   6.449 -0.2117 -0.1050  0.4752
 9312SOL    HW139569   1.401   0.216   6.441 -0.3316 -0.2603  1.6517
 9312SOL    HW239570   1.414   0.332   6.527  0.0292 -0.8713  0.5946
 9313SOL     OW39571   4.367   4.492   5.075  0.1887  0.3893 -0.0146
 9313SOL    HW139572   4.344   4.583   5.056 -0.3488  0.3821  0.5910
 9313SOL    HW239573   4.458   4.498   5.103 -0.1909  0.7319  1.1712
 9314SOL     OW39574   0.763   0.485   5.432 -0.1589 -0.0107  0.2676
 9314SOL    HW139575   0.794   0.458   5.518 -0.2282 -2.6339 -0.5412
 9314SOL    HW239576   0.783   0.409   5.378  0.9957  0.4902 -0.0058
 9315SOL     OW39577   3.144   1.717  11.086  0.0727 -0.0770 -0.4050
 9315SOL    HW139578   3.085   1.786  11.055 -2.2823 -1.8128  0.2289
 9315SOL    HW239579   3.208   1.704  11.015  0.6745  1.9192 -0.2126
 9316SOL     OW39580   4.533   3.408  15.427  0.4753 -0.2739 -0.2656
 9316SOL    HW139581   4.614   3.368  15.459  0.8727 -0.0956 -1.0545
 9316SOL    HW239582   4.462   3.361  15.470 -1.1138  3.6360  1.3620
 9317SOL     OW39583   3.358   3.308   7.922  0.1680  0.1943 -0.2822
 9317SOL    HW139584   3.332   3.311   7.830 -2.0041  0.9174  0.3754
 9317SOL    HW239585   3.376   3.400   7.938 -0.2690 -0.0126  1.3511
 9318SOL     OW39586   2.695   3.254   9.496  0.5547 -0.2387 -0.4017
 9318SOL    HW139587   2.721   3.258   9.588 -0.9536  0.2536  0.0078
 9318SOL    HW239588   2.604   3.223   9.501  0.9352 -1.1364  0.8284
 9319SOL     OW39589   3.004   3.728   1.380  0.6109 -0.4634 -0.1581
 9319SOL    HW139590   2.966   3.816   1.381 -0.9036 -1.0980 -3.2970
 9319SOL    HW239591   2.947   3.671   1.328  0.3787  1.5992 -2.1422
 9320SOL     OW39592   1.110   3.497   7.071  0.6340 -0.0689 -0.2014
 9320SOL    HW139593   1.054   3.491   7.148  0.1700 -0.3759 -0.5580
 9320SOL    HW239594   1.079   3.431   7.009 -0.9756 -0.3667  0.9279
 9321SOL     OW39595   0.881   0.850   2.295  0.2480  0.0728  0.2378
 9321SOL    HW139596   0.787   0.834   2.284  0.7576 -1.0359 -2.4176
 9321SOL    HW239597   0.916   0.791   2.229 -0.0906 -0.6846  0.7357
 9322SOL     OW39598   2.052   1.191   9.039 -0.8206  0.2146 -0.1075
 9322SOL    HW139599   2.147   1.186   9.054 -0.5542 -0.9558 -2.0768
 9322SOL    HW239600   2.051   1.211   8.945  1.3483 -0.2825 -0.2537
 9323SOL     OW39601   3.583   2.324   5.680 -0.4246  0.3089  0.0806
 9323SOL    HW139602   3.590   2.342   5.587  2.1390 -0.6378  0.1034
 9323SOL    HW239603   3.578   2.228   5.679  1.7457  0.2143 -0.7903
 9324SOL     OW39604   1.154   0.766   4.791  0.0829 -0.0456  0.1441
 9324SOL    HW139605   1.123   0.856   4.781 -0.7125 -0.2643  0.6284
 9324SOL    HW239606   1.103   0.742   4.868 -1.8568  1.7676 -0.5780
 9325SOL     OW39607   1.988   0.891   6.754 -0.4022  0.1548 -0.6022
 9325SOL    HW139608   1.972   0.985   6.746 -0.7708  0.2064  0.7396
 9325SOL    HW239609   2.037   0.881   6.673  1.4708  0.9152  0.4184
 9326SOL     OW39610   1.826   1.531  12.281 -0.1553  0.1987 -0.2525
 9326SOL    HW139611   1.785   1.572  12.357  0.7574  1.0072 -0.1989
 9326SOL    HW239612   1.914   1.569  12.278  0.9870 -2.0868  4.0097
 9327SOL     OW39613   0.319   3.813   1.444  0.1229  0.0824  0.3308
 9327SOL    HW139614   0.224   3.800   1.442  0.0132  0.8528  0.4394
 9327SOL    HW239615   0.344   3.735   1.492 -1.0110  0.0519  0.8706
 9328SOL     OW39616   0.289   4.118  13.383 -0.2425 -0.1704 -0.2602
 9328SOL    HW139617   0.274   4.048  13.319  0.1365  0.2989 -0.8606
 9328SOL    HW239618   0.351   4.081  13.446  2.0661  0.9075 -1.8719
 9329SOL     OW39619   1.843   2.630   8.206 -0.2574  0.6655 -0.6219
 9329SOL    HW139620   1.765   2.674   8.172 -0.6824  1.6647  1.5772
 9329SOL    HW239621   1.819   2.630   8.299  0.1932  0.7675 -0.5041
 9330SOL     OW39622   2.570   4.632   3.265 -0.0270 -0.3373 -0.3124
 9330SOL    HW139623   2.521   4.599   3.190 -1.7935 -2.4601  1.7716
 9330SOL    HW239624   2.632   4.699   3.237 -0.3819 -0.4300 -1.3152
 9331SOL     OW39625   3.281   4.299  14.059  0.4781  0.2944  0.4214
 9331SOL    HW139626   3.196   4.342  14.047 -0.6885 -1.8997  0.7097
 9331SOL    HW239627   3.257   4.216  14.101 -1.7346  1.2509  1.0655
 9332SOL     OW39628   2.614   2.225   4.131  0.1175  0.1506 -0.1179
 9332SOL    HW139629   2.672   2.155   4.161 -0.1844 -1.1747 -2.6110
 9332SOL    HW239630   2.659   2.246   4.049  1.3002  1.4453  0.8508
 9333SOL     OW39631   0.491   4.664  11.821 -0.1792 -0.1036  0.0049
 9333SOL    HW139632   0.525   4.658  11.911  0.8702  0.4694 -0.3591
 9333SOL    HW239633   0.567   4.664  11.764 -0.1239  2.4402  0.0774
 9334SOL     OW39634   2.482   1.902  11.171 -0.3839  0.5776  0.5971
 9334SOL    HW139635   2.537   1.873  11.098 -1.6635  2.7660 -1.2619
 9334SOL    HW239636   2.442   1.820  11.197 -2.0558  0.9073 -0.9385
 9335SOL     OW39637   0.567   4.179   2.784  0.4388 -0.6657 -0.5507
 9335SOL    HW139638   0.620   4.259   2.786 -3.2341  1.7727  0.0739
 9335SOL    HW239639   0.482   4.218   2.807  0.7012 -0.3268 -0.1548
 9336SOL     OW39640   3.431   3.457   0.590 -0.1062 -0.0650 -0.1224
 9336SOL    HW139641   3.526   3.462   0.598 -0.2570  0.3650  1.4638
 9336SOL    HW239642   3.402   3.466   0.681  2.9619  1.4543  0.6915
 9337SOL     OW39643   3.734   2.755   0.312  0.0820 -0.1863  0.2692
 9337SOL    HW139644   3.683   2.683   0.275  0.5338 -0.6929  0.6163
 9337SOL    HW239645   3.689   2.832   0.278 -0.5173 -0.3087  0.7867
 9338SOL     OW39646   2.415   0.736  16.224 -0.1928 -0.0309  0.0233
 9338SOL    HW139647   2.421   0.721  16.129  0.0551 -1.8907  0.3245
 9338SOL    HW239648   2.462   0.819  16.232 -0.5104  0.1323  0.1882
 9339SOL     OW39649   1.265   4.719   1.409 -0.3246  0.7397 -0.8568
 9339SOL    HW139650   1.249   4.627   1.391 -1.9558  0.5712  1.5439
 9339SOL    HW239651   1.361   4.720   1.400 -0.4108 -2.0494 -1.9124
 9340SOL     OW39652   0.432   2.960   3.415 -0.1512  0.2799  0.0114
 9340SOL    HW139653   0.346   3.002   3.410  0.7409  2.0491 -0.5620
 9340SOL    HW239654   0.468   2.987   3.331 -1.0022  1.1621 -0.0701
 9341SOL     OW39655   0.118   4.017   7.861  0.2867 -0.4020 -0.2165
 9341SOL    HW139656   0.171   4.091   7.889  2.2221 -1.2049 -1.7835
 9341SOL    HW239657   0.064   3.996   7.938  0.6368 -0.0392  0.1256
 9342SOL     OW39658   1.283   0.015  17.647 -0.8566 -0.4660  0.1638
 9342SOL    HW139659   1.248   0.001  17.559 -3.0452 -1.8415  1.2604
 9342SOL    HW239660   1.374   0.017  17.616 -0.9254 -1.8390 -0.0931
 9343SOL     OW39661   0.605   1.847   4.185 -0.5419  0.4518  0.2513
 9343SOL    HW139662   0.621   1.909   4.255 -0.7598  1.5532 -0.6749
 9343SOL    HW239663   0.560   1.908   4.127  0.3483  0.6728 -0.2124
 9344SOL     OW39664   3.845   2.260   5.194  0.4010  0.6343 -0.1879
 9344SOL    HW139665   3.800   2.177   5.178  0.8336  0.2826  0.4224
 9344SOL    HW239666   3.887   2.278   5.110 -0.5617 -0.6651 -0.9589
 9345SOL     OW39667   0.220   1.605  10.039 -0.0289  0.4083 -0.5711
 9345SOL    HW139668   0.128   1.586  10.020 -0.6678  0.3736  2.5745
 9345SOL    HW239669   0.255   1.601   9.950 -0.0810  0.0006 -0.5748
 9346SOL     OW39670   4.371   3.467   4.960 -0.2265 -0.8152 -0.0496
 9346SOL    HW139671   4.302   3.532   4.954  0.9526  0.4431  0.0115
 9346SOL    HW239672   4.335   3.408   5.027  1.0440 -1.2602  0.2477
 9347SOL     OW39673   2.300   2.523  17.544  0.3364  0.3661 -0.0893
 9347SOL    HW139674   2.266   2.437  17.516  2.3911 -0.4125 -0.1459
 9347SOL    HW239675   2.313   2.557  17.455 -0.4122 -1.2601 -0.8261
 9348SOL     OW39676   0.408   2.319   4.565 -0.5971  0.4182 -0.2639
 9348SOL    HW139677   0.363   2.369   4.633 -3.7938 -0.8775 -1.4259
 9348SOL    HW239678   0.385   2.230   4.592  0.8875 -0.3882 -1.6723
 9349SOL     OW39679   3.528   2.920   6.028 -0.2375 -0.2753  0.4325
 9349SOL    HW139680   3.595   2.867   5.984 -1.1308 -1.4542  0.4813
 9349SOL    HW239681   3.470   2.929   5.952 -0.3988 -0.9921  0.4744
 9350SOL     OW39682   3.036   4.196   6.304  0.1158 -0.4221 -0.9807
 9350SOL    HW139683   3.057   4.288   6.318  0.1055 -0.6087  0.2887
 9350SOL    HW239684   2.949   4.179   6.338 -0.8526  1.5339 -2.4906
 9351SOL     OW39685   1.833   4.381   9.525  0.3443 -0.1060  0.0579
 9351SOL    HW139686   1.790   4.464   9.545 -1.5926 -1.1297  0.2044
 9351SOL    HW239687   1.773   4.348   9.458 -0.2841  0.9771  0.0829
 9352SOL     OW39688   0.447   4.424  15.939  0.4384  0.1801 -0.1996
 9352SOL    HW139689   0.482   4.508  15.967 -0.2356  0.3357  0.1729
 9352SOL    HW239690   0.356   4.437  15.911  0.7629  0.0983 -1.2983
 9353SOL     OW39691   4.524   2.166   6.231 -0.1597  0.5476  0.9656
 9353SOL    HW139692   4.527   2.196   6.140  0.2689  1.0787  1.1538
 9353SOL    HW239693   4.610   2.125   6.238 -0.3095 -0.1501 -1.3834
 9354SOL     OW39694   1.657   2.143   2.380 -0.8348 -0.2728 -0.4483
 9354SOL    HW139695   1.562   2.147   2.367 -0.7580 -1.1416 -1.2272
 9354SOL    HW239696   1.667   2.048   2.385 -0.2007 -0.2749 -1.7209
 9355SOL     OW39697   1.161   2.206   7.226  0.0099 -0.9170 -0.9018
 9355SOL    HW139698   1.232   2.179   7.168  1.0145  1.4047 -0.7168
 9355SOL    HW239699   1.210   2.277   7.268 -1.3686 -1.2210  1.2570
 9356SOL     OW39700   2.269   0.215   0.241  0.1304  0.2057  0.4866
 9356SOL    HW139701   2.248   0.121   0.235  3.0693 -0.4995  1.3615
 9356SOL    HW239702   2.196   0.262   0.202 -0.9652 -1.0166  1.0421
 9357SOL     OW39703   4.469   1.752   8.359 -0.2526 -0.4618 -0.1176
 9357SOL    HW139704   4.485   1.716   8.272  0.1069  0.4247 -0.4138
 9357SOL    HW239705   4.493   1.682   8.420  0.1509 -1.8281 -1.8457
 9358SOL     OW39706   3.416   3.357  13.102 -0.4316  0.3852 -0.3615
 9358SOL    HW139707   3.338   3.327  13.055  0.4304  1.0824 -2.2547
 9358SOL    HW239708   3.478   3.286  13.091 -0.5234  0.6549 -2.7046
 9359SOL     OW39709   1.929   3.167   3.149 -0.3021 -0.0385 -0.0860
 9359SOL    HW139710   1.846   3.209   3.127 -0.9679 -1.3452 -0.0667
 9359SOL    HW239711   1.907   3.124   3.231  0.0122 -1.6429 -0.8503
 9360SOL     OW39712   0.142   3.554  15.610  0.0355  0.4120 -0.0873
 9360SOL    HW139713   0.103   3.599  15.685  0.7191 -3.3600  2.5547
 9360SOL    HW239714   0.077   3.485  15.593  0.1622  0.5919 -1.3050
 9361SOL     OW39715   4.322   4.691   6.638 -0.2314  0.1778 -0.5861
 9361SOL    HW139716   4.249   4.630   6.631  1.8731 -2.7240  3.1942
 9361SOL    HW239717   4.356   4.674   6.726 -2.5671 -1.1253  0.0597
 9362SOL     OW39718   3.938   0.060  12.284 -0.6578  0.0400  0.3190
 9362SOL    HW139719   3.956   0.086  12.194 -1.9976  1.9507  0.6234
 9362SOL    HW239720   3.948   0.145  12.326  0.8125  0.3947 -0.7484
 9363SOL     OW39721   3.229   1.482   8.564  0.3873 -0.1876  0.5383
 9363SOL    HW139722   3.186   1.417   8.619 -0.6967  0.1952  0.1533
 9363SOL    HW239723   3.318   1.466   8.594  0.5459 -1.5352 -0.6561
 9364SOL     OW39724   2.605   2.380   6.151 -0.1487  1.3321  0.6044
 9364SOL    HW139725   2.541   2.330   6.100  1.4636  1.9024 -2.0168
 9364SOL    HW239726   2.635   2.443   6.085  1.0996  0.3970  0.2603
 9365SOL     OW39727   3.462   4.487   5.131  0.3395 -0.4134 -0.7177
 9365SOL    HW139728   3.517   4.411   5.150 -0.2006 -0.2881  1.3767
 9365SOL    HW239729   3.390   4.480   5.193  0.6568 -1.6324 -0.4882
 9366SOL     OW39730   0.816   2.449   9.545 -0.5441  0.0295  0.8690
 9366SOL    HW139731   0.743   2.387   9.537  0.0360 -0.6863  1.1520
 9366SOL    HW239732   0.793   2.522   9.603  3.4504  0.7359  1.5167
 9367SOL     OW39733   1.542   0.841  13.285  0.7144 -0.1401  0.2223
 9367SOL    HW139734   1.522   0.765  13.340  0.2829 -0.2923 -0.1462
 9367SOL    HW239735   1.479   0.905  13.317  0.2086  0.5835 -2.2276
 9368SOL     OW39736   0.579   4.416   1.634 -0.6871 -0.3797 -0.1113
 9368SOL    HW139737   0.563   4.367   1.715 -0.6405  1.3044  0.9260
 9368SOL    HW239738   0.522   4.493   1.640 -2.0283 -1.2719 -1.5531
 9369SOL     OW39739   3.805   4.702   0.610 -0.8225  0.4678  0.0798
 9369SOL    HW139740   3.816   4.648   0.687  1.3017  0.6642 -0.0812
 9369SOL    HW239741   3.760   4.640   0.552 -0.6620  0.6215 -0.2123
 9370SOL     OW39742   0.778   1.397  10.238 -0.3061 -0.0612  1.1609
 9370SOL    HW139743   0.740   1.482  10.214  1.7174  0.4062 -0.3909
 9370SOL    HW239744   0.867   1.430  10.246  0.3791 -1.9364  1.0576
 9371SOL     OW39745   0.754   4.583  15.431 -0.2113 -0.5047  0.0926
 9371SOL    HW139746   0.750   4.500  15.384 -0.8131 -2.2742  3.2603
 9371SOL    HW239747   0.733   4.563  15.522 -1.3887 -0.0092 -0.0664
 9372SOL     OW39748   2.876   2.169   5.595  1.1792  0.8778  0.1284
 9372SOL    HW139749   2.811   2.155   5.665  0.7793  0.4115 -0.3386
 9372SOL    HW239750   2.897   2.261   5.612  3.3762  0.2685  0.7291
 9373SOL     OW39751   4.144   3.145   8.476  0.1299  0.1518  0.0143
 9373SOL    HW139752   4.178   3.190   8.552  0.1181 -1.4132  0.9476
 9373SOL    HW239753   4.175   3.058   8.501 -0.0871 -0.2353 -1.0367
 9374SOL     OW39754   2.427   4.434   9.569  0.0417  0.2949 -0.2217
 9374SOL    HW139755   2.371   4.401   9.498 -1.1610  1.0865  0.3726
 9374SOL    HW239756   2.417   4.529   9.568 -0.7409  0.2059 -3.5741
 9375SOL     OW39757   3.195   0.453   6.522  0.5373 -0.9698 -0.3139
 9375SOL    HW139758   3.158   0.500   6.597 -1.2028 -1.3053 -0.9687
 9375SOL    HW239759   3.135   0.485   6.454  0.0703 -1.7809 -0.2747
 9376SOL     OW39760   3.252   3.569   5.061 -0.8795 -0.3188 -0.0860
 9376SOL    HW139761   3.221   3.530   4.980 -1.5396 -1.4425  0.6970
 9376SOL    HW239762   3.334   3.604   5.028 -1.6609  2.4781  0.9113
 9377SOL     OW39763   4.680   1.488  14.771  0.3287  0.3300 -0.2953
 9377SOL    HW139764   4.706   1.451  14.687  2.0390 -0.5354  0.6233
 9377SOL    HW239765   0.023   1.531  14.797 -0.4040  2.3763 -1.3861
 9378SOL     OW39766   0.459   4.714   8.918 -0.1587 -0.0645 -0.0255
 9378SOL    HW139767   0.472   4.645   8.853 -0.1828  0.7222 -0.8716
 9378SOL    HW239768   0.525   4.706   8.986  0.1304  1.8293 -0.0729
 9379SOL     OW39769   4.588   2.280   7.845 -0.4952  0.0555 -0.2016
 9379SOL    HW139770   4.501   2.318   7.834 -0.1915  0.5128 -1.0076
 9379SOL    HW239771   4.639   2.354   7.812  1.4659 -0.3320  1.9522
 9380SOL     OW39772   0.632   1.759   0.030 -0.6963  0.2255 -0.3394
 9380SOL    HW139773   0.710   1.812   0.016 -0.1728 -0.8532 -1.5792
 9380SOL    HW239774   0.599   1.800   0.110 -0.3626 -0.3050  0.0688
 9381SOL     OW39775   2.040   4.627   3.436  0.3649 -0.2392  0.4126
 9381SOL    HW139776   2.045   4.554   3.374  2.7287  0.1408  0.1439
 9381SOL    HW239777   2.129   4.660   3.427  0.4642 -0.6024  0.0273
 9382SOL     OW39778   0.779   3.875   5.071 -0.2792 -0.3935 -0.6376
 9382SOL    HW139779   0.703   3.817   5.070 -0.5896 -0.0447  1.9709
 9382SOL    HW239780   0.834   3.825   5.011 -0.1712 -0.2477 -0.6621
 9383SOL     OW39781   4.615   1.412  16.475 -0.2735  1.1602 -0.0245
 9383SOL    HW139782   4.671   1.458  16.412 -1.0987 -0.4256 -1.9023
 9383SOL    HW239783   4.588   1.489  16.524 -1.7923 -1.4915  3.2819
 9384SOL     OW39784   0.210   2.538  16.915 -0.2240  0.3180 -0.0418
 9384SOL    HW139785   0.167   2.537  16.829  1.0408  1.1918 -0.6696
 9384SOL    HW239786   0.183   2.453  16.951 -1.4239  0.4816 -0.5513
 9385SOL     OW39787   1.240   4.460   6.226  0.2636 -0.7649  0.7242
 9385SOL    HW139788   1.328   4.450   6.191  0.9698  0.8246  2.0271
 9385SOL    HW239789   1.258   4.511   6.305  0.6625  0.7284 -0.3372
 9386SOL     OW39790   1.583   2.075   4.679 -0.0105 -0.3265  0.8865
 9386SOL    HW139791   1.568   1.992   4.723 -1.3229 -0.9629 -0.7689
 9386SOL    HW239792   1.669   2.057   4.643 -0.1852  0.5156  0.0417
 9387SOL     OW39793   4.714   2.939   8.685  0.6631  0.4864 -0.2610
 9387SOL    HW139794   0.026   3.006   8.732  0.9113 -0.2889  0.5782
 9387SOL    HW239795   0.034   2.863   8.692  0.5449  0.8971  4.9971
 9388SOL     OW39796   2.278   1.306   8.006 -0.4773 -0.6498  0.0066
 9388SOL    HW139797   2.234   1.276   7.927  0.2056  1.4688 -1.1620
 9388SOL    HW239798   2.317   1.388   7.976  0.2101 -1.3312 -0.9796
 9389SOL     OW39799   4.227   1.069   3.727 -0.2007  0.0115 -0.2998
 9389SOL    HW139800   4.224   1.157   3.689 -1.9645 -1.3319 -3.2844
 9389SOL    HW239801   4.162   1.021   3.676 -0.6108  1.1949 -0.8881
 9390SOL     OW39802   4.655   4.261   3.510 -0.4858 -0.6311 -0.1678
 9390SOL    HW139803   4.636   4.309   3.430  0.0732 -0.6990 -0.3395
 9390SOL    HW239804   4.729   4.204   3.489 -0.0588 -0.0784 -0.1521
 9391SOL     OW39805   4.669   4.692  14.463 -0.8174  0.4257  0.2161
 9391SOL    HW139806   4.613   4.716  14.538  0.1892 -1.8030  1.6532
 9391SOL    HW239807   4.610   4.702  14.388  0.5418  0.9315 -0.7930
 9392SOL     OW39808   0.088   4.061   3.038 -0.0941  0.0111  0.3410
 9392SOL    HW139809   0.084   4.156   3.048 -0.2015  0.1585 -1.1399
 9392SOL    HW239810   0.157   4.055   2.973 -0.0860  1.8308  0.1667
 9393SOL     OW39811   4.401   2.987   8.442  0.1405  0.1981  0.5854
 9393SOL    HW139812   4.359   2.971   8.357  0.0488  1.2402  0.4323
 9393SOL    HW239813   4.413   3.082   8.452  0.1215  0.1861  0.7182
 9394SOL     OW39814   0.518   0.677   0.494  0.5260  0.3663  0.5961
 9394SOL    HW139815   0.548   0.587   0.482  1.8365  0.7142  1.2400
 9394SOL    HW239816   0.423   0.672   0.482  0.2764  0.3157  2.5695
 9395SOL     OW39817   4.025   2.669   5.456 -0.7031  0.8624  0.2105
 9395SOL    HW139818   4.101   2.625   5.419 -0.4236 -0.6812  2.6127
 9395SOL    HW239819   3.955   2.603   5.451 -0.9002  1.0165  0.8263
 9396SOL     OW39820   4.305   3.660   8.603  0.0607  0.6673  0.3457
 9396SOL    HW139821   4.377   3.716   8.575  1.6988 -0.7969  1.6099
 9396SOL    HW239822   4.287   3.611   8.523  0.6543 -0.3317  0.8271
 9397SOL     OW39823   1.146   0.710   4.096 -0.4325  0.1341  0.0438
 9397SOL    HW139824   1.152   0.634   4.038  0.6171 -0.1221  0.4906
 9397SOL    HW239825   1.232   0.706   4.138 -0.7748 -1.6110  0.5696
 9398SOL     OW39826   3.959   3.106   9.378 -0.6238 -0.2249 -0.5069
 9398SOL    HW139827   3.966   3.148   9.463  1.1057  2.3351 -1.9091
 9398SOL    HW239828   4.023   3.157   9.328 -1.0820  0.6488 -0.2007
 9399SOL     OW39829   0.211   2.479   4.710  0.0065 -0.1612 -0.0457
 9399SOL    HW139830   0.203   2.570   4.740 -0.4710  0.4832 -2.1157
 9399SOL    HW239831   0.148   2.481   4.638 -0.0466 -0.2057 -0.0004
 9400SOL     OW39832   0.031   1.547  16.774 -0.3143 -0.5449 -0.8186
 9400SOL    HW139833   4.694   1.576  16.721 -0.6818 -1.6036 -0.8783
 9400SOL    HW239834   4.725   1.481  16.829  0.6777  0.5350  1.2886
 9401SOL     OW39835   1.684   3.779   5.053  0.3448  0.1778 -0.1441
 9401SOL    HW139836   1.776   3.806   5.044 -0.4933  3.5135  1.3954
 9401SOL    HW239837   1.694   3.748   5.143  0.9195 -0.5705 -0.4611
 9402SOL     OW39838   2.006   2.554  11.921 -0.1931 -0.2204 -0.3056
 9402SOL    HW139839   2.033   2.646  11.922  0.0637 -0.2948 -0.1688
 9402SOL    HW239840   1.948   2.554  11.846 -2.1771 -2.3837  1.2345
 9403SOL     OW39841   0.950   2.179   2.685 -0.3070  0.0005 -1.2594
 9403SOL    HW139842   0.922   2.242   2.751  0.9434 -2.0662  1.2187
 9403SOL    HW239843   0.873   2.191   2.628 -3.2620  0.1540  2.7991
 9404SOL     OW39844   0.080   2.603   2.376  0.1263  0.0597 -0.2315
 9404SOL    HW139845   0.074   2.525   2.431  0.8004 -0.2957 -0.6730
 9404SOL    HW239846   0.101   2.555   2.295 -2.0373 -1.5957  0.1742
 9405SOL     OW39847   2.251   3.578   6.940  0.2191 -0.0742 -0.1711
 9405SOL    HW139848   2.273   3.667   6.912  1.1275 -0.7870 -1.7266
 9405SOL    HW239849   2.218   3.589   7.029  0.1086  0.0168 -0.2240
 9406SOL     OW39850   3.738   1.739   4.214 -0.1005  0.3276  0.2509
 9406SOL    HW139851   3.796   1.667   4.189  1.1431  1.7393 -0.9182
 9406SOL    HW239852   3.729   1.730   4.309  0.4440  2.7420  0.5192
 9407SOL     OW39853   2.940   4.241   0.051 -0.2888 -0.1584  0.1006
 9407SOL    HW139854   2.906   4.222   0.139 -0.9099  2.0111  0.3449
 9407SOL    HW239855   2.887   4.317   0.028  0.5766  0.5188  0.3506
 9408SOL     OW39856   1.920   4.252   7.731  0.1763 -0.5024 -0.0648
 9408SOL    HW139857   1.903   4.229   7.640 -0.9560 -0.0111  0.0277
 9408SOL    HW239858   1.839   4.239   7.780  0.0400  1.3070  0.2099
 9409SOL     OW39859   2.078   3.203   9.286 -0.0139  0.0787  0.2346
 9409SOL    HW139860   2.136   3.223   9.359  0.8965  0.3346 -0.5676
 9409SOL    HW239861   2.127   3.200   9.204 -1.6200 -0.1679 -0.7156
 9410SOL     OW39862   1.633   0.653  13.062 -0.5557  0.2189 -0.0360
 9410SOL    HW139863   1.680   0.684  13.140 -2.0173  1.0373  0.5245
 9410SOL    HW239864   1.634   0.727  13.002  2.3558 -0.4666 -0.8207
 9411SOL     OW39865   4.722   2.641   8.567  0.6397 -0.2487 -0.4058
 9411SOL    HW139866   4.726   2.626   8.661  0.0247 -2.1450 -0.6776
 9411SOL    HW239867   0.026   2.564   8.527  3.0274 -0.0728  1.7716
 9412SOL     OW39868   1.189   2.675   1.641 -0.1225 -0.7413  0.7390
 9412SOL    HW139869   1.232   2.590   1.633  3.2237  0.8704  2.0192
 9412SOL    HW239870   1.166   2.679   1.734 -1.5550  0.2350  0.3522
 9413SOL     OW39871   3.100   1.102   5.044  0.0461  0.0682 -0.9000
 9413SOL    HW139872   3.183   1.121   5.002 -0.5315  0.5668 -1.8255
 9413SOL    HW239873   3.064   1.045   4.976 -0.1568 -1.8713  0.8104
 9414SOL     OW39874   2.179   4.340   4.269  0.2423 -0.5459  0.6246
 9414SOL    HW139875   2.178   4.275   4.340  0.2626 -1.1467  0.0758
 9414SOL    HW239876   2.224   4.414   4.309  0.3653  0.3456 -1.1629
 9415SOL     OW39877   4.383   1.970   0.443  0.4150 -0.4620  0.4017
 9415SOL    HW139878   4.337   2.006   0.367 -0.6495 -1.8210  0.4086
 9415SOL    HW239879   4.475   1.988   0.426  0.2532  1.4295  1.4984
 9416SOL     OW39880   3.260   1.124  10.314 -0.3152  0.0253  0.0569
 9416SOL    HW139881   3.297   1.127  10.402  1.1772  0.9607 -0.5946
 9416SOL    HW239882   3.210   1.206  10.312 -0.4033 -0.0148  0.7290
 9417SOL     OW39883   0.611   1.204  13.538  0.1340  0.2162 -0.1685
 9417SOL    HW139884   0.605   1.167  13.450 -0.1985  0.2171 -0.1482
 9417SOL    HW239885   0.540   1.269  13.541  1.1652  1.2791  1.0491
 9418SOL     OW39886   4.339   1.108   2.222 -0.1854  0.1230 -0.1049
 9418SOL    HW139887   4.298   1.157   2.293 -1.1993  0.5216 -0.9522
 9418SOL    HW239888   4.261   1.089   2.170  0.0410 -1.5516  0.1684
 9419SOL     OW39889   2.062   1.397  17.464  0.3148  0.5973 -0.1886
 9419SOL    HW139890   2.082   1.486  17.436  3.4508  0.0480  0.2969
 9419SOL    HW239891   2.104   1.350  17.392  0.0744  2.1142 -1.3120
 9420SOL     OW39892   1.252   0.022   2.121 -0.1110 -0.1534 -0.8637
 9420SOL    HW139893   1.194   0.033   2.196  1.7038  3.5845 -0.0200
 9420SOL    HW239894   1.288   4.673   2.139 -2.4501 -0.6916  1.1105
 9421SOL     OW39895   4.070   2.760   3.240 -0.2171 -0.2754 -0.6009
 9421SOL    HW139896   3.981   2.767   3.205 -1.3569 -2.0200  1.9202
 9421SOL    HW239897   4.092   2.669   3.220  0.2779  0.0274 -1.4453
 9422SOL     OW39898   0.944   0.881   8.762  0.1215 -0.6192  0.2046
 9422SOL    HW139899   0.974   0.971   8.760 -2.3646  0.1987 -0.3040
 9422SOL    HW239900   0.951   0.858   8.670 -0.4502 -0.5671  0.1488
 9423SOL     OW39901   0.174   0.365  17.294  0.1869  0.0629 -0.2520
 9423SOL    HW139902   0.122   0.410  17.361  1.8136  1.3491  0.1176
 9423SOL    HW239903   0.151   0.272  17.296 -3.3547  0.9035 -0.7093
 9424SOL     OW39904   4.416   0.049   5.830 -0.0641 -0.5243 -0.4286
 9424SOL    HW139905   4.418   4.716   5.895 -0.3179 -0.2460 -0.1133
 9424SOL    HW239906   4.358   0.002   5.770  1.1775 -0.8688 -1.3530
 9425SOL     OW39907   1.018   4.722   7.806  0.3142  0.0753 -0.5514
 9425SOL    HW139908   1.048   4.640   7.846  1.8095  0.2930 -1.1955
 9425SOL    HW239909   0.977   4.684   7.729  1.4517  0.8686 -1.5531
 9426SOL     OW39910   3.190   1.686   5.127 -0.3048 -0.1637 -0.1868
 9426SOL    HW139911   3.243   1.758   5.093 -0.1826  0.0964  0.5570
 9426SOL    HW239912   3.108   1.734   5.139  0.0380  0.7636 -1.5366
 9427SOL     OW39913   2.156   4.227  15.787 -0.1451 -0.3420 -0.3175
 9427SOL    HW139914   2.104   4.197  15.713 -1.7753 -0.1976  0.7654
 9427SOL    HW239915   2.091   4.189  15.847 -0.7270  0.3619 -0.4975
 9428SOL     OW39916   1.738   2.059   6.584  0.0161 -0.1463 -0.1202
 9428SOL    HW139917   1.724   2.091   6.673 -2.1642 -0.4830 -0.3367
 9428SOL    HW239918   1.651   2.068   6.544  0.2439 -1.1860 -0.8195
 9429SOL     OW39919   2.731   3.421   1.549 -0.2803 -1.1692  0.0843
 9429SOL    HW139920   2.795   3.409   1.479 -0.3979 -0.0987 -0.2047
 9429SOL    HW239921   2.734   3.517   1.545  2.2396 -1.2814 -0.7507
 9430SOL     OW39922   3.703   4.417   7.269 -0.4659  0.3845  0.4733
 9430SOL    HW139923   3.744   4.350   7.325 -1.1137  0.8680  1.5099
 9430SOL    HW239924   3.688   4.489   7.330 -1.3879  0.3078  0.3263
 9431SOL     OW39925   2.446   4.212  13.508 -0.5624  0.1176  0.1365
 9431SOL    HW139926   2.450   4.259  13.591 -3.3590  1.8578 -0.7168
 9431SOL    HW239927   2.384   4.142  13.527 -0.7263  0.2853  0.2124
 9432SOL     OW39928   3.216   4.301   9.807 -0.0984 -0.3137  0.6654
 9432SOL    HW139929   3.216   4.314   9.902  3.9740  2.0637  0.3679
 9432SOL    HW239930   3.311   4.296   9.792 -0.0649  0.5830  0.5839
 9433SOL     OW39931   2.761   3.242   7.756  0.3193  0.1126 -0.3356
 9433SOL    HW139932   2.725   3.159   7.788 -0.5036  0.6955  0.2380
 9433SOL    HW239933   2.728   3.243   7.666 -1.6990  0.4703  0.4102
 9434SOL     OW39934   2.555   3.802   3.051  0.0259  0.4478 -0.5117
 9434SOL    HW139935   2.495   3.793   2.978  0.8959 -1.9088 -0.9180
 9434SOL    HW239936   2.626   3.745   3.021  0.7087  1.1082 -0.1724
 9435SOL     OW39937   4.214   2.053  14.700  0.0962 -0.1894  0.8727
 9435SOL    HW139938   4.195   2.130  14.754 -2.0589 -0.4155  0.4154
 9435SOL    HW239939   4.211   1.983  14.765  0.8786  0.0360  1.1537
 9436SOL     OW39940   1.464   1.223   7.199 -0.1782 -0.6230 -0.4812
 9436SOL    HW139941   1.537   1.241   7.258  0.4132 -0.9916 -1.0953
 9436SOL    HW239942   1.459   1.317   7.184  1.4395 -0.4315  0.1959
 9437SOL     OW39943   2.164   2.818   3.175  0.1043  0.0576  0.2819
 9437SOL    HW139944   2.143   2.780   3.260 -0.6371  0.5194  0.2985
 9437SOL    HW239945   2.147   2.749   3.111 -0.0307  0.8229 -0.5068
 9438SOL     OW39946   4.310   2.584   2.385  0.1355 -0.4618  0.1836
 9438SOL    HW139947   4.376   2.564   2.452  0.2340  1.7570  0.7441
 9438SOL    HW239948   4.234   2.550   2.432 -0.8992 -0.8124 -1.7535
 9439SOL     OW39949   4.726   3.992   6.149 -0.2140  0.0570 -0.3061
 9439SOL    HW139950   0.082   3.989   6.130 -0.5338 -0.4991 -1.7260
 9439SOL    HW239951   4.689   3.931   6.086 -0.2483  0.1258 -0.3533
 9440SOL     OW39952   2.328   2.852   6.699  0.4118  0.3969 -0.3665
 9440SOL    HW139953   2.271   2.792   6.748 -0.6727 -0.0879 -2.2123
 9440SOL    HW239954   2.294   2.932   6.740 -0.9059  1.4454 -3.5633
 9441SOL     OW39955   4.597   2.259   3.966  0.3488 -0.3523  0.4559
 9441SOL    HW139956   4.616   2.283   4.057 -0.7268  4.1467 -0.4757
 9441SOL    HW239957   4.576   2.167   3.980  2.4904 -0.6884  1.4058
 9442SOL     OW39958   0.654   3.088   4.071 -0.2733  0.3135 -0.3607
 9442SOL    HW139959   0.745   3.059   4.071 -0.6726 -0.9331 -0.7850
 9442SOL    HW239960   0.642   3.102   3.977  1.3843 -1.5424 -0.8469
 9443SOL     OW39961   4.496   3.575   2.705 -0.0538 -0.2513  0.2504
 9443SOL    HW139962   4.421   3.546   2.654  0.8115  0.1000 -1.2143
 9443SOL    HW239963   4.442   3.618   2.772 -3.1351 -3.5767 -0.0891
 9444SOL     OW39964   0.596   3.203   5.409 -0.3819  0.6887  0.6177
 9444SOL    HW139965   0.597   3.180   5.316 -0.7955  0.5863  0.6405
 9444SOL    HW239966   0.682   3.245   5.412 -0.0419 -0.0279  0.7911
 9445SOL     OW39967   0.959   2.644   3.805 -0.5493  0.6571  0.2617
 9445SOL    HW139968   0.938   2.610   3.718 -1.7249  0.1167  0.7638
 9445SOL    HW239969   0.871   2.647   3.843 -1.4953  2.5144 -2.1320
 9446SOL     OW39970   0.400   0.350   4.376  0.1774 -0.1992 -0.2067
 9446SOL    HW139971   0.430   0.263   4.403  1.3831  0.9034  2.0230
 9446SOL    HW239972   0.375   0.385   4.461  1.2745 -1.5080  0.6505
 9447SOL     OW39973   1.234   2.809  16.618  0.0792  0.1683  0.0182
 9447SOL    HW139974   1.294   2.810  16.692 -0.7253  4.1485  0.6136
 9447SOL    HW239975   1.167   2.748  16.648 -0.1018  0.0363 -0.6490
 9448SOL     OW39976   1.218   1.289   6.966 -0.3490  0.3154  0.5786
 9448SOL    HW139977   1.174   1.204   6.959  0.0576  0.0197  1.7453
 9448SOL    HW239978   1.271   1.276   7.044 -1.4935  0.6881  1.4264
 9449SOL     OW39979   3.911   2.358   4.074  0.0644 -0.1510  0.5069
 9449SOL    HW139980   3.864   2.383   3.994  2.2767 -0.9443 -1.0195
 9449SOL    HW239981   3.846   2.295   4.105  1.0888 -1.5468 -0.1671
 9450SOL     OW39982   1.796   3.507   3.528 -0.4553 -0.2681  0.2145
 9450SOL    HW139983   1.707   3.502   3.493 -0.4440  3.0074 -0.3033
 9450SOL    HW239984   1.848   3.503   3.447  0.2493  1.4411  0.5977
 9451SOL     OW39985   2.862   1.209   6.803  0.1883  0.4248  0.3499
 9451SOL    HW139986   2.946   1.218   6.757  0.5021  0.4984  0.9283
 9451SOL    HW239987   2.872   1.276   6.870  2.7185  1.3949 -0.9831
 9452SOL     OW39988   4.273   3.248   2.883 -0.6341  0.3228  0.5437
 9452SOL    HW139989   4.287   3.206   2.798 -3.1509  1.5666 -0.4942
 9452SOL    HW239990   4.197   3.305   2.868 -1.2334 -0.3809  0.9436
 9453SOL     OW39991   4.186   3.000   6.499  0.5720  0.2839 -0.0596
 9453SOL    HW139992   4.228   2.937   6.557 -3.0184 -1.0224  1.1356
 9453SOL    HW239993   4.102   3.011   6.544  0.5680  0.3218 -0.0765
 9454SOL     OW39994   3.536   0.548   4.536  0.4672 -0.4584 -0.2247
 9454SOL    HW139995   3.515   0.638   4.561  0.1819 -0.6277  0.1389
 9454SOL    HW239996   3.632   0.550   4.542  0.3798  0.9566  0.5500
 9455SOL     OW39997   0.846   0.204   9.083 -0.4573  0.1924 -0.0493
 9455SOL    HW139998   0.909   0.276   9.085 -0.6933  0.3707  0.8653
 9455SOL    HW239999   0.830   0.193   9.177 -3.0770  1.3853 -0.3420
 9456SOL     OW40000   4.687   0.784   2.561 -0.0518  0.2274 -0.0324
 9456SOL    HW140001   4.615   0.847   2.552 -1.0739 -0.8669  0.4166
 9456SOL    HW240002   4.726   0.818   2.641  1.0532 -2.5791  0.6240
 9457SOL     OW40003   0.431   2.037   3.998  0.1481  0.6343 -0.5044
 9457SOL    HW140004   0.379   1.993   3.930 -0.2701  0.4369 -0.0545
 9457SOL    HW240005   0.371   2.111   4.003 -0.9848 -0.4037  1.2822
 9458SOL     OW40006   0.230   3.111   0.019 -0.1134  0.1184  0.1933
 9458SOL    HW140007   0.314   3.070   0.040  0.4199  1.2887  0.3639
 9458SOL    HW240008   0.178   3.065   0.084  1.3638  1.3629  2.2677
 9459SOL     OW40009   1.249   3.468  17.475 -0.1994  0.9951  0.1237
 9459SOL    HW140010   1.336   3.505  17.489  0.6134  0.0412 -2.3707
 9459SOL    HW240011   1.195   3.512  17.540 -0.8250 -0.1259  0.3552
 9460SOL     OW40012   3.971   1.739   1.479  0.3259  0.1221 -0.4892
 9460SOL    HW140013   3.886   1.697   1.488 -0.6275  1.7702 -1.8004
 9460SOL    HW240014   3.940   1.828   1.465  1.7996  0.8071  0.5180
 9461SOL     OW40015   3.006   2.154   3.947 -0.2881  0.0289  0.0242
 9461SOL    HW140016   3.090   2.159   3.994 -0.5978  2.6858  0.2996
 9461SOL    HW240017   2.964   2.073   3.977  2.8037 -1.8908 -0.8415
 9462SOL     OW40018   3.450   3.237   2.949 -0.9590  0.3533 -0.2696
 9462SOL    HW140019   3.515   3.183   2.994 -0.4060 -2.1836 -4.0842
 9462SOL    HW240020   3.408   3.281   3.023  1.1785  1.6578  0.1648
 9463SOL     OW40021   4.699   3.925   3.830  0.0006 -0.3534  0.0018
 9463SOL    HW140022   0.005   3.865   3.891  0.0002  2.4942  2.8164
 9463SOL    HW240023   4.708   3.879   3.747  0.2834 -0.7589  0.2583
 9464SOL     OW40024   3.973   1.726   0.572  0.9540  0.7246  0.3850
 9464SOL    HW140025   4.048   1.668   0.554 -2.0418 -3.1678  0.4553
 9464SOL    HW240026   3.967   1.764   0.484  0.6872  1.4414  0.7137
 9465SOL     OW40027   3.751   2.340   3.280  0.1362  0.2013 -0.1480
 9465SOL    HW140028   3.817   2.387   3.229 -1.3427  1.0238 -1.3313
 9465SOL    HW240029   3.781   2.371   3.366 -1.7120  1.3351  0.1092
 9466SOL     OW40030   1.424   1.253   7.601  0.6388  0.4942  0.3525
 9466SOL    HW140031   1.337   1.218   7.580  0.9224 -0.5101  0.8280
 9466SOL    HW240032   1.467   1.182   7.649  0.4801 -0.4381 -0.8999
 9467SOL     OW40033   1.512   3.086   7.234  0.1833  0.4323  0.7797
 9467SOL    HW140034   1.523   2.996   7.202 -1.6601  1.0545 -1.6205
 9467SOL    HW240035   1.570   3.088   7.311 -0.4149 -0.8994  1.2755
 9468SOL     OW40036   0.143   0.520  14.895  0.2175  0.3983 -0.0755
 9468SOL    HW140037   0.068   0.571  14.864 -1.3465 -0.8711  1.6520
 9468SOL    HW240038   0.198   0.532  14.818  2.1667  1.0662  1.4100
 9469SOL     OW40039   4.440   3.483   4.331  0.4887  0.4572  0.0892
 9469SOL    HW140040   4.423   3.540   4.407 -0.0741 -0.2372  0.4929
 9469SOL    HW240041   4.460   3.544   4.261  1.7957 -0.2798 -0.1819
 9470SOL     OW40042   0.509   0.551   5.527  0.9299 -0.1789 -0.4063
 9470SOL    HW140043   0.466   0.466   5.521  0.0572  0.2206  0.2356
 9470SOL    HW240044   0.600   0.533   5.503  1.0496 -1.7753  1.2454
 9471SOL     OW40045   0.929   4.608   5.407 -0.4871 -0.7946  0.7781
 9471SOL    HW140046   1.002   4.547   5.396 -0.1827 -0.3933  0.5510
 9471SOL    HW240047   0.943   4.650   5.492  3.9551 -0.8338  0.0458
 9472SOL     OW40048   1.004   2.083   6.039  0.2078  0.1674  0.8118
 9472SOL    HW140049   1.074   2.070   5.974  0.6009  2.3515  0.8232
 9472SOL    HW240050   0.974   2.173   6.030 -2.9212 -0.9550 -0.3384
 9473SOL     OW40051   2.474   2.621   8.577  0.0888  0.2321  0.0354
 9473SOL    HW140052   2.531   2.584   8.509  0.7745  2.1497 -0.4479
 9473SOL    HW240053   2.401   2.662   8.531  0.0858 -3.1110 -2.9439
 9474SOL     OW40054   2.576   0.795   9.140 -0.0850  0.0631 -0.2642
 9474SOL    HW140055   2.651   0.736   9.131 -0.3888 -0.5236  1.0817
 9474SOL    HW240056   2.542   0.755   9.220 -0.8388  0.6964 -0.2722
 9475SOL     OW40057   3.360   4.358   1.942 -0.1474  0.1172 -0.0542
 9475SOL    HW140058   3.416   4.419   1.895  0.2449 -0.8093 -0.7916
 9475SOL    HW240059   3.340   4.308   1.862  0.4361  1.7637 -1.2351
 9476SOL     OW40060   1.345   3.375   2.645  0.4638 -0.0629  0.0141
 9476SOL    HW140061   1.439   3.359   2.655 -0.1021 -2.3355  1.8434
 9476SOL    HW240062   1.344   3.412   2.557 -1.1636  0.6768  0.3487
 9477SOL     OW40063   4.017   4.456  14.082 -0.8537 -0.3293 -0.4107
 9477SOL    HW140064   4.019   4.376  14.133 -1.9046  0.1680  0.3872
 9477SOL    HW240065   3.993   4.430  13.993 -1.8255 -0.2125 -0.1739
 9478SOL     OW40066   3.077   1.455  16.727 -0.6293 -0.1814  0.0923
 9478SOL    HW140067   3.135   1.508  16.671 -2.2800 -0.4434 -1.9026
 9478SOL    HW240068   2.997   1.503  16.704  0.1855  1.6254  1.0501
 9479SOL     OW40069   2.371   1.784   2.223  0.1224  0.0229  0.0448
 9479SOL    HW140070   2.463   1.794   2.201 -0.5179  1.9090 -1.8455
 9479SOL    HW240071   2.345   1.876   2.223 -0.1025 -0.0421  1.0262
 9480SOL     OW40072   2.927   0.424   9.048 -0.3800 -0.3062 -0.3622
 9480SOL    HW140073   2.904   0.458   8.961 -1.0209  0.8197  0.2470
 9480SOL    HW240074   3.006   0.470   9.076 -1.0564  1.1156 -0.7842
 9481SOL     OW40075   0.132   3.244   1.161  0.8392 -0.1376  0.4391
 9481SOL    HW140076   0.050   3.199   1.143  0.7493 -0.9549  2.9719
 9481SOL    HW240077   0.106   3.336   1.155 -0.8828 -0.6171  0.7880
 9482SOL     OW40078   2.628   0.034   7.558  0.1213  0.7307  0.5254
 9482SOL    HW140079   2.710   0.074   7.530 -0.3664  2.0531  0.9637
 9482SOL    HW240080   2.655   4.690   7.599  0.0536  0.7382  0.5844
 9483SOL     OW40081   1.545   2.514   9.851  0.1214  0.2884 -0.5183
 9483SOL    HW140082   1.577   2.545   9.936  0.6420 -0.9023 -0.2927
 9483SOL    HW240083   1.520   2.599   9.814  0.6864  1.2282  1.2331
 9484SOL     OW40084   2.539   2.556  17.672 -0.4031 -0.1364  0.0907
 9484SOL    HW140085   2.603   2.506  17.621  0.7388  1.2565  0.1754
 9484SOL    HW240086   2.455   2.530  17.635  0.0273  1.6227 -2.0841
 9485SOL     OW40087   0.862   3.253  16.937  0.5573  0.7155 -0.4811
 9485SOL    HW140088   0.883   3.188  17.004 -0.0958  0.9067 -0.0952
 9485SOL    HW240089   0.941   3.258  16.883  0.4468 -0.3959 -0.7588
 9486SOL     OW40090   2.986   2.794   9.785  0.2353 -0.4011  0.6223
 9486SOL    HW140091   2.925   2.739   9.834 -2.1020  0.8924 -0.8401
 9486SOL    HW240092   2.965   2.881   9.819 -1.6176 -0.6382  0.0912
 9487SOL     OW40093   2.940   1.119   9.866  0.0742  0.5001 -0.3178
 9487SOL    HW140094   2.879   1.050   9.892 -2.7790  1.6185 -4.0340
 9487SOL    HW240095   2.900   1.145   9.783 -1.8619  0.2967  0.5468
 9488SOL     OW40096   2.110   4.211   5.551  0.1457 -0.1314 -0.0132
 9488SOL    HW140097   2.033   4.176   5.595 -1.1169  1.0867 -1.2491
 9488SOL    HW240098   2.149   4.137   5.504  0.6949 -1.2771  2.2573
 9489SOL     OW40099   0.928   0.145   9.994  0.0830 -0.3684 -0.3800
 9489SOL    HW140100   1.007   0.125  10.043 -0.2584 -2.8453 -0.8544
 9489SOL    HW240101   0.907   0.061   9.952  0.4225 -0.6254 -0.0327
 9490SOL     OW40102   1.575   2.861   7.068  0.3724 -0.3227 -0.0298
 9490SOL    HW140103   1.601   2.860   6.976 -0.3614 -0.4821 -0.2354
 9490SOL    HW240104   1.483   2.883   7.056  0.6909  0.2178 -1.5272
 9491SOL     OW40105   3.687   2.824   8.843 -0.7077  0.0316 -0.7484
 9491SOL    HW140106   3.691   2.917   8.821 -0.6424  0.1120 -0.4022
 9491SOL    HW240107   3.610   2.795   8.794 -0.3797 -0.6688 -0.8517
 9492SOL     OW40108   0.139   2.213  15.037  0.6425 -0.3480  0.4997
 9492SOL    HW140109   0.195   2.183  15.108  2.0417 -1.7278 -1.1713
 9492SOL    HW240110   0.062   2.158  15.052 -1.2644  2.4801  0.8834
 9493SOL     OW40111   1.332   0.107   7.439 -0.2003  0.2503 -0.0470
 9493SOL    HW140112   1.282   0.038   7.396  2.1441 -1.9515  0.7936
 9493SOL    HW240113   1.412   0.094   7.388 -0.7961 -0.8393 -0.6955
 9494SOL     OW40114   4.706   3.107   7.370  0.0823 -0.3933  0.1720
 9494SOL    HW140115   4.662   3.068   7.294 -1.4499  0.4573  0.6219
 9494SOL    HW240116   4.672   3.058   7.445 -0.1143 -1.2596 -0.4801
 9495SOL     OW40117   3.406   3.371   9.563 -0.1666  0.2941 -0.6655
 9495SOL    HW140118   3.446   3.370   9.476  0.3281 -1.5450 -0.4169
 9495SOL    HW240119   3.472   3.316   9.605 -2.3348 -1.8368 -0.0415
 9496SOL     OW40120   2.703   1.398  15.296  0.1600 -0.5816 -0.1603
 9496SOL    HW140121   2.716   1.371  15.206 -3.7852  1.4345 -1.3320
 9496SOL    HW240122   2.641   1.471  15.288  2.0423  1.0687  0.3646
 9497SOL     OW40123   4.577   2.787   4.254  0.2312 -0.1304  0.0599
 9497SOL    HW140124   4.502   2.782   4.314 -1.2445 -2.9634 -2.0285
 9497SOL    HW240125   4.525   2.793   4.174 -0.7795  0.1696  0.7370
 9498SOL     OW40126   3.508   0.754  17.716  0.0032 -0.7385  0.0411
 9498SOL    HW140127   3.520   0.671  17.669  0.5614  0.5640 -2.1429
 9498SOL    HW240128   3.489   0.809  17.640 -1.1255 -0.5249  0.4792
 9499SOL     OW40129   2.964   1.364  10.082 -0.2518 -0.2010 -0.4616
 9499SOL    HW140130   2.971   1.371   9.987 -1.4379 -2.3709 -0.7106
 9499SOL    HW240131   2.897   1.298  10.098 -1.0989  0.4588 -1.2520
 9500SOL     OW40132   4.494   2.829   2.887 -0.1332 -0.1020 -0.4994
 9500SOL    HW140133   4.488   2.856   2.796  0.0833 -1.0184 -0.7770
 9500SOL    HW240134   4.456   2.904   2.934  0.7470 -0.4043  0.7059
 9501SOL     OW40135   2.626   3.437  10.390 -0.3018  0.3342  0.3655
 9501SOL    HW140136   2.621   3.493  10.313  0.8252  0.1585  0.1651
 9501SOL    HW240137   2.667   3.362  10.347 -2.4757  0.3743 -1.7508
 9502SOL     OW40138   3.093   0.488   6.814 -0.4497  0.7122 -0.1968
 9502SOL    HW140139   3.083   0.575   6.852  1.3229  0.6555  0.3925
 9502SOL    HW240140   3.162   0.455   6.871 -2.0636 -1.6204  0.4564
 9503SOL     OW40141   3.002   0.003   6.117 -0.4056 -0.6596 -0.1826
 9503SOL    HW140142   2.916   4.699   6.126 -0.2165 -1.1249 -0.5404
 9503SOL    HW240143   3.012   0.056   6.196 -0.7720 -0.1632 -0.4583
 9504SOL     OW40144   0.426   0.310   6.540 -0.3285 -0.6302 -0.3693
 9504SOL    HW140145   0.427   0.214   6.533 -0.9366 -0.7158  0.7390
 9504SOL    HW240146   0.496   0.334   6.480 -0.4895 -1.3591 -0.8555
 9505SOL     OW40147   0.974   0.743   6.408 -0.4399 -0.0196 -0.4039
 9505SOL    HW140148   1.048   0.687   6.432 -0.1101  1.0506  1.0999
 9505SOL    HW240149   1.008   0.830   6.430 -1.9697 -0.0435  2.1345
 9506SOL     OW40150   2.334   3.232   4.026 -0.0484 -0.5414 -0.3840
 9506SOL    HW140151   2.416   3.229   3.977 -1.3322  0.6774 -2.5813
 9506SOL    HW240152   2.370   3.268   4.107  0.6645 -0.0110 -0.9395
 9507SOL     OW40153   1.315   1.817   7.208 -0.1526  0.0813  0.1258
 9507SOL    HW140154   1.345   1.838   7.296  0.4662 -0.4156  0.0326
 9507SOL    HW240155   1.241   1.759   7.229  0.0982  0.2137  1.3642
 9508SOL     OW40156   2.517   3.004  16.000  0.2715  0.3190  0.2688
 9508SOL    HW140157   2.485   2.941  16.065 -2.3370  0.2240 -1.0833
 9508SOL    HW240158   2.458   3.079  16.004  0.3898  0.3957  0.5751
 9509SOL     OW40159   3.314   0.166   6.213  0.1278  0.0264  0.3243
 9509SOL    HW140160   3.318   0.219   6.133 -2.5024  0.9920  0.8252
 9509SOL    HW240161   3.222   0.184   6.234  0.6185 -0.5743  2.9676
 9510SOL     OW40162   2.049   0.031   4.709 -0.4551 -0.5368 -0.1888
 9510SOL    HW140163   1.968   0.078   4.727 -0.1783 -0.4807  0.8782
 9510SOL    HW240164   2.052   4.724   4.793  3.2100  0.4771  0.2145
 9511SOL     OW40165   2.839   0.801   5.830  0.3800 -0.3731  0.0727
 9511SOL    HW140166   2.890   0.730   5.869 -0.7667 -0.1649  1.9554
 9511SOL    HW240167   2.900   0.874   5.838 -1.3644  1.0519  0.2740
 9512SOL     OW40168   2.597   2.149  12.152 -0.1160  0.0298  0.1555
 9512SOL    HW140169   2.610   2.233  12.195 -1.2568 -0.3385  1.2240
 9512SOL    HW240170   2.501   2.156  12.158 -0.2545  0.2308 -2.1895
 9513SOL     OW40171   0.720   1.704   7.461  0.1036  0.1216 -0.6969
 9513SOL    HW140172   0.765   1.747   7.534  0.6235 -2.5932  0.5630
 9513SOL    HW240173   0.693   1.621   7.500  0.5738  0.3057  0.0280
 9514SOL     OW40174   0.041   4.038   4.121  0.1547 -0.6839  0.6023
 9514SOL    HW140175   0.015   3.957   4.166  1.1760 -1.5405 -0.3456
 9514SOL    HW240176   0.040   4.013   4.029  0.3230  0.8565  0.1995
 9515SOL     OW40177   4.653   4.719   1.893 -0.6385  0.1648 -0.1644
 9515SOL    HW140178   4.572   0.023   1.925  0.1382  0.0977  1.9010
 9515SOL    HW240179   4.709   0.027   1.955 -0.1589  0.8038 -1.0706
 9516SOL     OW40180   2.423   1.475   7.319  0.0126 -0.5529  0.0227
 9516SOL    HW140181   2.388   1.539   7.257  0.6864 -0.8083 -0.6164
 9516SOL    HW240182   2.378   1.507   7.398 -1.0367  0.9091 -1.1729
 9517SOL     OW40183   2.319   2.376   9.046  0.1553 -0.7630 -0.4553
 9517SOL    HW140184   2.322   2.330   8.962  0.3583 -1.1360 -0.2400
 9517SOL    HW240185   2.413   2.383   9.064 -0.0055 -1.9854  0.8215
 9518SOL     OW40186   2.218   0.592   4.034 -0.3853 -0.0582 -0.3644
 9518SOL    HW140187   2.180   0.618   4.118 -1.6354  1.3290 -1.3602
 9518SOL    HW240188   2.195   0.671   3.985  0.5469  0.6746  0.3746
 9519SOL     OW40189   2.910   1.058   6.456  0.2369  0.0747 -0.2609
 9519SOL    HW140190   2.874   1.126   6.399 -0.6358  0.1758  0.4160
 9519SOL    HW240191   2.840   1.059   6.521  0.5061 -0.1576  0.0353
 9520SOL     OW40192   0.718   4.006   3.891  0.2689  0.2282 -0.0519
 9520SOL    HW140193   0.647   4.037   3.948  1.1433  0.7724  0.7509
 9520SOL    HW240194   0.683   3.919   3.874  0.3714  0.5425 -1.8387
 9521SOL     OW40195   4.697   2.561   4.941  0.2773  0.2997  0.3557
 9521SOL    HW140196   0.011   2.481   4.942 -2.0133 -1.2008 -1.8740
 9521SOL    HW240197   4.699   2.585   5.034  0.4852  1.8016 -0.0379
 9522SOL     OW40198   0.156   3.559   7.056 -0.1350 -0.1589 -0.0519
 9522SOL    HW140199   0.077   3.612   7.064 -1.6429 -2.2968 -0.8368
 9522SOL    HW240200   0.148   3.529   6.966  1.6706  1.1615 -0.6594
 9523SOL     OW40201   4.693   1.244   4.703 -0.8626 -0.5129 -0.4306
 9523SOL    HW140202   4.647   1.290   4.774  0.6962  0.6475 -0.1851
 9523SOL    HW240203   4.695   1.154   4.736  0.7780  0.1724  1.3334
 9524SOL     OW40204   2.108   1.713   1.855  0.2081  0.0576  0.3535
 9524SOL    HW140205   2.058   1.738   1.777 -1.9281 -1.2146  1.3115
 9524SOL    HW240206   2.193   1.756   1.847 -0.5081  1.3330 -0.6337
 9525SOL     OW40207   3.282   0.604   5.009 -0.2540 -0.4060 -0.7631
 9525SOL    HW140208   3.275   0.663   5.084 -0.3091 -1.2449 -0.1223
 9525SOL    HW240209   3.277   0.518   5.050  1.3834  0.3808  1.0950
 9526SOL     OW40210   2.924   4.013  15.243 -0.1402  0.0646  0.3964
 9526SOL    HW140211   2.845   3.968  15.273 -0.0832  1.1797  2.1903
 9526SOL    HW240212   2.988   3.967  15.297 -1.6628 -1.8403  0.5592
 9527SOL     OW40213   4.650   3.258   7.797  0.0689  0.5904 -0.6298
 9527SOL    HW140214   4.661   3.353   7.799 -1.0136  0.7205 -0.4938
 9527SOL    HW240215   4.607   3.252   7.711 -1.0684  0.3962 -0.0483
 9528SOL     OW40216   4.403   2.827   6.041 -0.5675 -0.5286  0.5242
 9528SOL    HW140217   4.496   2.816   6.061 -0.5348 -1.5357 -0.2088
 9528SOL    HW240218   4.377   2.886   6.112 -1.2048 -0.9599  0.6465
 9529SOL     OW40219   2.629   2.939   1.852  0.1835  0.3536  0.4091
 9529SOL    HW140220   2.597   2.852   1.878 -0.4381  0.0429 -1.3573
 9529SOL    HW240221   2.638   2.981   1.938 -0.5708  0.8353  0.2549
 9530SOL     OW40222   0.961   1.241   5.966 -0.2292 -0.4524 -0.0211
 9530SOL    HW140223   0.949   1.269   6.056  1.5789  0.6091 -0.0907
 9530SOL    HW240224   1.052   1.213   5.973  0.0572  0.8794  1.5443
 9531SOL     OW40225   1.345   0.349   7.176  0.0031  0.1391  0.1599
 9531SOL    HW140226   1.386   0.430   7.143  1.6708 -0.2944  1.1919
 9531SOL    HW240227   1.253   0.372   7.164 -0.3367 -2.4818 -2.3355
 9532SOL     OW40228   3.235   2.774   2.633  0.1932  0.2274  0.3257
 9532SOL    HW140229   3.167   2.755   2.697 -0.2549  0.3922 -0.1022
 9532SOL    HW240230   3.216   2.860   2.594 -1.3835 -1.2070 -2.0868
 9533SOL     OW40231   1.732   3.872   8.178  0.0602 -0.0684 -0.6323
 9533SOL    HW140232   1.738   3.962   8.210 -1.1478 -0.3078  0.3131
 9533SOL    HW240233   1.737   3.873   8.083  0.7452  1.2477 -0.5817
 9534SOL     OW40234   2.999   3.430   7.799  0.4744  0.3620  0.3331
 9534SOL    HW140235   2.946   3.351   7.793  1.9858 -0.6400  0.2276
 9534SOL    HW240236   3.009   3.450   7.706  0.2794  0.7661  0.3975
 9535SOL     OW40237   3.135   3.311   9.333 -0.0273 -0.8955  0.0661
 9535SOL    HW140238   3.055   3.341   9.376 -0.6193 -0.1103 -1.5852
 9535SOL    HW240239   3.183   3.291   9.414 -1.6378 -3.3865  0.4016
 9536SOL     OW40240   3.489   1.163  16.084 -0.4458  0.9922 -0.1303
 9536SOL    HW140241   3.548   1.164  16.009 -1.3945  0.5533 -0.8722
 9536SOL    HW240242   3.538   1.226  16.137 -3.7889  2.3161  1.3920
 9537SOL     OW40243   1.572   3.435   3.385  0.0556 -0.7500  0.2915
 9537SOL    HW140244   1.477   3.422   3.389 -0.1775  1.3544  1.4486
 9537SOL    HW240245   1.585   3.345   3.353 -0.1866 -1.2889  1.6991
 9538SOL     OW40246   3.371   1.796  12.549 -0.3944 -0.0536  0.6489
 9538SOL    HW140247   3.353   1.890  12.540 -0.7505 -0.1200  0.6793
 9538SOL    HW240248   3.285   1.760  12.568 -0.9334  1.3650  0.9208
 9539SOL     OW40249   2.084   3.418   3.073  0.1739  0.7713 -0.0807
 9539SOL    HW140250   2.137   3.400   2.995  0.6167 -2.6444  1.0148
 9539SOL    HW240251   2.037   3.336   3.087 -1.3818  1.7940  0.6508
 9540SOL     OW40252   2.148   0.458   7.988 -0.0755  0.8619  0.2333
 9540SOL    HW140253   2.069   0.432   7.939 -1.4050  1.2094  2.2129
 9540SOL    HW240254   2.106   0.476   8.072  0.9041  2.1117  0.4579
 9541SOL     OW40255   1.464   1.788   7.800  0.3662 -0.7265 -0.0368
 9541SOL    HW140256   1.376   1.749   7.807 -0.5983  1.5301  0.4297
 9541SOL    HW240257   1.495   1.749   7.882 -2.1487 -2.4294  0.1347
 9542SOL     OW40258   2.307   4.231   7.680 -0.0977 -0.2894  0.4321
 9542SOL    HW140259   2.335   4.316   7.714 -0.0464 -0.2708  0.3416
 9542SOL    HW240260   2.353   4.176   7.743  2.8574  0.4794 -1.0680
 9543SOL     OW40261   0.490   0.484  16.971 -0.2065 -0.2679 -0.0557
 9543SOL    HW140262   0.480   0.450  16.883  0.3024  3.8211 -1.6826
 9543SOL    HW240263   0.400   0.506  16.994  0.9970  4.5222  0.0197
 9544SOL     OW40264   2.361   1.369   9.558 -0.7680  0.8743  0.0349
 9544SOL    HW140265   2.351   1.290   9.503 -0.7656 -0.2688  1.6818
 9544SOL    HW240266   2.280   1.415   9.538  1.1375  3.8377 -0.8894
 9545SOL     OW40267   0.335   1.324   1.893 -0.2334  0.6726  0.2344
 9545SOL    HW140268   0.372   1.293   1.976  3.0773 -1.6419 -2.0922
 9545SOL    HW240269   0.256   1.365   1.927  0.3387  0.8412  1.3791
 9546SOL     OW40270   0.172   0.364   3.204  0.8450 -0.6985 -0.2543
 9546SOL    HW140271   0.148   0.429   3.138 -1.2165 -0.6931  0.5268
 9546SOL    HW240272   0.140   0.400   3.286  0.6375 -1.9301  0.1986
 9547SOL     OW40273   4.682   2.132  10.510 -0.2722  0.0960  0.6466
 9547SOL    HW140274   4.606   2.187  10.528 -0.0812  0.9049 -1.0436
 9547SOL    HW240275   4.664   2.065  10.575 -3.5852 -0.5283 -0.9406
 9548SOL     OW40276   3.770   2.009  10.661  0.1644 -0.7701 -0.5115
 9548SOL    HW140277   3.779   2.097  10.697  3.8932 -1.0028 -0.8766
 9548SOL    HW240278   3.859   1.984  10.637  2.0623  5.1791  0.1739
 9549SOL     OW40279   3.964   3.643   3.598  0.1345  0.3321  0.0509
 9549SOL    HW140280   3.873   3.616   3.606  1.0126 -2.2032  1.3363
 9549SOL    HW240281   3.958   3.738   3.588  0.6440  0.4286  0.6640
 9550SOL     OW40282   2.433   4.259   5.921 -0.2794  0.6800 -0.2540
 9550SOL    HW140283   2.374   4.275   5.847 -0.2840 -0.0192 -0.4017
 9550SOL    HW240284   2.469   4.346   5.942  1.6868  0.6502 -3.6447
 9551SOL     OW40285   1.511   0.113   2.808  0.0874 -0.3529 -0.0317
 9551SOL    HW140286   1.515   0.047   2.876 -1.9043  0.0174  0.4465
 9551SOL    HW240287   1.538   0.058   2.734 -3.1943 -0.4051 -1.1802
 9552SOL     OW40288   1.537   0.764   7.702 -0.0067  0.0310  0.1035
 9552SOL    HW140289   1.512   0.672   7.703  0.1072  0.0095  1.3167
 9552SOL    HW240290   1.464   0.792   7.647  0.3665 -1.0685 -0.9480
 9553SOL     OW40291   2.640   0.033   2.601 -0.4565 -0.1404  0.4287
 9553SOL    HW140292   2.545   0.041   2.590 -0.2190  3.0658  0.7506
 9553SOL    HW240293   2.671   0.115   2.563 -0.6131  0.2857  1.2219
 9554SOL     OW40294   1.805   1.917   2.610  0.0022  0.1418  0.1701
 9554SOL    HW140295   1.888   1.959   2.590 -0.2247  1.2175  1.5294
 9554SOL    HW240296   1.740   1.987   2.605 -0.8101 -0.7358 -1.5670
 9555SOL     OW40297   2.120   3.816   3.043  0.3897  0.5427  0.4051
 9555SOL    HW140298   2.185   3.874   3.006 -0.4188  2.7770  2.4714
 9555SOL    HW240299   2.061   3.876   3.089  0.8998  2.9257 -2.0918
 9556SOL     OW40300   1.473   4.592   4.181  0.3941 -0.0338 -0.6055
 9556SOL    HW140301   1.503   4.563   4.267 -0.0380 -3.8688 -1.7372
 9556SOL    HW240302   1.523   4.542   4.117 -0.5004  0.3087 -1.5787
 9557SOL     OW40303   3.354   1.517   8.998 -0.3209  0.5177 -0.3784
 9557SOL    HW140304   3.386   1.606   8.980  1.4999 -0.0396  0.1389
 9557SOL    HW240305   3.405   1.496   9.076 -0.9641 -0.3580 -0.1924
 9558SOL     OW40306   1.590   0.551   2.320 -0.1743  0.4695  0.9444
 9558SOL    HW140307   1.512   0.497   2.335  0.2256 -0.8063 -1.5324
 9558SOL    HW240308   1.622   0.525   2.234 -2.1634 -0.6800  0.5507
 9559SOL     OW40309   2.036   3.153  11.610 -0.2828 -0.4241  0.1676
 9559SOL    HW140310   2.046   3.154  11.515  2.2565 -1.0177  0.4130
 9559SOL    HW240311   1.945   3.131  11.627 -0.4297 -0.5487 -0.8001
 9560SOL     OW40312   0.376   4.664   6.892 -0.4969 -0.6699  0.5103
 9560SOL    HW140313   0.334   4.700   6.971  1.2859  0.3379  0.9906
 9560SOL    HW240314   0.336   4.577   6.892 -1.4403 -0.2374 -0.0139
 9561SOL     OW40315   2.329   4.012   6.013 -0.0582  0.3649 -0.1480
 9561SOL    HW140316   2.344   4.102   5.985  1.9488 -0.0112 -0.2403
 9561SOL    HW240317   2.291   4.018   6.101 -3.2107  1.4462 -1.5753
 9562SOL     OW40318   0.261   4.410   8.547  0.0543  0.3584 -0.2445
 9562SOL    HW140319   0.275   4.503   8.564  0.3534  0.2153  0.3092
 9562SOL    HW240320   0.261   4.410   8.452  4.4793  0.3413 -0.2645
 9563SOL     OW40321   4.553   2.933  15.877 -0.3383 -0.5218 -0.8399
 9563SOL    HW140322   4.648   2.922  15.878 -0.1806  0.7431 -1.6204
 9563SOL    HW240323   4.551   2.971  15.965  0.7403 -1.7598 -0.2850
 9564SOL     OW40324   3.283   4.494   2.686  0.0946 -0.8206  0.0521
 9564SOL    HW140325   3.309   4.545   2.763 -1.8275  1.8624 -1.0961
 9564SOL    HW240326   3.199   4.454   2.709 -0.3775  0.7102  0.9556
 9565SOL     OW40327   2.161   3.117   7.542  0.4395  0.3187 -0.0094
 9565SOL    HW140328   2.226   3.180   7.574  3.2533 -3.0382  0.8892
 9565SOL    HW240329   2.172   3.040   7.597 -0.1785  0.6992  0.6412
 9566SOL     OW40330   0.899   4.536   4.343  0.1794  0.1378 -0.3708
 9566SOL    HW140331   0.978   4.498   4.303  0.7546  0.4013  0.5092
 9566SOL    HW240332   0.892   4.479   4.420  2.0234 -0.2766 -0.4848
 9567SOL     OW40333   0.597   1.209  10.297  0.1417  0.2273  0.2861
 9567SOL    HW140334   0.639   1.293  10.277  1.1857 -0.0842  1.1184
 9567SOL    HW240335   0.619   1.151  10.224  0.6926  0.9936 -0.1558
 9568SOL     OW40336   0.210   2.765   6.519 -0.2886  0.1176 -0.0847
 9568SOL    HW140337   0.119   2.787   6.541 -0.4516 -1.5211  0.8404
 9568SOL    HW240338   0.247   2.852   6.503  0.9240 -0.1044  1.5295
 9569SOL     OW40339   2.667   1.497   7.459 -0.0542 -0.0957 -0.4878
 9569SOL    HW140340   2.592   1.477   7.402  0.2025 -2.3017 -0.0796
 9569SOL    HW240341   2.683   1.586   7.430 -1.0809 -0.4159 -2.0407
 9570SOL     OW40342   0.204   1.549  14.822 -0.4871 -0.0587 -0.3192
 9570SOL    HW140343   0.211   1.637  14.784 -2.5389 -0.2431 -1.1131
 9570SOL    HW240344   0.299   1.537  14.829 -0.4585 -1.5285 -3.0515
 9571SOL     OW40345   2.992   4.132   2.287  0.5016 -0.5576 -0.3209
 9571SOL    HW140346   2.997   4.085   2.371  3.1813  1.0797  0.4461
 9571SOL    HW240347   3.073   4.183   2.290  0.0479  0.1768 -0.6524
   4.73795   4.73795  17.74993
