Membrane in water
40347
    1TMC1    C1    1   1.997   1.586  12.244 -0.0049 -0.4681 -0.5355
    1TMC1    C2    2   2.061   1.693  12.305 -0.3015  0.2957  0.2189
    1TMC1    C3    3   2.037   1.819  12.256 -0.2890  1.0997  0.0391
    1TMC1    C4    4   1.911   1.605  12.137  0.2212 -0.3145 -0.6474
    1TMC1    C5    5   1.892   1.735  12.094  0.4204 -0.1533  0.4340
    1TMC1    C6    6   1.943   1.840  12.157  0.6012  0.4371 -0.2969
    1TMC1     C    7   2.013   1.455  12.294 -0.7124 -0.8656 -0.2708
    1TMC1     O    8   1.923   1.378  12.260 -0.4332  0.1752  0.4556
    1TMC1     H    9   2.125   1.676  12.391  1.3069 -1.2241 -1.2792
    1TMC1    H1   10   1.861   1.520  12.093  1.5744 -0.8986 -1.0503
    1TMC1    H2   11   1.925   1.939  12.117  3.6110  1.6022  1.2007
    1TMC1    C7   12   1.796   1.744  11.981 -0.1579  0.1377  0.1147
    1TMC1    C8   13   2.130   1.917  12.301 -0.2163  0.2002  0.0888
    1TMC1    O1   14   1.742   1.645  11.941 -0.2500  0.1705  0.3411
    1TMC1    O2   15   2.110   2.027  12.252 -0.3323 -0.1195  0.0635
    1TMC1    O3   16   1.845   1.842  11.908 -0.2763  0.1765 -0.5572
    1TMC1    H3   17   1.937   1.867  11.931 -0.4385 -1.3038  1.7014
    1TMC1    O5   18   2.252   1.859  12.285 -0.0241  0.1976 -0.2879
    1TMC1    H5   19   2.270   1.773  12.330 -0.8644 -0.6578 -1.5719
    2MPD2     C   20   2.249   1.077  12.538 -0.3866  0.3969 -0.0395
    2MPD2    C1   21   2.116   1.091  12.505 -0.3207  0.1118  0.1811
    2MPD2    C2   22   2.077   1.215  12.447  0.1888 -0.3966 -0.0407
    2MPD2    C3   23   2.164   1.317  12.424 -0.4950 -0.0923  0.5792
    2MPD2    C4   24   2.289   1.301  12.454  0.4002  0.1800 -0.1467
    2MPD2    C5   25   2.335   1.179  12.507 -0.9329  0.1868 -0.8159
    2MPD2     H   26   1.973   1.232  12.423  0.6281 -0.4439 -2.0083
    2MPD2    H1   27   2.367   1.371  12.431 -1.2539  1.4656 -1.8679
    2MPD2    H2   28   2.291   0.981  12.563  0.6782  1.6776  3.1574
    2MPD2    H3   29   2.439   1.157  12.529 -1.8317 -1.2816  2.0417
    2MPD2     N   30   2.128   1.436  12.364  0.0008  0.5091 -0.0782
    2MPD2    H5   31   2.204   1.502  12.360 -0.5842  1.1477 -0.6212
    2MPD2    N1   32   2.013   0.999  12.522 -0.2672  0.2464  0.5143
    2MPD2    H7   33   1.921   1.024  12.487 -0.5090 -0.0364  0.9571
    3TMC1    C1   34   2.132   2.161  10.742  0.1253 -0.4334  0.2030
    3TMC1    C2   35   2.175   2.249  10.835  0.1417 -0.4681  0.2734
    3TMC1    C3   36   2.305   2.297  10.828  0.3941  0.0290 -0.4745
    3TMC1    C4   37   2.215   2.102  10.654 -0.6623 -0.0812  0.0552
    3TMC1    C5   38   2.344   2.153  10.644  0.2984  0.1724  0.0672
    3TMC1    C6   39   2.391   2.250  10.736 -0.2842 -0.0273  0.2020
    3TMC1     C   40   1.991   2.115  10.752 -0.7001 -0.2781 -0.0379
    3TMC1     O   41   1.985   2.001  10.708 -0.7672 -0.1183  0.6951
    3TMC1     H   42   2.102   2.291  10.903 -2.0107 -1.2445 -1.5790
    3TMC1    H1   43   2.185   2.042  10.569  1.7227  0.9582 -1.5350
    3TMC1    H2   44   2.483   2.298  10.707  0.3145 -2.1069 -1.3025
    3TMC1    C7   45   2.448   2.081  10.579  0.4422  0.1499  0.1334
    3TMC1    C8   46   2.345   2.388  10.933 -0.0435  0.0359 -0.2939
    3TMC1    O1   47   2.482   2.111  10.465  0.0690 -0.1660 -0.8308
    3TMC1    O2   48   2.302   2.500  10.950  0.1381  0.1870 -0.1750
    3TMC1    O3   49   2.521   2.043  10.690  0.3788 -0.2707 -0.3349
    3TMC1    H3   50   2.452   2.021  10.757 -0.5801  0.1214 -1.1969
    3TMC1    O5   51   2.471   2.361  10.946 -0.5530  0.0370 -0.2835
    3TMC1    H5   52   2.489   2.265  10.932  2.5201  0.5429  0.0806
    4MPD2     C   53   1.487   2.152  10.819  0.1904 -0.1925  0.8418
    4MPD2    C1   54   1.538   2.275  10.853 -0.0907  0.1227 -0.3312
    4MPD2    C2   55   1.680   2.289  10.838  0.2900 -0.0832 -0.3624
    4MPD2    C3   56   1.763   2.186  10.802  0.1723  0.2872 -0.8319
    4MPD2    C4   57   1.710   2.061  10.771  0.0547  0.2596  0.2665
    4MPD2    C5   58   1.575   2.048  10.781 -0.6594  0.0011 -0.1860
    4MPD2     H   59   1.737   2.380  10.856 -0.1617  0.0294  0.4906
    4MPD2    H1   60   1.768   1.971  10.752  2.0477  1.4457  0.8108
    4MPD2    H2   61   1.382   2.128  10.832  0.3614 -2.0858 -1.4919
    4MPD2    H3   62   1.526   1.952  10.780 -0.0219 -0.3251 -0.1199
    4MPD2     N   63   1.900   2.213  10.795 -0.0998  0.5881 -0.5505
    4MPD2    H5   64   1.940   2.303  10.819  1.0326 -0.4465  1.4212
    4MPD2    N1   65   1.468   2.388  10.890  0.4211  0.5613 -0.5816
    4MPD2    H7   66   1.527   2.470  10.886  1.5522 -0.2753 -0.9498
    5TCq1    O1   67   2.501   3.400  11.827  0.3631 -0.2154  0.0327
    5TCq1    C1   68   2.524   3.522  11.771  0.3044 -0.2608 -0.0127
    5TCq1    O2   69   2.605   3.545  11.686  0.1646 -0.0531  0.0162
    5TCq1    C2   70   2.404   3.595  11.785  0.0363 -1.0779 -0.9078
    5TCq1    C3   71   2.361   3.640  11.905  0.0064 -0.5040 -0.2034
    5TCq1    C4   72   2.260   3.735  11.908 -0.5995  0.1713  0.6728
    5TCq1    C5   73   2.203   3.779  11.792 -0.4352  0.0518 -0.1784
    5TCq1    C6   74   2.251   3.738  11.671 -0.0487 -0.1996 -0.0852
    5TCq1    C7   75   2.344   3.639  11.670  0.3263 -0.1777  0.5539
    5TCq1    C8   76   2.187   3.783  11.549 -0.2146 -0.3050  0.1108
    5TCq1    O4   77   2.209   3.714  11.450  0.3693  0.0443  0.1429
    5TCq1    C9   78   2.215   3.778  12.035  0.6339 -0.7192  0.3353
    5TCq1    O5   79   2.245   3.705  12.133 -0.1359  0.4181 -0.4958
    5TCq1    O6   80   2.116   3.856  12.040 -0.5285 -0.3442  0.6919
    5TCq1    H1   81   2.435   3.394  11.899 -1.3150 -0.4198 -1.5149
    5TCq1    H2   82   2.413   3.610  11.995  0.3382 -0.9911 -0.5546
    5TCq1    H3   83   2.107   3.828  11.803 -1.9367 -2.4382 -2.4089
    5TCq1    H4   84   2.373   3.593  11.576 -2.8378 -0.3427 -0.3432
    6MPD2     C   85   1.941   4.064  11.519 -0.0400 -0.0639  0.0604
    6MPD2    C1   86   2.033   3.969  11.474 -0.1351 -0.1176 -0.0033
    6MPD2    C2   87   2.015   3.928  11.339 -0.8728 -0.5981 -0.0029
    6MPD2    C3   88   1.940   4.000  11.250  0.0243 -0.0723  0.5487
    6MPD2    C4   89   1.869   4.101  11.299 -0.5526 -0.6165 -0.0451
    6MPD2    C5   90   1.865   4.125  11.430 -0.2084 -0.2439 -0.5514
    6MPD2     H   91   2.065   3.838  11.304 -0.6107  0.0102 -1.1778
    6MPD2    H1   92   1.819   4.172  11.234 -1.2971 -1.3054 -0.2340
    6MPD2    H2   93   1.939   4.093  11.624 -0.1307 -0.8400  0.2692
    6MPD2    H3   94   1.813   4.206  11.480  2.6098  2.7944 -2.5653
    6MPD2     N   95   1.945   3.971  11.115  0.3433 -0.1272 -0.8143
    6MPD2    H5   96   2.020   3.905  11.099  0.8076 -0.1828  1.6584
    6MPD2    N1   97   2.113   3.900  11.570  0.0896 -0.0107 -0.6554
    6MPD2    H7   98   2.094   3.938  11.662  0.2718 -0.2795 -0.5099
    7TCq1    O1   99   4.200   3.744  12.763 -0.0853 -0.3723 -0.0791
    7TCq1    C1  100   4.261   3.811  12.866  0.5034 -0.1912  0.1521
    7TCq1    O2  101   4.228   3.921  12.910 -0.4234  0.0091  0.1149
    7TCq1    C2  102   4.307   3.710  12.962  0.7479  0.3111  0.3908
    7TCq1    C3  103   4.389   3.744  13.059 -0.1358  0.4000 -0.3357
    7TCq1    C4  104   4.431   3.661  13.160 -0.3528  0.0430 -0.6097
    7TCq1    C5  105   4.372   3.540  13.163 -0.0821  0.1558  0.1275
    7TCq1    C6  106   4.285   3.503  13.065 -0.6907  0.0754 -0.0564
    7TCq1    C7  107   4.250   3.589  12.963 -0.0015  0.0706  0.4002
    7TCq1    C8  108   4.245   3.366  13.064  0.1639  0.4905 -0.1504
    7TCq1    O4  109   4.316   3.282  13.120  0.5073  0.5864 -0.3460
    7TCq1    C9  110   4.527   3.697  13.261  0.6141  0.3673 -0.2653
    7TCq1    O5  111   4.586   3.606  13.330 -0.1427  0.1256 -0.9346
    7TCq1    O6  112   4.554   3.821  13.281 -0.2765  0.0586 -0.5313
    7TCq1    H1  113   4.234   3.656  12.739  0.0891 -0.1492 -0.6594
    7TCq1    H2  114   4.419   3.848  13.052  0.8770 -0.0208 -2.3513
    7TCq1    H3  115   4.406   3.466  13.234 -1.4090  0.1126  0.7205
    7TCq1    H4  116   4.185   3.551  12.884  1.4433 -1.5332 -0.0054
    8MPD2     C  117   3.885   3.018  12.954 -0.2647 -0.2829  0.4102
    8MPD2    C1  118   4.015   3.003  12.993 -0.5041  0.0755 -0.8377
    8MPD2    C2  119   4.096   3.117  13.009 -0.4415 -0.4587 -0.2923
    8MPD2    C3  120   4.036   3.241  12.997  0.0451 -0.2751  1.1440
    8MPD2    C4  121   3.912   3.257  12.945  0.1393  0.7181  0.0285
    8MPD2    C5  122   3.839   3.143  12.923 -0.7092  0.1540 -0.3298
    8MPD2     H  123   4.201   3.105  13.032 -1.1371  0.0094  3.0854
    8MPD2    H1  124   3.871   3.353  12.918 -0.5717  0.0312 -1.3644
    8MPD2    H2  125   3.819   2.933  12.941 -0.9851  0.6276 -1.9569
    8MPD2    H3  126   3.742   3.147  12.873 -0.5751  0.9059 -0.5386
    8MPD2     N  127   4.109   3.360  13.021  0.8372  0.0733  0.0825
    8MPD2    H5  128   4.056   3.443  12.996  1.2143  0.5891  0.9959
    8MPD2    N1  129   4.063   2.876  13.012  0.1722  0.0376 -0.5109
    8MPD2    H7  130   3.995   2.805  12.986 -2.1728  2.0385  0.0938
    9TMC1    C1  131   1.731   2.268  11.462  0.0938 -0.4940 -0.2180
    9TMC1    C2  132   1.803   2.291  11.346  0.0046  0.7709  0.1031
    9TMC1    C3  133   1.901   2.382  11.372 -0.6653  0.2726 -0.0876
    9TMC1    C4  134   1.717   2.344  11.574  0.3218 -0.2080  0.3156
    9TMC1    C5  135   1.806   2.446  11.577  0.2504 -0.0140  0.4511
    9TMC1    C6  136   1.900   2.465  11.476  0.5757 -0.1576 -0.1186
    9TMC1     C  137   1.640   2.156  11.449 -0.6240  0.6819 -0.5736
    9TMC1     O  138   1.603   2.126  11.335  0.2229 -0.1447  0.1329
    9TMC1     H  139   1.792   2.226  11.260  1.0792  0.4106  0.2331
    9TMC1    H1  140   1.642   2.335  11.651  0.7256  0.6645  0.8131
    9TMC1    H2  141   1.967   2.550  11.489  1.7177 -1.2101  0.9497
    9TMC1    C7  142   1.769   2.559  11.657  0.2963  0.2394  0.1680
    9TMC1    C8  143   1.984   2.417  11.260 -0.1673  0.7051  0.3260
    9TMC1    O1  144   1.814   2.669  11.636 -0.7833  0.2035 -0.0876
    9TMC1    O2  145   2.042   2.522  11.261 -0.1627 -0.5836 -0.0568
    9TMC1    O3  146   1.753   2.504  11.784 -0.1429  0.0796 -0.0577
    9TMC1    H3  147   1.743   2.407  11.784 -2.3860  0.3179  0.1701
    9TMC1    O5  148   2.011   2.317  11.175 -0.1157 -0.1230  0.9358
    9TMC1    H5  149   1.972   2.233  11.208 -2.2330 -0.1508 -1.6165
   10MPD2     C  150   1.476   1.916  11.488  0.4389  0.6521 -0.1535
   10MPD2    C1  151   1.533   1.985  11.593 -0.5205  0.1075  0.4814
   10MPD2    C2  152   1.523   1.934  11.718  0.1451 -0.2033 -0.2360
   10MPD2    C3  153   1.453   1.819  11.745 -0.4449 -0.3261 -0.0423
   10MPD2    C4  154   1.376   1.761  11.640  0.2549  0.7122 -0.0169
   10MPD2    C5  155   1.385   1.818  11.512 -0.3903 -0.1367 -0.3909
   10MPD2     H  156   1.569   1.989  11.798  1.4973 -0.1185 -1.0766
   10MPD2    H1  157   1.295   1.692  11.656 -0.9880  2.0277 -0.5863
   10MPD2    H2  158   1.488   1.945  11.384 -3.3369 -1.8724 -1.2729
   10MPD2    H3  159   1.326   1.773  11.433 -1.5367 -0.7421  0.8045
   10MPD2     N  160   1.430   1.767  11.875  0.6249  0.1825 -0.3507
   10MPD2    H5  161   1.387   1.675  11.878 -0.2801  0.6495  1.0802
   10MPD2    N1  162   1.616   2.098  11.569  0.1649  0.1627  0.1838
   10MPD2    H7  163   1.644   2.151  11.651  2.3082  1.7919 -1.6118
   11TCq1    O1  164   2.422   2.445  13.969  0.8645  0.0305  0.3368
   11TCq1    C1  165   2.509   2.442  14.069  0.5886 -1.0273 -0.0327
   11TCq1    O2  166   2.594   2.526  14.088 -0.0655 -0.0927 -0.7515
   11TCq1    C2  167   2.520   2.295  14.101 -0.2502 -0.8570  0.3421
   11TCq1    C3  168   2.637   2.243  14.059  0.4954 -0.0114  1.0926
   11TCq1    C4  169   2.647   2.103  14.039  0.1972 -0.2065 -0.5332
   11TCq1    C5  170   2.529   2.024  14.051  0.0222  0.1586 -0.3321
   11TCq1    C6  171   2.410   2.085  14.079 -0.1126 -0.4210  0.0494
   11TCq1    C7  172   2.406   2.221  14.096 -0.2319  0.4284 -0.2635
   11TCq1    C8  173   2.282   2.018  14.079  0.2873 -0.0308  0.5773
   11TCq1    O4  174   2.202   2.078  14.147  0.1425  0.1655  0.1523
   11TCq1    C9  175   2.768   2.044  13.995  0.1062 -0.0644  0.5666
   11TCq1    O5  176   2.870   2.118  13.996  0.2365 -0.1756  0.1895
   11TCq1    O6  177   2.769   1.919  14.003 -0.4980 -0.0898 -0.0910
   11TCq1    H1  178   2.370   2.361  13.967 -2.3766  2.0616 -1.3625
   11TCq1    H2  179   2.722   2.309  14.044 -1.7775  3.0380  1.6198
   11TCq1    H3  180   2.548   1.919  14.034  0.2388 -0.0978  1.4214
   11TCq1    H4  181   2.312   2.263  14.129  0.0448  0.0521  0.9926
   12MPD2     C  182   2.068   1.805  14.104 -0.5876 -0.1330 -0.4475
   12MPD2    C1  183   2.172   1.807  14.015 -0.8988  0.3306 -0.9373
   12MPD2    C2  184   2.178   1.707  13.924  0.4724  0.3651  0.1027
   12MPD2    C3  185   2.088   1.606  13.911  0.5294 -0.5440 -0.0378
   12MPD2    C4  186   1.966   1.616  13.983  1.0039  0.4669  0.3463
   12MPD2    C5  187   1.964   1.714  14.078 -0.2837 -0.5511  0.6145
   12MPD2     H  188   2.247   1.724  13.842 -1.7304 -0.0260 -1.8702
   12MPD2    H1  189   1.890   1.539  13.971 -0.8668  2.2977  0.5473
   12MPD2    H2  190   2.047   1.878  14.181 -0.0673  0.7970 -1.1884
   12MPD2    H3  191   1.873   1.724  14.136 -0.3847  0.2549  0.3178
   12MPD2     N  192   2.105   1.499  13.817  0.3923 -0.4331 -0.9261
   12MPD2    H5  193   2.022   1.445  13.795 -1.1213  1.8728 -0.9150
   12MPD2    N1  194   2.278   1.898  14.010 -1.0129  0.1133  0.0276
   12MPD2    H7  195   2.354   1.878  13.946 -1.4227 -0.4735 -0.2670
   13TCq1    O1  196   2.442   2.301  11.424 -0.0214 -0.2590  0.1345
   13TCq1    C1  197   2.316   2.244  11.412 -0.4035 -0.2943  0.1027
   13TCq1    O2  198   2.220   2.279  11.478 -0.9127 -0.0159  0.2600
   13TCq1    C2  199   2.309   2.132  11.324  0.0410 -0.5567 -0.0463
   13TCq1    C3  200   2.400   2.112  11.216  1.0917 -0.5351  0.5568
   13TCq1    C4  201   2.354   2.048  11.106  0.4764 -0.2551  0.4424
   13TCq1    C5  202   2.239   1.979  11.094 -0.3611 -0.4534 -0.0221
   13TCq1    C6  203   2.156   1.995  11.201 -0.3563 -0.3818 -0.8364
   13TCq1    C7  204   2.181   2.079  11.304 -0.2681 -0.1212 -0.0587
   13TCq1    C8  205   2.013   1.973  11.174 -0.1602 -0.0235 -0.6090
   13TCq1    O4  206   1.941   2.058  11.219  0.1038 -0.0808 -0.0690
   13TCq1    C9  207   2.440   2.035  10.991 -0.1902  1.2257 -0.4768
   13TCq1    O5  208   2.534   2.117  10.983  0.5425  0.3762  0.2328
   13TCq1    O6  209   2.405   1.963  10.897  0.3066 -0.2111  0.1973
   13TCq1    H1  210   2.508   2.243  11.380 -0.9142 -0.7640 -0.5442
   13TCq1    H2  211   2.506   2.138  11.214  0.8512  0.6050  2.0485
   13TCq1    H3  212   2.203   1.932  11.003  0.3480 -1.6995  0.3422
   13TCq1    H4  213   2.109   2.084  11.385  0.3040 -0.3076  0.4645
   14MPD2     C  214   1.831   1.712  10.984  0.2920 -0.1231  0.0613
   14MPD2    C1  215   1.844   1.821  11.065 -0.8387  0.2179  0.0164
   14MPD2    C2  216   1.730   1.892  11.097  0.1053 -0.4250 -0.0003
   14MPD2    C3  217   1.601   1.849  11.060  0.5775  0.9942  0.1059
   14MPD2    C4  218   1.591   1.738  10.982 -0.2251  0.3200  0.8269
   14MPD2    C5  219   1.703   1.674  10.950 -0.1821  0.0467  0.5427
   14MPD2     H  220   1.739   1.979  11.160  0.3014 -0.9453  0.6959
   14MPD2    H1  221   1.497   1.699  10.945  0.6511  0.5233 -1.6270
   14MPD2    H2  222   1.913   1.651  10.948 -0.8462 -0.8086 -1.3982
   14MPD2    H3  223   1.692   1.579  10.899  0.0566  0.2537  0.1062
   14MPD2     N  224   1.495   1.925  11.101  0.6259 -0.0780  0.0614
   14MPD2    H5  225   1.514   2.014  11.146  1.1308  0.2914 -0.8678
   14MPD2    N1  226   1.977   1.861  11.099  0.5160 -0.3699 -0.5279
   14MPD2    H7  227   2.051   1.801  11.066 -0.0092 -0.9257 -0.7078
   15TCq1    O1  228   3.528   0.275   1.758  0.0008 -0.5551 -0.4673
   15TCq1    C1  229   3.541   0.189   1.654  0.6049  0.1843  0.2722
   15TCq1    O2  230   3.592   0.076   1.658  0.7182  0.1412  0.2022
   15TCq1    C2  231   3.552   0.274   1.539 -0.1626  1.1252 -0.2238
   15TCq1    C3  232   3.445   0.347   1.492 -0.0478 -0.0156  0.5286
   15TCq1    C4  233   3.426   0.395   1.364 -0.6177  0.2285  0.2766
   15TCq1    C5  234   3.526   0.378   1.278  0.0124  0.1888 -0.0823
   15TCq1    C6  235   3.626   0.293   1.312  0.4097  0.2947 -0.8362
   15TCq1    C7  236   3.644   0.244   1.445 -1.0872 -0.5042  0.6127
   15TCq1    C8  237   3.704   0.224   1.212 -0.9049  0.4653  0.2047
   15TCq1    O4  238   3.817   0.185   1.237  0.4764 -0.5901  0.5976
   15TCq1    C9  239   3.303   0.450   1.312  0.1980  0.0500  0.1826
   15TCq1    O5  240   3.206   0.486   1.391  0.1178  0.1640  0.1213
   15TCq1    O6  241   3.291   0.467   1.191 -0.0782  0.1777 -0.5475
   15TCq1    H1  242   3.503   0.363   1.725 -1.5302 -0.8332 -0.0537
   15TCq1    H2  243   3.360   0.370   1.554 -1.1487  1.3365 -1.4884
   15TCq1    H3  244   3.511   0.415   1.177 -1.3028  0.6243  0.2672
   15TCq1    H4  245   3.735   0.190   1.468 -1.1156 -0.1812  1.4932
   16MPD2     C  246   3.614   0.172   0.866  0.0413  0.3294  0.1641
   16MPD2    C1  247   3.688   0.152   0.978  0.0456 -0.1063  0.5218
   16MPD2    C2  248   3.805   0.071   0.966  0.5678  0.3956 -0.0115
   16MPD2    C3  249   3.839   0.000   0.853 -0.3137 -0.8031  0.7666
   16MPD2    C4  250   3.755   0.016   0.742  0.1876 -0.4132  1.0316
   16MPD2    C5  251   3.653   0.112   0.742 -0.8372 -0.7374  0.5056
   16MPD2     H  252   3.865   0.054   1.055 -3.5527  0.3259  2.7867
   16MPD2    H1  253   3.773   4.711   0.645  2.3115 -0.0124  1.2253
   16MPD2    H2  254   3.516   0.217   0.860  0.0225  0.2677  0.0191
   16MPD2    H3  255   3.592   0.130   0.654 -0.7611 -0.3629  0.5261
   16MPD2     N  256   3.960   4.669   0.847  0.2957 -0.3929  0.5072
   16MPD2    H5  257   4.013   4.657   0.933  0.1273 -0.8851  0.5390
   16MPD2    N1  258   3.641   0.221   1.091  0.2823  0.2533 -0.0654
   16MPD2    H7  259   3.548   0.260   1.084  1.0032  1.7267 -1.1785
   17TMC1    C1  260   1.347   0.607   9.971 -0.0013 -0.7876  0.3575
   17TMC1    C2  261   1.377   0.587  10.100 -0.0144  0.6885  0.4062
   17TMC1    C3  262   1.294   0.507  10.180  0.2381 -0.4438 -0.0939
   17TMC1    C4  263   1.231   0.548   9.919  0.4342  0.3456 -0.5405
   17TMC1    C5  264   1.156   0.469   9.994 -1.0102 -0.1372  0.4389
   17TMC1    C6  265   1.182   0.447  10.125 -0.8597 -0.2830  0.5270
   17TMC1     C  266   1.418   0.703   9.894 -0.6672 -0.1082 -0.6870
   17TMC1     O  267   1.377   0.720   9.779 -0.2456 -0.0967 -0.4290
   17TMC1     H  268   1.462   0.643  10.140  0.8413  0.2258 -0.7749
   17TMC1    H1  269   1.199   0.569   9.818 -0.3046 -0.0885 -0.3947
   17TMC1    H2  270   1.116   0.385  10.183  0.5732 -2.2219  0.1060
   17TMC1    C7  271   1.032   0.415   9.950  0.0285 -0.1421  0.0342
   17TMC1    C8  272   1.311   0.487  10.320 -0.4772  0.1622  0.2802
   17TMC1    O1  273   0.929   0.420  10.016  0.4823 -0.1231  0.1506
   17TMC1    O2  274   1.229   0.412  10.377 -0.0749  0.4010  0.4570
   17TMC1    O3  275   1.045   0.396   9.812 -0.2082 -0.4907 -0.4274
   17TMC1    H3  276   1.136   0.393   9.774  0.5715  1.6681  1.2645
   17TMC1    O5  277   1.381   0.586  10.380  0.0637 -0.1031  0.4063
   17TMC1    H5  278   1.439   0.631  10.315 -0.7562 -0.3797 -0.5102
   18MPD2     C  279   1.591   0.933   9.802 -0.0594  0.3405  0.2682
   18MPD2    C1  280   1.624   0.853   9.904  0.1825  0.5869  0.3910
   18MPD2    C2  281   1.739   0.880   9.978 -0.6506 -0.3398 -0.1819
   18MPD2    C3  282   1.821   0.983   9.944 -0.4040 -0.3286 -0.1705
   18MPD2    C4  283   1.785   1.068   9.839 -0.8895 -0.1388  0.6758
   18MPD2    C5  284   1.672   1.036   9.764  0.9892  0.3865  0.1420
   18MPD2     H  285   1.763   0.827  10.069 -2.9312  1.2564  1.3529
   18MPD2    H1  286   1.848   1.151   9.808  0.3814 -0.8776  1.2411
   18MPD2    H2  287   1.504   0.924   9.738  0.9655 -1.9466 -0.8376
   18MPD2    H3  288   1.648   1.096   9.677  3.3372 -1.1266 -1.5427
   18MPD2     N  289   1.937   1.016  10.017 -0.8667 -0.4193  0.7171
   18MPD2    H5  290   1.997   1.084   9.971 -1.8469 -1.3571 -1.9296
   18MPD2    N1  291   1.538   0.751   9.946 -0.0568 -0.0807 -0.2952
   18MPD2    H7  292   1.564   0.721  10.039  2.6434  0.9364 -0.7195
   19TMC2    C1  293   3.327   1.937  14.181 -0.2958 -0.1940  0.2470
   19TMC2    C2  294   3.255   2.053  14.180  0.0180  0.6053  0.2415
   19TMC2    C3  295   3.119   2.051  14.182 -0.1963  0.2421  0.2067
   19TMC2    C4  296   3.268   1.815  14.169  0.3857 -0.3508  0.4212
   19TMC2    C5  297   3.132   1.816  14.155  0.0245 -0.8189  0.0188
   19TMC2    C6  298   3.053   1.930  14.164 -0.3608 -0.3916 -0.1108
   19TMC2     C  299   3.463   1.944  14.231  0.3422  0.4585 -0.4282
   19TMC2     O  300   3.509   2.058  14.242 -0.3130 -0.0948 -0.7692
   19TMC2     H  301   3.298   2.148  14.211  2.0665 -0.3978  0.5088
   19TMC2    H1  302   3.318   1.720  14.150 -0.4811 -0.2094 -2.5336
   19TMC2    H2  303   2.945   1.922  14.173 -0.2634 -1.7543 -0.2720
   19TMC2    C7  304   3.073   1.685  14.135  0.5731 -0.9658 -0.4406
   19TMC2    C8  305   3.061   2.154  14.265 -0.1198  0.0853 -0.5255
   19TMC2    O1  306   3.142   1.585  14.158  0.5031  0.3253 -0.2431
   19TMC2    O2  307   3.119   2.203  14.361 -0.5203 -0.2133  0.2111
   19TMC2    O5  308   2.929   2.158  14.239  0.4113 -0.2887 -0.0223
   19TMC2    H5  309   2.902   2.122  14.152 -0.1423 -0.3108  0.1577
   20MPD2     C  310   3.744   1.902  14.318 -0.1534  0.6553  0.6200
   20MPD2    C1  311   3.664   1.796  14.293  0.9038 -0.4154 -0.9600
   20MPD2    C2  312   3.708   1.670  14.324  0.1241 -0.7337  0.6959
   20MPD2    C3  313   3.835   1.655  14.373 -0.4797  0.0625 -0.2445
   20MPD2    C4  314   3.913   1.765  14.406  0.1619 -0.2640  0.8635
   20MPD2    C5  315   3.863   1.887  14.378  0.2538 -0.1563 -0.0246
   20MPD2     H  316   3.644   1.584  14.308  0.1640 -0.8724  1.3042
   20MPD2    H1  317   4.006   1.751  14.459  1.3093 -0.7251 -1.2528
   20MPD2    H2  318   3.714   2.004  14.300  1.6520  0.9306 -0.8297
   20MPD2    H3  319   3.930   1.971  14.397  0.4808 -0.4573  0.4915
   20MPD2     N  320   3.894   1.529  14.418  0.2902 -0.4662  0.2145
   20MPD2    H5  321   3.986   1.527  14.460  1.0862  2.8734 -1.3508
   20MPD2    N1  322   3.528   1.819  14.242 -0.8689 -0.1346  0.2987
   20MPD2    H7  323   3.474   1.734  14.228  1.7176 -1.9788  1.5143
   21TMC2    C1  324   0.840   1.803  14.841 -0.4738 -0.5456 -0.4599
   21TMC2    C2  325   0.821   1.673  14.886  0.0885  0.5393 -0.3252
   21TMC2    C3  326   0.698   1.647  14.942  0.0190 -0.2817  0.4182
   21TMC2    C4  327   0.754   1.911  14.849 -0.1790  0.3261 -0.0325
   21TMC2    C5  328   0.627   1.869  14.888  0.0573  0.4165  0.5142
   21TMC2    C6  329   0.596   1.742  14.941  0.5606 -0.4220  0.2429
   21TMC2     C  330   0.968   1.833  14.774 -0.1782  0.1906 -0.0999
   21TMC2     O  331   1.031   1.742  14.727 -0.0084 -0.1834 -0.6739
   21TMC2     H  332   0.895   1.597  14.862  1.4204  1.6407  0.3030
   21TMC2    H1  333   0.779   2.001  14.794  1.1715  1.8535  3.0958
   21TMC2    H2  334   0.501   1.725  14.990  1.1409 -0.5322  1.3209
   21TMC2    C7  335   0.538   1.973  14.942  0.2572 -0.1522 -0.5114
   21TMC2    C8  336   0.670   1.519  14.988 -0.5013  0.7128 -0.1896
   21TMC2    O1  337   0.473   1.939  15.042 -0.2486 -0.2057 -0.1246
   21TMC2    O2  338   0.552   1.480  15.000  0.5918  0.0621  0.5205
   21TMC2    O5  339   0.778   1.482  15.061  0.3467  0.3691  0.3090
   21TMC2    H5  340   0.855   1.543  15.065  2.5530 -2.5113  2.2605
   22MPD2     C  341   1.409   2.091  14.797 -0.0143  0.2164 -0.0592
   22MPD2    C1  342   1.379   1.960  14.794 -0.5184 -0.0836 -0.1442
   22MPD2    C2  343   1.255   1.915  14.782  0.2763  0.5619 -0.6725
   22MPD2    C3  344   1.157   2.005  14.785 -0.4169  0.3467  0.6484
   22MPD2    C4  345   1.184   2.142  14.808  0.4107  0.4104  0.7543
   22MPD2    C5  346   1.311   2.186  14.809 -0.3153 -0.3050  0.1385
   22MPD2     H  347   1.236   1.808  14.772 -0.6752  0.5973  0.8234
   22MPD2    H1  348   1.102   2.212  14.815  0.0093  0.0809 -0.7357
   22MPD2    H2  349   1.511   2.130  14.801 -0.1632  0.5001  1.0095
   22MPD2    H3  350   1.340   2.290  14.815 -3.8140  0.8337 -2.4362
   22MPD2     N  351   1.016   1.963  14.794  0.0791  0.1368  0.6974
   22MPD2    H5  352   0.951   2.035  14.825  0.7615  0.5424  1.1874
   22MPD2    N1  353   1.484   1.858  14.801  0.3966  0.9819  0.0928
   22MPD2    H7  354   1.453   1.762  14.811  0.2550  1.0614  0.4030
   23TMC2    C1  355   2.488   2.886  14.754 -0.3441  0.1736  0.1197
   23TMC2    C2  356   2.453   3.007  14.692 -0.1056  0.0363 -0.0197
   23TMC2    C3  357   2.335   3.004  14.617 -0.3379  0.4957 -0.0761
   23TMC2    C4  358   2.423   2.775  14.732 -1.0031  0.2592  0.2170
   23TMC2    C5  359   2.309   2.775  14.656 -0.5072  0.2364  0.5248
   23TMC2    C6  360   2.269   2.890  14.588  0.3261 -0.2003  0.3273
   23TMC2     C  361   2.550   2.880  14.884  0.2093 -0.1446 -0.4280
   23TMC2     O  362   2.483   2.829  14.973  0.0227  0.5286  0.3170
   23TMC2     H  363   2.512   3.098  14.695 -0.0364  0.0389 -1.2569
   23TMC2    H1  364   2.442   2.687  14.792  0.1209 -0.0832 -0.6454
   23TMC2    H2  365   2.203   2.885  14.502 -2.0994 -0.0524  2.1635
   23TMC2    C7  366   2.200   2.689  14.695  0.7006 -0.2353  0.1790
   23TMC2    C8  367   2.322   3.110  14.521  0.2062 -0.8587 -0.0754
   23TMC2    O1  368   2.226   2.606  14.783  0.3781  0.9594  0.1681
   23TMC2    O2  369   2.415   3.176  14.481  0.0975 -0.2143  0.5821
   23TMC2    O5  370   2.191   3.137  14.500 -0.3065  0.3576 -0.0395
   23TMC2    H5  371   2.130   3.082  14.553 -0.9683 -0.2331 -1.4213
   24MPD2     C  372   2.895   3.078  15.225 -0.1826 -0.8953  0.3938
   24MPD2    C1  373   2.803   2.977  15.238  0.1581 -0.2492 -0.0046
   24MPD2    C2  374   2.715   2.946  15.132  0.3950  0.2361 -0.6658
   24MPD2    C3  375   2.726   3.007  15.007  0.1421  0.7656  0.6642
   24MPD2    C4  376   2.819   3.108  14.999 -0.4034 -0.0528 -0.1004
   24MPD2    C5  377   2.902   3.144  15.108  0.7538 -0.1776  0.2782
   24MPD2     H  378   2.646   2.864  15.148  2.4449 -1.2389  0.5631
   24MPD2    H1  379   2.830   3.167  14.908  0.8486  0.1269  0.1790
   24MPD2    H2  380   2.943   3.105  15.318 -0.8567 -2.8069  1.2971
   24MPD2    H3  381   2.977   3.220  15.095  1.1609 -0.7015 -0.4142
   24MPD2     N  382   2.646   2.974  14.897 -0.3050  0.5693 -0.0025
   24MPD2    H5  383   2.676   3.027  14.815  2.1984  0.9294  1.1114
   24MPD2    N1  384   2.790   2.904  15.361 -0.0127 -0.3349 -0.1709
   24MPD2    H7  385   2.719   2.832  15.368  0.1768 -0.5635 -0.6033
   25TMC2    C1  386   1.415   0.661  11.744  0.2403  0.3487 -0.1690
   25TMC2    C2  387   1.534   0.718  11.770  0.4427  0.1636  0.7778
   25TMC2    C3  388   1.562   0.770  11.889  0.0440 -0.0089 -0.2341
   25TMC2    C4  389   1.325   0.653  11.844 -0.1732 -0.1480 -0.4514
   25TMC2    C5  390   1.364   0.700  11.964  0.3531 -0.3813  0.3899
   25TMC2    C6  391   1.486   0.741  11.995 -0.0368  0.3275 -0.7475
   25TMC2     C  392   1.372   0.623  11.612 -0.1668  0.0538  0.7105
   25TMC2     O  393   1.255   0.580  11.606  0.1083 -0.1380  0.4642
   25TMC2     H  394   1.604   0.741  11.690  0.6442 -0.9130  0.6420
   25TMC2    H1  395   1.228   0.608  11.824 -0.6923 -0.0193  1.7178
   25TMC2    H2  396   1.504   0.782  12.094  2.3232  0.4905 -1.2367
   25TMC2    C7  397   1.269   0.700  12.080  0.3703 -0.0945 -0.6355
   25TMC2    C8  398   1.701   0.804  11.912  0.0315  0.2720  0.1194
   25TMC2    O1  399   1.306   0.687  12.194  0.1011 -0.2793  0.2491
   25TMC2    O2  400   1.793   0.770  11.837 -0.7683 -0.1521  0.5673
   25TMC2    O5  401   1.689   0.911  11.994  0.2623  0.6876 -0.7369
   25TMC2    H5  402   1.601   0.931  12.032  0.4812  0.6175 -0.1920
   26MPD2     C  403   1.429   0.520  11.108 -0.3208 -0.5406 -0.3336
   26MPD2    C1  404   1.325   0.493  11.194 -0.3397 -0.6472  0.0535
   26MPD2    C2  405   1.333   0.530  11.328 -0.5848  0.1000  0.5421
   26MPD2    C3  406   1.445   0.598  11.380 -0.1084 -0.2256  0.1662
   26MPD2    C4  407   1.544   0.627  11.290  0.0124 -0.0309 -0.1145
   26MPD2    C5  408   1.538   0.594  11.153  0.3979  0.5291  0.5532
   26MPD2     H  409   1.251   0.502  11.393  0.5655  1.8603  2.7416
   26MPD2    H1  410   1.629   0.693  11.309 -0.2046 -0.2650  1.6072
   26MPD2    H2  411   1.440   0.492  11.004  0.4232 -1.3743 -0.0250
   26MPD2    H3  412   1.622   0.619  11.089 -0.8079 -0.2375 -1.3512
   26MPD2     N  413   1.464   0.644  11.517  0.2124  0.3313  0.9882
   26MPD2    H5  414   1.551   0.693  11.536 -0.5575  1.4497  1.6626
   26MPD2    N1  415   1.221   0.419  11.134  0.2585 -0.5816  0.1458
   26MPD2    H7  416   1.236   0.393  11.037 -0.4167  0.3268 -0.2024
   27TMC2    C1  417   0.543   2.783  11.938  0.4877  0.0986  0.4062
   27TMC2    C2  418   0.513   2.891  11.857  1.2034  0.7280  0.0822
   27TMC2    C3  419   0.466   3.004  11.916  0.1132  0.0037  0.5171
   27TMC2    C4  420   0.524   2.796  12.072 -0.2455  0.4211  0.3258
   27TMC2    C5  421   0.488   2.917  12.124  0.3040 -0.0889  0.3082
   27TMC2    C6  422   0.448   3.022  12.046 -0.2811 -0.2743  0.1453
   27TMC2     C  423   0.475   2.666  11.883  0.3007 -0.4458 -0.3972
   27TMC2     O  424   0.478   2.640  11.765 -0.4601  0.2855 -0.4458
   27TMC2     H  425   0.511   2.877  11.750  1.1885  3.1065 -0.2390
   27TMC2    H1  426   0.552   2.720  12.144  0.4437  0.4075  0.0415
   27TMC2    H2  427   0.424   3.123  12.079  0.3809 -0.9872  2.7750
   27TMC2    C7  428   0.456   2.923  12.261  1.0335  0.0206  0.1638
   27TMC2    C8  429   0.429   3.100  11.818  0.5841 -0.0715 -0.7935
   27TMC2    O1  430   0.415   2.814  12.298 -0.4125  0.0976 -0.0496
   27TMC2    O2  431   0.494   3.100  11.715 -0.1992  0.2928  0.3737
   27TMC2    O5  432   0.303   3.155  11.838  0.1557 -0.5184  0.2273
   27TMC2    H5  433   0.265   3.118  11.920 -1.8953  2.4007  0.6040
   28MPD2     C  434   0.118   2.308  12.003  0.6173  0.8691  0.0553
   28MPD2    C1  435   0.131   2.406  12.097  0.2283  0.2250  1.0534
   28MPD2    C2  436   0.219   2.510  12.083  0.5614 -0.0420  0.7057
   28MPD2    C3  437   0.309   2.509  11.981  0.7017 -0.0888  0.5024
   28MPD2    C4  438   0.313   2.403  11.900  0.1005 -0.5778 -0.8175
   28MPD2    C5  439   0.220   2.304  11.909  0.4919 -0.0547 -0.0427
   28MPD2     H  440   0.221   2.600  12.143  0.1773  0.1546  0.4235
   28MPD2    H1  441   0.397   2.399  11.831  1.3732  2.7527  0.5110
   28MPD2    H2  442   0.042   2.232  12.019  2.3543 -1.0278 -0.6378
   28MPD2    H3  443   0.214   2.224  11.836 -0.2808  0.2598 -0.3258
   28MPD2     N  444   0.397   2.622  11.986  0.0558 -0.1549  0.1816
   28MPD2    H5  445   0.402   2.675  12.072  2.5579  1.4974 -0.9724
   28MPD2    N1  446   0.023   2.416  12.182 -0.4869  0.0890 -0.1923
   28MPD2    H7  447   4.699   2.336  12.183  0.3160 -0.5449 -0.6256
   29TMC2    C1  448   0.154   0.319  14.239  0.2255  0.0699 -0.2412
   29TMC2    C2  449   0.085   0.405  14.312 -0.0552  0.6084 -0.0874
   29TMC2    C3  450   0.125   0.528  14.328  0.4784 -0.5883  0.2104
   29TMC2    C4  451   0.268   0.353  14.174 -0.3980  0.6701  0.4268
   29TMC2    C5  452   0.309   0.482  14.196  0.7805  0.3195  0.0241
   29TMC2    C6  453   0.249   0.569  14.281  0.3161 -0.3096 -0.2967
   29TMC2     C  454   0.091   0.199  14.198 -0.3668 -0.5989  0.2034
   29TMC2     O  455   0.157   0.113  14.144  0.0344 -0.2045  0.1959
   29TMC2     H  456   4.739   0.375  14.372  1.4760 -1.5770  0.9651
   29TMC2    H1  457   0.326   0.284  14.114 -0.5105 -0.8484  2.0654
   29TMC2    H2  458   0.287   0.666  14.310 -0.2622 -0.4226  0.8497
   29TMC2    C7  459   0.443   0.511  14.141  0.0602 -1.1469 -0.2230
   29TMC2    C8  460   0.050   0.613  14.423 -0.1474  0.3404 -1.2794
   29TMC2    O1  461   0.506   0.425  14.083 -0.1477  0.1368  0.4805
   29TMC2    O2  462   4.700   0.561  14.493 -0.0937 -0.1941 -0.7759
   29TMC2    O5  463   0.040   0.736  14.369  0.3676  0.4076 -0.6446
   29TMC2    H5  464   0.116   0.752  14.309 -0.6007 -1.6040 -2.4316
   30MPD2     C  465   4.421   4.675  14.035 -0.2789 -0.1963 -0.0357
   30MPD2    C1  466   4.554   4.638  14.061 -0.1920  0.0693 -0.0914
   30MPD2    C2  467   4.645   4.727  14.114 -0.0918  0.0664 -0.4120
   30MPD2    C3  468   4.605   0.119  14.140 -0.3225  0.6664  0.1734
   30MPD2    C4  469   4.472   0.149  14.113  0.1739 -0.7618  0.1494
   30MPD2    C5  470   4.380   0.064  14.061 -0.3391  0.2962 -0.3879
   30MPD2     H  471   0.000   4.689  14.154  1.6225  3.6997 -1.0563
   30MPD2    H1  472   4.437   0.249  14.136 -1.9483 -1.2694 -0.8773
   30MPD2    H2  473   4.348   4.610  13.988  0.3936 -1.5482  0.8013
   30MPD2    H3  474   4.278   0.098  14.046  0.0426  0.3572 -2.9120
   30MPD2     N  475   4.690   0.216  14.192 -0.2045  0.2105 -0.6049
   30MPD2    H5  476   4.650   0.307  14.211  0.9283  0.6451 -0.2764
   30MPD2    N1  477   4.600   4.504  14.059  0.2113 -0.2698 -0.3858
   30MPD2    H7  478   4.696   4.482  14.083 -0.7285 -2.9848  0.8831
   31TMC2    C1  479   2.284   3.361  15.300  0.0174  0.5914 -0.5750
   31TMC2    C2  480   2.173   3.343  15.228 -0.1536  0.3593  0.1957
   31TMC2    C3  481   2.070   3.280  15.296 -0.0685  0.4714  0.5039
   31TMC2    C4  482   2.309   3.310  15.421 -0.5281  0.7193  0.0035
   31TMC2    C5  483   2.210   3.236  15.467 -0.3778 -0.2042  0.0536
   31TMC2    C6  484   2.092   3.213  15.411  0.0255 -0.3098  0.2772
   31TMC2     C  485   2.385   3.452  15.244 -0.0868 -0.8126  0.2394
   31TMC2     O  486   2.337   3.544  15.185  0.1424  0.3951 -0.0143
   31TMC2     H  487   2.164   3.389  15.131  1.2416  1.5496  0.6448
   31TMC2    H1  488   2.406   3.318  15.470 -0.7594  0.7780  0.4544
   31TMC2    H2  489   2.019   3.143  15.450  0.7969 -1.8708 -1.1140
   31TMC2    C7  490   2.223   3.204  15.611 -0.1240 -0.0583 -0.6053
   31TMC2    C8  491   1.941   3.254  15.229  0.2862  0.6942 -0.5711
   31TMC2    O1  492   2.332   3.172  15.654 -0.3895 -0.1490  0.0179
   31TMC2    O2  493   1.883   3.155  15.274  0.6273  0.0325 -0.1063
   31TMC2    O5  494   1.894   3.377  15.210  0.6243  0.3105 -0.1991
   31TMC2    H5  495   1.960   3.445  15.184  1.7484  0.9999  4.4292
   32MPD2     C  496   2.861   3.618  15.145  0.4697 -0.7853 -0.2106
   32MPD2    C1  497   2.737   3.677  15.118 -0.0945  0.5285  0.6047
   32MPD2    C2  498   2.627   3.608  15.156  0.3435 -0.1070 -0.2121
   32MPD2    C3  499   2.631   3.486  15.225  0.3594 -0.2798 -0.2838
   32MPD2    C4  500   2.756   3.439  15.257  0.2330 -0.2466  0.5062
   32MPD2    C5  501   2.870   3.499  15.212  0.7227 -0.2471 -0.1604
   32MPD2     H  502   2.530   3.654  15.142 -0.8001 -2.4757 -0.0089
   32MPD2    H1  503   2.767   3.346  15.311  0.0204 -0.4547  0.1925
   32MPD2    H2  504   2.955   3.665  15.121  0.2924 -0.1095  0.4165
   32MPD2    H3  505   2.971   3.463  15.226  0.7410  0.0459  0.4278
   32MPD2     N  506   2.511   3.422  15.275  0.1892 -0.3249 -0.1058
   32MPD2    H5  507   2.536   3.343  15.334  0.5663  1.0201  1.5147
   32MPD2    N1  508   2.733   3.800  15.049  0.4829  0.6512 -0.2916
   32MPD2    H7  509   2.818   3.848  15.021  1.2427 -0.6778 -0.2463
   33TMC2    C1  510   2.211   2.057  10.110  0.6222  0.3915  0.2043
   33TMC2    C2  511   2.089   2.104  10.153  0.3731  0.6987 -0.6369
   33TMC2    C3  512   2.047   2.231  10.125 -0.1945  0.1536  0.0011
   33TMC2    C4  513   2.296   2.142  10.039  0.1192 -0.0211 -0.2016
   33TMC2    C5  514   2.252   2.273  10.022  0.4017  0.0004 -0.1269
   33TMC2    C6  515   2.125   2.319  10.054 -0.1154  0.6591 -0.6948
   33TMC2     C  516   2.251   1.921  10.136 -0.5419 -0.0803 -0.4315
   33TMC2     O  517   2.154   1.843  10.137  0.2499  0.1271  0.0380
   33TMC2     H  518   2.025   2.046  10.219  1.0970 -0.9151 -1.3465
   33TMC2    H1  519   2.391   2.103  10.005 -0.0272  0.3351 -1.0217
   33TMC2    H2  520   2.109   2.426  10.051 -0.6189  0.5710 -1.0837
   33TMC2    C7  521   2.335   2.360   9.952 -0.3052  0.0555  0.2822
   33TMC2    C8  522   1.935   2.301  10.191  0.2213  0.3053 -0.5470
   33TMC2    O1  523   2.457   2.343   9.961 -0.4202  0.0705  0.1473
   33TMC2    O2  524   1.934   2.423  10.204 -0.0397 -0.0243 -0.9720
   33TMC2    O5  525   1.876   2.214  10.275 -0.6209  0.2153 -0.4484
   33TMC2    H5  526   1.874   2.121  10.242 -0.0921  0.3162 -0.7612
   34MPD2     C  527   2.538   1.532  10.306  0.7899  0.2464  0.4803
   34MPD2    C1  528   2.413   1.533  10.250 -1.3052 -0.7102  0.1089
   34MPD2    C2  529   2.370   1.651  10.191 -0.3914 -0.0796  0.7924
   34MPD2    C3  530   2.447   1.772  10.192 -0.3915  0.4142  0.8199
   34MPD2    C4  531   2.581   1.759  10.234 -0.2840 -0.1613  0.2206
   34MPD2    C5  532   2.622   1.639  10.294 -0.1125  0.0137  0.1181
   34MPD2     H  533   2.268   1.653  10.155  0.4468 -3.1292 -1.6949
   34MPD2    H1  534   2.653   1.839  10.243 -3.2730  2.5883 -0.4474
   34MPD2    H2  535   2.586   1.447  10.353 -2.2842 -2.0759 -0.5723
   34MPD2    H3  536   2.714   1.633  10.351  0.3999 -0.8811 -0.8115
   34MPD2     N  537   2.388   1.901  10.152  0.3237  0.7447  0.2684
   34MPD2    H5  538   2.449   1.981  10.138  1.0514  0.3603  1.2627
   34MPD2    N1  539   2.352   1.405  10.259  0.4927 -0.5897  0.6724
   34MPD2    H7  540   2.405   1.327  10.295 -0.0714 -0.1886  2.3806
   35TMC2    C1  541   3.899   2.530  10.938 -0.0051 -1.1559 -0.0625
   35TMC2    C2  542   3.839   2.561  10.821 -0.6964  0.4172  0.3794
   35TMC2    C3  543   3.703   2.572  10.818  0.3010 -0.2247  0.7345
   35TMC2    C4  544   3.820   2.493  11.048 -1.2077 -0.6257 -0.5023
   35TMC2    C5  545   3.683   2.493  11.038 -0.5880 -0.5658 -0.7399
   35TMC2    C6  546   3.623   2.536  10.919  0.4548  0.2077 -0.1619
   35TMC2     C  547   4.040   2.505  10.950 -0.8932 -0.0893  0.2143
   35TMC2     O  548   4.100   2.543  10.852  0.1946  0.5013 -0.2203
   35TMC2     H  549   3.897   2.583  10.733  0.6047  1.4869  1.5123
   35TMC2    H1  550   3.858   2.459  11.143 -1.9312  1.3958  0.5208
   35TMC2    H2  551   3.517   2.515  10.906  1.1106 -4.9594  2.6599
   35TMC2    C7  552   3.606   2.494  11.159 -0.4342 -0.1523  0.1593
   35TMC2    C8  553   3.636   2.578  10.692 -0.0595  0.3558  0.3090
   35TMC2    O1  554   3.653   2.454  11.268  0.4723  0.3131 -0.3243
   35TMC2    O2  555   3.690   2.544  10.589 -0.5919 -0.2322  0.5275
   35TMC2    O5  556   3.532   2.656  10.701 -0.0810  0.8387 -0.1398
   35TMC2    H5  557   3.514   2.696  10.789  0.0390  1.7681 -0.5407
   36MPD2     C  558   4.488   2.442  11.171  0.0598  0.1016  0.3497
   36MPD2    C1  559   4.396   2.418  11.272  0.1355  0.1530 -1.1248
   36MPD2    C2  560   4.259   2.408  11.225 -0.0312 -0.4047 -0.0958
   36MPD2    C3  561   4.222   2.441  11.102  0.4075  0.0727 -0.7831
   36MPD2    C4  562   4.320   2.462  11.006 -1.0997  0.6617  0.4586
   36MPD2    C5  563   4.446   2.449  11.041  0.2929 -0.1211  0.6795
   36MPD2     H  564   4.181   2.402  11.299 -1.0365  0.4341 -1.0947
   36MPD2    H1  565   4.298   2.472  10.900 -1.4957  0.7576  0.5471
   36MPD2    H2  566   4.594   2.450  11.195  0.1391 -0.4864  0.2060
   36MPD2    H3  567   4.523   2.461  10.966 -1.8834  1.1997 -1.3560
   36MPD2     N  568   4.087   2.454  11.065 -0.5705  0.4147  0.2663
   36MPD2    H5  569   4.022   2.425  11.138 -1.9695  1.0234 -0.7294
   36MPD2    N1  570   4.426   2.419  11.416 -0.4716  0.2325 -0.0420
   36MPD2    H7  571   4.522   2.444  11.436  0.4123 -3.3941  0.2415
   37TMC2    C1  572   1.257   3.186  11.514  0.2375 -0.2449  0.0342
   37TMC2    C2  573   1.239   3.278  11.411  0.0487 -0.2090  0.0232
   37TMC2    C3  574   1.332   3.265  11.313  0.5213  0.5692  0.2220
   37TMC2    C4  575   1.372   3.107  11.535 -0.2786  0.4115 -0.8469
   37TMC2    C5  576   1.454   3.090  11.433  0.2119  0.7510 -0.0063
   37TMC2    C6  577   1.431   3.167  11.316  0.4281 -0.0736  0.8927
   37TMC2     C  578   1.158   3.190  11.622  0.4839  0.2149 -0.0311
   37TMC2     O  579   1.060   3.263  11.616  0.9064 -0.2085  0.2195
   37TMC2     H  580   1.162   3.354  11.413  0.5785  0.3807 -2.7300
   37TMC2    H1  581   1.405   3.065  11.629 -2.4374  0.3392 -0.1110
   37TMC2    H2  582   1.497   3.150  11.232  0.9338  2.7272  0.7332
   37TMC2    C7  583   1.581   3.020  11.456 -0.5160  0.2045  0.5242
   37TMC2    C8  584   1.313   3.332  11.184  0.6236  0.9442 -0.4921
   37TMC2    O1  585   1.592   2.951  11.560  0.1305  0.1515 -0.1620
   37TMC2    O2  586   1.401   3.385  11.114  0.3367 -0.4188 -0.1765
   37TMC2    O5  587   1.190   3.368  11.184 -0.4123 -0.1274 -0.3371
   37TMC2    H5  588   1.140   3.291  11.217 -0.2525  0.0734  0.3819
   38MPD2     C  589   1.018   3.046  12.100  0.9611 -0.0954 -0.2135
   38MPD2    C1  590   1.122   2.964  12.056 -0.5436 -0.9416  0.1835
   38MPD2    C2  591   1.176   2.981  11.929  0.2197 -0.4680  0.0593
   38MPD2    C3  592   1.141   3.084  11.846 -0.8416  0.1509  0.3618
   38MPD2    C4  593   1.051   3.173  11.897 -0.5276  0.0394 -0.8781
   38MPD2    C5  594   0.990   3.150  12.019 -0.2187  0.3393  0.2265
   38MPD2     H  595   1.247   2.909  11.891  2.0283  0.4656  1.6547
   38MPD2    H1  596   1.017   3.266  11.853  2.1204  0.8524 -1.2585
   38MPD2    H2  597   0.964   3.032  12.193 -2.2049 -2.4056 -2.4149
   38MPD2    H3  598   0.915   3.219  12.056  0.4279  1.6580 -0.9564
   38MPD2     N  599   1.194   3.097  11.720  0.2260  0.6853 -0.6002
   38MPD2    H5  600   1.264   3.026  11.699 -0.5039 -0.5634  1.2161
   38MPD2    N1  601   1.149   2.836  12.119 -0.2688  0.0471 -0.3467
   38MPD2    H7  602   1.204   2.771  12.065  0.3306 -0.8376  1.3550
   39TMC2    C1  603   4.328   4.424   1.501  0.0141 -0.0946 -0.5866
   39TMC2    C2  604   4.431   4.351   1.562  0.0618 -0.4296  0.5021
   39TMC2    C3  605   4.512   4.409   1.659 -0.1963  0.1325  0.3289
   39TMC2    C4  606   4.295   4.542   1.555  0.8255  0.0829 -0.5702
   39TMC2    C5  607   4.376   4.600   1.649 -0.1700 -0.7740  0.5058
   39TMC2    C6  608   4.485   4.534   1.703 -0.2988 -0.4875  0.0136
   39TMC2     C  609   4.260   4.376   1.377  0.4592  0.3520  0.1542
   39TMC2     O  610   4.154   4.434   1.360 -0.0498  0.5690  0.1525
   39TMC2     H  611   4.462   4.251   1.534 -2.5623 -1.0785 -0.0294
   39TMC2    H1  612   4.204   4.593   1.526 -0.4040 -2.1924 -0.7463
   39TMC2    H2  613   4.534   4.582   1.787 -2.1495 -1.5076  1.6757
   39TMC2    C7  614   4.348   0.000   1.697  0.2478  0.5168  0.1997
   39TMC2    C8  615   4.619   4.331   1.704  0.4749  0.6751 -0.2625
   39TMC2    O1  616   4.237   0.047   1.675 -0.5264  0.0563  0.0100
   39TMC2    O2  617   4.632   4.211   1.685 -0.3232  0.0504  0.5761
   39TMC2    O5  618   4.713   4.415   1.756 -0.0473 -0.3343 -0.2024
   39TMC2    H5  619   4.687   4.509   1.747 -0.1157 -0.4371 -1.0606
   40MPD2     C  620   4.358   4.106   1.137  0.0209  0.3755  0.5204
   40MPD2    C1  621   4.282   4.215   1.189  0.6707 -0.0747 -0.0215
   40MPD2    C2  622   4.154   4.240   1.133 -0.8401 -0.0725 -0.5212
   40MPD2    C3  623   4.114   4.178   1.018 -0.6206 -0.3058 -0.4036
   40MPD2    C4  624   4.196   4.089   0.956 -0.4307 -1.0860 -0.4128
   40MPD2    C5  625   4.310   4.042   1.024  0.6671 -0.1763 -0.2196
   40MPD2     H  626   4.089   4.310   1.183 -1.8316 -1.5107  0.2046
   40MPD2    H1  627   4.165   4.029   0.870  0.1106 -0.8519 -0.7712
   40MPD2    H2  628   4.457   4.081   1.172  0.7703  1.1096 -1.0679
   40MPD2    H3  629   4.378   3.974   0.973  0.7647  0.6322 -1.1673
   40MPD2     N  630   3.991   4.210   0.952 -0.0176  0.7637 -0.3195
   40MPD2    H5  631   3.980   4.161   0.864 -1.1096  1.6235 -0.6711
   40MPD2    N1  632   4.328   4.278   1.311  0.2736  0.1156  0.0047
   40MPD2    H7  633   4.415   4.244   1.350  0.5323  1.3790  0.5167
   41TMC2    C1  634   3.505   2.912  13.435 -0.4672 -0.1645  0.0246
   41TMC2    C2  635   3.603   2.997  13.480 -0.3822 -0.9313  0.1650
   41TMC2    C3  636   3.654   3.082  13.392  0.7199 -0.9650  0.0542
   41TMC2    C4  637   3.466   2.904  13.310  0.3476 -0.6423  0.1908
   41TMC2    C5  638   3.525   2.992  13.224  0.2892  0.3588  0.0490
   41TMC2    C6  639   3.618   3.081  13.265 -0.8075  0.1802  0.6557
   41TMC2     C  640   3.494   2.784  13.510 -0.2964 -0.4399  0.5937
   41TMC2     O  641   3.453   2.683  13.454  0.2688  0.2238 -0.7511
   41TMC2     H  642   3.662   2.985  13.571  2.2465 -0.6968 -1.4975
   41TMC2    H1  643   3.396   2.828  13.276 -1.1246  0.6862  0.2528
   41TMC2    H2  644   3.681   3.123  13.187 -1.1288  0.2237  0.4226
   41TMC2    C7  645   3.496   2.988  13.078 -0.1367  0.4734 -0.4786
   41TMC2    C8  646   3.785   3.134  13.430  0.0734 -0.6024 -0.3374
   41TMC2    O1  647   3.518   3.092  13.017 -0.6309 -0.0078  0.1465
   41TMC2    O2  648   3.850   3.073  13.515  0.4079  0.3271 -0.7560
   41TMC2    O5  649   3.845   3.226  13.346  0.2218 -0.4020  0.7077
   41TMC2    H5  650   3.784   3.250  13.274 -0.6547  0.3398  1.7001
   42MPD2     C  651   3.503   2.572  13.717  0.3906 -0.3044  0.2068
   42MPD2    C1  652   3.487   2.704  13.746  0.4061  0.8609  0.0821
   42MPD2    C2  653   3.487   2.749  13.878 -0.0020  0.2227  0.1301
   42MPD2    C3  654   3.499   2.660  13.978  0.0570 -0.0852  0.0843
   42MPD2    C4  655   3.509   2.525  13.949  0.6868  0.6054 -0.0409
   42MPD2    C5  656   3.519   2.489  13.821  0.3236 -0.1281 -0.4748
   42MPD2     H  657   3.480   2.856  13.891  2.7216  0.3701  0.3977
   42MPD2    H1  658   3.532   2.453  14.026  1.6378  0.7324 -0.2079
   42MPD2    H2  659   3.523   2.532  13.618 -1.2136 -0.9852  0.1705
   42MPD2    H3  660   3.540   2.385  13.797  1.7081  0.0410  0.0419
   42MPD2     N  661   3.489   2.692  14.119 -0.0525 -0.2017  0.3438
   42MPD2    H5  662   3.480   2.613  14.182 -2.3374  1.8665  2.5646
   42MPD2    N1  663   3.493   2.805  13.645 -0.0628  0.2919 -0.7621
   42MPD2    H7  664   3.489   2.903  13.672 -2.4214 -0.1097  0.3653
   43TMC2    C1  665   4.686   0.473   0.240  0.3911 -0.1989 -0.1995
   43TMC2    C2  666   4.603   0.492   0.129  0.1969 -0.3521 -0.3928
   43TMC2    C3  667   4.554   0.616   0.112 -0.0153 -0.0484  0.3634
   43TMC2    C4  668   4.709   0.575   0.339  0.5681  0.5102  0.2290
   43TMC2    C5  669   4.650   0.698   0.311 -0.5045 -0.2855 -0.5183
   43TMC2    C6  670   4.576   0.722   0.197 -0.1629  0.0620 -0.4959
   43TMC2     C  671   0.006   0.345   0.265 -0.7320  0.3287 -0.3715
   43TMC2     O  672   0.099   0.350   0.347  0.2204  0.8841 -0.1889
   43TMC2     H  673   4.587   0.408   0.063 -1.4530 -1.1825  1.0613
   43TMC2    H1  674   0.029   0.566   0.430  1.3548 -0.8729 -0.4144
   43TMC2    H2  675   4.528   0.818   0.184 -2.3106 -1.0732 -0.9258
   43TMC2    C7  676   4.640   0.804   0.408  0.0737  0.5196 -0.4818
   43TMC2    C8  677   4.487   0.643  17.741  1.1854  0.1703 -0.0265
   43TMC2    O1  678   4.599   0.915   0.369 -0.2679  0.4773 -0.2601
   43TMC2    O2  679   4.411   0.738  17.735  0.1994  0.0160 -0.0663
   43TMC2    O5  680   4.571   0.606  17.641  0.9036 -0.0113  0.1678
   43TMC2    H5  681   4.642   0.549  17.676 -2.1244 -3.3459  0.9226
   44MPD2     C  682   0.014   4.575   0.237  0.5249 -0.3074 -0.6530
   44MPD2    C1  683   0.096   4.658   0.303 -0.3317 -0.3940  0.0622
   44MPD2    C2  684   0.068   0.054   0.297  0.2517 -0.7408 -0.0936
   44MPD2    C3  685   4.702   0.101   0.222 -0.4484 -1.0586 -0.2632
   44MPD2    C4  686   4.619   0.015   0.154 -0.2805  0.2997 -0.7337
   44MPD2    C5  687   4.648   4.617   0.167  0.3874 -0.0623  0.3318
   44MPD2     H  688   0.137   0.119   0.349 -0.2707 -0.0071 -0.3176
   44MPD2    H1  689   4.538   0.051   0.093 -1.6605 -1.6152 -0.0389
   44MPD2    H2  690   0.027   4.467   0.237 -0.6931 -0.4463  1.6666
   44MPD2    H3  691   4.584   4.547   0.113 -0.6808  1.1756  0.0108
   44MPD2     N  692   4.675   0.238   0.206 -0.3330  0.1256  0.3721
   44MPD2    H5  693   4.599   0.259   0.142  0.1386  0.7416  0.0127
   44MPD2    N1  694   0.208   4.614   0.383 -0.1498 -0.2793  0.1951
   44MPD2    H7  695   0.280   4.681   0.405  0.0251  0.0807 -1.4897
   45TMC2    C1  696   4.476   3.959   9.657 -0.2738 -0.2897  0.2269
   45TMC2    C2  697   4.398   4.067   9.684 -0.5621  0.0002 -0.3815
   45TMC2    C3  698   4.440   4.154   9.783  0.1658 -0.7771  0.2309
   45TMC2    C4  699   4.608   3.965   9.684 -0.7412 -0.2694 -0.0665
   45TMC2    C5  700   4.654   4.072   9.759  0.5992  0.1684 -0.0611
   45TMC2    C6  701   4.570   4.158   9.827 -0.0044  0.2939  0.0875
   45TMC2     C  702   4.422   3.845   9.579 -0.2600 -0.6265 -0.6459
   45TMC2     O  703   4.335   3.873   9.498  0.0200 -0.6783 -0.1047
   45TMC2     H  704   4.298   4.078   9.645  0.0947 -0.3274 -2.1892
   45TMC2    H1  705   4.667   3.884   9.644 -1.4578 -0.3151 -1.0221
   45TMC2    H2  706   4.603   4.240   9.889 -1.6947  0.9762  0.0832
   45TMC2    C7  707   0.053   4.113   9.759  0.1926 -0.1331 -0.1186
   45TMC2    C8  708   4.357   4.272   9.821  0.4706  0.1247  0.7632
   45TMC2    O1  709   0.091   4.197   9.840  0.0588 -0.1314  0.1257
   45TMC2    O2  710   4.288   4.324   9.737 -0.4777  0.1015  0.2396
   45TMC2    O5  711   4.323   4.253   9.949 -0.3738 -0.6255 -0.0058
   45TMC2    H5  712   4.372   4.176   9.985 -0.8727 -1.7064 -1.6451
   46MPD2     C  713   4.383   3.575   9.461  0.3251  0.1127 -0.6107
   46MPD2    C1  714   4.445   3.596   9.586 -0.9206  0.4125  0.6837
   46MPD2    C2  715   4.513   3.492   9.649  0.2283  0.4543  0.1650
   46MPD2    C3  716   4.499   3.366   9.600 -0.2721 -0.2230  0.4706
   46MPD2    C4  717   4.422   3.344   9.488 -0.4997  0.1193  0.6862
   46MPD2    C5  718   4.361   3.447   9.420  0.5263 -0.4480 -0.0932
   46MPD2     H  719   4.577   3.517   9.733  0.8517  0.3311 -0.2704
   46MPD2    H1  720   4.410   3.249   9.439  0.5325  0.2669  0.1424
   46MPD2    H2  721   4.342   3.654   9.399 -0.8585 -1.0673 -1.3295
   46MPD2    H3  722   4.303   3.421   9.333  0.5237 -0.3820 -0.1111
   46MPD2     N  723   4.550   3.255   9.670 -0.3055  0.0216 -0.6888
   46MPD2    H5  724   4.630   3.276   9.728 -2.0461  0.3557  1.6032
   46MPD2    N1  725   4.465   3.725   9.640  0.1333 -0.1453  0.2659
   46MPD2    H7  726   4.528   3.726   9.720 -1.0898 -1.5297  1.2455
   47TMC2    C1  727   2.929   4.267   9.525 -0.4056  0.1993  0.5249
   47TMC2    C2  728   2.887   4.135   9.558  0.3626  0.2498 -0.2931
   47TMC2    C3  729   2.776   4.128   9.637  0.5109 -0.4710  0.3864
   47TMC2    C4  730   2.860   4.383   9.558  0.1358  0.7701  0.2697
   47TMC2    C5  731   2.751   4.363   9.646 -0.8245 -0.2165 -0.1102
   47TMC2    C6  732   2.707   4.239   9.669  0.1598 -0.1225 -0.9065
   47TMC2     C  733   3.055   4.287   9.455  0.3527 -0.2266 -0.7908
   47TMC2     O  734   3.064   4.385   9.386 -0.0560  0.1207  0.4195
   47TMC2     H  735   2.936   4.049   9.514  2.2733  0.3477  1.6486
   47TMC2    H1  736   2.894   4.483   9.534 -1.9757  1.6547  0.9270
   47TMC2    H2  737   2.622   4.217   9.733 -1.0468  1.7011 -1.9097
   47TMC2    C7  738   2.699   4.476   9.725  0.6828 -0.0995  0.3019
   47TMC2    C8  739   2.725   4.000   9.675  0.1758  0.2342 -0.0924
   47TMC2    O1  740   2.674   4.453   9.841  0.7930  0.1371  0.5685
   47TMC2    O2  741   2.632   3.997   9.754  0.4713  0.1826 -0.0411
   47TMC2    O5  742   2.827   3.917   9.687 -0.3321  1.2003  0.5034
   47TMC2    H5  743   2.906   3.961   9.647 -0.5926  1.5443  0.3651
   48MPD2     C  744   3.316   4.246   9.326 -1.0752 -0.1848 -0.9393
   48MPD2    C1  745   3.254   4.153   9.406  0.1307 -0.1381  0.0998
   48MPD2    C2  746   3.319   4.036   9.433 -0.7278  0.4171  0.0553
   48MPD2    C3  747   3.437   4.002   9.371  0.1366  0.2382  0.2959
   48MPD2    C4  748   3.487   4.088   9.273 -0.3156  0.5478 -0.8258
   48MPD2    C5  749   3.432   4.217   9.258 -0.3778 -0.0191  0.2632
   48MPD2     H  750   3.273   3.958   9.492 -0.0169 -0.0354  0.0094
   48MPD2    H1  751   3.579   4.075   9.217  0.7662  0.2273  0.9994
   48MPD2    H2  752   3.284   4.350   9.324 -2.0444 -0.4448  0.7373
   48MPD2    H3  753   3.478   4.291   9.193 -0.9908  0.7073  0.6580
   48MPD2     N  754   3.493   3.877   9.400 -0.7563 -0.1175  0.3532
   48MPD2    H5  755   3.431   3.813   9.447 -0.7599  0.3227  0.9407
   48MPD2    N1  756   3.139   4.183   9.475  0.3413 -0.1920 -0.3280
   48MPD2    H7  757   3.108   4.115   9.543  1.0168 -0.8404 -0.6791
   49TMC2    C1  758   1.449   1.160  10.047 -0.4510  0.4130 -0.4248
   49TMC2    C2  759   1.504   1.119  10.165  0.3111  0.0561 -0.5311
   49TMC2    C3  760   1.619   1.180  10.205  0.1442  0.1572 -0.2786
   49TMC2    C4  761   1.499   1.262   9.975 -0.1995 -0.1885  0.1765
   49TMC2    C5  762   1.614   1.315  10.016 -0.6731  0.3537 -0.2235
   49TMC2    C6  763   1.680   1.269  10.122  0.7469 -0.0144  0.0198
   49TMC2     C  764   1.341   1.088   9.981 -0.6179 -0.0677 -0.1238
   49TMC2     O  765   1.290   1.146   9.885 -0.0943 -0.2537  0.3239
   49TMC2     H  766   1.460   1.045  10.231 -0.8334  0.3834 -0.9298
   49TMC2    H1  767   1.452   1.297   9.884 -0.1818  1.1776  0.7043
   49TMC2    H2  768   1.777   1.309  10.148  0.8847  1.6861 -3.0762
   49TMC2    C7  769   1.694   1.394   9.919 -0.0195 -0.5812  0.2440
   49TMC2    C8  770   1.691   1.103  10.306 -0.0967  0.0881 -0.5657
   49TMC2    O1  771   1.783   1.464   9.966 -0.0589 -0.4585 -0.0197
   49TMC2    O2  772   1.638   1.011  10.364  0.5624  0.0429  0.1411
   49TMC2    O5  773   1.776   1.199  10.348 -0.5957 -0.0386  0.3865
   49TMC2    H5  774   1.822   1.180  10.433 -0.8926  0.0953  0.5769
   50MPD2     C  775   1.104   0.911   9.910  0.0190  0.5431 -0.7685
   50MPD2    C1  776   1.170   0.910  10.027 -0.8925  0.3206 -0.1767
   50MPD2    C2  777   1.118   0.837  10.125  0.1651  0.5060  0.0937
   50MPD2    C3  778   0.999   0.768  10.108  0.2211  0.5443 -0.4931
   50MPD2    C4  779   0.945   0.752   9.983 -0.5210  0.0746  0.4057
   50MPD2    C5  780   0.998   0.832   9.886 -0.0945 -0.3554 -0.1766
   50MPD2     H  781   1.169   0.835  10.221  0.4012 -0.8225 -0.0590
   50MPD2    H1  782   0.856   0.694   9.967 -2.3035  2.5337  1.3908
   50MPD2    H2  783   1.156   0.949   9.822  0.4053  0.2996 -0.6480
   50MPD2    H3  784   0.952   0.838   9.788  0.2386 -0.9489 -0.3751
   50MPD2     N  785   0.937   0.702  10.219 -0.5033 -0.1680  0.1185
   50MPD2    H5  786   0.843   0.665  10.209 -1.1753  1.8429 -0.9030
   50MPD2    N1  787   1.281   0.989  10.057 -0.3370  0.0588  0.0169
   50MPD2    H7  788   1.324   0.980  10.149 -0.1939 -0.1992 -0.0744
   51TMC2    C1  789   1.144   0.862   1.003  0.4211 -0.5112 -0.2194
   51TMC2    C2  790   1.117   0.992   1.034  0.3111  0.0053 -0.3797
   51TMC2    C3  791   1.122   1.079   0.931 -0.4754  0.0521  0.0122
   51TMC2    C4  792   1.180   0.818   0.882 -0.5789  0.5201  0.3762
   51TMC2    C5  793   1.180   0.914   0.783 -0.2463  0.4345 -0.0440
   51TMC2    C6  794   1.164   1.044   0.802 -0.6176 -0.8884 -0.4096
   51TMC2     C  795   1.074   0.764   1.082 -0.6614  0.8870 -0.0130
   51TMC2     O  796   0.960   0.784   1.115  0.2710 -0.0164  0.3163
   51TMC2     H  797   1.071   1.021   1.127 -0.7699 -0.2410 -0.8356
   51TMC2    H1  798   1.185   0.713   0.855  2.7492  0.4337  1.3446
   51TMC2    H2  799   1.171   1.114   0.719  1.1953  1.1078  1.4272
   51TMC2    C7  800   1.197   0.870   0.650 -0.0497 -0.3986  0.2443
   51TMC2    C8  801   1.100   1.217   0.969 -0.2129  0.0753  0.4934
   51TMC2    O1  802   1.135   0.933   0.561  0.2798 -0.0727  0.7094
   51TMC2    O2  803   1.122   1.251   1.085 -0.3788 -0.2844  0.1385
   51TMC2    O5  804   1.123   1.294   0.860 -0.2018 -0.1945 -0.0453
   51TMC2    H5  805   1.086   1.272   0.772 -1.7527 -0.1737  0.6109
   52MPD2     C  806   0.935   0.288   1.220 -0.0037 -0.0278 -0.0867
   52MPD2    C1  807   1.069   0.292   1.215 -0.3167 -0.1374 -0.3714
   52MPD2    C2  808   1.137   0.402   1.157 -0.1184  0.0914  0.2274
   52MPD2    C3  809   1.067   0.521   1.131 -0.2379 -0.2625 -0.0357
   52MPD2    C4  810   0.923   0.513   1.143 -0.7676 -0.1763  0.3309
   52MPD2    C5  811   0.860   0.396   1.174 -0.5351 -0.6917  0.4019
   52MPD2     H  812   1.244   0.390   1.147  0.1711  2.4507  0.6803
   52MPD2    H1  813   0.868   0.589   1.090  0.0234  0.7591  0.8640
   52MPD2    H2  814   0.878   0.202   1.254  0.2067 -0.5380 -1.0194
   52MPD2    H3  815   0.751   0.394   1.168 -0.6442  0.6561  2.1112
   52MPD2     N  816   1.140   0.637   1.085  0.1951  0.3746  0.2194
   52MPD2    H5  817   1.234   0.616   1.054 -0.0665 -0.1044 -0.2623
   52MPD2    N1  818   1.151   0.187   1.263  0.0606 -0.1624  0.0214
   52MPD2    H7  819   1.246   0.182   1.229 -0.0650  1.9601 -0.6970
   53TMC2    C1  820   2.167   2.652  11.659 -0.3920  0.1664 -0.6999
   53TMC2    C2  821   2.259   2.553  11.670  0.4430 -0.0137 -0.3973
   53TMC2    C3  822   2.246   2.470  11.777  0.0202 -1.0041 -0.5102
   53TMC2    C4  823   2.079   2.678  11.766 -0.0126  0.4259 -0.1990
   53TMC2    C5  824   2.082   2.594  11.875  0.1747  0.4727 -0.0373
   53TMC2    C6  825   2.163   2.485  11.880  0.1906 -0.3427  0.0860
   53TMC2     C  826   2.155   2.727  11.538 -0.4456 -0.3734  0.4024
   53TMC2     O  827   2.254   2.723  11.463  0.6125 -0.0561  0.0551
   53TMC2     H  828   2.326   2.526  11.589  1.7407  1.1702  0.2650
   53TMC2    H1  829   2.018   2.768  11.765 -3.5795 -1.9792 -0.1233
   53TMC2    H2  830   2.161   2.417  11.965 -2.4509  0.5702  0.7733
   53TMC2    C7  831   1.988   2.623  11.983  0.0525 -0.7126  0.2488
   53TMC2    C8  832   2.352   2.369  11.794  0.1414  0.1556 -0.1267
   53TMC2    O1  833   1.938   2.732  11.979  0.3910 -0.0067  0.0051
   53TMC2    O2  834   2.331   2.272  11.869 -0.2396 -0.0766 -0.0841
   53TMC2    O5  835   2.468   2.425  11.751 -0.4165  0.4670  0.1449
   53TMC2    H5  836   2.472   2.518  11.719 -3.0410  0.8764  0.9532
   54MPD2     C  837   2.067   2.922  11.328 -0.1120  0.5270  0.0858
   54MPD2    C1  838   1.994   2.888  11.438 -0.4948 -0.8350 -0.2287
   54MPD2    C2  839   1.867   2.932  11.448  0.1648  0.0995 -0.1655
   54MPD2    C3  840   1.811   3.019  11.360  0.7123 -0.5714 -0.9257
   54MPD2    C4  841   1.884   3.057  11.252 -0.5585 -0.3236  0.1019
   54MPD2    C5  842   2.012   3.017  11.244  0.8438  0.3414  0.3279
   54MPD2     H  843   1.814   2.893  11.533  0.5487 -0.8756 -0.3705
   54MPD2    H1  844   1.849   3.133  11.184 -2.1127  0.0908  1.3594
   54MPD2    H2  845   2.170   2.894  11.309 -0.6469 -0.5435 -1.2446
   54MPD2    H3  846   2.069   3.060  11.162  1.3985 -0.5190  0.2699
   54MPD2     N  847   1.677   3.057  11.361 -0.0683  0.3230 -0.2685
   54MPD2    H5  848   1.651   3.116  11.282  1.6395  1.7070  0.2152
   54MPD2    N1  849   2.032   2.787  11.527  0.3707 -0.0677  0.2711
   54MPD2    H7  850   1.961   2.763  11.596 -1.8265  1.4488 -1.4608
   55TMC2    C1  851   2.743   0.964  17.674 -0.7205 -0.4461  0.3917
   55TMC2    C2  852   2.759   0.999  17.543  0.1219  0.2509 -0.8918
   55TMC2    C3  853   2.833   0.907  17.473 -0.4267  0.2125  1.2540
   55TMC2    C4  854   2.773   0.841  17.731 -0.9246 -0.4916  0.0264
   55TMC2    C5  855   2.850   0.757  17.650 -0.1024 -0.6286  0.3436
   55TMC2    C6  856   2.882   0.792  17.525 -0.2482 -0.1637 -0.0084
   55TMC2     C  857   2.692   1.069   0.016 -0.0731 -0.0366 -0.3976
   55TMC2     O  858   2.704   1.057   0.135 -0.1264 -0.1572  0.0541
   55TMC2     H  859   2.744   1.096  17.498 -1.5142  0.4785  0.1385
   55TMC2    H1  860   2.745   0.829   0.081  0.4827  0.4938  0.5313
   55TMC2    H2  861   2.948   0.735  17.461 -1.9264 -0.6693 -1.2716
   55TMC2    C7  862   2.876   0.617  17.693  0.3728  0.1116  0.4788
   55TMC2    C8  863   2.905   0.957  17.360 -0.0004 -0.0813  0.9904
   55TMC2    O1  864   2.967   0.556  17.637  0.1778 -0.4248  0.6775
   55TMC2    O2  865   3.028   0.957  17.362  0.1854  0.3999  0.3933
   55TMC2    O5  866   2.824   1.021  17.277  0.4951  0.2901 -0.8257
   55TMC2    H5  867   2.734   0.981  17.284 -0.4968  2.2338 -2.6473
   56MPD2     C  868   2.536   1.381  17.657  0.5325  0.5126 -0.1129
   56MPD2    C1  869   2.570   1.286  17.748  0.6342  0.1980 -0.2584
   56MPD2    C2  870   2.533   1.307   0.127  1.0995  0.5198  0.2614
   56MPD2    C3  871   2.457   1.420   0.164 -0.3612 -0.1107  0.1361
   56MPD2    C4  872   2.446   1.524   0.068  0.3016 -0.1857 -0.6739
   56MPD2    C5  873   2.482   1.495  17.694 -0.0505 -0.4989 -0.1409
   56MPD2     H  874   2.547   1.228   0.199  1.5009  0.6046  0.2743
   56MPD2    H1  875   2.396   1.620   0.080 -0.3579 -0.3456 -2.2150
   56MPD2    H2  876   2.559   1.367  17.552 -0.3362 -1.1645 -0.0735
   56MPD2    H3  877   2.467   1.571  17.618  0.9969  0.1945  0.3448
   56MPD2     N  878   2.397   1.432   0.293  0.1812 -0.8821 -0.1234
   56MPD2    H5  879   2.417   1.357   0.360  2.3627 -0.6400 -0.4794
   56MPD2    N1  880   2.630   1.171  17.699 -0.6450 -0.0652  0.2321
   56MPD2    H7  881   2.619   1.166  17.598 -1.4385  0.2056  0.3078
   57TMC2    C1  882   1.791   1.726  13.665  0.1225  0.4426  0.3585
   57TMC2    C2  883   1.725   1.644  13.583  0.0087  0.6102 -0.3465
   57TMC2    C3  884   1.787   1.585  13.477  0.1952  0.5504 -0.3844
   57TMC2    C4  885   1.923   1.742  13.660  0.0150  1.1557 -0.1327
   57TMC2    C5  886   1.985   1.682  13.557  0.0699 -0.3135 -0.2794
   57TMC2    C6  887   1.922   1.612  13.457  0.8783  0.1254  0.7249
   57TMC2     C  888   1.737   1.754  13.797  0.2315  0.8020 -0.6118
   57TMC2     O  889   1.727   1.872  13.830  0.5825  0.2501  0.3044
   57TMC2     H  890   1.620   1.628  13.602  0.5864 -2.4724  0.3199
   57TMC2    H1  891   1.980   1.786  13.740 -1.6203 -0.4224  1.8981
   57TMC2    H2  892   1.969   1.588  13.362 -0.5980 -1.1096  0.3016
   57TMC2    C7  893   2.126   1.719  13.546 -0.3558 -1.6212  0.4482
   57TMC2    C8  894   1.700   1.543  13.370  0.0705  0.2839  0.3407
   57TMC2    O1  895   2.167   1.808  13.619 -0.6105 -0.4469  0.5926
   57TMC2    O2  896   1.587   1.586  13.345 -0.1586  0.6527 -0.2195
   57TMC2    O5  897   1.773   1.462  13.300 -0.1716 -0.0649 -0.1824
   57TMC2    H5  898   1.845   1.422  13.353 -0.3337 -1.3978 -0.9519
   58MPD2     C  899   1.534   1.579  14.227 -0.3953  0.1901 -0.3532
   58MPD2    C1  900   1.551   1.715  14.182 -0.0300 -0.0349 -0.3657
   58MPD2    C2  901   1.607   1.735  14.055 -0.2686 -0.3085  0.0751
   58MPD2    C3  902   1.630   1.622  13.974  0.1460 -0.8001  0.7381
   58MPD2    C4  903   1.604   1.496  14.019  0.0288 -0.0760 -0.2522
   58MPD2    C5  904   1.564   1.474  14.147 -0.3032  1.0395  0.3016
   58MPD2     H  905   1.623   1.840  14.033 -0.8692 -0.3790 -0.6723
   58MPD2    H1  906   1.625   1.407  13.959  0.1471 -0.8235  0.8959
   58MPD2    H2  907   1.498   1.559  14.327 -0.3347 -1.8664 -0.7567
   58MPD2    H3  908   1.558   1.373  14.185 -0.6366  1.1681  0.5924
   58MPD2     N  909   1.692   1.636  13.850  0.0218 -0.3677 -0.5936
   58MPD2    H5  910   1.701   1.551  13.796  0.4616 -1.3559  1.0230
   58MPD2    N1  911   1.523   1.829  14.260 -0.1483  0.1709 -0.0496
   58MPD2    H7  912   1.544   1.925  14.233  0.8382  0.0635  0.3712
   59TMC2    C1  913   4.255   2.057  12.776 -0.7221 -0.0722 -0.5704
   59TMC2    C2  914   4.244   1.951  12.860  0.4182 -0.0484  1.3147
   59TMC2    C3  915   4.213   1.829  12.807 -0.1339 -0.4933  0.3498
   59TMC2    C4  916   4.236   2.043  12.644 -0.6916  0.1226 -0.5304
   59TMC2    C5  917   4.214   1.917  12.592  0.4558 -0.1136  0.1081
   59TMC2    C6  918   4.205   1.814  12.674  0.0162 -0.2605  0.0429
   59TMC2     C  919   4.274   2.189  12.825  0.3945 -0.3959 -0.2665
   59TMC2     O  920   4.275   2.280  12.739 -0.3218  0.2067 -0.6034
   59TMC2     H  921   4.233   1.978  12.964 -0.4313 -0.7670  1.4150
   59TMC2    H1  922   4.255   2.127  12.578  0.0964  1.2580  1.1350
   59TMC2    H2  923   4.178   1.716  12.639  0.2540  0.4062 -2.0119
   59TMC2    C7  924   4.176   1.891  12.459 -0.0934 -0.0229  0.0874
   59TMC2    C8  925   4.192   1.707  12.884 -0.0186  0.0933 -0.5184
   59TMC2    O1  926   4.111   1.793  12.433 -0.4509 -0.1014 -0.1212
   59TMC2    O2  927   4.105   1.633  12.849  0.5687 -0.8511 -0.8549
   59TMC2    O5  928   4.306   1.677  12.948 -0.5344 -0.5757 -0.5163
   59TMC2    H5  929   4.375   1.746  12.961  0.7368 -2.2610  1.5701
   60MPD2     C  930   4.371   2.445  12.951 -0.9040  0.2185  0.0986
   60MPD2    C1  931   4.382   2.319  13.008 -0.0681 -0.5234 -0.1416
   60MPD2    C2  932   4.457   2.299  13.127  0.2013 -0.2770 -0.3645
   60MPD2    C3  933   4.519   2.414  13.177  0.7549  0.2385  0.2226
   60MPD2    C4  934   4.509   2.537  13.119  0.3241  0.0609  0.0687
   60MPD2    C5  935   4.437   2.554  13.006  0.1707 -0.9823  0.3484
   60MPD2     H  936   4.456   2.208  13.185  0.1756  0.9044  1.4697
   60MPD2    H1  937   4.562   2.621  13.162 -0.9786  0.5712  0.6844
   60MPD2    H2  938   4.317   2.463  12.859 -0.3314  0.7220 -0.1401
   60MPD2    H3  939   4.436   2.648  12.952  1.4757 -1.8825 -1.2502
   60MPD2     N  940   4.600   2.408  13.296  0.5385  0.2965  0.3363
   60MPD2    H5  941   4.642   2.494  13.330  1.1579  1.5099 -3.5510
   60MPD2    N1  942   4.320   2.201  12.957  0.0346  0.8635 -0.5911
   60MPD2    H7  943   4.320   2.117  13.015 -3.0103 -0.0180 -1.8281
   61TMC2    C1  944   3.670   3.229  14.970  0.1563  0.5402  0.2546
   61TMC2    C2  945   3.640   3.142  15.072 -0.5383  0.3294 -0.4879
   61TMC2    C3  946   3.617   3.210  15.191 -0.5417 -0.3289 -0.3442
   61TMC2    C4  947   3.676   3.367  14.984 -0.0106  0.7185  0.2228
   61TMC2    C5  948   3.638   3.426  15.102  0.3766 -0.0504  0.6324
   61TMC2    C6  949   3.607   3.352  15.207 -0.1229 -0.6802 -0.0939
   61TMC2     C  950   3.677   3.171  14.835  0.4394  0.0779 -0.5737
   61TMC2     O  951   3.656   3.051  14.828  0.3709 -0.6340 -0.2213
   61TMC2     H  952   3.618   3.036  15.062  1.1134  0.0908 -1.4904
   61TMC2    H1  953   3.712   3.434  14.907  0.5522 -1.4105 -1.3716
   61TMC2    H2  954   3.589   3.402  15.302  1.0850 -0.1389 -0.1613
   61TMC2    C7  955   3.652   3.568  15.110 -0.1050  0.5044 -0.1132
   61TMC2    C8  956   3.578   3.131  15.310  0.5022 -0.1238  0.5040
   61TMC2    O1  957   3.750   3.611  15.058  0.3205  0.1293 -0.2327
   61TMC2    O2  958   3.512   3.192  15.393 -0.2010 -0.3151 -0.0559
   61TMC2    O5  959   3.638   3.012  15.312  0.2026 -0.3067 -0.0425
   61TMC2    H5  960   3.690   2.985  15.233  1.3481  1.3374  0.1616
   62MPD2     C  961   3.712   3.104  14.532 -0.3135 -0.2831 -0.0773
   62MPD2    C1  962   3.740   3.226  14.599  0.0399  0.3772  0.3398
   62MPD2    C2  963   3.774   3.331  14.515  0.7088  0.3195 -0.7786
   62MPD2    C3  964   3.789   3.315  14.376  0.1782  0.5087  0.1897
   62MPD2    C4  965   3.753   3.200  14.308 -0.4499  0.1289 -0.2690
   62MPD2    C5  966   3.722   3.092  14.392 -0.1479  1.1414 -0.0034
   62MPD2     H  967   3.775   3.430  14.557  0.4721  0.0422 -0.1268
   62MPD2    H1  968   3.757   3.190  14.200 -0.1108 -0.6118 -0.1922
   62MPD2    H2  969   3.689   3.014  14.587 -0.5821 -1.2337 -1.7219
   62MPD2    H3  970   3.694   3.000  14.341 -2.1542  1.0253  1.2772
   62MPD2     N  971   3.831   3.425  14.301  0.7191 -0.5819  0.1365
   62MPD2    H5  972   3.815   3.429  14.200 -1.2852 -0.1809  0.4642
   62MPD2    N1  973   3.722   3.256  14.739 -0.4105  0.4154  0.6750
   62MPD2    H7  974   3.737   3.352  14.771 -1.1052  0.5596  0.5767
   63TMC2    C1  975   3.645   3.247  10.821  0.3227 -0.3586  0.7941
   63TMC2    C2  976   3.675   3.258  10.958 -0.5073  0.6628  0.1669
   63TMC2    C3  977   3.749   3.369  10.992 -0.6951  0.1652  0.2704
   63TMC2    C4  978   3.683   3.346  10.737  0.7197 -0.3514  0.5426
   63TMC2    C5  979   3.767   3.452  10.776 -0.2661 -0.3827 -0.4144
   63TMC2    C6  980   3.790   3.467  10.909  0.3170 -0.4897 -0.4392
   63TMC2     C  981   3.517   3.191  10.799 -0.1020 -0.6052  0.1540
   63TMC2     O  982   3.498   3.156  10.683 -0.1555 -0.4385 -0.0749
   63TMC2     H  983   3.644   3.184  11.030 -1.0192  1.5499  0.8625
   63TMC2    H1  984   3.647   3.338  10.635  1.7907 -2.1146  0.3030
   63TMC2    H2  985   3.827   3.557  10.956  0.6479 -0.5706 -0.5374
   63TMC2    C7  986   3.776   3.557  10.686 -0.1460 -0.2722 -0.0162
   63TMC2    C8  987   3.728   3.416  11.128  0.9397 -0.5474  0.7835
   63TMC2    O1  988   3.728   3.551  10.573 -0.7119  0.3248  0.8309
   63TMC2    O2  989   3.747   3.531  11.161  0.3328 -0.3421  0.0820
   63TMC2    O5  990   3.743   3.302  11.204 -0.3006 -0.4839 -0.4520
   63TMC2    H5  991   3.754   3.221  11.151 -1.9606 -1.8945  1.3708
   64MPD2     C  992   3.040   3.059  10.905  0.3880  0.3545 -0.2555
   64MPD2    C1  993   3.122   3.029  10.799 -0.4473  0.1984  0.0224
   64MPD2    C2  994   3.246   3.066  10.806  0.9375  0.2053  0.8206
   64MPD2    C3  995   3.302   3.143  10.910 -0.2606  0.8202  0.5408
   64MPD2    C4  996   3.224   3.166  11.016  0.0462 -0.1554  0.2191
   64MPD2    C5  997   3.098   3.120  11.015 -0.0286 -0.2756  1.0609
   64MPD2     H  998   3.316   3.029  10.732 -0.7386  1.1111 -1.2159
   64MPD2    H1  999   3.260   3.214  11.106 -0.6871 -0.7210  0.8147
   64MPD2    H2 1000   2.932   3.052  10.912  0.4189  1.3452  1.2453
   64MPD2    H3 1001   3.032   3.162  11.090 -0.4606  1.2553 -0.1737
   64MPD2     N 1002   3.434   3.190  10.910  0.0700 -0.4964  0.1730
   64MPD2    H5 1003   3.464   3.219  11.002  1.4247 -0.3424 -0.3057
   64MPD2    N1 1004   3.084   2.948  10.692  0.1192  0.2838 -0.2836
   64MPD2    H7 1005   3.154   2.920  10.624 -1.0974  0.1953 -1.4879
   65TMC2    C1 1006   4.230   2.956  15.616 -0.4905  1.2201 -0.4757
   65TMC2    C2 1007   4.228   2.921  15.486 -0.3067 -0.1830  0.5302
   65TMC2    C3 1008   4.241   3.018  15.392 -0.0500  0.4438 -0.0332
   65TMC2    C4 1009   4.238   3.090  15.659  0.7998  0.8901  0.6403
   65TMC2    C5 1010   4.262   3.183  15.559 -0.7133  0.1083  0.3751
   65TMC2    C6 1011   4.258   3.154  15.423  0.5536  0.2449 -0.2081
   65TMC2     C 1012   4.197   2.864  15.719 -0.5378  0.6905  0.7163
   65TMC2     O 1013   4.184   2.910  15.831 -0.2717 -0.2825  0.1450
   65TMC2     H 1014   4.227   2.817  15.456 -1.6142 -0.0535  0.1005
   65TMC2    H1 1015   4.231   3.111  15.765  1.3186  0.0996  0.8328
   65TMC2    H2 1016   4.282   3.230  15.350 -1.9849  2.2004  0.9771
   65TMC2    C7 1017   4.260   3.320  15.590 -0.3837  0.2030 -0.2631
   65TMC2    C8 1018   4.270   2.977  15.253  0.0251  0.3716 -0.4565
   65TMC2    O1 1019   4.319   3.394  15.519 -0.2144  0.3417 -0.0752
   65TMC2    O2 1020   4.295   2.864  15.219 -0.3099  0.4059  0.1635
   65TMC2    O5 1021   4.283   3.089  15.182  0.1328 -0.6082 -0.2283
   65TMC2    H5 1022   4.230   3.153  15.234 -0.2948  0.3230 -1.7868
   66MPD2     C 1023   4.087   2.645  15.886 -0.2477 -0.2436 -0.2157
   66MPD2    C1 1024   4.130   2.624  15.760 -0.2236 -0.0052 -0.0759
   66MPD2    C2 1025   4.137   2.497  15.706  0.2625 -0.3435  0.2439
   66MPD2    C3 1026   4.079   2.389  15.776 -0.0202 -0.3715  0.7417
   66MPD2    C4 1027   4.041   2.413  15.911 -0.5169 -0.2948  0.0269
   66MPD2    C5 1028   4.051   2.537  15.962  0.6595  0.8069 -0.2549
   66MPD2     H 1029   4.169   2.478  15.604 -2.4321  2.2069 -1.0745
   66MPD2    H1 1030   4.007   2.331  15.974  2.2962 -2.2934 -1.0148
   66MPD2    H2 1031   4.090   2.738  15.942 -2.1243 -0.1048 -0.3656
   66MPD2    H3 1032   4.038   2.550  16.069 -4.5565 -1.0530 -0.6372
   66MPD2     N 1033   4.058   2.261  15.717  0.5224 -0.1064 -0.1052
   66MPD2    H5 1034   4.000   2.193  15.765 -0.0517 -0.0641 -0.7299
   66MPD2    N1 1035   4.180   2.734  15.681  0.1622  0.0366 -0.7979
   66MPD2    H7 1036   4.198   2.712  15.584  0.3391 -0.1520 -0.7241
   67TMC2    C1 1037   0.007   2.432  14.486  0.3220  0.7239 -0.7394
   67TMC2    C2 1038   4.718   2.558  14.446 -0.2862  0.0716 -0.8656
   67TMC2    C3 1039   4.696   2.649  14.542 -0.1852  0.6992  0.0438
   67TMC2    C4 1040   0.017   2.398  14.615 -0.2322  0.7402  0.5063
   67TMC2    C5 1041   4.730   2.493  14.709  0.0930 -0.3222 -0.2382
   67TMC2    C6 1042   4.688   2.615  14.673  0.3557  0.0976  0.3123
   67TMC2     C 1043   4.735   2.324  14.393 -0.0948  0.2598 -0.0461
   67TMC2     O 1044   0.083   2.235  14.404 -1.2940  0.4121  0.1634
   67TMC2     H 1045   4.731   2.576  14.340  0.2821 -2.1171 -1.1682
   67TMC2    H1 1046   0.039   2.294  14.634  1.9903  0.8974 -1.1966
   67TMC2    H2 1047   4.662   2.685  14.751 -2.1953 -1.4485  0.8450
   67TMC2    C7 1048   4.705   2.453  14.846  0.4360  0.0264  0.0024
   67TMC2    C8 1049   4.687   2.788  14.499 -0.1814 -0.9464  0.6378
   67TMC2    O1 1050   4.623   2.517  14.912 -0.1015 -0.9399 -0.0194
   67TMC2    O2 1051   4.704   2.811  14.380  0.7843  0.8987 -0.6127
   67TMC2    O5 1052   4.718   2.878  14.596 -0.1783  0.0376  0.4904
   67TMC2    H5 1053   4.693   2.839  14.682  0.5223 -1.7424 -0.1075
   68MPD2     C 1054   4.636   2.114  14.211  0.3279 -0.7102 -0.6136
   68MPD2    C1 1055   4.591   2.249  14.203 -0.5542 -0.3002  0.2467
   68MPD2    C2 1056   4.480   2.284  14.122 -0.7966 -0.2158 -0.8732
   68MPD2    C3 1057   4.418   2.184  14.050  0.1100  0.0031 -0.7945
   68MPD2    C4 1058   4.469   2.056  14.050  0.2335  0.1847 -0.2171
   68MPD2    C5 1059   4.569   2.019  14.135 -0.4621 -0.1207  0.1865
   68MPD2     H 1060   4.431   2.380  14.129  1.7586  1.0827 -0.6121
   68MPD2    H1 1061   4.429   1.981  13.983 -2.3901  2.0750 -0.7572
   68MPD2    H2 1062   4.722   2.082  14.268  0.7945  0.5636 -0.6021
   68MPD2    H3 1063   4.597   1.915  14.137  0.7828  0.1201 -4.1529
   68MPD2     N 1064   4.304   2.209  13.966  0.3484  0.1798 -0.5698
   68MPD2    H5 1065   4.264   2.131  13.914 -0.9469  1.2287 -1.1442
   68MPD2    N1 1066   4.642   2.349  14.292 -0.2035 -0.4510  0.3217
   68MPD2    H7 1067   4.592   2.437  14.294  0.2462 -0.1990  0.4741
   69TMC2    C1 1068   1.370   3.609  12.386  0.9577 -0.4623 -0.1507
   69TMC2    C2 1069   1.238   3.591  12.345 -0.4548 -0.0116 -0.5613
   69TMC2    C3 1070   1.215   3.626  12.212  0.6905 -0.3743  0.2330
   69TMC2    C4 1071   1.467   3.658  12.307  0.0852  0.6103 -0.6778
   69TMC2    C5 1072   1.430   3.697  12.179  0.3877  0.3705  1.3797
   69TMC2    C6 1073   1.303   3.687  12.132  0.5005  0.6876 -0.8767
   69TMC2     C 1074   1.404   3.500  12.469  1.0452  0.6384  0.4228
   69TMC2     O 1075   1.326   3.452  12.551  0.0789  0.2660  0.0634
   69TMC2     H 1076   1.169   3.532  12.404  0.5290 -1.3087 -0.7186
   69TMC2    H1 1077   1.569   3.677  12.341  0.4192 -0.0980 -1.2880
   69TMC2    H2 1078   1.282   3.720  12.031  1.2377 -0.6436 -1.4722
   69TMC2    C7 1079   1.535   3.667  12.087  0.2527  0.3043  0.6149
   69TMC2    C8 1080   1.078   3.626  12.163  0.2067  0.9523 -0.2024
   69TMC2    O1 1081   1.632   3.608  12.137 -0.3707  0.2609  0.3510
   69TMC2    O2 1082   0.977   3.633  12.231 -0.7896 -0.3539  0.4452
   69TMC2    O5 1083   1.087   3.556  12.048  0.2449  0.1450  0.1550
   69TMC2    H5 1084   1.174   3.536  12.008  0.5810 -0.3867  1.1520
   70MPD2     C 1085   1.703   3.310  12.354 -0.5206 -0.0806 -0.4612
   70MPD2    C1 1086   1.591   3.335  12.435 -0.2110  0.4160 -0.2803
   70MPD2    C2 1087   1.572   3.248  12.545  0.1893 -0.0464 -0.1035
   70MPD2    C3 1088   1.662   3.149  12.562  0.0386  0.5566  0.6775
   70MPD2    C4 1089   1.768   3.124  12.484 -0.2256 -0.2782  0.5391
   70MPD2    C5 1090   1.791   3.212  12.375 -0.5754 -0.1579 -0.1430
   70MPD2     H 1091   1.477   3.255  12.598 -1.1324 -0.3996 -2.4615
   70MPD2    H1 1092   1.826   3.032  12.489  0.6079  0.0082 -4.2938
   70MPD2    H2 1093   1.719   3.378  12.271 -0.1096 -2.5663 -2.4009
   70MPD2    H3 1094   1.879   3.199  12.313  0.4595 -1.3610  1.5835
   70MPD2     N 1095   1.636   3.050  12.665 -0.2411 -0.4083  0.8461
   70MPD2    H5 1096   1.693   2.967  12.653  1.6001  0.8980  0.4761
   70MPD2    N1 1097   1.516   3.447  12.410 -0.4070  0.6852  0.4557
   70MPD2    H7 1098   1.543   3.494  12.324 -2.8376 -0.6699 -1.0425
   71TMC2    C1 1099   3.992   3.895   1.231  0.0689  0.5864 -0.2289
   71TMC2    C2 1100   4.080   3.894   1.334  0.4525 -0.5206 -0.7166
   71TMC2    C3 1101   4.075   4.000   1.418  0.4981 -0.6566  0.0900
   71TMC2    C4 1102   3.897   3.994   1.209 -1.2196 -0.3896 -0.1461
   71TMC2    C5 1103   3.889   4.088   1.305 -0.6488 -0.0202  0.1313
   71TMC2    C6 1104   3.985   4.099   1.406  0.1458 -0.0610 -0.3790
   71TMC2     C 1105   4.010   3.801   1.121  0.2558  0.2055  0.3108
   71TMC2     O 1106   3.977   3.841   1.011  0.0903  0.0983 -0.2653
   71TMC2     H 1107   4.156   3.817   1.341 -1.0538 -1.9140  0.3070
   71TMC2    H1 1108   3.828   3.972   1.129 -0.3456 -2.8875 -0.1954
   71TMC2    H2 1109   3.982   4.179   1.479 -0.3625 -0.7893  0.4008
   71TMC2    C7 1110   3.759   4.150   1.325 -0.3814 -0.8083 -0.3841
   71TMC2    C8 1111   4.170   4.005   1.530  0.4160 -0.3618 -0.1181
   71TMC2    O1 1112   3.757   4.232   1.412 -0.1622  0.0837  0.2570
   71TMC2    O2 1113   4.279   3.957   1.519 -0.1291 -0.1593  0.7412
   71TMC2    O5 1114   4.111   4.049   1.645 -0.1627 -0.4014  0.4799
   71TMC2    H5 1115   4.014   4.032   1.638 -0.5180  1.1217  1.7599
   72MPD2     C 1116   4.156   3.364   0.902  0.2519 -1.3607 -0.8614
   72MPD2    C1 1117   4.133   3.488   0.848  0.2012  0.7468 -0.5043
   72MPD2    C2 1118   4.106   3.600   0.930 -0.0679  0.2497 -0.3158
   72MPD2    C3 1119   4.087   3.578   1.065  0.1701  0.2806 -0.6415
   72MPD2    C4 1120   4.115   3.454   1.120 -0.0103 -1.0393 -0.6463
   72MPD2    C5 1121   4.147   3.349   1.038  0.2632 -0.3795 -0.0592
   72MPD2     H 1122   4.083   3.691   0.876  0.7942  1.5708  1.5654
   72MPD2    H1 1123   4.103   3.444   1.227 -2.1237  2.9283 -0.4820
   72MPD2    H2 1124   4.188   3.279   0.842  0.9550 -1.1550 -0.7721
   72MPD2    H3 1125   4.172   3.254   1.083  0.4522 -0.1908  0.2327
   72MPD2     N 1126   4.053   3.680   1.161 -0.4018 -0.3978  0.7640
   72MPD2    H5 1127   4.028   3.661   1.257 -0.4091 -1.3119  0.5802
   72MPD2    N1 1128   4.121   3.515   0.717  0.7802  0.4454  0.0407
   72MPD2    H7 1129   4.112   3.615   0.697  0.8508  0.3690 -0.3743
   73TMC2    C1 1130   3.409   1.165  13.971  1.2942 -0.2238 -0.3180
   73TMC2    C2 1131   3.326   1.191  14.078  0.2499 -0.9104  0.5734
   73TMC2    C3 1132   3.360   1.126  14.194 -0.7608 -0.1865 -1.0311
   73TMC2    C4 1133   3.508   1.071  13.983 -0.2936  0.7973  0.2296
   73TMC2    C5 1134   3.539   1.013  14.111 -0.2586 -0.0625 -0.4876
   73TMC2    C6 1135   3.463   1.042  14.214  0.1145  0.2814 -0.1967
   73TMC2     C 1136   3.451   1.284  13.915  0.8023  0.4071  0.4991
   73TMC2     O 1137   3.572   1.285  13.893 -0.4645 -0.2067  0.3253
   73TMC2     H 1138   3.240   1.257  14.077  2.0554  1.3423 -2.3481
   73TMC2    H1 1139   3.579   1.045  13.905 -3.0369  0.8627 -2.2927
   73TMC2    H2 1140   3.477   1.000  14.313  1.2964  2.4532  0.5538
   73TMC2    C7 1141   3.676   1.013  14.147 -0.4311 -0.4645 -0.2014
   73TMC2    C8 1142   3.307   1.182  14.317 -0.2240  0.1453 -0.2685
   73TMC2    O1 1143   3.722   0.921  14.207 -0.0080  0.2838  0.0768
   73TMC2    O2 1144   3.226   1.117  14.387  0.1384  0.2017  0.3874
   73TMC2    O5 1145   3.304   1.314  14.300  0.7266 -0.4642 -0.0890
   73TMC2    H5 1146   3.362   1.343  14.226  0.0752  0.2688 -0.3040
   74MPD2     C 1147   3.442   1.785  13.864 -0.2590  0.6070  0.3304
   74MPD2    C1 1148   3.543   1.694  13.885  0.4955  0.2541 -0.4689
   74MPD2    C2 1149   3.519   1.562  13.898  0.3656  0.1771 -0.1623
   74MPD2    C3 1150   3.389   1.519  13.880 -0.1013 -0.6778 -0.2688
   74MPD2    C4 1151   3.283   1.604  13.856 -0.3729 -0.1631  0.5574
   74MPD2    C5 1152   3.313   1.737  13.847 -0.7615  0.1365 -0.1723
   74MPD2     H 1153   3.606   1.499  13.909  1.3055  1.9903  2.8839
   74MPD2    H1 1154   3.182   1.573  13.832 -1.1784  1.7208  1.5649
   74MPD2    H2 1155   3.468   1.889  13.849 -1.0738  0.7201 -0.3042
   74MPD2    H3 1156   3.240   1.810  13.813  1.6433  1.3893 -2.6820
   74MPD2     N 1157   3.358   1.385  13.890  0.1605 -0.3363  0.2901
   74MPD2    H5 1158   3.262   1.352  13.886  0.0768  0.1264 -1.4933
   74MPD2    N1 1159   3.676   1.746  13.899 -0.1270 -0.6007 -0.2631
   74MPD2    H7 1160   3.698   1.828  13.844  0.9527 -0.1442  0.8494
   75TMC2    C1 1161   4.113   2.308  13.864  0.4042 -0.3666 -0.4050
   75TMC2    C2 1162   4.034   2.202  13.899  0.6000  0.0011  0.6069
   75TMC2    C3 1163   3.907   2.186  13.852  1.0651  0.5575  1.0544
   75TMC2    C4 1164   4.060   2.412  13.791 -0.0325  0.0899  0.4105
   75TMC2    C5 1165   3.921   2.406  13.763 -0.2092  0.2935  0.9542
   75TMC2    C6 1166   3.843   2.292  13.793 -0.1538 -0.5167  0.5512
   75TMC2     C 1167   4.239   2.331  13.938 -0.0135 -0.0076  0.2547
   75TMC2     O 1168   4.251   2.444  13.983  0.7529  0.1936 -0.1774
   75TMC2     H 1169   4.082   2.119  13.949 -2.4475 -1.8484  0.4487
   75TMC2    H1 1170   4.130   2.490  13.764 -0.7252  0.1636 -1.1857
   75TMC2    H2 1171   3.738   2.280  13.769 -0.1008  0.1835 -0.0227
   75TMC2    C7 1172   3.863   2.467  13.644  0.0115  0.5160 -0.2467
   75TMC2    C8 1173   3.828   2.087  13.926 -0.8422 -0.2891 -0.2792
   75TMC2    O1 1174   3.780   2.394  13.586 -0.8155 -0.1375  0.0491
   75TMC2    O2 1175   3.716   2.059  13.880  0.2571 -0.6124  0.1201
   75TMC2    O5 1176   3.879   2.067  14.054 -0.4707 -0.2752 -0.0217
   75TMC2    H5 1177   3.958   2.117  14.085 -0.6855  1.6329 -2.5437
   76TMC2    C1 1178   2.071   2.731  12.393  0.3073  0.5771 -0.6824
   76TMC2    C2 1179   1.962   2.763  12.479 -0.0563 -0.1810  0.3196
   76TMC2    C3 1180   1.908   2.668  12.564 -0.5450 -0.1734 -0.3280
   76TMC2    C4 1181   2.118   2.599  12.390 -0.1495 -1.0108 -0.3144
   76TMC2    C5 1182   2.069   2.518  12.491  0.6260 -0.4177  0.2484
   76TMC2    C6 1183   1.968   2.550  12.576  0.0237 -0.2505 -0.8598
   76TMC2     C 1184   2.108   2.821  12.287 -0.0253 -0.0611  0.7610
   76TMC2     O 1185   2.029   2.904  12.251  0.0298 -0.1663 -0.1756
   76TMC2     H 1186   1.933   2.866  12.495  1.7775  0.3623  0.2285
   76TMC2    H1 1187   2.190   2.557  12.321  2.5521  1.2626  1.1304
   76TMC2    H2 1188   1.933   2.475  12.646  0.6149 -0.6067 -0.9413
   76TMC2    C7 1189   2.120   2.382  12.502 -0.3678 -1.0106  0.2666
   76TMC2    C8 1190   1.809   2.709  12.656  0.4377 -0.2064  0.1121
   76TMC2    O1 1191   2.053   2.297  12.556 -0.5066 -0.2114  0.2868
   76TMC2    O2 1192   1.737   2.805  12.628 -0.7424 -0.5092 -0.1924
   76TMC2    O5 1193   1.862   2.686  12.778 -0.2073  0.1341 -1.0240
   76TMC2    H5 1194   1.938   2.626  12.790  0.6622  1.0701 -1.9050
   77MPD2     C 1195   2.405   2.919  11.882 -0.4655  0.3765 -0.6577
   77MPD2    C1 1196   2.288   2.975  11.921 -0.0339  0.0169 -0.1267
   77MPD2    C2 1197   2.218   2.939  12.037  0.9832  0.2994 -0.4015
   77MPD2    C3 1198   2.268   2.829  12.106 -0.2457 -0.1762 -0.0910
   77MPD2    C4 1199   2.387   2.766  12.067  0.4021  0.2722  0.6727
   77MPD2    C5 1200   2.454   2.818  11.962 -0.1228  0.0670 -1.0730
   77MPD2     H 1201   2.124   2.988  12.055  1.5114  0.6984  1.2252
   77MPD2    H1 1202   2.431   2.684  12.121 -1.3094 -0.8969  0.2729
   77MPD2    H2 1203   2.460   2.941  11.791 -2.2086  0.6942 -1.6333
   77MPD2    H3 1204   2.541   2.771  11.917  0.1030 -1.0536  0.5068
   77MPD2     N 1205   2.226   2.786  12.235  0.3159 -0.1018  0.3840
   77MPD2    H5 1206   2.284   2.718  12.282  0.0123 -1.0831 -0.6793
   77MPD2    N1 1207   2.224   3.078  11.841  0.1320  0.3976  0.8843
   77MPD2    H7 1208   2.145   3.124  11.885 -0.3197 -2.0209  2.5615
   78TMC2    C1 1209   4.326   2.058   1.007 -0.4631  0.0694 -0.4700
   78TMC2    C2 1210   4.382   2.079   1.130  0.4716 -0.5707 -0.3367
   78TMC2    C3 1211   4.498   2.144   1.136  0.0617  0.5543  0.6671
   78TMC2    C4 1212   4.381   2.109   0.895  0.6677  0.3256  0.3224
   78TMC2    C5 1213   4.504   2.176   0.901 -0.4758 -0.2807  0.5566
   78TMC2    C6 1214   4.563   2.193   1.027 -0.7036 -1.2155 -0.1476
   78TMC2     C 1215   4.208   1.968   1.001 -0.5090  0.5412  0.5455
   78TMC2     O 1216   4.153   1.928   1.105  0.0420  0.1824  0.1776
   78TMC2     H 1217   4.326   2.048   1.217 -3.6601  0.0122 -2.7662
   78TMC2    H1 1218   4.319   2.113   0.806 -0.7655 -1.5779  1.2158
   78TMC2    H2 1219   4.641   2.267   1.033 -2.6985  0.8406  0.1636
   78TMC2    C7 1220   4.499   2.295   0.821  0.1974 -0.3704  0.2041
   78TMC2    C8 1221   4.582   2.108   1.250  0.1255 -0.1989  0.6632
   78TMC2    O1 1222   4.530   2.397   0.882 -0.5514  0.0340 -0.0705
   78TMC2    O2 1223   4.680   2.179   1.264  0.3029  0.5699  0.0656
   78TMC2    O5 1224   4.573   1.981   1.298  0.8519  0.8754  0.3864
   78TMC2    H5 1225   4.518   1.924   1.240 -0.1414  0.4242  1.7408
   79MPD1     C 1226   3.962   1.643   0.690 -0.0885  0.0799  0.4884
   79MPD1    C1 1227   3.937   1.665   0.822 -0.1188 -0.6561  0.3219
   79MPD1    C2 1228   4.000   1.776   0.886  0.5562  0.0017  0.9478
   79MPD1    C3 1229   4.097   1.841   0.812  0.2578 -0.7736  0.9716
   79MPD1    C4 1230   4.113   1.814   0.684 -0.1469  0.0333 -0.1671
   79MPD1    C5 1231   4.045   1.723   0.618 -0.1863 -0.0646  0.7331
   79MPD1     H 1232   3.981   1.799   0.990  0.9684  0.7901  0.8464
   79MPD1    H1 1233   4.184   1.876   0.631 -0.1334 -0.1306 -0.3393
   79MPD1    H2 1234   3.907   1.562   0.644  0.9481 -1.5522  2.1313
   79MPD1    H3 1235   4.054   1.712   0.511 -0.2462 -1.4938  0.8697
   79MPD1     N 1236   4.185   1.939   0.864  0.0970 -0.0479  0.2924
   79MPD1    H5 1237   4.258   1.978   0.805 -1.6872  0.2021 -1.7791
   79MPD1    N1 1238   3.835   1.593   0.880 -0.3050 -0.4608  0.1411
   79MPD1    H6 1239   3.840   1.497   0.847  1.6142  0.0743 -1.0978
   79MPD1    H7 1240   3.851   1.589   0.981  2.4000 -0.7642 -0.3149
   80TMC2    C1 1241   0.926   1.542  12.073 -0.1773  0.9233 -0.4506
   80TMC2    C2 1242   0.908   1.435  11.998  0.6454 -0.2327  0.1061
   80TMC2    C3 1243   0.851   1.328  12.068  0.1097 -0.0297 -0.2855
   80TMC2    C4 1244   0.864   1.565  12.194 -0.6277  0.0923  0.2973
   80TMC2    C5 1245   0.808   1.461  12.255 -0.6240  0.2221 -0.4411
   80TMC2    C6 1246   0.791   1.340  12.192 -0.7322 -0.0107 -0.1702
   80TMC2     C 1247   1.013   1.635  11.999  0.0207 -0.0554 -0.2039
   80TMC2     O 1248   1.078   1.602  11.905 -0.0854 -0.0148  0.2003
   80TMC2     H 1249   0.966   1.413  11.909 -1.9132 -0.3093 -1.5169
   80TMC2    H1 1250   0.885   1.659  12.244  0.1396 -1.0459  2.1034
   80TMC2    H2 1251   0.749   1.256  12.246  0.4213 -0.0442  0.6579
   80TMC2    C7 1252   0.825   1.438  12.398 -0.2852 -0.5927  0.5014
   80TMC2    C8 1253   0.880   1.190  12.020  0.8579 -0.4846 -0.0262
   80TMC2    O1 1254   0.755   1.354  12.453  0.1152  0.0530 -0.3036
   80TMC2    O2 1255   0.959   1.165  11.929  0.2742 -0.2166 -0.1556
   80TMC2    O5 1256   0.765   1.112  12.051  0.6924 -0.2316  0.4915
   80TMC2    H5 1257   0.691   1.162  12.091  0.9767  1.0709 -0.6371
   81MPD2     C 1258   1.104   1.880  11.854 -0.3652 -0.0627  0.1702
   81MPD2    C1 1259   1.042   1.882  11.978 -0.3068  0.1444 -0.4582
   81MPD2    C2 1260   1.040   1.995  12.052  0.4566  0.2051  0.6190
   81MPD2    C3 1261   1.085   2.115  12.008  0.2887 -0.1936  1.0150
   81MPD2    C4 1262   1.142   2.119  11.881 -0.1791 -0.7071 -0.7629
   81MPD2    C5 1263   1.151   2.006  11.810 -0.2812  0.8526 -0.1959
   81MPD2     H 1264   0.991   1.989  12.149  0.5361 -0.4542  0.6217
   81MPD2    H1 1265   1.185   2.212  11.846 -1.0375  0.0018  0.0492
   81MPD2    H2 1266   1.098   1.800  11.781 -0.3809 -0.2220  0.3449
   81MPD2    H3 1267   1.200   2.008  11.713 -0.7566 -0.7176 -0.4706
   81MPD2     N 1268   1.088   2.226  12.095  0.2535 -0.7391  0.0136
   81MPD2    H5 1269   1.077   2.210  12.195 -0.2551 -0.2612  0.0409
   81MPD2    N1 1270   0.988   1.766  12.043 -0.5193 -0.0854  0.6442
   81MPD2    H7 1271   0.934   1.771  12.129 -0.3224 -2.4750  0.9010
   82TMC2    C1 1272   0.130   1.990  10.806  0.2311 -1.2646  0.2596
   82TMC2    C2 1273   0.187   2.089  10.884  0.5706 -0.3069 -0.2865
   82TMC2    C3 1274   0.153   2.095  11.015 -0.0149 -0.2406  0.0566
   82TMC2    C4 1275   0.060   1.886  10.860  0.4838  0.1316  0.6838
   82TMC2    C5 1276   0.040   1.893  10.997  0.3375 -0.5775 -0.7218
   82TMC2    C6 1277   0.085   1.996  11.080 -0.6933  0.0804 -0.0842
   82TMC2     C 1278   0.069   2.029  10.677 -0.9655 -0.4193 -0.3663
   82TMC2     O 1279   4.697   1.991  10.653  0.5336 -0.7495 -0.4176
   82TMC2     H 1280   0.219   2.179  10.833  0.9454  0.5014  1.3753
   82TMC2    H1 1281   0.018   1.812  10.793 -1.3225  2.0257 -0.2967
   82TMC2    H2 1282   0.045   2.004  11.180 -1.0288  0.0701 -0.2177
   82TMC2    C7 1283   4.713   1.782  11.062 -0.0705 -0.4041  0.1968
   82TMC2    C8 1284   0.195   2.211  11.093  0.6603 -0.0968 -0.8206
   82TMC2    O1 1285   4.671   1.821  11.170 -0.2163 -0.0404  0.6012
   82TMC2    O2 1286   0.232   2.184  11.205 -0.5448  0.3031 -0.1914
   82TMC2    O5 1287   0.085   2.288  11.069  0.6220 -0.1148  0.2833
   82TMC2    H5 1288   0.068   2.293  10.973  1.9384  2.0800  0.1634
   83MPD2     C 1289   0.113   2.259  10.208 -0.2918  0.1398  0.7850
   83MPD2    C1 1290   0.012   2.193  10.262 -0.3361  0.1862  0.7141
   83MPD2    C2 1291   0.014   2.143  10.394 -1.2951 -0.4303 -0.5597
   83MPD2    C3 1292   0.135   2.152  10.464 -1.2262  0.6846 -0.2643
   83MPD2    C4 1293   0.242   2.208  10.401 -0.1491  0.0520  0.1391
   83MPD2    C5 1294   0.233   2.261  10.275  0.3237 -0.5271 -0.6728
   83MPD2     H 1295   4.667   2.097  10.440 -0.3724 -3.0168 -1.4488
   83MPD2    H1 1296   0.340   2.200  10.446 -0.5562 -0.4939  0.9222
   83MPD2    H2 1297   0.109   2.290  10.104  1.5340  0.4412  0.8057
   83MPD2    H3 1298   0.316   2.300  10.217 -1.0394 -0.1179 -2.3493
   83MPD2     N 1299   0.155   2.113  10.605  0.0160  0.2242 -0.8263
   83MPD2    H5 1300   0.245   2.134  10.647 -0.3185 -1.6690  0.8550
   83MPD2    N1 1301   4.643   2.181  10.175 -0.1332  0.0523 -0.5051
   83MPD2    H7 1302   4.656   2.225  10.084  2.2287 -0.7306 -0.5400
   84TMC2    C1 1303   0.832   0.593  10.658  0.8266  0.1691  0.1418
   84TMC2    C2 1304   0.703   0.604  10.624  0.3461  0.3397 -0.3664
   84TMC2    C3 1305   0.670   0.639  10.500 -0.2795  0.1888  0.5051
   84TMC2    C4 1306   0.928   0.624  10.567  0.4865  0.1088 -0.0319
   84TMC2    C5 1307   0.893   0.656  10.440 -0.2035  0.5814  0.0150
   84TMC2    C6 1308   0.760   0.675  10.404  0.1173  0.8597 -0.6392
   84TMC2     C 1309   0.856   0.583  10.804 -0.3273 -0.0288  0.2944
   84TMC2     O 1310   0.764   0.549  10.875  0.1119 -0.4179 -0.3400
   84TMC2     H 1311   0.625   0.575  10.693  0.0040 -0.3767 -1.0581
   84TMC2    H1 1312   1.033   0.614  10.595  1.3228  1.9625 -2.5553
   84TMC2    H2 1313   0.717   0.718  10.314 -0.7968  1.1277 -0.0748
   84TMC2    C7 1314   0.988   0.704  10.347 -0.2348  0.5410  0.6387
   84TMC2    C8 1315   0.533   0.672  10.475  0.0696  0.2774 -0.2308
   84TMC2    O1 1316   1.097   0.724  10.393  0.4226  0.3983 -0.2967
   84TMC2    O2 1317   0.501   0.760  10.399 -0.0474 -0.1180 -0.1752
   84TMC2    O5 1318   0.450   0.582  10.531 -0.4952  0.0034  0.0011
   84TMC2    H5 1319   0.492   0.502  10.567  1.3247  1.2368  0.5994
   85TMC2    C1 1320   1.537   4.123  16.135  0.2795  0.3552  0.3570
   85TMC2    C2 1321   1.413   4.105  16.076  0.0127  0.6710  0.7380
   85TMC2    C3 1322   1.401   4.152  15.950 -0.4469  0.5879  0.1745
   85TMC2    C4 1323   1.640   4.194  16.077 -0.2482 -0.0585  0.1137
   85TMC2    C5 1324   1.620   4.238  15.953  0.2423 -0.0313 -0.4604
   85TMC2    C6 1325   1.504   4.206  15.886 -0.3634  0.0789 -0.4884
   85TMC2     C 1326   1.579   4.038  16.242  0.1547  1.1141 -0.5328
   85TMC2     O 1327   1.688   4.066  16.293  0.2506  0.3890  0.0427
   85TMC2     H 1328   1.333   4.041  16.114  0.8396 -1.2404 -0.6955
   85TMC2    H1 1329   1.744   4.196  16.108 -0.2231  1.6852 -0.0863
   85TMC2    H2 1330   1.484   4.227  15.781 -1.0470  0.2216 -0.3325
   85TMC2    C7 1331   1.744   4.260  15.882  0.0763  0.1821  0.6459
   85TMC2    C8 1332   1.278   4.201  15.921  0.2563 -0.5203  0.4363
   85TMC2    O1 1333   1.851   4.252  15.944 -0.5300  0.2254 -0.7509
   85TMC2    O2 1334   1.244   4.232  15.811  0.3152  0.1533  0.2389
   85TMC2    O5 1335   1.243   4.253  16.042  0.0855  0.3274  0.2674
   85TMC2    H5 1336   1.283   4.221  16.125 -1.3426 -0.0261  0.8132
   86MPD2     C 1337   1.569   3.607  16.511  0.3218  0.0461 -0.0727
   86MPD2    C1 1338   1.502   3.582  16.389  0.5952 -0.1966 -0.2979
   86MPD2    C2 1339   1.479   3.683  16.302 -0.1952  0.7506 -0.7916
   86MPD2    C3 1340   1.529   3.808  16.329  0.0100  0.3261  0.3904
   86MPD2    C4 1341   1.588   3.838  16.448  0.1790  0.1840  0.4296
   86MPD2    C5 1342   1.621   3.735  16.533  0.3350 -0.3421  0.9018
   86MPD2     H 1343   1.410   3.664  16.221 -1.1493  0.6476  0.0491
   86MPD2    H1 1344   1.614   3.941  16.469 -0.4599  0.1836  1.2120
   86MPD2    H2 1345   1.589   3.534  16.589  0.5901 -0.0252 -0.2086
   86MPD2    H3 1346   1.679   3.750  16.624 -1.4579  0.0870  1.9867
   86MPD2     N 1347   1.520   3.917  16.228 -0.1119 -0.9496  0.2983
   86MPD2    H5 1348   1.452   3.905  16.154 -1.0360  3.3217  0.4492
   86MPD2    N1 1349   1.434   3.458  16.362  0.2894  0.0928 -0.5433
   86MPD2    H7 1350   1.393   3.443  16.270  1.4909 -1.5075 -0.8250
   87TMC2    C1 1351   4.519   1.797  17.578 -0.2046 -1.1193 -0.6889
   87TMC2    C2 1352   4.550   1.664  17.603 -0.4158  0.6180  0.6108
   87TMC2    C3 1353   4.462   1.583  17.662 -0.0834 -1.1251 -0.1751
   87TMC2    C4 1354   4.396   1.850  17.610 -0.2804  0.4974 -0.2234
   87TMC2    C5 1355   4.309   1.762  17.675 -0.0240  0.8211 -0.0722
   87TMC2    C6 1356   4.337   1.625  17.700  0.1753  0.2591  0.5585
   87TMC2     C 1357   4.630   1.889  17.540  0.5205 -0.1203  0.3357
   87TMC2     O 1358   4.622   2.002  17.581  0.7571  0.1699  0.0617
   87TMC2     H 1359   4.643   1.617  17.572  1.2348  3.0839  1.8740
   87TMC2    H1 1360   4.377   1.956  17.604 -1.9040  0.1907 -0.5209
   87TMC2    H2 1361   4.273   1.561   0.005  1.3083 -1.3489  0.0403
   87TMC2    C7 1362   4.225   1.833   0.014 -1.0419  0.1236  0.2459
   87TMC2    C8 1363   4.481   1.443  17.686  0.0364 -0.0158 -0.0093
   87TMC2    O1 1364   4.267   1.943   0.046 -0.6545 -0.2796  0.0625
   87TMC2    O2 1365   4.384   1.366  17.700 -0.0987 -0.5762 -0.1178
   87TMC2    O5 1366   4.603   1.426  17.736 -0.3970 -0.3184 -0.0083
   87TMC2    H5 1367   4.656   1.508  17.751  0.3096 -0.3379 -2.3757
   88MPD2     C 1368   3.943   1.702   0.206 -0.4904 -0.2802  0.2066
   88MPD2    C1 1369   4.042   1.790   0.170 -0.0488  0.5122 -0.0007
   88MPD2    C2 1370   4.061   1.908   0.243  0.3332 -1.1074  0.5973
   88MPD2    C3 1371   3.968   1.937   0.344  0.8909  0.6051  0.4400
   88MPD2    C4 1372   3.870   1.851   0.383 -0.2715 -0.5567  0.4301
   88MPD2    C5 1373   3.859   1.738   0.309 -0.0868  0.3793 -0.5124
   88MPD2     H 1374   4.138   1.982   0.224  1.1195 -2.8446 -2.9938
   88MPD2    H1 1375   3.807   1.863   0.470  1.8622 -0.8258  2.0036
   88MPD2    H2 1376   3.942   1.612   0.145  2.2988  0.4200 -0.8801
   88MPD2    H3 1377   3.779   1.669   0.332  0.1067 -0.3532 -2.0508
   88MPD2     N 1378   3.983   2.039   0.441  0.9419 -0.2817 -0.0521
   88MPD2    H5 1379   3.904   2.043   0.504  0.8547 -0.5816 -0.1396
   88MPD2    N1 1380   4.130   1.753   0.066  0.5112 -0.5643 -0.3005
   88MPD2    H7 1381   4.104   1.663   0.028 -2.6982  1.6138 -3.3581
   89TMC2    C1 1382   0.153   0.593   1.951  0.3249 -0.0323 -0.0459
   89TMC2    C2 1383   0.195   0.674   2.056 -0.4978  0.0056 -0.3236
   89TMC2    C3 1384   0.318   0.726   2.048  0.5320 -0.9944  0.6927
   89TMC2    C4 1385   0.232   0.554   1.842  0.5221  0.1968 -0.7665
   89TMC2    C5 1386   0.350   0.631   1.820  0.0769 -0.2018  0.0818
   89TMC2    C6 1387   0.391   0.702   1.933 -0.2072  0.4082 -0.5487
   89TMC2     C 1388   0.009   0.551   1.957 -0.3096 -0.4839  0.3326
   89TMC2     O 1389   4.673   0.597   2.045 -0.0298  0.1003 -0.3443
   89TMC2     H 1390   0.132   0.691   2.142  0.1621 -0.3933  0.2384
   89TMC2    H1 1391   0.196   0.498   1.757  1.4732 -3.1049  0.9921
   89TMC2    H2 1392   0.493   0.736   1.946 -0.9356  2.7852 -1.1182
   89TMC2    C7 1393   0.455   0.593   1.724 -0.1108 -0.8005  0.1896
   89TMC2    C8 1394   0.385   0.772   2.163  0.3520 -0.6741 -0.7968
   89TMC2    O1 1395   0.465   0.478   1.687 -0.6903  0.0115  0.4268
   89TMC2    O2 1396   0.491   0.826   2.153  0.1495 -0.1861  0.3065
   89TMC2    O5 1397   0.344   0.698   2.269  0.0766  0.5531 -0.4605
   89TMC2    H5 1398   0.264   0.643   2.255  0.9326 -1.2564  1.6845
   90MPD2     C 1399   4.347   0.280   1.814  0.5413 -0.4106  0.3724
   90MPD2    C1 1400   4.454   0.202   1.792  0.0047 -0.1797  0.4215
   90MPD2    C2 1401   4.587   0.254   1.819  0.5708  0.0460  0.3210
   90MPD2    C3 1402   4.597   0.384   1.868  0.2423 -0.8949 -0.7526
   90MPD2    C4 1403   4.487   0.463   1.877  0.4169 -0.5800  0.0583
   90MPD2    C5 1404   4.358   0.407   1.864 -0.0725 -0.1919  0.0468
   90MPD2     H 1405   4.675   0.191   1.813  0.3512 -0.3396  1.0858
   90MPD2    H1 1406   4.494   0.565   1.914  0.8352 -0.7766  0.5172
   90MPD2    H2 1407   4.251   0.234   1.793 -1.0280  3.2096 -0.2192
   90MPD2    H3 1408   4.267   0.460   1.891  0.4860  0.2931  1.0205
   90MPD2     N 1409   4.725   0.429   1.895  1.0536  0.7520  0.5630
   90MPD2    H5 1410   0.062   0.365   1.875  1.2339  0.5455  1.9376
   90MPD2    N1 1411   4.457   0.068   1.754  0.8446 -0.5382 -0.3610
   90MPD2    H7 1412   4.545   0.021   1.732  0.7444 -0.5568 -0.7302
   91TMC2    C1 1413   1.416   4.586  15.961  0.4673  0.9666 -0.2716
   91TMC2    C2 1414   1.481   4.558  16.079 -0.3494 -0.1243  0.5802
   91TMC2    C3 1415   1.408   4.554  16.191  0.3973 -0.6333  0.3403
   91TMC2    C4 1416   1.282   4.602  15.951 -0.2136  0.2568 -0.1055
   91TMC2    C5 1417   1.214   4.582  16.064  0.0052 -0.5875  0.0980
   91TMC2    C6 1418   1.267   4.559  16.187 -0.2764  0.2239 -0.2226
   91TMC2     C 1419   1.497   4.602  15.844  0.3844  0.5452 -0.5325
   91TMC2     O 1420   1.433   4.590  15.740 -0.0636 -0.3456  0.6366
   91TMC2     H 1421   1.589   4.552  16.084 -0.4176 -1.0780  0.9358
   91TMC2    H1 1422   1.232   4.628  15.859  0.1867  1.9402  0.1594
   91TMC2    H2 1423   1.207   4.549  16.277  0.8043 -0.8093  0.3922
   91TMC2    C7 1424   1.076   4.619  16.073  0.5190  0.5149  0.4983
   91TMC2    C8 1425   1.478   4.528  16.317  0.4772 -0.8064  0.0406
   91TMC2    O1 1426   1.035   4.650  16.187 -0.4026 -0.2567 -0.0878
   91TMC2    O2 1427   1.579   4.462  16.327 -0.3755 -1.2475  0.1127
   91TMC2    O5 1428   1.402   4.578  16.417  0.4390  0.6186  0.3818
   91TMC2    H5 1429   1.346   4.657  16.402  0.7231  0.4626 -1.4412
   92MPD2     C 1430   1.712   4.649  15.640  0.5717  0.3280 -0.0107
   92MPD2    C1 1431   1.732   4.633  15.777  0.2677  0.3495  0.6298
   92MPD2    C2 1432   1.867   4.645  15.821 -0.4058 -0.4062 -0.1469
   92MPD2    C3 1433   1.976   4.664  15.737 -0.0303  0.0350 -0.3870
   92MPD2    C4 1434   1.951   4.693  15.599 -0.4003  0.5032 -0.4251
   92MPD2    C5 1435   1.818   4.683  15.559 -0.0086  0.6546  0.2534
   92MPD2     H 1436   1.880   4.621  15.926 -0.1856  1.7545  0.3143
   92MPD2    H1 1437   2.025   4.734  15.533  0.9754 -1.1797  0.0654
   92MPD2    H2 1438   1.618   4.637  15.587 -1.1023  0.0391  2.9791
   92MPD2    H3 1439   1.797   4.688  15.453 -0.1248 -0.9759  0.2030
   92MPD2     N 1440   2.108   4.670  15.792  0.3810  0.9494  0.4574
   92MPD2    H5 1441   2.103   4.672  15.893  1.8705  0.2464  0.5345
   92MPD2    N1 1442   1.628   4.612  15.869 -0.3416 -0.0032  0.1722
   92MPD2    H7 1443   1.660   4.620  15.965 -3.0695 -0.1407  1.0747
   93TMC2    C1 1444   3.560   0.452  14.187 -0.6259  0.2632 -0.4072
   93TMC2    C2 1445   3.517   0.562  14.257 -0.7430 -0.0036 -0.4043
   93TMC2    C3 1446   3.618   0.640  14.311  0.1458  0.0330 -0.0650
   93TMC2    C4 1447   3.683   0.432  14.148 -0.3314 -0.3991 -0.8511
   93TMC2    C5 1448   3.782   0.517  14.191 -0.1406 -0.1954 -0.0327
   93TMC2    C6 1449   3.750   0.621  14.278  0.5251 -0.4019 -0.1076
   93TMC2     C 1450   3.466   0.349  14.151  0.6218  0.0463 -0.5701
   93TMC2     O 1451   3.503   0.234  14.135 -0.1270  0.4625 -0.2167
   93TMC2     H 1452   3.418   0.559  14.301 -0.2013 -1.0705  0.7625
   93TMC2    H1 1453   3.709   0.365  14.067  1.9456 -1.7544  1.0091
   93TMC2    H2 1454   3.830   0.671  14.332  0.4298  0.2370 -0.5565
   93TMC2    C7 1455   3.897   0.536  14.105 -0.6371  0.1301  0.5498
   93TMC2    C8 1456   3.597   0.750  14.404 -0.1884  0.2129 -0.3044
   93TMC2    O1 1457   3.915   0.449  14.023 -0.4012  0.0522  0.1448
   93TMC2    O2 1458   3.681   0.765  14.490 -0.5602 -0.1660 -0.2261
   93TMC2    O5 1459   3.467   0.780  14.401 -0.1352  0.6051  0.3915
   93TMC2    H5 1460   3.423   0.742  14.321  1.2089  1.7754 -0.9074
   94MPD2     C 1461   3.209   0.215  14.135 -0.3906 -0.4629  0.3427
   94MPD2    C1 1462   3.224   0.342  14.096  0.4072 -0.0921 -0.2480
   94MPD2    C2 1463   3.114   0.407  14.044 -0.1519  0.1321 -0.1887
   94MPD2    C3 1464   2.992   0.346  14.025  0.0300  0.1308 -0.3826
   94MPD2    C4 1465   2.979   0.213  14.066 -0.2347  0.9200  0.1786
   94MPD2    C5 1466   3.092   0.146  14.115 -0.5044 -0.4189 -0.2629
   94MPD2     H 1467   3.120   0.511  14.013 -2.5334  0.4439  0.4532
   94MPD2    H1 1468   2.882   0.166  14.060  0.2409  0.2840 -2.4735
   94MPD2    H2 1469   3.293   0.160  14.175 -0.6763 -0.3530  1.1064
   94MPD2    H3 1470   3.072   0.045  14.148  0.0410 -0.1364  0.9675
   94MPD2     N 1471   2.881   0.407  13.968 -0.1305 -0.3157 -0.1764
   94MPD2    H5 1472   2.796   0.351  13.967  0.1773 -0.7997  1.2412
   94MPD2    N1 1473   3.349   0.409  14.119 -0.2400 -0.2753 -0.6583
   94MPD2    H7 1474   3.339   0.508  14.101  0.7232 -0.2558 -1.0535
   95TMC2    C1 1475   3.260   2.206  15.984 -0.2260  0.3879 -0.0469
   95TMC2    C2 1476   3.215   2.185  16.106  0.3434  0.0676 -0.4214
   95TMC2    C3 1477   3.141   2.286  16.159  0.0636  0.6279  0.1974
   95TMC2    C4 1478   3.246   2.325  15.908 -0.6488 -0.3756 -0.2170
   95TMC2    C5 1479   3.184   2.424  15.978  0.1711 -0.0332  0.2037
   95TMC2    C6 1480   3.128   2.404  16.102 -0.3496  0.7618 -0.1805
   95TMC2     C 1481   3.359   2.111  15.922 -0.2952  0.5294  0.0979
   95TMC2     O 1482   3.428   2.170  15.836 -0.1777  0.1041  0.1850
   95TMC2     H 1483   3.206   2.087  16.153  0.4864  0.2200 -0.0764
   95TMC2    H1 1484   3.282   2.340  15.807  3.3313  0.1028  1.3138
   95TMC2    H2 1485   3.085   2.492  16.149 -1.4312 -1.3185  2.6851
   95TMC2    C7 1486   3.181   2.554  15.924 -0.5780 -0.5679  0.1216
   95TMC2    C8 1487   3.085   2.278  16.294  0.3255 -0.2314  0.7488
   95TMC2    O1 1488   3.098   2.630  15.972 -0.3596  0.4553 -0.4048
   95TMC2    O2 1489   2.995   2.355  16.321 -0.0090  0.4245  0.1829
   95TMC2    O5 1490   3.197   2.291  16.369  0.3457 -0.1467  0.3142
   95TMC2    H5 1491   3.268   2.227  16.347 -1.1906 -1.5955 -0.4137
   96MPD2     C 1492   3.583   1.649  15.825  0.3162  0.2712  0.2413
   96MPD2    C1 1493   3.625   1.777  15.791 -0.0581 -0.5866 -0.3339
   96MPD2    C2 1494   3.551   1.887  15.825 -0.7949  0.2218 -0.1669
   96MPD2    C3 1495   3.429   1.874  15.900  0.3661  0.4976 -0.0953
   96MPD2    C4 1496   3.396   1.743  15.946  0.8424 -0.0943  0.7004
   96MPD2    C5 1497   3.472   1.633  15.903 -0.2326 -0.5157 -0.0339
   96MPD2     H 1498   3.582   1.990  15.808  1.5979 -0.4847 -0.1030
   96MPD2    H1 1499   3.312   1.721  16.011  1.3291 -0.6140  1.1593
   96MPD2    H2 1500   3.630   1.558  15.791 -0.4557 -0.8087  2.1130
   96MPD2    H3 1501   3.453   1.536  15.947 -2.6831 -1.5049 -3.2379
   96MPD2     N 1502   3.353   1.982  15.954  0.1053 -0.1461  0.8274
   96MPD2    H5 1503   3.273   1.957  16.012 -2.2109  1.1681 -1.8420
   96MPD2    N1 1504   3.750   1.790  15.726 -0.1444 -0.4119  0.3745
   96MPD2    H7 1505   3.796   1.703  15.699  0.4987 -0.3907  1.3967
   97TMC2    C1 1506   1.273   4.597   0.561  0.0485  1.0547 -0.1572
   97TMC2    C2 1507   1.315   4.662   0.672 -0.0335  0.2338  0.9852
   97TMC2    C3 1508   1.353   0.058   0.658 -0.0696 -1.1618  0.1767
   97TMC2    C4 1509   1.253   4.653   0.437 -0.3352  0.5976  0.8839
   97TMC2    C5 1510   1.272   0.050   0.426  0.6987  0.2680 -0.1648
   97TMC2    C6 1511   1.319   0.119   0.540  0.0509  0.2004  0.4889
   97TMC2     C 1512   1.255   4.450   0.579 -0.5333 -1.1584  0.5922
   97TMC2     O 1513   1.344   4.399   0.641 -0.5200  0.1452 -0.1547
   97TMC2     H 1514   1.323   4.603   0.763  1.7906 -1.8096 -0.4914
   97TMC2    H1 1515   1.244   4.584   0.354  0.1634  1.8528 -0.2090
   97TMC2    H2 1516   1.350   0.222   0.526  0.6043 -0.3197 -2.1229
   97TMC2    C7 1517   1.316   0.106   0.304  0.4845  0.5185  0.4335
   97TMC2    C8 1518   1.401   0.146   0.763 -0.2856  0.0173 -0.9577
   97TMC2    O1 1519   1.324   0.228   0.312 -0.4634 -0.4411 -0.0605
   97TMC2    O2 1520   1.396   0.265   0.757 -0.4226  0.2564 -0.0369
   97TMC2    O5 1521   1.483   0.077   0.844  0.8168  0.0631  0.2441
   97TMC2    H5 1522   1.485   4.721   0.818  0.4174  0.0885  0.1143
   98MPD2     C 1523   1.093   3.993   0.497 -0.1140  0.2466  0.0975
   98MPD2    C1 1524   1.137   4.048   0.617  0.7318  0.5573 -0.4606
   98MPD2    C2 1525   1.154   4.189   0.613 -0.0388  0.3015  0.0235
   98MPD2    C3 1526   1.130   4.264   0.498 -0.0999 -0.0466 -0.1747
   98MPD2    C4 1527   1.074   4.208   0.381 -0.1364  0.4042 -0.2115
   98MPD2    C5 1528   1.062   4.070   0.385  0.9595  1.0174 -0.1819
   98MPD2     H 1529   1.185   4.245   0.700  0.2600  2.8710 -1.7557
   98MPD2    H1 1530   1.063   4.269   0.292  0.4444 -2.9518 -2.5825
   98MPD2    H2 1531   1.081   3.885   0.485 -3.5358  0.4198  2.1223
   98MPD2    H3 1532   1.032   4.019   0.294  0.9075 -1.5078  1.2599
   98MPD2     N 1533   1.157   4.399   0.494 -0.0412 -0.5718 -0.2853
   98MPD2    H5 1534   1.106   4.472   0.445 -1.5159 -3.0073 -2.3987
   98MPD2    N1 1535   1.165   3.971   0.729  0.3197 -0.6723  1.3335
   98MPD2    H7 1536   1.156   3.871   0.714  0.4923 -0.7457  1.7184
   99TMC2    C1 1537   0.298   0.897   1.147  0.5005 -0.9357 -0.2162
   99TMC2    C2 1538   0.404   0.950   1.219 -0.4982  0.1969 -0.3559
   99TMC2    C3 1539   0.434   0.900   1.338  0.4433 -0.1097  0.7378
   99TMC2    C4 1540   0.212   0.802   1.204  0.5710 -0.0166  0.2440
   99TMC2    C5 1541   0.240   0.770   1.340 -0.4532  0.2441 -0.7072
   99TMC2    C6 1542   0.350   0.811   1.404  0.7342  0.8011 -0.0269
   99TMC2     C 1543   0.256   0.967   1.031  0.0235 -0.3862 -0.3142
   99TMC2     O 1544   0.283   1.089   1.027 -0.5995 -0.8401  0.1611
   99TMC2     H 1545   0.467   1.024   1.169  0.0907  0.2944  0.5386
   99TMC2    H1 1546   0.115   0.788   1.157 -0.9970  2.8311  2.6549
   99TMC2    H2 1547   0.386   0.781   1.501  0.3789  2.8741  0.7468
   99TMC2    C7 1548   0.138   0.715   1.425 -0.5299  0.1564  0.3623
   99TMC2    C8 1549   0.500   0.999   1.423  0.4477 -0.6577 -0.6841
   99TMC2    O1 1550   0.159   0.723   1.546  0.3029  0.6054 -0.0441
   99TMC2    O2 1551   0.454   1.041   1.529 -0.2069 -0.4594  0.1432
   99TMC2    O5 1552   0.610   1.032   1.362  0.4976 -0.2944  0.0318
   99TMC2    H5 1553   0.637   0.982   1.282  0.1661  0.2477 -0.4177
  100MPD2     C 1554   0.139   1.063   0.780 -0.1487 -0.7564 -0.0803
  100MPD2    C1 1555   0.134   0.932   0.819  0.1416  0.7188  0.7511
  100MPD2    C2 1556   0.068   0.839   0.741 -0.2844 -0.5648 -0.1881
  100MPD2    C3 1557   0.006   0.879   0.623  0.1977 -0.0018 -0.4489
  100MPD2    C4 1558   0.004   1.011   0.599 -0.3860 -0.0577 -0.6362
  100MPD2    C5 1559   0.065   1.100   0.675  0.2223 -0.2039 -0.7858
  100MPD2     H 1560   0.066   0.738   0.779 -0.2346 -1.4471 -2.5057
  100MPD2    H1 1561   4.705   1.045   0.503 -2.0596  0.3053  0.1755
  100MPD2    H2 1562   0.190   1.141   0.836 -0.2696  0.2643 -1.3927
  100MPD2    H3 1563   0.061   1.204   0.644  0.9224  0.6377  2.0203
  100MPD2     N 1564   4.705   0.775   0.530  0.0730  0.3702  0.4003
  100MPD2    H5 1565   4.722   0.677   0.551  1.2450  0.5232  0.1664
  100MPD2    N1 1566   0.196   0.889   0.938 -0.3938 -0.4576  0.4744
  100MPD2    H7 1567   0.172   0.791   0.954  1.0707 -0.8437  0.2533
  101TMC2    C1 1568   0.520   2.987  12.981 -0.1004  0.8505 -0.1625
  101TMC2    C2 1569   0.439   3.094  13.015  0.4395  0.2928 -0.5890
  101TMC2    C3 1570   0.456   3.211  12.945  0.6911  0.2185 -0.2398
  101TMC2    C4 1571   0.603   2.998  12.876 -0.2527 -0.4018  0.2512
  101TMC2    C5 1572   0.608   3.118  12.811  0.0626 -0.6050 -0.1929
  101TMC2    C6 1573   0.522   3.224  12.831  0.4468  0.3697  0.7309
  101TMC2     C 1574   0.492   2.863  13.038 -0.0114 -0.3550 -0.0236
  101TMC2     O 1575   0.423   2.870  13.137  0.8809  0.0589  0.1796
  101TMC2     H 1576   0.375   3.087  13.102 -0.4702 -0.8220 -1.3457
  101TMC2    H1 1577   0.674   2.921  12.850  0.7834  0.9595 -0.9677
  101TMC2    H2 1578   0.531   3.326  12.793 -1.7912 -0.1687 -1.2450
  101TMC2    C7 1579   0.712   3.137  12.714  0.2343  0.8116  0.9031
  101TMC2    C8 1580   0.360   3.309  12.977  0.2082  0.2145 -0.2488
  101TMC2    O1 1581   0.804   3.054  12.724 -0.0618  0.3953 -0.5388
  101TMC2    O2 1582   0.313   3.390  12.904 -0.0390 -0.5527 -0.0485
  101TMC2    O5 1583   0.360   3.326  13.111  0.1501  0.5482  0.1276
  101TMC2    H5 1584   0.421   3.276  13.170 -2.2049 -1.5522  0.7352
  102MPD2     C 1585   0.567   2.521  12.928 -0.3047  0.4072  0.4907
  102MPD2    C1 1586   0.520   2.614  13.013  0.5360 -1.0915 -0.0365
  102MPD2    C2 1587   0.484   2.576  13.140 -0.0939  0.1514 -0.4769
  102MPD2    C3 1588   0.450   2.437  13.162  0.4463 -0.8044  0.7916
  102MPD2    C4 1589   0.486   2.346  13.071 -0.2252 -0.1961  0.1907
  102MPD2    C5 1590   0.556   2.389  12.959  0.1910 -0.0707 -0.1907
  102MPD2     H 1591   0.454   2.653  13.210 -1.9587  0.1469 -1.2579
  102MPD2    H1 1592   0.470   2.239  13.076 -0.0384 -0.1181  2.2298
  102MPD2    H2 1593   0.612   2.553  12.835 -1.1348  1.2209  0.3764
  102MPD2    H3 1594   0.582   2.312  12.888  0.4602 -1.4144  1.3679
  102MPD2     N 1595   0.386   2.405  13.285 -0.5932 -0.0032  0.0163
  102MPD2    H5 1596   0.363   2.481  13.348 -1.1221  0.9011 -1.2656
  102MPD2    N1 1597   0.532   2.750  12.971 -0.7610  0.0797  0.2560
  102MPD2    H7 1598   0.581   2.775  12.886 -3.2814  2.2855 -0.5497
  103TMC2    C1 1599   2.905   2.351  12.553  0.0567  0.1851  0.7097
  103TMC2    C2 1600   2.981   2.246  12.504 -1.0305 -0.6247 -0.1407
  103TMC2    C3 1601   3.119   2.249  12.509  0.1461 -1.5374 -0.0871
  103TMC2    C4 1602   2.968   2.458  12.620  0.4086  1.0758  0.4102
  103TMC2    C5 1603   3.104   2.450  12.634 -0.0479  0.1032 -0.5753
  103TMC2    C6 1604   3.184   2.346  12.585 -0.2832  0.2657 -0.8299
  103TMC2     C 1605   2.762   2.355  12.539 -0.4153  0.2905 -0.0809
  103TMC2     O 1606   2.718   2.467  12.536 -0.5826 -0.1420  0.2843
  103TMC2     H 1607   2.939   2.165  12.445  0.6055  0.5847 -2.9853
  103TMC2    H1 1608   2.909   2.533  12.671  0.1545  1.3523 -0.2954
  103TMC2    H2 1609   3.287   2.327  12.610 -0.4008  2.3035  1.2022
  103TMC2    C7 1610   3.170   2.543  12.717 -1.0999 -0.4967  0.6335
  103TMC2    C8 1611   3.198   2.135  12.479  0.1354 -0.0074 -0.0578
  103TMC2    O1 1612   3.112   2.565  12.824  0.5420  0.2205  0.3479
  103TMC2    O2 1613   3.297   2.109  12.546 -0.0010 -0.5928 -0.5256
  103TMC2    O5 1614   3.160   2.075  12.361 -0.5341 -0.0559  0.2731
  103TMC2    H5 1615   3.097   2.132  12.312  1.3334  1.9526  0.2134
  104MPD2     C 1616   2.535   2.071  12.507 -0.6686 -0.2414 -0.3033
  104MPD2    C1 1617   2.573   2.205  12.503 -0.0230 -0.4147  0.8218
  104MPD2    C2 1618   2.484   2.304  12.474 -0.3667 -0.9989  0.5306
  104MPD2    C3 1619   2.348   2.276  12.479  0.0726  0.1680  0.2890
  104MPD2    C4 1620   2.309   2.146  12.491  0.3335 -0.6584  0.1209
  104MPD2    C5 1621   2.398   2.042  12.495  0.1877  0.0991 -0.7838
  104MPD2     H 1622   2.514   2.405  12.449 -0.3787 -0.6434  1.9210
  104MPD2    H1 1623   2.205   2.117  12.504  0.0921 -0.4240 -1.2852
  104MPD2    H2 1624   2.614   1.999  12.522 -1.8591 -1.5086 -0.0811
  104MPD2    H3 1625   2.362   1.941  12.511  0.5370  0.0708 -0.1749
  104MPD2     N 1626   2.255   2.386  12.471 -0.1338 -0.2100 -0.3601
  104MPD2    H5 1627   2.296   2.478  12.458  0.8169 -0.6041 -0.1257
  104MPD2    N1 1628   2.709   2.228  12.529  0.2125  0.7850  0.7426
  104MPD2    H7 1629   2.772   2.150  12.546  0.1757  0.7663  0.7919
  105TMC2    C1 1630   0.419   2.561  17.291 -0.0866  0.2136  0.1460
  105TMC2    C2 1631   0.538   2.616  17.330  0.3573 -0.3432 -0.2126
  105TMC2    C3 1632   0.628   2.548  17.403 -0.2011 -0.5949  0.6068
  105TMC2    C4 1633   0.394   2.428  17.320 -0.1563 -0.7317  0.5335
  105TMC2    C5 1634   0.482   2.368  17.405 -0.1167  0.1275 -0.1343
  105TMC2    C6 1635   0.602   2.424  17.444 -0.5636 -0.6359  0.0328
  105TMC2     C 1636   0.328   2.642  17.215 -0.0378 -0.5083  0.0431
  105TMC2     O 1637   0.349   2.762  17.220 -0.2757  0.0829  0.1868
  105TMC2     H 1638   0.571   2.717  17.308  0.9672 -0.6644 -0.7755
  105TMC2    H1 1639   0.304   2.385  17.278 -2.0966  0.3221  3.5700
  105TMC2    H2 1640   0.671   2.386  17.519 -0.0594  2.1265  0.9840
  105TMC2    C7 1641   0.463   2.231  17.438  0.0950  0.1583  0.4372
  105TMC2    C8 1642   0.753   2.613  17.434 -0.1687  0.9223  0.7186
  105TMC2    O1 1643   0.556   2.172  17.494 -0.0408 -0.0667 -0.4361
  105TMC2    O2 1644   0.858   2.552  17.450  0.4842  0.1849 -0.6586
  105TMC2    O5 1645   0.725   2.727  17.498  0.4867 -0.0017 -0.0577
  105TMC2    H5 1646   0.629   2.746  17.510  0.8169  0.7165  1.3487
  106MPD2     C 1647   4.720   2.765  16.862  0.2790 -0.2061 -0.1387
  106MPD2    C1 1648   4.708   2.630  16.892  0.3632  1.0510 -0.5567
  106MPD2    C2 1649   0.059   2.575  16.979 -0.0385 -0.0122 -0.1310
  106MPD2    C3 1650   0.165   2.639  17.037 -0.2832 -0.1621 -0.0611
  106MPD2    C4 1651   0.182   2.772  17.004 -0.4493  0.5364  0.4888
  106MPD2    C5 1652   0.087   2.833  16.927  1.2089  0.1492 -0.0822
  106MPD2     H 1653   0.037   2.478  17.023  0.8245 -1.1377 -2.1944
  106MPD2    H1 1654   0.265   2.830  17.041  0.0839 -0.8261  1.4103
  106MPD2    H2 1655   4.673   2.824  16.785  1.6060 -1.9999 -2.3111
  106MPD2    H3 1656   0.116   2.933  16.895  0.0798  0.8422  1.0320
  106MPD2     N 1657   0.240   2.576  17.136 -0.2984  0.3082  0.9544
  106MPD2    H5 1658   0.240   2.475  17.153 -1.0791  0.1984  0.2763
  106MPD2    N1 1659   4.609   2.543  16.836  0.0580  0.0873 -0.0134
  106MPD2    H7 1660   4.597   2.448  16.870 -0.1745 -0.0068 -0.3583
  107TMC2    C1 1661   0.674   0.836  11.709 -0.2049  0.4723  0.3315
  107TMC2    C2 1662   0.604   0.717  11.717 -0.4825  0.1351 -0.2311
  107TMC2    C3 1663   0.636   0.627  11.622 -0.4149  0.3736  0.0639
  107TMC2    C4 1664   0.774   0.861  11.611  0.3000 -0.7583  0.3845
  107TMC2    C5 1665   0.795   0.761  11.520  0.1428  0.1604  0.5264
  107TMC2    C6 1666   0.731   0.637  11.524 -0.2726 -0.4193 -0.2622
  107TMC2     C 1667   0.624   0.946  11.789 -0.4295 -0.5661 -0.4492
  107TMC2     O 1668   0.562   0.913  11.894  0.2241  0.4358  0.2915
  107TMC2     H 1669   0.517   0.709  11.781 -0.6179 -3.4297 -0.8938
  107TMC2    H1 1670   0.835   0.951  11.612 -1.6513  0.5677  0.2789
  107TMC2    H2 1671   0.747   0.555  11.455 -0.0878 -0.4177 -0.2216
  107TMC2    C7 1672   0.900   0.790  11.424 -0.4948  0.2503  0.5949
  107TMC2    C8 1673   0.570   0.492  11.623 -0.3239  0.1723 -0.5168
  107TMC2    O1 1674   0.990   0.862  11.456 -0.0851  0.1424  0.0017
  107TMC2    O2 1675   0.586   0.414  11.531  0.4339 -0.1395  0.3600
  107TMC2    O5 1676   0.564   0.453  11.755  0.2287  0.0391  0.2837
  107TMC2    H5 1677   0.538   0.524  11.818 -1.1155  0.7086 -1.0173
  108MPD2     C 1678   0.591   1.285  11.655  0.8876  0.4043  0.1743
  108MPD2    C1 1679   0.587   1.188  11.758 -1.0789  0.2956 -0.0796
  108MPD2    C2 1680   0.533   1.216  11.877 -0.1210 -0.7371 -0.2490
  108MPD2    C3 1681   0.498   1.352  11.902 -0.3974  0.5045  0.4755
  108MPD2    C4 1682   0.512   1.449  11.804 -0.5761 -0.0015 -0.8152
  108MPD2    C5 1683   0.545   1.410  11.678 -0.0838 -0.6829 -0.9901
  108MPD2     H 1684   0.506   1.135  11.945 -2.2757  0.3553  0.1826
  108MPD2    H1 1685   0.489   1.554  11.812 -0.6825 -0.0014 -1.1386
  108MPD2    H2 1686   0.622   1.259  11.555 -0.3998 -0.5770  0.0280
  108MPD2    H3 1687   0.539   1.486  11.601  0.3391 -2.2650 -2.5636
  108MPD2     N 1688   0.447   1.389  12.028  0.2500  0.3954 -0.0337
  108MPD2    H5 1689   0.416   1.486  12.033 -1.0015 -0.0577  1.0363
  108MPD2    N1 1690   0.630   1.061  11.718 -0.3066  0.4430  0.0143
  108MPD2    H7 1691   0.668   1.052  11.624 -0.6920 -1.2662  0.0240
  109TMC2    C1 1692   0.698   3.344   0.150  0.0172  0.0895 -0.1571
  109TMC2    C2 1693   0.802   3.363   0.070 -0.0438  0.1618  0.0954
  109TMC2    C3 1694   0.927   3.383   0.127  0.5879  0.4920 -0.2919
  109TMC2    C4 1695   0.717   3.335   0.287  0.2129  0.1330  0.8987
  109TMC2    C5 1696   0.843   3.346   0.334 -0.3081  0.0391 -0.3534
  109TMC2    C6 1697   0.948   3.382   0.258  0.2095 -0.1028 -0.3988
  109TMC2     C 1698   0.563   3.378   0.102 -0.2538  0.0545 -0.1566
  109TMC2     O 1699   0.560   3.411  17.733  0.6077 -0.0445 -0.7490
  109TMC2     H 1700   0.797   3.354  17.716 -1.6735  0.2595  0.1757
  109TMC2    H1 1701   0.631   3.313   0.350 -0.1586  0.0038  0.3461
  109TMC2    H2 1702   1.046   3.401   0.300  0.4946  0.8457 -1.4892
  109TMC2    C7 1703   0.870   3.332   0.479  0.2621 -1.0086 -0.0509
  109TMC2    C8 1704   1.036   3.399   0.041 -0.2774  0.0328  0.4307
  109TMC2    O1 1705   0.990   3.356   0.505 -0.2234  0.0432  0.6793
  109TMC2    O2 1706   1.022   3.360  17.678 -0.7003  0.1062  0.4207
  109TMC2    O5 1707   1.075   3.521   0.073 -0.2566 -0.5327  0.0166
  109TMC2    H5 1708   1.069   3.541   0.169 -1.9332 -2.4032  0.2860
  110MPD2     C 1709   0.055   3.388   0.092 -0.1553  0.2563  0.2744
  110MPD2    C1 1710   0.095   3.301   0.191 -0.1253 -1.4735  0.3829
  110MPD2    C2 1711   0.227   3.293   0.216  0.4196  0.0705 -0.8660
  110MPD2    C3 1712   0.321   3.367   0.144 -0.2106 -0.6518 -0.1577
  110MPD2    C4 1713   0.281   3.448   0.039 -0.4955 -0.2093  0.0076
  110MPD2    C5 1714   0.146   3.467   0.025  0.3460  0.1356  0.2902
  110MPD2     H 1715   0.264   3.217   0.284  1.2544  2.1560  1.0324
  110MPD2    H1 1716   0.352   3.510  17.739 -0.1348 -0.2315  0.4635
  110MPD2    H2 1717   4.688   3.408   0.081 -0.7669 -2.7167  0.8919
  110MPD2    H3 1718   0.109   3.543  17.711 -1.3517 -1.3998 -0.5126
  110MPD2     N 1719   0.456   3.350   0.182 -0.5366 -0.1166  0.5189
  110MPD2    H5 1720   0.477   3.328   0.279  0.4333  0.0702  0.3519
  110MPD2    N1 1721   4.734   3.224   0.260 -0.0915  0.6329 -0.2078
  110MPD2    H7 1722   4.638   3.253   0.249 -0.3867 -1.0227 -2.0554
  111TMC2    C1 1723   1.344   3.653  11.345  0.4312  0.3263  0.7520
  111TMC2    C2 1724   1.443   3.713  11.275  0.3239  0.2833 -0.4726
  111TMC2    C3 1725   1.573   3.668  11.309 -0.7440  0.5210 -0.3252
  111TMC2    C4 1726   1.361   3.567  11.444  0.0849 -0.5392  1.2488
  111TMC2    C5 1727   1.490   3.536  11.477  0.4772 -0.0254 -0.1660
  111TMC2    C6 1728   1.601   3.580  11.407  0.9837  0.3040 -0.3395
  111TMC2     C 1729   1.212   3.711  11.327 -0.0408 -0.5336 -0.5359
  111TMC2     O 1730   1.169   3.732  11.216 -0.2742 -0.4443  0.0970
  111TMC2     H 1731   1.417   3.774  11.190 -0.4685  0.2929 -0.2204
  111TMC2    H1 1732   1.277   3.514  11.488  0.3811 -1.7567  0.3348
  111TMC2    H2 1733   1.705   3.563  11.435  1.2542  2.8362  0.2199
  111TMC2    C7 1734   1.504   3.455  11.594 -0.1054 -0.0371  0.1360
  111TMC2    C8 1735   1.695   3.719  11.251  0.5596  0.6772  0.5778
  111TMC2    O1 1736   1.400   3.438  11.658 -0.0508 -0.4478  0.3250
  111TMC2    O2 1737   1.803   3.660  11.263 -0.2790 -0.7903  0.1987
  111TMC2    O5 1738   1.648   3.760  11.128 -0.1932  0.5577  0.0914
  111TMC2    H5 1739   1.579   3.829  11.134 -0.5605  0.2000 -0.0059
  112MPD2     C 1740   0.762   3.858  11.546  0.6919  0.3360  0.7380
  112MPD2    C1 1741   0.797   3.855  11.410  0.0829  0.8116 -0.2849
  112MPD2    C2 1742   0.929   3.814  11.377 -0.1523 -0.3239  0.4212
  112MPD2    C3 1743   1.018   3.782  11.477  0.6987  0.3095 -0.3703
  112MPD2    C4 1744   0.979   3.781  11.602 -0.3032  0.2611 -0.0045
  112MPD2    C5 1745   0.855   3.834  11.638 -0.2847  0.4616 -0.2324
  112MPD2     H 1746   0.963   3.825  11.274 -1.1556 -1.1258  0.0015
  112MPD2    H1 1747   1.038   3.744  11.685  1.0100  0.6927 -0.7528
  112MPD2    H2 1748   0.662   3.890  11.573  0.7735 -0.2697  1.7598
  112MPD2    H3 1749   0.827   3.838  11.743 -3.3999  2.5556 -1.1115
  112MPD2     N 1750   1.153   3.742  11.450 -0.2490  0.0846  0.0712
  112MPD2    H5 1751   1.213   3.741  11.532  2.5719  0.1253 -1.9941
  112MPD2    N1 1752   0.717   3.904  11.301  0.2896 -0.0610 -0.0071
  112MPD2    H7 1753   0.763   3.902  11.210  1.5557  1.1701  0.6154
  113TMC2    C1 1754   3.619   0.884   0.618  0.6873  0.2079  0.5725
  113TMC2    C2 1755   3.567   1.008   0.626  0.1746 -0.4534 -0.2257
  113TMC2    C3 1756   3.460   1.034   0.546 -0.5125  0.2843 -0.3299
  113TMC2    C4 1757   3.559   0.786   0.538 -0.1038 -0.0154 -0.2648
  113TMC2    C5 1758   3.453   0.817   0.460 -0.1941 -0.5048  0.0437
  113TMC2    C6 1759   3.393   0.942   0.466  0.0343 -0.3590  0.2060
  113TMC2     C 1760   3.746   0.868   0.689  0.6808  0.2922  0.3689
  113TMC2     O 1761   3.780   0.960   0.763  0.1059  0.4389 -0.1244
  113TMC2     H 1762   3.612   1.081   0.693 -2.0285  1.6359 -1.0455
  113TMC2    H1 1763   3.611   0.691   0.533 -2.7074 -1.5310  1.6224
  113TMC2    H2 1764   3.307   0.955   0.402 -2.2417 -1.8102  2.9727
  113TMC2    C7 1765   3.382   0.704   0.406  0.2545 -0.0607 -0.9353
  113TMC2    C8 1766   3.410   1.165   0.568 -0.7525 -0.4133 -0.4015
  113TMC2    O1 1767   3.352   0.712   0.288  0.0248 -0.3981  0.2724
  113TMC2    O2 1768   3.368   1.208   0.673 -0.7856  0.6753 -0.3781
  113TMC2    O5 1769   3.358   1.217   0.447  0.0670  0.6777 -0.0385
  113TMC2    H5 1770   3.402   1.171   0.373  0.4835  1.3182 -0.1901
  114MPD2     C 1771   4.198   0.641   0.769 -0.6191 -0.6757 -0.2645
  114MPD2    C1 1772   4.123   0.734   0.840  0.0052 -0.0819 -0.0347
  114MPD2    C2 1773   4.003   0.776   0.792  0.4207  0.1677  0.2680
  114MPD2    C3 1774   3.949   0.721   0.676  0.5053 -0.5575 -0.1488
  114MPD2    C4 1775   4.020   0.618   0.615 -0.6820 -0.4904  0.0077
  114MPD2    C5 1776   4.139   0.572   0.663  0.0430  0.2947 -0.3493
  114MPD2     H 1777   3.955   0.851   0.853 -0.5177 -0.4537  0.2947
  114MPD2    H1 1778   3.976   0.573   0.527  0.5594 -1.8603  0.0673
  114MPD2    H2 1779   4.294   0.602   0.801 -0.9008 -0.8081  0.4369
  114MPD2    H3 1780   4.181   0.488   0.608 -0.2993  0.8585 -1.4635
  114MPD2     N 1781   3.818   0.763   0.635 -0.2721 -0.3376  0.0041
  114MPD2    H5 1782   3.782   0.707   0.559 -0.2427 -0.0451 -0.2279
  114MPD2    N1 1783   4.169   0.803   0.956 -0.6877  0.2269  0.4921
  114MPD2    H7 1784   4.104   0.869   0.998 -2.3746  0.2660 -2.1221
  115TMC2    C1 1785   0.088   4.339  17.508 -0.0246 -0.5558  0.2905
  115TMC2    C2 1786   0.199   4.307  17.578 -0.1405  0.1812 -0.4749
  115TMC2    C3 1787   0.264   4.410  17.647  0.9351  0.0272 -0.3929
  115TMC2    C4 1788   0.055   4.472  17.488  0.2204 -0.2094 -0.2766
  115TMC2    C5 1789   0.120   4.571  17.562  0.3370  0.2467 -0.3061
  115TMC2    C6 1790   0.234   4.542  17.628 -0.6641  0.0194 -0.0027
  115TMC2     C 1791   0.015   4.233  17.441 -0.2687  0.2566 -0.8410
  115TMC2     O 1792   0.064   4.122  17.445 -0.1692  0.2211 -0.5070
  115TMC2     H 1793   0.231   4.206  17.599 -0.0836  0.2368 -0.3003
  115TMC2    H1 1794   4.698   4.501  17.447 -0.6414  0.6768  2.3961
  115TMC2    H2 1795   0.285   4.616  17.689  0.4425  0.8684 -1.9525
  115TMC2    C7 1796   0.076   4.709  17.553  1.3180  0.2393  0.5804
  115TMC2    C8 1797   0.364   4.372  17.744  0.4259 -0.5081  0.2114
  115TMC2    O1 1798   0.158   0.061  17.548  0.3205 -0.1915  0.1344
  115TMC2    O2 1799   0.447   4.460   0.011  0.1720  0.3304  0.4337
  115TMC2    O5 1800   0.300   4.294   0.081  0.1237  0.0046  0.0006
  115TMC2    H5 1801   0.222   4.252   0.040  0.1160  0.6673 -0.6795
  116MPD2     C 1802   4.304   4.060  17.265 -0.0309  0.2201 -0.2610
  116MPD2    C1 1803   4.412   3.991  17.310 -0.2926  0.1436 -0.1429
  116MPD2    C2 1804   4.525   4.056  17.360 -0.4324 -0.4706  0.1152
  116MPD2    C3 1805   4.523   4.196  17.353 -0.4717  0.0153  0.2512
  116MPD2    C4 1806   4.415   4.265  17.306  0.7469 -0.7667 -0.1550
  116MPD2    C5 1807   4.301   4.199  17.265 -0.1206 -0.1191  0.3076
  116MPD2     H 1808   4.594   4.006  17.426 -0.2619 -1.3315 -0.7192
  116MPD2    H1 1809   4.410   4.372  17.318  2.6533 -0.7347  0.3630
  116MPD2    H2 1810   4.215   4.009  17.229  0.2860  0.8850 -2.0111
  116MPD2    H3 1811   4.216   4.251  17.224 -1.7739 -1.8830  1.5078
  116MPD2     N 1812   4.634   4.282  17.393  0.3238 -0.1193 -0.8674
  116MPD2    H5 1813   4.619   4.380  17.373 -0.4013  0.0825  0.6279
  116MPD2    N1 1814   4.393   3.852  17.308  0.2166 -0.0827 -0.2316
  116MPD2    H7 1815   4.312   3.822  17.254 -0.1413  2.6034 -1.1880
  117TMC2    C1 1816   2.814   0.795  14.172  0.0014 -0.2226 -0.3446
  117TMC2    C2 1817   2.937   0.732  14.196 -0.4090 -0.2414  0.4868
  117TMC2    C3 1818   3.050   0.808  14.212 -0.1391 -0.2514 -0.1648
  117TMC2    C4 1819   2.813   0.930  14.153 -0.3919  0.6324  0.5361
  117TMC2    C5 1820   2.929   1.000  14.166  0.0925 -0.8612  0.7870
  117TMC2    C6 1821   3.048   0.942  14.179  0.8201  0.2139  0.4194
  117TMC2     C 1822   2.701   0.725  14.123 -0.6786 -0.6130 -1.3287
  117TMC2     O 1823   2.690   0.605  14.153  0.1545  0.2717  0.3582
  117TMC2     H 1824   2.943   0.624  14.207  0.2992 -0.3892 -1.3088
  117TMC2    H1 1825   2.722   0.988  14.151 -0.9070 -0.1499  1.0149
  117TMC2    H2 1826   3.142   0.992  14.200  0.1317  1.7554 -0.1754
  117TMC2    C7 1827   2.928   1.143  14.150  0.6181 -0.1314  0.5162
  117TMC2    C8 1828   3.179   0.741  14.238 -0.6096  0.2569  0.3647
  117TMC2    O1 1829   3.017   1.205  14.210 -0.5577 -0.1688 -0.3683
  117TMC2    O2 1830   3.286   0.771  14.190 -0.6487 -0.4357  0.4338
  117TMC2    O5 1831   3.154   0.635  14.313 -0.0356 -0.0406  0.0002
  117TMC2    H5 1832   3.078   0.650  14.371 -0.1658 -1.1109  0.1074
  118MPD2     C 1833   2.678   1.368  13.997  0.3673  0.8036 -0.1306
  118MPD2    C1 1834   2.802   1.330  14.051 -0.0395 -0.1348 -0.1032
  118MPD2    C2 1835   2.891   1.435  14.085 -0.1108 -0.4906  0.0364
  118MPD2    C3 1836   2.864   1.570  14.055 -0.0363 -0.7685 -0.3878
  118MPD2    C4 1837   2.747   1.594  13.991  0.3629 -0.3002  0.0767
  118MPD2    C5 1838   2.654   1.497  13.960 -0.3782  0.3123 -0.2561
  118MPD2     H 1839   2.994   1.428  14.117  0.6637 -1.4969 -2.6550
  118MPD2    H1 1840   2.731   1.698  13.964  0.5361  0.0852  1.4432
  118MPD2    H2 1841   2.601   1.294  13.978 -0.8343  1.0305  3.7564
  118MPD2    H3 1842   2.553   1.533  13.941 -0.7613  0.1716  1.5243
  118MPD2     N 1843   2.950   1.689  14.068  0.3898 -0.5393 -0.0744
  118MPD2    H5 1844   2.903   1.774  14.037 -0.7354 -1.7773 -1.8101
  118MPD2    N1 1845   2.824   1.196  14.084 -0.5043 -0.6693  0.6991
  118MPD2    H7 1846   2.752   1.133  14.049  0.9443 -1.1293 -1.4616
  119TMC2    C1 1847   1.584   2.113  13.839 -0.1794 -0.4935 -1.1448
  119TMC2    C2 1848   1.687   2.157  13.761 -0.1895 -0.4677  0.0997
  119TMC2    C3 1849   1.661   2.168  13.630  0.1983  0.2832 -0.5557
  119TMC2    C4 1850   1.461   2.079  13.789 -0.0759  0.5958 -0.1838
  119TMC2    C5 1851   1.443   2.093  13.653 -0.4268  0.7515  0.8300
  119TMC2    C6 1852   1.539   2.139  13.574 -0.6796 -0.5370  0.1061
  119TMC2     C 1853   1.603   2.106  13.979  0.7842  0.6090 -0.0134
  119TMC2     O 1854   1.507   2.094  14.052 -0.8322  0.4232 -0.1937
  119TMC2     H 1855   1.783   2.193  13.794  0.4351 -1.6187 -0.4714
  119TMC2    H1 1856   1.387   2.025  13.846  0.9538 -0.4702  0.1412
  119TMC2    H2 1857   1.512   2.132  13.469 -0.4084 -1.0674  0.0721
  119TMC2    C7 1858   1.320   2.057  13.597 -0.0032  0.2151  0.3489
  119TMC2    C8 1859   1.766   2.235  13.550  0.2055 -0.4351  0.4266
  119TMC2    O1 1860   1.308   2.031  13.475  0.6771 -0.3328 -0.1986
  119TMC2    O2 1861   1.877   2.190  13.536 -0.1092 -0.2090  0.1966
  119TMC2    O5 1862   1.740   2.368  13.554 -0.5873  0.1792 -0.1982
  119TMC2    H5 1863   1.648   2.396  13.576  0.2402  2.7194  0.0026
  120MPD2     C 1864   1.880   2.225  14.406  0.2579 -0.1280 -0.7198
  120MPD2    C1 1865   1.743   2.240  14.378  0.9886 -0.6325  0.1569
  120MPD2    C2 1866   1.692   2.221  14.249 -0.4061  0.6554 -0.4030
  120MPD2    C3 1867   1.776   2.176  14.151 -0.0099 -0.4052 -0.5113
  120MPD2    C4 1868   1.909   2.147  14.183 -0.2426  0.0069  0.0949
  120MPD2    C5 1869   1.957   2.179  14.306 -0.3957  0.2478  0.2667
  120MPD2     H 1870   1.587   2.244  14.234 -0.3007  1.2290 -0.2275
  120MPD2    H1 1871   1.968   2.104  14.103 -2.1934 -0.2482 -1.2003
  120MPD2    H2 1872   1.911   2.247  14.508  0.3754  1.3254 -1.0751
  120MPD2    H3 1873   2.062   2.168  14.328 -0.0556  2.0572 -0.4835
  120MPD2     N 1874   1.734   2.130  14.022 -0.1313 -0.4640 -0.1581
  120MPD2    H5 1875   1.811   2.101  13.964 -1.3117 -0.7567 -1.5707
  120MPD2    N1 1876   1.667   2.282  14.484 -0.2637 -0.3097  0.1160
  120MPD2    H7 1877   1.725   2.318  14.560  0.2070  1.1302 -0.9322
  121TMC2    C1 1878   2.979   3.541  13.984 -0.1695 -0.6513  0.4031
  121TMC2    C2 1879   3.057   3.444  13.920  0.4365 -0.3926 -0.1348
  121TMC2    C3 1880   3.015   3.314  13.935 -0.1272 -0.1027  0.4261
  121TMC2    C4 1881   2.868   3.514  14.061 -0.5735 -0.3113 -0.2008
  121TMC2    C5 1882   2.840   3.381  14.069  0.1326 -1.0605  0.8603
  121TMC2    C6 1883   2.910   3.279  14.005  0.0596  0.4011 -0.0451
  121TMC2     C 1884   3.033   3.680  13.961  0.3536  0.5415 -0.4568
  121TMC2     O 1885   3.111   3.691  13.866 -0.9389 -0.2059 -0.5482
  121TMC2     H 1886   3.154   3.471  13.880 -0.0118 -0.9331 -1.5835
  121TMC2    H1 1887   2.816   3.597  14.107  1.1419  0.6532 -0.0230
  121TMC2    H2 1888   2.879   3.175  14.000 -0.1948  0.4904 -0.3586
  121TMC2    C7 1889   2.714   3.339  14.122  0.3386  0.0636 -0.5980
  121TMC2    C8 1890   3.098   3.208  13.885 -0.7387  0.6346 -0.0449
  121TMC2    O1 1891   2.706   3.217  14.149 -0.1900  0.5642  0.5323
  121TMC2    O2 1892   3.090   3.094  13.934  0.2883  0.1081  0.2514
  121TMC2    O5 1893   3.192   3.254  13.798 -0.1153  0.1755 -0.2472
  121TMC2    H5 1894   3.154   3.333  13.754 -2.5381 -0.9769 -0.2538
  122MPD2     C 1895   2.966   4.006  14.129  0.6738  0.6177 -0.3038
  122MPD2    C1 1896   3.000   3.925  14.028  0.0710  0.0276 -0.0115
  122MPD2    C2 1897   3.025   3.989  13.910 -0.9960 -0.0443 -0.0593
  122MPD2    C3 1898   3.017   4.125  13.876 -0.2079  0.7049  0.2386
  122MPD2    C4 1899   2.972   4.204  13.977 -0.6587  0.1238 -0.4719
  122MPD2    C5 1900   2.953   4.146  14.105 -0.3793 -0.3296  0.8728
  122MPD2     H 1901   3.058   3.927  13.828 -2.4599 -0.5545 -0.2626
  122MPD2    H1 1902   2.945   4.308  13.962 -0.2508  0.1975 -0.6915
  122MPD2    H2 1903   2.957   3.969  14.230 -0.8206 -0.3910 -0.8072
  122MPD2    H3 1904   2.926   4.219  14.181  0.4780 -0.7552  1.5792
  122MPD2     N 1905   3.039   4.180  13.749 -0.1944  0.9658 -0.4695
  122MPD2    H5 1906   3.037   4.282  13.742 -1.5265  0.9177 -0.8293
  122MPD2    N1 1907   2.995   3.782  14.044  0.7479 -0.2266  0.1548
  122MPD2    H7 1908   2.958   3.755  14.135  1.0178  1.0193  0.6369
  123TMC2    C1 1909   1.537   2.721  10.350  0.8706  0.2609 -0.2054
  123TMC2    C2 1910   1.579   2.848  10.333 -0.3704  0.1419 -0.6863
  123TMC2    C3 1911   1.666   2.870  10.228  0.3853  0.5689 -0.1406
  123TMC2    C4 1912   1.572   2.613  10.266  0.4289  0.2452  0.3424
  123TMC2    C5 1913   1.664   2.643  10.162 -0.0617  0.7206 -0.4173
  123TMC2    C6 1914   1.699   2.772  10.137  0.5752 -0.2899 -0.1780
  123TMC2     C 1915   1.456   2.692  10.465  0.2404  0.0786  0.2747
  123TMC2     O 1916   1.401   2.783  10.528 -0.0656 -0.4171  0.1226
  123TMC2     H 1917   1.543   2.925  10.400  2.2815 -0.3137  1.2672
  123TMC2    H1 1918   1.526   2.515  10.264  3.4850 -1.1948  0.1061
  123TMC2    H2 1919   1.779   2.798  10.067 -2.1057  2.6039 -2.1557
  123TMC2    C7 1920   1.678   2.559  10.042 -0.1134 -0.2147 -0.6168
  123TMC2    C8 1921   1.659   3.008  10.158  0.3335 -0.7550  0.3245
  123TMC2    O1 1922   1.716   2.613   9.938 -0.5855  0.4039 -0.0443
  123TMC2    O2 1923   1.674   3.027  10.036 -0.5804 -0.0814  0.0814
  123TMC2    O5 1924   1.622   3.095  10.251 -0.1249 -0.4125  0.3379
  123TMC2    H5 1925   1.665   3.078  10.338  2.4898 -2.0737 -1.2940
  124MPD2     C 1926   1.139   2.326  10.652 -0.6495 -0.1747  0.3322
  124MPD2    C1 1927   1.248   2.263  10.595  0.2543  0.3636  0.2590
  124MPD2    C2 1928   1.351   2.345  10.553 -0.0540 -0.7322 -0.5284
  124MPD2    C3 1929   1.341   2.487  10.548  0.2769  0.0275  0.6167
  124MPD2    C4 1930   1.226   2.544  10.599 -0.1936  0.2697 -0.0035
  124MPD2    C5 1931   1.129   2.464  10.650 -0.1150 -0.7036 -0.4609
  124MPD2     H 1932   1.446   2.299  10.529  1.0169  1.3417 -0.2275
  124MPD2    H1 1933   1.220   2.652  10.595 -0.3641  0.2046 -1.8388
  124MPD2    H2 1934   1.065   2.265  10.703 -0.6838 -1.0844 -0.8024
  124MPD2    H3 1935   1.047   2.520  10.694  0.6968 -0.6671  1.0062
  124MPD2     N 1936   1.450   2.556  10.490 -0.3566  0.1508 -0.0092
  124MPD2    H5 1937   1.529   2.502  10.455 -1.3762 -0.4380 -1.3973
  124MPD2    N1 1938   1.262   2.123  10.582 -0.5243 -0.2584 -0.7928
  124MPD2    H7 1939   1.175   2.078  10.608 -1.5307  1.0976 -1.8228
  125TMC2    C1 1940   2.188   0.181  10.320 -0.3276 -0.8513 -0.3651
  125TMC2    C2 1941   2.282   0.119  10.399  0.1373  1.2139  0.8236
  125TMC2    C3 1942   2.412   0.127  10.350  0.6213 -0.3435 -0.5133
  125TMC2    C4 1943   2.217   0.232  10.194  0.2499  0.3055 -0.4699
  125TMC2    C5 1944   2.347   0.228  10.148  0.3810 -0.4426  1.0144
  125TMC2    C6 1945   2.445   0.178  10.223  0.3641  0.2315  0.2269
  125TMC2     C 1946   2.046   0.154  10.348 -0.5817  0.4159  0.1853
  125TMC2     O 1947   2.017   0.147  10.465  0.0403 -0.3078  0.3242
  125TMC2     H 1948   2.255   0.052  10.479  0.2967  0.0325 -0.1059
  125TMC2    H1 1949   2.137   0.274  10.133  0.5764  1.2878 -0.2113
  125TMC2    H2 1950   2.549   0.184  10.192 -0.4007  2.3084 -1.9584
  125TMC2    C7 1951   2.360   0.231  10.004 -0.4026  0.0840 -0.5319
  125TMC2    C8 1952   2.524   0.092  10.433  0.2046  0.1616 -0.5721
  125TMC2    O1 1953   2.268   0.275   9.936 -0.8329 -0.5057 -0.0414
  125TMC2    O2 1954   2.607   0.017  10.387  0.5854  0.1071 -0.3826
  125TMC2    O5 1955   2.476   0.101  10.561 -0.5054 -0.6922  0.6144
  125TMC2    H5 1956   2.415   0.178  10.569 -0.3285 -0.3142 -1.7331
  126MPD1     C 1957   1.615   4.656  10.224 -0.1505  0.1470  0.0517
  126MPD1    C1 1958   1.680   4.685  10.109 -0.3364 -0.1388  0.3776
  126MPD1    C2 1959   1.806   0.006  10.121 -0.4614 -0.3939 -0.0365
  126MPD1    C3 1960   1.853   0.041  10.242  0.0806 -0.2168 -0.2881
  126MPD1    C4 1961   1.777   0.020  10.356  0.1496  0.8204 -0.0305
  126MPD1    C5 1962   1.660   4.692  10.346  0.0280  0.6680  0.1182
  126MPD1     H 1963   1.868   0.013  10.032 -0.6015  1.4718  0.0109
  126MPD1    H1 1964   1.823   0.046  10.451  0.3787  0.1122  0.0520
  126MPD1    H2 1965   1.519   4.606  10.228  0.2253 -0.4454  1.8051
  126MPD1    H3 1966   1.602   4.664  10.433 -0.0979 -1.6495 -0.7074
  126MPD1     N 1967   1.975   0.115  10.237 -0.2804 -0.1574 -0.3027
  126MPD1    H5 1968   2.021   0.121  10.147 -0.0518 -1.7400 -0.2854
  126MPD1    N1 1969   1.637   4.645   9.980 -0.1342 -0.4496 -0.4135
  126MPD1    H6 1970   1.697   4.692   9.912  0.1719 -0.5093 -0.1819
  126MPD1    H7 1971   1.539   4.652   9.954 -0.2152  1.0710  0.3004
  127TMC2    C1 1972   3.052   2.938   9.685  0.5543 -0.1772 -0.3130
  127TMC2    C2 1973   3.103   2.864   9.791 -0.0997 -0.2487  0.4958
  127TMC2    C3 1974   3.016   2.813   9.877 -0.1937  0.7822 -1.1636
  127TMC2    C4 1975   2.916   2.943   9.667  0.3744 -0.7051 -0.3269
  127TMC2    C5 1976   2.832   2.868   9.743  0.2447 -0.9402  0.4580
  127TMC2    C6 1977   2.878   2.804   9.850 -0.3427 -0.0551 -0.1646
  127TMC2     C 1978   3.133   3.020   9.611 -0.1542 -0.4097 -0.3352
  127TMC2     O 1979   3.245   3.045   9.653 -0.4530  0.5242  0.6558
  127TMC2     H 1980   3.208   2.861   9.815 -0.8159  1.6038  3.9143
  127TMC2    H1 1981   2.872   3.012   9.596  1.4540 -0.0495 -0.3627
  127TMC2    H2 1982   2.804   2.768   9.921  2.0308 -1.6259  1.5249
  127TMC2    C7 1983   2.695   2.858   9.701  0.2658  0.7026 -0.2376
  127TMC2    C8 1984   3.063   2.791  10.010  0.4542 -0.6039  0.3023
  127TMC2    O1 1985   2.657   2.914   9.598 -0.0016 -0.0524 -0.3273
  127TMC2    O2 1986   3.156   2.852  10.056  0.3110 -0.0317  0.2991
  127TMC2    O5 1987   3.005   2.681  10.047  0.9553  0.1979  0.7013
  127TMC2    H5 1988   2.945   2.640   9.981 -0.7385  1.7882  1.2413
  128MPD2     C 1989   3.096   3.127   9.257 -0.2317  0.7552 -0.0011
  128MPD2    C1 1990   3.146   3.124   9.383  0.0146 -0.2498 -0.8258
  128MPD2    C2 1991   3.251   3.216   9.414 -0.7382 -0.0199 -0.1831
  128MPD2    C3 1992   3.317   3.292   9.319 -0.0340  0.2770  0.6168
  128MPD2    C4 1993   3.272   3.280   9.184 -0.2616  0.2511  0.4499
  128MPD2    C5 1994   3.168   3.188   9.159 -0.2513  0.5478 -0.4263
  128MPD2     H 1995   3.288   3.213   9.516 -1.5827 -0.4007  0.1129
  128MPD2    H1 1996   3.330   3.324   9.104  0.3725 -2.6517 -0.6826
  128MPD2    H2 1997   3.011   3.066   9.231 -0.0051  0.2632  0.4164
  128MPD2    H3 1998   3.133   3.173   9.058  1.0896 -2.0624 -0.5190
  128MPD2     N 1999   3.426   3.379   9.346  0.6030 -0.3768 -0.0730
  128MPD2    H5 2000   3.465   3.423   9.263 -2.0251  1.9632 -0.0909
  128MPD2    N1 2001   3.080   3.044   9.485 -0.0849 -0.1970 -0.1115
  128MPD2    H7 2002   3.011   2.978   9.451 -1.0232  1.0854 -0.6961
  129TMC2    C1 2003   0.998   3.608   1.656 -0.1990 -0.1263  0.1214
  129TMC2    C2 2004   1.031   3.601   1.526 -0.0597 -0.4388 -0.0963
  129TMC2    C3 2005   1.059   3.479   1.471 -0.0269  0.3579  0.1947
  129TMC2    C4 2006   0.971   3.493   1.723 -0.3023 -0.3760 -0.1843
  129TMC2    C5 2007   0.999   3.375   1.669 -0.2559  0.7466  0.2811
  129TMC2    C6 2008   1.043   3.364   1.536 -0.4012  0.2400  0.5334
  129TMC2     C 2009   0.948   3.737   1.706  0.6442  0.0679  0.0055
  129TMC2     O 2010   0.853   3.731   1.782 -0.4088 -0.7391  0.2026
  129TMC2     H 2011   1.037   3.683   1.455 -0.1845 -0.6205 -0.3169
  129TMC2    H1 2012   0.949   3.500   1.829  0.4750  2.1505 -0.1725
  129TMC2    H2 2013   1.078   3.273   1.488  1.1279 -0.0291  2.1706
  129TMC2    C7 2014   0.981   3.255   1.747  0.0441  0.3019 -0.1508
  129TMC2    C8 2015   1.089   3.475   1.329 -0.1262  1.2435 -0.8109
  129TMC2    O1 2016   0.895   3.257   1.833 -0.2605 -0.2970 -0.7165
  129TMC2    O2 2017   1.182   3.541   1.282 -0.1648 -0.1866  0.1676
  129TMC2    O5 2018   0.970   3.467   1.269  0.4061 -0.1215  0.8906
  129TMC2    H5 2019   0.905   3.445   1.340 -0.3959 -3.8464 -1.0397
  130MPD2     C 2020   0.864   4.021   1.743 -0.0941  0.8216 -0.0967
  130MPD2    C1 2021   0.974   3.982   1.668 -0.4676 -0.0472  0.1744
  130MPD2    C2 2022   1.053   4.086   1.606 -0.1901  0.1495 -0.0776
  130MPD2    C3 2023   1.022   4.216   1.619 -0.6648  0.4193  0.6037
  130MPD2    C4 2024   0.899   4.247   1.681 -0.6426 -0.1156  0.0522
  130MPD2    C5 2025   0.822   4.152   1.744 -0.8454 -0.1077 -0.0120
  130MPD2     H 2026   1.140   4.065   1.544 -0.7015 -0.0955 -0.7076
  130MPD2    H1 2027   0.870   4.352   1.678 -0.5316 -0.0235  2.0823
  130MPD2    H2 2028   0.801   3.953   1.800  3.7703 -3.1425 -0.5077
  130MPD2    H3 2029   0.740   4.187   1.804  0.9640  2.3264  1.0384
  130MPD2     N 2030   1.112   4.310   1.560  1.0650 -0.4367 -0.5084
  130MPD2    H5 2031   1.184   4.265   1.505 -0.1907 -1.9575 -0.9158
  130MPD2    N1 2032   1.019   3.845   1.656  0.4914 -0.0385 -0.3607
  130MPD2    H7 2033   1.098   3.821   1.598  1.3082  1.3286  0.1710
  131TMC2    C1 2034   1.313   2.549   9.940 -0.7627 -0.3730  0.2175
  131TMC2    C2 2035   1.365   2.591   9.823 -0.4077 -0.2204  0.2488
  131TMC2    C3 2036   1.401   2.720   9.803  0.4132  0.1626  0.5531
  131TMC2    C4 2037   1.284   2.642  10.038  0.3295 -0.2070 -0.2274
  131TMC2    C5 2038   1.302   2.776  10.009 -0.0516  0.1632  0.0950
  131TMC2    C6 2039   1.374   2.812   9.900 -0.0924  0.0308 -0.4053
  131TMC2     C 2040   1.287   2.413   9.980 -0.1647 -1.0647  0.7101
  131TMC2     O 2041   1.266   2.400  10.098 -0.5687 -0.0469 -0.2677
  131TMC2     H 2042   1.410   2.516   9.758 -1.9697 -0.4740 -0.5517
  131TMC2    H1 2043   1.253   2.608  10.135 -1.8478  0.3213 -0.7535
  131TMC2    H2 2044   1.409   2.914   9.885 -1.6479  0.5254 -0.7219
  131TMC2    C7 2045   1.301   2.872  10.115  1.2540 -0.1182 -0.0956
  131TMC2    C8 2046   1.469   2.768   9.685  0.0524 -1.0618  0.9879
  131TMC2    O1 2047   1.255   2.834  10.222 -0.0597  0.4523  0.0880
  131TMC2    O2 2048   1.523   2.875   9.687 -0.5660  0.2848  0.1300
  131TMC2    O5 2049   1.411   2.711   9.577  0.2508  0.6561  0.3360
  131TMC2    H5 2050   1.360   2.628   9.588  1.6271 -0.2241  0.0785
  132MPD2     C 2051   1.225   2.139   9.749  0.5871  0.1387 -0.2015
  132MPD2    C1 2052   1.274   2.197   9.866 -0.2617  0.0678 -0.3615
  132MPD2    C2 2053   1.286   2.124   9.984  0.3259  0.5137  0.3563
  132MPD2    C3 2054   1.252   1.993   9.991 -0.2639 -0.0355 -0.0747
  132MPD2    C4 2055   1.213   1.928   9.877 -0.3312  0.1932 -0.3618
  132MPD2    C5 2056   1.206   2.002   9.756 -0.5621 -0.1733 -0.5342
  132MPD2     H 2057   1.334   2.175  10.066  0.4979 -2.2178  1.9371
  132MPD2    H1 2058   1.201   1.821   9.869  1.1108  0.1091 -1.4945
  132MPD2    H2 2059   1.204   2.195   9.658  0.1509 -0.9571 -0.7722
  132MPD2    H3 2060   1.188   1.954   9.660  3.2907 -2.5609 -0.0714
  132MPD2     N 2061   1.262   1.929  10.122  0.3862  0.4103  0.0661
  132MPD2    H5 2062   1.279   1.997  10.196 -0.6074 -0.5895  1.2031
  132MPD2    N1 2063   1.284   2.336   9.871 -0.2309 -0.7594 -0.0112
  132MPD2    H7 2064   1.281   2.383   9.781 -2.0107  1.2187  1.0879
  133TMC2    C1 2065   4.245   2.085   9.588 -0.1824  1.3216 -0.0995
  133TMC2    C2 2066   4.115   2.093   9.600  0.3081 -0.1639 -0.1695
  133TMC2    C3 2067   4.039   1.992   9.550  0.6169  0.1846  0.7290
  133TMC2    C4 2068   4.313   1.985   9.515 -0.4641  0.5336  1.5478
  133TMC2    C5 2069   4.231   1.881   9.466 -0.1639 -0.3633 -0.7493
  133TMC2    C6 2070   4.094   1.884   9.477  0.1864 -0.1128  0.2587
  133TMC2     C 2071   4.321   2.200   9.623 -1.0233  0.3173  0.2386
  133TMC2     O 2072   4.276   2.313   9.605 -0.4246 -0.1854  0.1676
  133TMC2     H 2073   4.070   2.181   9.644  0.8061 -0.2011  0.4201
  133TMC2    H1 2074   4.420   1.988   9.497 -1.0310 -2.0901 -2.1118
  133TMC2    H2 2075   4.031   1.801   9.449  2.0776 -1.0362 -1.2603
  133TMC2    C7 2076   4.290   1.776   9.393  0.3437 -0.2670 -1.1598
  133TMC2    C8 2077   3.899   1.991   9.567  0.0290  0.3554  0.4192
  133TMC2    O1 2078   4.216   1.716   9.320  0.2042 -0.1867  0.6419
  133TMC2    O2 2079   3.837   2.061   9.644 -0.2414  0.6827  0.1561
  133TMC2    O5 2080   3.842   1.949   9.450 -0.3634  0.3814  0.4684
  133TMC2    H5 2081   3.908   1.944   9.377 -1.5201  0.7190 -0.5959
  134MPD2     C 2082   4.656   2.163   9.789  0.2664  0.3386 -0.0129
  134MPD2    C1 2083   4.550   2.232   9.735 -0.8078  0.5448  0.1452
  134MPD2    C2 2084   4.551   2.368   9.743  0.5335 -0.2422 -0.5348
  134MPD2    C3 2085   4.656   2.439   9.804  0.4573  0.1346  0.4237
  134MPD2    C4 2086   0.017   2.365   9.858  0.6301 -0.2097  0.0500
  134MPD2    C5 2087   0.016   2.226   9.860 -0.2052 -0.6818  0.1209
  134MPD2     H 2088   4.467   2.425   9.705  0.6771  1.1848  1.2989
  134MPD2    H1 2089   0.099   2.405   9.917  0.0634  1.1776 -0.0953
  134MPD2    H2 2090   4.652   2.055   9.793  0.1452  0.2853 -1.4919
  134MPD2    H3 2091   0.093   2.177   9.919  1.4606  1.2814 -0.4241
  134MPD2     N 2092   4.670   2.577   9.809 -0.8063  0.0232  0.1327
  134MPD2    H5 2093   0.008   2.614   9.863 -1.4240  2.4955 -0.6971
  134MPD2    N1 2094   4.444   2.158   9.679  0.0747  0.4973 -0.1123
  134MPD2    H7 2095   4.449   2.059   9.698  0.3563  0.6907  0.8370
  135TMC2    C1 2096   3.215   4.647   9.639 -0.1197 -0.1067 -0.1403
  135TMC2    C2 2097   3.121   0.008   9.642  0.2998  0.0571 -0.0808
  135TMC2    C3 2098   3.025   4.736   9.740  0.3897  0.3596 -0.0295
  135TMC2    C4 2099   3.204   4.533   9.711  0.2027 -0.1961  0.1056
  135TMC2    C5 2100   3.102   4.528   9.802 -0.3825 -0.6109 -0.2961
  135TMC2    C6 2101   3.016   4.633   9.823 -0.0626 -0.2539 -0.1105
  135TMC2     C 2102   3.310   4.658   9.530 -0.6636  0.4266  0.0828
  135TMC2     O 2103   3.294   0.004   9.444 -0.4761  0.4751  0.2996
  135TMC2     H 2104   3.145   0.096   9.583  0.0032  0.1258 -0.1004
  135TMC2    H1 2105   3.265   4.444   9.706  0.2601 -0.0922 -1.0132
  135TMC2    H2 2106   2.924   4.627   9.880 -0.2598  0.0602 -0.3932
  135TMC2    C7 2107   3.057   4.399   9.845  0.2490 -0.0659 -0.1994
  135TMC2    C8 2108   2.937   0.114   9.762 -0.4379  0.2015 -0.8160
  135TMC2    O1 2109   3.101   4.302   9.783  0.8139 -0.0444  1.2175
  135TMC2    O2 2110   2.874   0.133   9.863  0.0784  0.0003 -0.2097
  135TMC2    O5 2111   2.919   0.173   9.644 -0.1653 -0.0791  1.1578
  135TMC2    H5 2112   2.968   0.124   9.575 -0.4600 -1.5989  2.0315
  136MPD2     C 2113   3.525   4.602   9.316  0.5651 -0.4202 -0.6203
  136MPD2    C1 2114   3.506   4.530   9.439  0.7601 -0.1387 -0.6516
  136MPD2    C2 2115   3.600   4.436   9.469  0.7316 -0.8559  0.1711
  136MPD2    C3 2116   3.697   4.402   9.380 -0.2229 -0.2502  0.1233
  136MPD2    C4 2117   3.702   4.458   9.251  0.4072  0.2864 -0.1394
  136MPD2    C5 2118   3.616   4.561   9.219 -0.0364 -0.9093 -0.1689
  136MPD2     H 2119   3.583   4.385   9.563 -0.3304 -0.2396  0.3107
  136MPD2    H1 2120   3.789   4.444   9.187  1.2240 -0.5802  1.1424
  136MPD2    H2 2121   3.463   4.686   9.290 -1.3460 -0.5802  3.4905
  136MPD2    H3 2122   3.635   4.617   9.129  1.0992 -2.4280 -0.8643
  136MPD2     N 2123   3.804   4.320   9.409  0.2212 -0.4798  0.5404
  136MPD2    H5 2124   3.876   4.317   9.337 -0.8862  3.0632 -0.7085
  136MPD2    N1 2125   3.401   4.561   9.534 -0.2206  0.1712  0.0378
  136MPD2    H7 2126   3.390   4.510   9.622  1.9785 -1.0283 -0.3870
  137TMC2    C1 2127   2.345   3.158   9.639 -1.0406 -0.6312 -0.0412
  137TMC2    C2 2128   2.246   3.078   9.579  0.1877 -0.1396 -1.0003
  137TMC2    C3 2129   2.151   3.144   9.506 -0.4226  0.0705 -0.3812
  137TMC2    C4 2130   2.361   3.294   9.611 -0.1156 -0.2392 -0.2537
  137TMC2    C5 2131   2.278   3.347   9.515  0.1161 -0.3390  0.1383
  137TMC2    C6 2132   2.169   3.280   9.466 -0.6320 -0.5761 -0.4929
  137TMC2     C 2133   2.431   3.106   9.749  0.1985 -0.4547 -0.5375
  137TMC2     O 2134   2.506   3.195   9.795  0.5259  0.0287 -0.0719
  137TMC2     H 2135   2.250   2.971   9.596  0.2853  0.0393  0.1309
  137TMC2    H1 2136   2.440   3.356   9.651  0.1757  0.3460 -1.7653
  137TMC2    H2 2137   2.107   3.322   9.388 -2.9553 -0.3648  1.4341
  137TMC2    C7 2138   2.278   3.483   9.493  0.2292  0.4729 -0.0113
  137TMC2    C8 2139   2.071   3.062   9.410  0.2286  0.3610 -0.4040
  137TMC2    O1 2140   2.379   3.547   9.494  1.0357  0.1286 -0.0272
  137TMC2    O2 2141   2.064   3.094   9.290 -0.1956  0.4431 -0.0513
  137TMC2    O5 2142   2.014   2.963   9.483  0.2647 -0.2744 -0.2305
  137TMC2    H5 2143   2.028   2.965   9.580 -0.6461 -0.7521 -0.0843
  138MPD2     C 2144   2.326   2.853  10.002 -0.1270  0.2360 -0.1490
  138MPD2    C1 2145   2.406   2.948   9.943  0.6194 -0.1315 -0.0727
  138MPD2    C2 2146   2.522   2.994  10.008 -0.0458  0.0506 -0.2808
  138MPD2    C3 2147   2.555   2.949  10.131  0.1926  0.7855 -0.3890
  138MPD2    C4 2148   2.470   2.856  10.190 -0.0401 -0.2119  0.5009
  138MPD2    C5 2149   2.360   2.812  10.130 -0.0291  0.3070 -0.2636
  138MPD2     H 2150   2.601   3.053   9.962 -0.2792  0.9806  0.5001
  138MPD2    H1 2151   2.496   2.821  10.289  0.1022  1.1793  0.9477
  138MPD2    H2 2152   2.232   2.811   9.969  0.0881 -0.3276 -0.0433
  138MPD2    H3 2153   2.294   2.748  10.188  0.6021 -1.7075 -1.7696
  138MPD2     N 2154   2.666   3.009  10.192 -0.6916  0.0147 -0.3146
  138MPD2    H5 2155   2.718   3.064  10.124  0.6068  1.2349  1.6951
  138MPD2    N1 2156   2.368   2.997   9.814 -0.3079  0.2038  0.7801
  138MPD2    H7 2157   2.286   2.950   9.777  0.6948 -1.7616  1.1016
  139TMC2    C1 2158   2.979   1.969  13.619  0.2522 -0.0225  0.6404
  139TMC2    C2 2159   3.073   2.044  13.683  0.5638 -0.3462 -0.2233
  139TMC2    C3 2160   3.017   2.160  13.724  1.0941  0.2015  0.8658
  139TMC2    C4 2161   2.843   2.002  13.604  0.5319 -0.3344 -0.0847
  139TMC2    C5 2162   2.802   2.126  13.637 -0.9097  0.8295  0.6604
  139TMC2    C6 2163   2.891   2.201  13.707 -0.3789  0.1092 -0.5112
  139TMC2     C 2164   3.019   1.830  13.579 -0.5635  0.0793 -0.3837
  139TMC2     O 2165   3.129   1.817  13.532 -0.2144  0.2470  0.5930
  139TMC2     H 2166   3.174   2.021  13.716 -0.3081 -0.3858  2.3632
  139TMC2    H1 2167   2.780   1.923  13.564  1.3814 -0.6363 -0.8368
  139TMC2    H2 2168   2.873   2.308  13.711 -1.2774 -0.0133 -1.3050
  139TMC2    C7 2169   2.668   2.175  13.642  0.3162 -0.0343  0.5133
  139TMC2    C8 2170   3.104   2.251  13.792 -0.7093 -0.0313 -0.6996
  139TMC2    O1 2171   2.640   2.258  13.726  0.1394 -0.5870  0.3311
  139TMC2    O2 2172   3.220   2.272  13.761  0.0305 -0.5724 -0.2663
  139TMC2    O5 2173   3.039   2.282  13.908 -0.0229 -0.1098  0.8571
  139TMC2    H5 2174   2.962   2.224  13.926 -0.1626 -0.5453 -1.0970
  140MPD2     C 2175   2.853   1.513  13.652  0.6066 -0.0475 -0.5406
  140MPD2    C1 2176   2.958   1.587  13.612  0.5530 -0.3368 -0.3283
  140MPD2    C2 2177   3.074   1.532  13.557 -0.2082  0.1157  0.2804
  140MPD2    C3 2178   3.081   1.394  13.558  0.3640 -0.1013 -0.2674
  140MPD2    C4 2179   2.974   1.319  13.605 -0.1257  0.2219  0.3073
  140MPD2    C5 2180   2.857   1.373  13.655 -0.4150 -1.3510 -0.2633
  140MPD2     H 2181   3.160   1.587  13.522  1.2044 -0.8977  2.1341
  140MPD2    H1 2182   2.972   1.211  13.618  1.8257  0.4591  2.5883
  140MPD2    H2 2183   2.774   1.562  13.708 -1.3801 -1.8207 -1.8082
  140MPD2    H3 2184   2.792   1.300  13.701 -0.6811 -0.5031  0.6947
  140MPD2     N 2185   3.213   1.340  13.532  0.2539 -0.2944  1.1330
  140MPD2    H5 2186   3.283   1.405  13.498  2.1148 -0.6117  4.3034
  140MPD2    N1 2187   2.931   1.731  13.617 -0.1864 -0.0704 -0.1662
  140MPD2    H7 2188   2.844   1.761  13.661  0.3110  0.0906  0.7000
  141TMC2    C1 2189   3.478   2.825  14.319 -0.5725 -0.1438  0.4122
  141TMC2    C2 2190   3.506   2.713  14.394 -0.1511 -0.5095  0.1497
  141TMC2    C3 2191   3.474   2.716  14.529  0.2028  1.1324 -0.9682
  141TMC2    C4 2192   3.426   2.933  14.376  0.0624 -0.4045 -0.8019
  141TMC2    C5 2193   3.391   2.933  14.510  0.6473 -0.2715  0.2564
  141TMC2    C6 2194   3.424   2.829  14.591  0.2555  0.1781 -0.1959
  141TMC2     C 2195   3.480   2.822  14.171  0.0454  0.0258  0.3350
  141TMC2     O 2196   3.485   2.928  14.112 -0.2141 -0.3318 -0.0364
  141TMC2     H 2197   3.553   2.630  14.343  0.7125  0.4150 -0.5631
  141TMC2    H1 2198   3.400   3.015  14.310  0.3910  1.3780  1.3154
  141TMC2    H2 2199   3.413   2.826  14.699  1.8217 -0.5639 -0.0621
  141TMC2    C7 2200   3.348   3.059  14.580 -0.0256  0.3194 -0.2096
  141TMC2    C8 2201   3.532   2.610  14.598 -0.8907 -0.2623 -0.4596
  141TMC2    O1 2202   3.314   3.056  14.701  0.7949 -0.3115 -0.1090
  141TMC2    O2 2203   3.636   2.563  14.550  0.6406 -0.2402  0.0411
  141TMC2    O5 2204   3.524   2.637  14.729  0.1583 -0.6565 -0.2886
  141TMC2    H5 2205   3.428   2.641  14.750  0.4242 -1.3279  1.1353
  142TMC2    C1 2206   1.595   1.614  10.233 -0.1365 -0.1419 -0.0669
  142TMC2    C2 2207   1.712   1.564  10.293  0.2943 -0.1857  0.1112
  142TMC2    C3 2208   1.822   1.646  10.279  0.1299 -0.1196  0.0810
  142TMC2    C4 2209   1.598   1.719  10.142 -0.2958  0.0505  0.2311
  142TMC2    C5 2210   1.722   1.785  10.117  0.1038  0.0118 -0.4524
  142TMC2    C6 2211   1.829   1.754  10.192  0.2843  0.0055 -0.4700
  142TMC2     C 2212   1.473   1.537  10.212  0.2314 -0.3187  0.8062
  142TMC2     O 2213   1.428   1.552  10.102 -0.4721  0.6059 -0.2010
  142TMC2     H 2214   1.722   1.484  10.365  1.0968 -0.2159 -0.0372
  142TMC2    H1 2215   1.518   1.751  10.076 -1.2196  0.8414  1.7321
  142TMC2    H2 2216   1.917   1.817  10.196  0.8425 -0.7143 -1.2011
  142TMC2    C7 2217   1.718   1.923  10.088 -0.5678 -0.7019  0.0868
  142TMC2    C8 2218   1.932   1.615  10.371  1.0039  0.4393 -0.1403
  142TMC2    O1 2219   1.775   1.987  10.175 -0.3613 -0.1964 -0.3730
  142TMC2    O2 2220   1.920   1.539  10.465 -0.4047  0.0412 -0.1617
  142TMC2    O5 2221   2.055   1.646  10.325 -0.2173 -0.2782  0.3680
  142TMC2    H5 2222   2.063   1.705  10.247  0.9383  0.6621  1.2084
  143MPD2     C 2223   1.111   1.207  10.339 -0.1774  0.2194 -0.4370
  143MPD2    C1 2224   1.141   1.269  10.219  0.5632  0.3987  0.0984
  143MPD2    C2 2225   1.242   1.361  10.206  0.0000  0.5628  0.9734
  143MPD2    C3 2226   1.329   1.373  10.315 -0.0787  0.1668 -0.1954
  143MPD2    C4 2227   1.307   1.303  10.432 -0.3252  0.0256  0.2532
  143MPD2    C5 2228   1.199   1.224  10.445  0.1828  0.4231 -0.4399
  143MPD2     H 2229   1.255   1.412  10.111  1.7507  0.8951  1.3784
  143MPD2    H1 2230   1.378   1.308  10.513  0.2025 -1.5963 -0.1092
  143MPD2    H2 2231   1.021   1.149  10.353  0.9987 -1.2457  1.1638
  143MPD2    H3 2232   1.185   1.175  10.541 -0.9244  1.7624  0.0818
  143MPD2     N 2233   1.440   1.449  10.315  0.1590  0.2267 -0.3681
  143MPD2    H5 2234   1.498   1.452  10.398  0.3522 -0.4530 -0.4773
  143MPD2    N1 2235   1.053   1.237  10.114 -0.5691  0.1422  0.0113
  143MPD2    H7 2236   0.977   1.176  10.142  0.9046 -2.2739 -1.2403
  144TMC2    C1 2237   3.898   4.526   0.110 -0.0155 -0.0337 -0.4994
  144TMC2    C2 2238   3.906   4.403   0.047 -0.0942 -0.5861 -0.6405
  144TMC2    C3 2239   4.009   4.322   0.088  0.5963 -0.2536  0.1380
  144TMC2    C4 2240   3.995   4.576   0.197 -0.2329  0.2694 -0.3121
  144TMC2    C5 2241   4.104   4.502   0.228  0.2096 -0.1841 -0.1630
  144TMC2    C6 2242   4.111   4.372   0.172  0.2763 -0.0916 -1.2654
  144TMC2     C 2243   3.781   4.603   0.081 -0.3272  0.4494 -0.1019
  144TMC2     O 2244   3.713   4.568  17.740  0.1791  0.2854  0.3493
  144TMC2     H 2245   3.818   4.371  17.748 -0.2772 -1.1483  0.0042
  144TMC2    H1 2246   3.984   4.680   0.225  0.6386  0.4763 -0.7418
  144TMC2    H2 2247   4.196   4.309   0.196  0.5829  0.0405 -1.9895
  144TMC2    C7 2248   4.221   4.559   0.286  0.2833  0.7333  0.1449
  144TMC2    C8 2249   4.021   4.203   0.003 -0.0333 -0.3478  0.2506
  144TMC2    O1 2250   4.322   4.509   0.243  0.1422 -0.2429 -0.0673
  144TMC2    O2 2251   4.047   4.202  17.634  0.2210 -0.3012  0.0636
  144TMC2    O5 2252   4.085   4.125   0.093 -0.4229  0.4632 -0.2331
  144TMC2    H5 2253   4.041   4.126   0.180 -1.2055 -0.1899 -0.6292
  145MPD2     C 2254   3.430   0.213   0.184  0.2082  0.5637  0.3495
  145MPD2    C1 2255   3.465   0.157   0.068 -0.7809  0.3295  0.0794
  145MPD2    C2 2256   3.575   0.075   0.071  0.7463  0.3042 -0.2684
  145MPD2    C3 2257   3.636   0.041   0.185 -0.2462  0.6944 -0.0515
  145MPD2    C4 2258   3.601   0.101   0.298  0.5619 -1.0966  0.1495
  145MPD2    C5 2259   3.502   0.193   0.295  0.3821  0.5560 -0.1249
  145MPD2     H 2260   3.608   0.041  17.727 -1.9238 -0.2073 -1.0006
  145MPD2    H1 2261   3.662   0.086   0.387  0.1131 -1.7934  0.3382
  145MPD2    H2 2262   3.346   0.281   0.190 -0.9439 -0.8279  0.0293
  145MPD2    H3 2263   3.473   0.245   0.385  1.1170 -0.8861  0.9610
  145MPD2     N 2264   3.746   4.693   0.182 -0.2392  0.8052 -0.2416
  145MPD2    H5 2265   3.800   4.697   0.268 -0.2485  1.8080 -0.2812
  145MPD2    N1 2266   3.390   0.176  17.701  0.3564 -0.1213  0.6292
  145MPD2    H7 2267   3.424   0.126  17.620 -1.8694  1.1486 -1.0927
  146TMC2    C1 2268   0.334   3.961  12.828 -0.1235 -0.8874  0.3618
  146TMC2    C2 2269   0.262   4.002  12.721  0.0946  0.0079  0.0109
  146TMC2    C3 2270   0.279   3.924  12.609  0.9384 -0.6223  0.4922
  146TMC2    C4 2271   0.419   3.849  12.826  0.6546  0.2858 -0.0438
  146TMC2    C5 2272   0.422   3.777  12.715  0.8976  0.3126 -0.3346
  146TMC2    C6 2273   0.347   3.806  12.603 -0.6019 -0.5863  0.4564
  146TMC2     C 2274   0.314   4.041  12.952 -0.1527 -0.2614 -0.5092
  146TMC2     O 2275   0.205   4.095  12.959 -0.3390  0.0712  0.1991
  146TMC2     H 2276   0.190   4.083  12.723 -0.6354 -0.6715  1.4336
  146TMC2    H1 2277   0.468   3.823  12.919 -0.3165  0.2510  0.4623
  146TMC2    H2 2278   0.362   3.751  12.511  0.5153 -0.9036  0.8274
  146TMC2    C7 2279   0.538   3.699  12.685  0.0023  0.7601  0.5236
  146TMC2    C8 2280   0.219   3.965  12.479  0.5699 -0.5766  0.4898
  146TMC2    O1 2281   0.562   3.668  12.569  0.2854 -0.4393  0.2256
  146TMC2    O2 2282   0.217   3.909  12.370  0.4031  0.3340  0.4806
  146TMC2    O5 2283   0.214   4.105  12.490  0.1470 -0.5025  0.2826
  146TMC2    H5 2284   0.234   4.149  12.575  1.3426  0.4392 -0.4794
  147MPD2     C 2285   0.972   3.439  12.789 -0.2897 -0.1506 -0.0302
  147MPD2    C1 2286   0.882   3.429  12.899 -0.4222 -0.8547 -0.0142
  147MPD2    C2 2287   0.764   3.493  12.896  0.3069  0.6283 -0.7670
  147MPD2    C3 2288   0.716   3.561  12.789  0.4601  0.0977 -0.0401
  147MPD2    C4 2289   0.799   3.571  12.677 -0.7975 -0.1881  0.1708
  147MPD2    C5 2290   0.927   3.517  12.685  0.0889  0.7331 -0.5354
  147MPD2     H 2291   0.692   3.494  12.978  3.0278 -1.4573  1.6435
  147MPD2    H1 2292   0.782   3.622  12.583  1.9363 -0.4250 -0.4433
  147MPD2    H2 2293   1.065   3.384  12.782 -0.0634  0.2207  0.0703
  147MPD2    H3 2294   0.986   3.528  12.595  0.7567 -2.7232 -0.4870
  147MPD2     N 2295   0.595   3.636  12.797 -0.4316  0.6164 -0.0372
  147MPD2    H5 2296   0.550   3.652  12.887 -0.0404  1.2629  0.0414
  147MPD2    N1 2297   0.924   3.344  13.007 -0.9520  0.5683  0.5271
  147MPD2    H7 2298   1.017   3.306  12.992 -1.1150 -0.0108  1.0209
  148TMC2    C1 2299   0.705   2.772  10.544 -0.7905  0.0706  0.4428
  148TMC2    C2 2300   0.752   2.869  10.630  0.1498  0.0226 -0.0329
  148TMC2    C3 2301   0.829   2.824  10.736 -0.3922  0.2811  0.3835
  148TMC2    C4 2302   0.721   2.639  10.561  0.5845  0.2461 -0.8753
  148TMC2    C5 2303   0.778   2.611  10.685  0.3303 -0.4901 -0.8323
  148TMC2    C6 2304   0.854   2.694  10.758  0.6768 -0.0608 -0.3441
  148TMC2     C 2305   0.631   2.825  10.433  0.8779  0.5131  0.0778
  148TMC2     O 2306   0.571   2.933  10.445  0.2444  0.1084  0.6960
  148TMC2     H 2307   0.734   2.975  10.612 -0.8063 -0.5477 -2.4351
  148TMC2    H1 2308   0.663   2.567  10.505 -2.0835  0.2372  1.9402
  148TMC2    H2 2309   0.916   2.666  10.842  0.2861  0.4140  0.0999
  148TMC2    C7 2310   0.785   2.467  10.718  0.1019  0.6550  0.1556
  148TMC2    C8 2311   0.912   2.925  10.800  0.0512 -0.5710 -0.1856
  148TMC2    O1 2312   0.764   2.391  10.624 -0.5670 -0.4278 -0.2233
  148TMC2    O2 2313   1.017   2.895  10.856  0.0028 -0.0168 -0.2143
  148TMC2    O5 2314   0.819   3.020  10.839  0.3256 -0.1862 -0.1548
  148TMC2    H5 2315   0.726   3.001  10.814 -0.3475  0.7663  1.6019
  149MPD2     C 2316   0.520   2.882  10.156  0.0305 -0.1971 -0.8394
  149MPD2    C1 2317   0.584   2.761  10.192  0.7539 -0.4682  0.3791
  149MPD2    C2 2318   0.579   2.659  10.097  0.0544 -0.5059 -0.4627
  149MPD2    C3 2319   0.506   2.668   9.983 -0.2537 -0.2840 -0.3233
  149MPD2    C4 2320   0.428   2.781   9.958 -0.0959  0.1207  0.4194
  149MPD2    C5 2321   0.447   2.884  10.041 -0.0300 -0.1163  0.2787
  149MPD2     H 2322   0.627   2.565  10.122  2.2499  0.5803 -0.5666
  149MPD2    H1 2323   0.369   2.786   9.868  4.0258  2.2261 -2.1457
  149MPD2    H2 2324   0.498   2.966  10.221 -0.7437 -0.2576 -1.0183
  149MPD2    H3 2325   0.399   2.976  10.007 -0.8232 -0.9893 -0.9630
  149MPD2     N 2326   0.485   2.560   9.895 -0.4638 -0.4295  0.3533
  149MPD2    H5 2327   0.413   2.568   9.824  0.0564 -1.8226 -0.3064
  149MPD2    N1 2328   0.641   2.740  10.323 -0.0997 -0.4669 -0.0359
  149MPD2    H7 2329   0.676   2.647  10.341 -0.3889 -0.6269 -0.2906
  150TMC2    C1 2330   2.183   2.018  12.819  0.2168 -0.5079  0.0699
  150TMC2    C2 2331   2.074   2.099  12.824 -0.0528 -0.3559  0.4041
  150TMC2    C3 2332   2.098   2.229  12.863  0.0654 -0.1635 -0.4434
  150TMC2    C4 2333   2.309   2.064  12.853  0.4376  0.3141 -0.3201
  150TMC2    C5 2334   2.331   2.202  12.855  0.4270 -0.2315 -0.3614
  150TMC2    C6 2335   2.222   2.282  12.871 -0.1839  0.2262 -0.4999
  150TMC2     C 2336   2.169   1.876  12.766 -0.1113 -0.0812 -0.2125
  150TMC2     O 2337   2.261   1.795  12.785  0.3771 -0.0226 -0.2018
  150TMC2     H 2338   1.974   2.063  12.805 -0.5325  2.0249 -1.6305
  150TMC2    H1 2339   2.390   1.992  12.852 -0.0564 -0.2647  1.3609
  150TMC2    H2 2340   2.237   2.388  12.892 -1.4451 -0.0615  1.7909
  150TMC2    C7 2341   2.452   2.249  12.917 -0.0533  0.3482  0.0950
  150TMC2    C8 2342   1.995   2.314  12.906  0.0411 -0.3769 -0.0551
  150TMC2    O1 2343   2.445   2.350  12.985  0.2834  0.6028 -0.3718
  150TMC2    O2 2344   1.993   2.424  12.863  0.6180  0.8031  0.8312
  150TMC2    O5 2345   1.939   2.266  13.023 -0.1807 -0.4095  0.1228
  150TMC2    H5 2346   1.967   2.174  13.039  0.6549 -0.1337  0.2578
  151MPD2     C 2347   1.847   1.508  12.601 -0.7600 -0.5600  0.5089
  151MPD2    C1 2348   1.806   1.628  12.554  0.3650  0.2463 -0.2207
  151MPD2    C2 2349   1.873   1.744  12.593  0.6918  0.7999  0.6448
  151MPD2    C3 2350   1.990   1.743  12.661 -0.2597 -0.1812  0.7066
  151MPD2    C4 2351   2.037   1.617  12.697  0.1798  0.0371  0.2993
  151MPD2    C5 2352   1.968   1.500  12.662  0.1143  0.6834 -1.0099
  151MPD2     H 2353   1.839   1.841  12.557  1.1670  0.4556 -0.7267
  151MPD2    H1 2354   2.129   1.606  12.753  1.1820  0.8275 -1.1648
  151MPD2    H2 2355   1.794   1.415  12.583 -0.5177 -0.8056  1.0752
  151MPD2    H3 2356   2.005   1.405  12.698 -0.3981  0.4372 -1.1290
  151MPD2     N 2357   2.048   1.860  12.697 -0.1834  0.4952  1.1180
  151MPD2    H5 2358   1.997   1.946  12.675  1.0526  1.0153  0.2698
  151MPD2    N1 2359   1.694   1.634  12.464 -0.2418 -0.3095  0.2934
  151MPD2    H7 2360   1.653   1.547  12.432 -3.9099  0.7570  2.1983
  152TMC2    C1 2361   2.538   1.778  13.053 -0.0826 -0.2271 -0.0374
  152TMC2    C2 2362   2.610   1.670  13.009 -0.1062  0.3019 -0.1102
  152TMC2    C3 2363   2.747   1.678  13.016  0.0462  0.3236  0.0032
  152TMC2    C4 2364   2.599   1.888  13.107 -0.1114  0.9578 -0.8148
  152TMC2    C5 2365   2.734   1.887  13.119 -0.0309  0.2797 -0.5072
  152TMC2    C6 2366   2.817   1.784  13.080 -0.5087 -0.1667 -0.3625
  152TMC2     C 2367   2.392   1.761  13.078 -0.6676  0.2864 -0.4322
  152TMC2     O 2368   2.323   1.864  13.075  0.3522  0.1690 -0.4050
  152TMC2     H 2369   2.556   1.592  12.956 -2.2886  2.7219 -1.4803
  152TMC2    H1 2370   2.543   1.974  13.143  0.7234  0.2592  2.2050
  152TMC2    H2 2371   2.922   1.783  13.108 -0.9389 -1.5666  1.2011
  152TMC2    C7 2372   2.792   1.991  13.197  0.0257  0.1792  0.8578
  152TMC2    C8 2373   2.818   1.555  13.014  0.5335  0.6343 -0.8351
  152TMC2    O1 2374   2.739   2.019  13.302 -0.8634 -0.2092  0.0201
  152TMC2    O2 2375   2.898   1.540  13.100  0.3633 -0.0931 -0.6088
  152TMC2    O5 2376   2.739   1.457  12.967 -0.7482  0.0821  0.4172
  152TMC2    H5 2377   2.694   1.483  12.884  0.0594  1.1119  0.2941
  153MPD2     C 2378   2.212   1.437  13.117 -0.2724  0.4950 -0.5055
  153MPD2    C1 2379   2.222   1.574  13.092 -0.7473  0.0199  0.3246
  153MPD2    C2 2380   2.111   1.645  13.050  0.2346  0.1057 -0.5713
  153MPD2    C3 2381   1.986   1.585  13.038 -0.1195  0.3526 -0.0657
  153MPD2    C4 2382   1.987   1.449  13.073  0.4761  0.1574 -0.8995
  153MPD2    C5 2383   2.094   1.376  13.108 -0.4748 -0.3482 -0.2727
  153MPD2     H 2384   2.120   1.752  13.034 -0.2473  0.2174 -0.0981
  153MPD2    H1 2385   1.894   1.393  13.066  0.4376 -0.0972  1.5224
  153MPD2    H2 2386   2.298   1.377  13.145 -0.6148  0.5764  0.7259
  153MPD2    H3 2387   2.090   1.271  13.133 -0.4563 -0.0947  0.7803
  153MPD2     N 2388   1.877   1.666  12.997  0.5475 -0.3680 -0.3971
  153MPD2    H5 2389   1.897   1.765  12.995 -1.3519 -0.0070 -1.8197
  153MPD2    N1 2390   2.358   1.628  13.095  0.2732 -0.4322  0.6337
  153MPD2    H7 2391   2.432   1.559  13.108  0.8459  0.2296  0.9160
  154TMC2    C1 2392   3.954   1.034   0.275 -0.7000 -0.2512 -0.3537
  154TMC2    C2 2393   3.954   1.047   0.137 -0.7717  0.3490  0.1510
  154TMC2    C3 2394   4.044   0.975   0.064  0.0665  0.0386  0.1895
  154TMC2    C4 2395   4.050   0.957   0.328 -0.4961  0.3845 -1.0731
  154TMC2    C5 2396   4.137   0.894   0.252  0.3287  0.6198  0.0467
  154TMC2    C6 2397   4.138   0.891   0.117 -0.4623 -0.1731 -0.1565
  154TMC2     C 2398   3.868   1.125   0.368  0.4411  0.1331  0.4056
  154TMC2     O 2399   3.890   1.115   0.488 -0.3001  0.0700 -0.3200
  154TMC2     H 2400   3.885   1.112   0.085  0.6747  2.3043  0.6735
  154TMC2    H1 2401   4.057   0.947   0.436  2.2171 -1.1231 -1.3852
  154TMC2    H2 2402   4.211   0.844   0.053 -1.5021 -0.8045 -0.8888
  154TMC2    C7 2403   4.215   0.783   0.313 -0.0065 -0.4363  0.8011
  154TMC2    C8 2404   4.046   0.999  17.678 -0.3755 -0.6832 -0.4573
  154TMC2    O1 2405   4.232   0.794   0.435 -0.2317  0.3672  0.0089
  154TMC2    O2 2406   3.944   1.045  17.636  0.4204 -0.3782  0.2666
  154TMC2    O5 2407   4.175   1.045  17.649  0.4602 -0.2265  0.1525
  154TMC2    H5 2408   4.236   1.054  17.725 -0.5994  0.9728  0.8757
  155MPD2     C 2409   3.614   1.375   0.256  0.3378 -0.2435  0.6145
  155MPD2    C1 2410   3.701   1.311   0.344 -0.2725  0.0536  0.3387
  155MPD2    C2 2411   3.686   1.342   0.479  0.3573 -0.9060 -0.4992
  155MPD2    C3 2412   3.599   1.446   0.513  0.8597  0.2553 -1.1447
  155MPD2    C4 2413   3.529   1.523   0.421  0.3831 -0.2414 -0.7360
  155MPD2    C5 2414   3.540   1.480   0.287  0.1763  0.3242  0.4922
  155MPD2     H 2415   3.743   1.293   0.557 -1.2873  2.3003  2.7382
  155MPD2    H1 2416   3.472   1.610   0.453  1.1341  0.3990 -1.1536
  155MPD2    H2 2417   3.606   1.345   0.152  0.2842 -0.7265  0.7574
  155MPD2    H3 2418   3.484   1.528   0.208 -2.0498 -3.6663 -0.3872
  155MPD2     N 2419   3.580   1.460   0.656 -0.1549 -0.2714  0.3932
  155MPD2    H5 2420   3.637   1.388   0.700  0.5321  0.5962  0.9519
  155MPD2    N1 2421   3.791   1.213   0.298  0.3601 -0.8815  0.2250
  155MPD2    H7 2422   3.798   1.201   0.198 -0.1620 -0.5999  0.1568
  156TMC2    C1 2423   2.458   4.054  11.588  0.2601  0.2573 -0.7439
  156TMC2    C2 2424   2.528   3.978  11.499  0.1660  0.5244 -0.0698
  156TMC2    C3 2425   2.503   3.986  11.364  0.1266 -0.4003  0.1205
  156TMC2    C4 2426   2.359   4.139  11.552  0.8563  0.9200 -0.2647
  156TMC2    C5 2427   2.328   4.139  11.416 -0.2846  0.4308  0.1622
  156TMC2    C6 2428   2.402   4.069  11.320  0.8988  0.3225 -0.5753
  156TMC2     C 2429   2.466   4.031  11.731 -0.7880 -0.0430 -0.7510
  156TMC2     O 2430   2.385   4.093  11.797 -0.8145  0.1811 -0.3891
  156TMC2     H 2431   2.600   3.908  11.540 -0.3405  1.0599  1.7429
  156TMC2    H1 2432   2.347   4.229  11.611 -0.5959  0.8572 -0.4624
  156TMC2    H2 2433   2.379   4.091  11.217  2.7889 -0.5576 -1.1805
  156TMC2    C7 2434   2.258   4.262  11.378 -0.5170 -0.3027 -0.3840
  156TMC2    C8 2435   2.590   3.950  11.254  0.5689 -0.1651  0.5479
  156TMC2    O1 2436   2.316   4.325  11.291  0.3370  0.1955 -0.4919
  156TMC2    O2 2437   2.574   3.988  11.141 -0.5295 -0.5447 -0.2899
  156TMC2    O5 2438   2.713   3.947  11.309 -0.3931  0.2186  0.1680
  156TMC2    H5 2439   2.703   3.931  11.405  1.0573  1.5106  0.5417
  157MPD2     C 2440   2.733   3.835  11.907 -0.4208 -0.1535  0.8150
  157MPD2    C1 2441   2.616   3.910  11.892 -0.0122  0.0109  0.2575
  157MPD2    C2 2442   2.537   3.933  12.006 -0.3307 -0.4723  0.5101
  157MPD2    C3 2443   2.575   3.891  12.130 -0.4681 -0.2413  0.4100
  157MPD2    C4 2444   2.690   3.816  12.139 -0.1285 -0.1619 -0.2347
  157MPD2    C5 2445   2.766   3.782  12.032  0.1724 -1.3554  0.2308
  157MPD2     H 2446   2.440   3.982  11.996 -0.3460 -0.8900 -1.3473
  157MPD2    H1 2447   2.734   3.797  12.236  0.5090 -1.4872 -0.7786
  157MPD2    H2 2448   2.791   3.803  11.821 -0.4194  0.2723  0.6603
  157MPD2    H3 2449   2.858   3.735  12.062  1.0127  0.6417  0.7991
  157MPD2     N 2450   2.499   3.928  12.240  0.2791 -0.3224 -0.2660
  157MPD2    H5 2451   2.415   3.983  12.225  2.4138  3.2968  1.0275
  157MPD2    N1 2452   2.582   3.962  11.765  0.2838 -0.2860 -0.6976
  157MPD2    H7 2453   2.639   3.927  11.689 -0.1517 -0.0941 -1.1077
  158TMC2    C1 2454   2.603   3.012  13.138 -1.0942  0.1868 -0.0434
  158TMC2    C2 2455   2.627   3.034  13.006  0.1667 -0.8526 -0.3503
  158TMC2    C3 2456   2.515   3.043  12.925  0.0213 -0.0555  0.6426
  158TMC2    C4 2457   2.477   2.991  13.190  0.5566  0.0463 -0.1766
  158TMC2    C5 2458   2.372   3.001  13.109  0.0111  0.7973 -0.1689
  158TMC2    C6 2459   2.388   3.031  12.979 -0.0797 -0.3867  0.2602
  158TMC2     C 2460   2.717   3.036  13.226  0.2623 -0.2133  0.2117
  158TMC2     O 2461   2.821   3.072  13.166  0.2444  0.4512 -0.7639
  158TMC2     H 2462   2.726   3.035  12.961 -0.1223 -1.1460 -0.9982
  158TMC2    H1 2463   2.458   2.981  13.296  0.3944  0.2144 -0.1900
  158TMC2    H2 2464   2.296   3.045  12.924  0.1872  2.6282  0.5705
  158TMC2    C7 2465   2.237   3.015  13.168 -0.3295 -1.1697  0.5009
  158TMC2    C8 2466   2.535   3.040  12.783  0.0216  0.0565 -0.4081
  158TMC2    O1 2467   2.163   3.101  13.124  0.2088 -0.9752  0.1313
  158TMC2    O2 2468   2.640   3.004  12.739  0.2323  0.1656  0.2188
  158TMC2    O5 2469   2.416   3.026  12.722 -0.3651 -0.0493  0.3751
  158TMC2    H5 2470   2.359   3.095  12.761  0.9196  1.1216  0.1680
  159MPD2     C 2471   2.990   2.962  13.665  0.1723 -0.9520 -0.3388
  159MPD2    C1 2472   2.856   2.964  13.696 -0.0473  0.4650  0.9319
  159MPD2    C2 2473   2.760   2.984  13.594 -0.0364  0.9234  0.6420
  159MPD2    C3 2474   2.796   2.992  13.464 -0.7592 -0.7525 -1.0673
  159MPD2    C4 2475   2.927   2.995  13.432  0.2042 -0.0019 -0.0728
  159MPD2    C5 2476   3.032   2.979  13.534 -0.4759 -0.5308 -0.3244
  159MPD2     H 2477   2.655   2.995  13.615 -0.2433 -0.0907  0.1097
  159MPD2    H1 2478   2.958   3.001  13.328 -0.5878  1.1345 -0.2362
  159MPD2    H2 2479   3.067   2.950  13.741 -1.8850 -0.3172  1.8340
  159MPD2    H3 2480   3.136   2.974  13.505 -0.4003  1.3082 -0.3483
  159MPD2     N 2481   2.695   3.013  13.360 -0.0991  0.0488  0.3921
  159MPD2    H5 2482   2.602   3.022  13.400  0.2664  0.0289  1.2583
  159MPD2    N1 2483   2.827   2.933  13.833 -0.1155 -0.0474  0.2187
  159MPD2    H7 2484   2.902   2.935  13.901 -0.0094  1.9630  0.0386
  160TMC2    C1 2485   1.902   1.002   1.099 -0.3584 -0.2226 -0.8812
  160TMC2    C2 2486   1.912   0.938   0.977 -0.4590 -0.1743  0.0839
  160TMC2    C3 2487   2.015   0.970   0.899 -0.0301  0.0514 -0.5351
  160TMC2    C4 2488   2.002   1.086   1.141  0.1497  0.6666  0.1203
  160TMC2    C5 2489   2.104   1.115   1.059  0.1282  0.1024 -0.1966
  160TMC2    C6 2490   2.111   1.067   0.926 -0.0506 -0.4610 -0.3414
  160TMC2     C 2491   1.794   0.958   1.181 -0.9223  0.3529 -0.1504
  160TMC2     O 2492   1.756   0.843   1.152 -0.2949 -0.0527 -0.7890
  160TMC2     H 2493   1.850   0.855   0.944 -0.1008  0.0455 -1.1578
  160TMC2    H1 2494   1.997   1.138   1.236 -2.1793  0.3194  0.1832
  160TMC2    H2 2495   2.196   1.074   0.859  0.7769 -0.5118  0.7108
  160TMC2    C7 2496   2.216   1.201   1.113 -0.1942 -0.5815 -0.0525
  160TMC2    C8 2497   2.053   0.875   0.797 -0.0918  0.6366  0.0837
  160TMC2    O1 2498   2.176   1.279   1.195 -0.0668  0.4866  0.0350
  160TMC2    O2 2499   1.979   0.814   0.719 -0.0046 -0.3898 -0.3086
  160TMC2    O5 2500   2.183   0.833   0.820 -0.0282  0.0072  0.4544
  160TMC2    H5 2501   2.222   0.877   0.899  0.1550  0.2113  0.2526
  161MPD2     C 2502   1.664   0.884   1.425  0.0323 -0.8775  0.3283
  161MPD2    C1 2503   1.677   1.016   1.387 -0.3663  0.9018  0.2035
  161MPD2    C2 2504   1.616   1.113   1.453 -0.1008 -0.1255  0.0746
  161MPD2    C3 2505   1.528   1.085   1.552 -0.7704  0.8434  0.6078
  161MPD2    C4 2506   1.512   0.957   1.592  0.4013  0.5281  0.6841
  161MPD2    C5 2507   1.570   0.854   1.518 -0.1554 -0.0755 -0.0475
  161MPD2     H 2508   1.639   1.216   1.431 -0.2324 -0.3791 -1.2509
  161MPD2    H1 2509   1.449   0.922   1.673  1.8198 -2.3060  0.5617
  161MPD2    H2 2510   1.722   0.808   1.373  1.1882  0.4041 -0.2767
  161MPD2    H3 2511   1.558   0.751   1.547 -0.5377  0.5237  1.9605
  161MPD2     N 2512   1.464   1.182   1.637  0.3842 -0.7119 -0.1216
  161MPD2    H5 2513   1.408   1.143   1.712  0.1403  1.9491  1.0668
  161MPD2    N1 2514   1.762   1.048   1.280  0.3087 -0.3936  0.1195
  161MPD2    H7 2515   1.782   1.147   1.265 -2.4095 -0.1473 -1.7999
  162TMC2    C1 2516   4.737   2.984   1.229  0.3314  0.0604  0.4382
  162TMC2    C2 2517   4.636   3.056   1.173  0.3453 -0.7789 -0.2716
  162TMC2    C3 2518   4.552   3.115   1.258 -0.7019 -0.2509 -0.5197
  162TMC2    C4 2519   0.015   2.976   1.365 -0.3226  0.3184  0.6575
  162TMC2    C5 2520   4.658   3.031   1.447 -0.4925 -0.4871 -0.0277
  162TMC2    C6 2521   4.557   3.106   1.397  0.9459  0.9212  0.1765
  162TMC2     C 2522   0.076   2.898   1.137 -0.1338  0.1892 -1.0374
  162TMC2     O 2523   0.066   2.910   1.016  0.4678 -0.7885 -0.1211
  162TMC2     H 2524   4.614   3.054   1.067 -2.4895 -3.5068  0.3633
  162TMC2    H1 2525   0.100   2.923   1.408 -1.4188 -1.7472  0.2877
  162TMC2    H2 2526   4.487   3.166   1.454 -2.0802 -2.1420 -0.3049
  162TMC2    C7 2527   4.686   3.044   1.587  0.6199 -0.0161 -0.2731
  162TMC2    C8 2528   4.434   3.181   1.204 -0.0487 -0.1121  0.6341
  162TMC2    O1 2529   4.638   3.143   1.643  0.4922  0.4852  0.3115
  162TMC2    O2 2530   4.404   3.166   1.087  0.1261 -0.7330 -0.1946
  162TMC2    O5 2531   4.425   3.306   1.258  0.0761 -0.2580  0.1160
  162TMC2    H5 2532   4.494   3.325   1.325 -0.1123 -0.2623  0.3126
  163MPD2     C 2533   0.491   2.621   1.036  0.1816 -0.1290  0.6165
  163MPD2    C1 2534   0.409   2.685   0.949  0.1157  0.0980  0.0200
  163MPD2    C2 2535   0.296   2.742   0.998  0.1541  0.3231  0.0345
  163MPD2    C3 2536   0.257   2.735   1.135 -0.0312  0.8650  0.6080
  163MPD2    C4 2537   0.350   2.664   1.218  0.6521 -0.0522  0.6803
  163MPD2    C5 2538   0.463   2.612   1.168  0.4090 -0.1340 -0.3390
  163MPD2     H 2539   0.243   2.800   0.924 -0.3361  0.0522  0.1760
  163MPD2    H1 2540   0.335   2.649   1.325  1.0197 -2.2372  0.4295
  163MPD2    H2 2541   0.574   2.560   1.002  0.2110  0.0518  0.3621
  163MPD2    H3 2542   0.531   2.567   1.239 -0.4346 -0.3311  0.3317
  163MPD2     N 2543   0.147   2.803   1.203 -0.3469  0.1565  0.2642
  163MPD2    H5 2544   0.143   2.795   1.304  0.5691 -0.0193  0.2884
  163MPD2    N1 2545   0.443   2.683   0.809 -1.2465 -0.5520 -0.3284
  163MPD2    H7 2546   0.532   2.646   0.778 -0.0353  2.2151 -0.1843
  164TMC2    C1 2547   1.281   2.530  10.956 -0.9094  0.0441  0.1829
  164TMC2    C2 2548   1.365   2.640  10.961  0.1555  0.3608 -0.0262
  164TMC2    C3 2549   1.322   2.754  11.026 -0.4312 -0.4682 -0.8522
  164TMC2    C4 2550   1.160   2.539  11.015 -0.0269  0.0043  0.2266
  164TMC2    C5 2551   1.123   2.657  11.078 -0.2362  0.1945  0.0180
  164TMC2    C6 2552   1.205   2.766  11.080  0.1115 -0.9299  0.4380
  164TMC2     C 2553   1.334   2.394  10.919  0.7767 -0.1230 -0.5165
  164TMC2     O 2554   1.256   2.303  10.945  0.2133 -0.0418 -0.6876
  164TMC2     H 2555   1.467   2.633  10.924 -0.1254  1.2289 -0.9592
  164TMC2    H1 2556   1.088   2.458  11.018  2.4285 -2.1137  1.9070
  164TMC2    H2 2557   1.167   2.866  11.097  2.4333  0.2117 -1.0404
  164TMC2    C7 2558   0.988   2.686  11.111 -0.5869  0.0768  1.2868
  164TMC2    C8 2559   1.423   2.855  11.051  0.3346 -0.2540  0.4807
  164TMC2    O1 2560   0.895   2.621  11.061  0.2155 -0.5116 -0.2566
  164TMC2    O2 2561   1.526   2.862  10.988 -0.3657  0.3881 -0.0693
  164TMC2    O5 2562   1.428   2.878  11.179 -0.0262  0.0012 -0.8763
  164TMC2    H5 2563   1.347   2.847  11.225 -0.5508  2.6942 -0.0246
  165TMC2    C1 2564   1.725   0.270   0.590  0.3087 -0.0836 -0.0741
  165TMC2    C2 2565   1.685   0.156   0.517  0.4854 -0.5558 -0.0728
  165TMC2    C3 2566   1.748   0.036   0.555  0.2145  0.6410 -0.4597
  165TMC2    C4 2567   1.827   0.275   0.673  0.7729  0.5819  0.3250
  165TMC2    C5 2568   1.883   0.156   0.705  0.4120  0.4518  0.7814
  165TMC2    C6 2569   1.853   0.037   0.645 -0.9606 -0.0928 -0.1657
  165TMC2     C 2570   1.638   0.392   0.586 -0.1436  0.2040 -0.7617
  165TMC2     O 2571   1.662   0.472   0.679  0.5317 -0.3210  0.0571
  165TMC2     H 2572   1.600   0.157   0.449 -1.2390  1.3607  2.1043
  165TMC2    H1 2573   1.870   0.372   0.697 -0.8595  1.1642  0.9141
  165TMC2    H2 2574   1.914   4.689   0.665 -1.6764 -0.5897 -0.1371
  165TMC2    C7 2575   2.013   0.165   0.771  0.1197 -0.3544 -0.6669
  165TMC2    C8 2576   1.684   4.651   0.497  0.0130 -0.2812  0.2966
  165TMC2    O1 2577   2.091   0.072   0.762 -0.2435 -0.2712 -0.9875
  165TMC2    O2 2578   1.569   4.644   0.464  0.2817 -0.1551  0.0539
  165TMC2    O5 2579   1.764   4.553   0.548 -0.4095 -0.4225  0.9832
  165TMC2    H5 2580   1.858   4.581   0.548 -0.6725  0.4385 -1.5693
  166MPD2     C 2581   1.252   0.689   0.411 -0.5658 -0.9425  0.0664
  166MPD2    C1 2582   1.324   0.692   0.530  0.0722  0.5806  0.8806
  166MPD2    C2 2583   1.428   0.607   0.556 -0.7549 -0.3437  0.0239
  166MPD2    C3 2584   1.458   0.506   0.462  1.2420  0.0915  0.0910
  166MPD2    C4 2585   1.402   0.508   0.337 -0.9636  0.0784 -0.1810
  166MPD2    C5 2586   1.298   0.598   0.307 -0.9481  0.6784  0.2622
  166MPD2     H 2587   1.480   0.609   0.651 -0.5876 -2.3141 -0.0209
  166MPD2    H1 2588   1.433   0.432   0.266 -2.4776 -2.9111  2.3606
  166MPD2    H2 2589   1.164   0.747   0.388  0.1719  0.3632  0.5572
  166MPD2    H3 2590   1.257   0.587   0.207  1.8818  0.7434 -0.9108
  166MPD2     N 2591   1.549   0.397   0.477 -0.0800  0.4668  0.1584
  166MPD2    H5 2592   1.553   0.321   0.411  0.1860 -1.7675  2.7148
  166MPD2    N1 2593   1.292   0.773   0.640  0.2330  0.2340  0.1741
  166MPD2    H7 2594   1.344   0.763   0.727 -0.7335 -1.4247  0.5628
  167TMC2    C1 2595   0.131   2.810  12.951  0.0024  0.3901  0.6666
  167TMC2    C2 2596   0.116   2.840  13.078  1.0248  0.2073 -0.3984
  167TMC2    C3 2597   0.109   2.737  13.167  0.1802 -0.4508  0.2703
  167TMC2    C4 2598   0.153   2.683  12.900 -0.2024 -0.4519 -0.1068
  167TMC2    C5 2599   0.147   2.584  12.993  0.5895 -0.8442 -0.1887
  167TMC2    C6 2600   0.134   2.613  13.123  0.5127  0.2040  0.1500
  167TMC2     C 2601   0.132   2.932  12.858 -0.4983  0.4529  0.4157
  167TMC2     O 2602   0.066   3.030  12.887  0.1944 -0.6564 -0.4856
  167TMC2     H 2603   0.075   2.939  13.094 -2.6875 -1.4548  0.5340
  167TMC2    H1 2604   0.137   2.667  12.794  1.4462 -0.2600 -0.3800
  167TMC2    H2 2605   0.110   2.530  13.190  2.1534 -0.0418  0.4209
  167TMC2    C7 2606   0.161   2.448  12.952  0.1908 -0.3377  0.4958
  167TMC2    C8 2607   0.099   2.746  13.307  0.4874  0.4473  0.1737
  167TMC2    O1 2608   0.125   2.356  13.022 -0.5766  0.2395  0.1007
  167TMC2    O2 2609   0.034   2.670  13.381 -0.4193 -0.1992 -0.4123
  167TMC2    O5 2610   0.198   2.822  13.350  0.8604 -0.6939 -0.0402
  167TMC2    H5 2611   0.233   2.876  13.276  0.1729 -0.2513 -0.0401
  168MPD2     C 2612   0.231   3.143  12.669  0.0531 -0.2858 -0.0659
  168MPD2    C1 2613   0.258   3.011  12.655 -0.3251 -0.3981  0.0482
  168MPD2    C2 2614   0.326   2.971  12.540  0.4991  0.2786 -0.4319
  168MPD2    C3 2615   0.377   3.065  12.446 -0.2306 -1.1265  0.8337
  168MPD2    C4 2616   0.368   3.194  12.478  0.3975 -0.0458 -0.5849
  168MPD2    C5 2617   0.295   3.232  12.589  0.0378  1.0736 -0.0379
  168MPD2     H 2618   0.347   2.866  12.523  1.1700  0.0961  1.4836
  168MPD2    H1 2619   0.404   3.276  12.417  0.7989  0.3832  0.2177
  168MPD2    H2 2620   0.173   3.182  12.751  2.3991  2.5364  0.2505
  168MPD2    H3 2621   0.288   3.336  12.617 -1.4520  0.4566  1.9167
  168MPD2     N 2622   0.441   3.048  12.319  0.1223  0.0265  0.5027
  168MPD2    H5 2623   0.455   3.133  12.266  0.5091  0.0592  0.6527
  168MPD2    N1 2624   0.218   2.913  12.751  0.5441  0.0009  0.4539
  168MPD2    H7 2625   0.239   2.815  12.734  1.1875 -0.4938  4.1423
  169MPD1     C 2626   2.096   2.576   8.598 -0.1807  0.1472 -0.2604
  169MPD1    C1 2627   2.011   2.599   8.707  0.2286  0.4055  0.2314
  169MPD1    C2 2628   2.047   2.550   8.830 -0.3090  0.3926 -0.0259
  169MPD1    C3 2629   2.178   2.496   8.846 -0.1162  0.3784  1.2605
  169MPD1    C4 2630   2.261   2.478   8.740 -0.6272  0.3039  0.2716
  169MPD1    C5 2631   2.215   2.512   8.615  0.3499  0.0450 -0.5313
  169MPD1     H 2632   1.982   2.567   8.915 -1.9493  0.3165 -1.2466
  169MPD1    H1 2633   2.364   2.450   8.758 -0.0658  2.0405 -0.1799
  169MPD1    H2 2634   2.084   2.615   8.497  2.7211  0.3830 -0.5078
  169MPD1    H3 2635   2.277   2.506   8.527  0.1353 -1.5210 -0.5667
  169MPD1     N 2636   2.223   2.464   8.980 -0.2065 -0.0102 -0.1535
  169MPD1    H5 2637   2.318   2.429   8.978 -0.0336  0.5480 -1.8576
  169MPD1    N1 2638   1.884   2.649   8.686 -0.5067  0.2131  0.4978
  169MPD1    H6 2639   1.853   2.713   8.759  0.0654  1.4386 -0.3248
  169MPD1    H7 2640   1.867   2.695   8.596 -1.3118  0.1682  0.6245
  170MPD1     C 2641   0.859   4.455  12.763 -0.2731  0.0718 -0.9189
  170MPD1    C1 2642   0.778   4.520  12.851  0.2619  0.5626  0.9397
  170MPD1    C2 2643   0.823   4.535  12.982  1.0243 -0.6767  0.4219
  170MPD1    C3 2644   0.951   4.489  13.022 -0.3016 -0.3540 -0.0462
  170MPD1    C4 2645   1.032   4.435  12.926 -0.3259 -0.6639 -0.9857
  170MPD1    C5 2646   0.985   4.420  12.798  0.9388 -0.3524 -0.2445
  170MPD1     H 2647   0.758   4.577  13.057 -0.3936 -1.5200 -0.3382
  170MPD1    H1 2648   1.131   4.400  12.951 -0.8742  0.2917  2.5517
  170MPD1    H2 2649   0.830   4.422  12.664 -0.7635  1.2278 -1.1559
  170MPD1    H3 2650   1.046   4.376  12.719  1.7091 -0.2763  0.3119
  170MPD1     N 2651   0.985   4.510  13.152  0.3682  0.2451  0.3986
  170MPD1    H5 2652   0.915   4.569  13.196 -0.6897 -1.7521  1.4215
  170MPD1    N1 2653   0.639   4.549  12.821  0.2730 -0.3949  0.1311
  170MPD1    H6 2654   0.606   4.638  12.858 -0.5917  0.0353 -1.6486
  170MPD1    H7 2655   0.636   4.552  12.719 -0.5939  1.6229  0.2128
  171MPD1     C 2656   4.730   1.267  15.339  0.9339  0.4088  0.0042
  171MPD1    C1 2657   4.690   1.140  15.306 -0.7147  0.0824 -0.0522
  171MPD1    C2 2658   4.726   1.040  15.393 -0.9264 -0.0322 -0.3082
  171MPD1    C3 2659   0.058   1.066  15.511  0.5727  0.2257 -0.2292
  171MPD1    C4 2660   0.091   1.198  15.535  0.2815 -0.4424  0.0155
  171MPD1    C5 2661   0.054   1.302  15.451 -0.2959  0.3950 -0.0254
  171MPD1     H 2662   4.700   0.938  15.367 -0.4078  0.2052 -1.7339
  171MPD1    H1 2663   0.138   1.218  15.631 -0.3120 -1.1253  0.4484
  171MPD1    H2 2664   4.712   1.350  15.272 -0.0219  0.9987  0.9920
  171MPD1    H3 2665   0.092   1.402  15.465 -2.3600  0.9984  1.2887
  171MPD1     N 2666   0.086   0.973  15.615 -1.2329 -0.2898  0.1500
  171MPD1    H5 2667   0.128   1.010  15.700  1.1865  0.1145 -1.2172
  171MPD1    N1 2668   4.632   1.112  15.181 -0.0735 -0.8543  0.1327
  171MPD1    H6 2669   4.564   1.182  15.152  0.1109 -1.0219 -0.6945
  171MPD1    H7 2670   4.560   1.041  15.193 -0.5858 -0.5728 -1.2352
  172MPD1     C 2671   3.725   0.118  17.298  0.5439  0.7975  0.1053
  172MPD1    C1 2672   3.625   0.218  17.281 -0.1279  0.5789  0.0111
  172MPD1    C2 2673   3.601   0.301  17.391 -0.0516 -0.1457 -0.4827
  172MPD1    C3 2674   3.656   0.281  17.514  0.2160 -0.4540 -0.6175
  172MPD1    C4 2675   3.744   0.177  17.526 -0.3681  0.6027  0.2414
  172MPD1    C5 2676   3.774   0.095  17.425 -1.2587  0.1069 -0.1964
  172MPD1     H 2677   3.528   0.379  17.371 -0.0628 -0.0933 -0.2416
  172MPD1    H1 2678   3.775   0.146  17.625 -1.2337  0.6576  0.5284
  172MPD1    H2 2679   3.744   0.045  17.220 -1.7418  1.8035 -1.4233
  172MPD1    H3 2680   3.847   0.016  17.435 -2.2449 -1.1741 -3.3121
  172MPD1     N 2681   3.644   0.368  17.628  0.2618  0.0094 -0.0723
  172MPD1    H5 2682   3.684   0.351  17.719  0.8478 -2.8215 -0.8575
  172MPD1    N1 2683   3.562   0.234  17.158  0.0348  0.1769 -0.5401
  172MPD1    H6 2684   3.573   0.152  17.099 -0.2532 -0.1004 -0.2058
  172MPD1    H7 2685   3.464   0.255  17.177  0.2375 -0.8665  1.5576
  173MPD1     C 2686   1.151   0.829  14.348  0.4712  0.2917  0.8862
  173MPD1    C1 2687   1.030   0.827  14.413 -0.2766  0.0582  0.1779
  173MPD1    C2 2688   0.950   0.715  14.408  0.0531 -0.1268  0.9214
  173MPD1    C3 2689   1.004   0.598  14.357  0.3849  0.0619  1.1184
  173MPD1    C4 2690   1.125   0.598  14.293 -0.4695  0.4392 -0.3380
  173MPD1    C5 2691   1.194   0.716  14.287 -0.0650  0.1027 -1.2339
  173MPD1     H 2692   0.853   0.708  14.455 -0.9519 -0.3871 -1.1961
  173MPD1    H1 2693   1.168   0.514  14.239 -1.1092 -0.1585  0.0855
  173MPD1    H2 2694   1.209   0.920  14.338  0.0577  0.5483  0.8330
  173MPD1    H3 2695   1.292   0.722  14.240  1.0662 -0.8378  0.9672
  173MPD1     N 2696   0.923   0.484  14.368  0.1452 -0.5980 -0.6203
  173MPD1    H5 2697   0.839   0.504  14.421  0.5027  0.0266 -0.2888
  173MPD1    N1 2698   0.977   0.946  14.466  0.5059 -0.6589 -0.0845
  173MPD1    H6 2699   0.899   0.932  14.529 -0.8827  0.6534 -1.5180
  173MPD1    H7 2700   1.043   1.016  14.501  0.2381 -1.0379  1.1598
  174MPD1     C 2701   0.392   4.395  13.852 -0.1021 -0.5871  0.6770
  174MPD1    C1 2702   0.509   4.447  13.824 -0.0579  0.3370  0.0709
  174MPD1    C2 2703   0.567   4.536  13.911 -0.3276 -0.3882 -0.7905
  174MPD1    C3 2704   0.516   4.564  14.040  0.6409  0.6094 -0.3346
  174MPD1    C4 2705   0.394   4.502  14.066 -0.5230  0.1336  0.6557
  174MPD1    C5 2706   0.330   4.428  13.966 -0.3919  0.7020 -0.3171
  174MPD1     H 2707   0.658   4.586  13.881 -0.1718  0.2098  0.6834
  174MPD1    H1 2708   0.354   4.507  14.167 -0.1294 -0.7807  0.8641
  174MPD1    H2 2709   0.353   4.328  13.777  0.6944  0.5800 -0.7594
  174MPD1    H3 2710   0.239   4.375  13.991 -0.9160  2.1996  0.9512
  174MPD1     N 2711   0.580   4.644  14.137  0.3032  0.2133  0.0292
  174MPD1    H5 2712   0.540   4.652  14.229  0.1008  1.5960 -0.1688
  174MPD1    N1 2713   0.577   4.422  13.702 -0.2912 -0.3139 -0.1087
  174MPD1    H6 2714   0.666   4.470  13.710 -0.0271 -0.8741  0.3850
  174MPD1    H7 2715   0.586   4.323  13.680  0.0892 -0.1573 -0.6525
  175MPD1     C 2716   4.066   1.379  15.255 -0.4636  0.0122 -0.2009
  175MPD1    C1 2717   4.104   1.277  15.331  0.0568  0.1358  0.5101
  175MPD1    C2 2718   4.014   1.224  15.418 -0.0025  0.0892 -0.2539
  175MPD1    C3 2719   3.880   1.260  15.419 -0.3514  0.1882 -0.1058
  175MPD1    C4 2720   3.845   1.368  15.346 -0.0350 -0.6635 -0.4484
  175MPD1    C5 2721   3.934   1.428  15.263 -0.3836  0.3697 -0.4850
  175MPD1     H 2722   4.050   1.143  15.480  1.9788  0.5840 -0.7743
  175MPD1    H1 2723   3.741   1.399  15.348 -0.0546 -0.7912  0.4177
  175MPD1    H2 2724   4.140   1.431  15.195  0.6164 -0.5418  0.6340
  175MPD1    H3 2725   3.903   1.508  15.196  1.3038  2.1497  0.8580
  175MPD1     N 2726   3.792   1.216  15.521  0.3346  0.2399 -0.0794
  175MPD1    H5 2727   3.702   1.262  15.533 -0.7330 -1.6247 -0.9114
  175MPD1    N1 2728   4.237   1.239  15.338  0.0357  0.4105  0.0969
  175MPD1    H6 2729   4.243   1.139  15.321  0.5066  0.2919  0.9194
  175MPD1    H7 2730   4.284   1.286  15.261  1.7924 -0.6773  0.4904
  176MPD1     C 2731   4.542   3.493  16.564 -0.2526  0.2891 -0.9371
  176MPD1    C1 2732   4.672   3.434  16.551 -0.5570  0.8324 -0.1745
  176MPD1    C2 2733   0.025   3.453  16.650 -0.0728 -0.0280  0.5548
  176MPD1    C3 2734   4.732   3.540  16.756 -1.0723  0.1653  0.4161
  176MPD1    C4 2735   4.610   3.591  16.771  0.2275  0.3790  0.8186
  176MPD1    C5 2736   4.513   3.560  16.679 -0.2865  0.2544 -1.0344
  176MPD1     H 2737   0.124   3.410  16.638 -0.4400 -0.8002  0.2940
  176MPD1    H1 2738   4.586   3.649  16.859 -1.6678  0.2503  0.3897
  176MPD1    H2 2739   4.466   3.469  16.491  0.0813 -1.5451 -0.6585
  176MPD1    H3 2740   4.412   3.594  16.698 -0.1821  1.0046 -1.8296
  176MPD1     N 2741   0.099   3.577  16.853 -0.7805  0.7929 -0.4929
  176MPD1    H5 2742   0.191   3.544  16.829 -0.3952  1.0736  0.5817
  176MPD1    N1 2743   4.688   3.342  16.452 -0.0442 -0.3240 -0.0944
  176MPD1    H6 2744   0.045   3.332  16.419  0.1209 -0.3265  0.3936
  176MPD1    H7 2745   4.627   3.361  16.373 -0.4106 -1.8141 -0.1679
  177MPD1     C 2746   4.167   3.202   9.879  0.8047  0.1332 -0.4986
  177MPD1    C1 2747   4.047   3.203   9.942  0.3018 -0.4511 -0.2678
  177MPD1    C2 2748   3.949   3.291   9.897 -0.1042 -0.1811 -0.4044
  177MPD1    C3 2749   3.975   3.382   9.795  0.8561  0.0960  0.0980
  177MPD1    C4 2750   4.100   3.381   9.734  0.3824  0.0560 -0.2664
  177MPD1    C5 2751   4.189   3.294   9.781  0.0546  0.1222  0.1840
  177MPD1     H 2752   3.859   3.300   9.957  0.7204 -0.8841  0.9318
  177MPD1    H1 2753   4.127   3.445   9.651 -0.0227  0.2410 -0.2558
  177MPD1    H2 2754   4.247   3.135   9.910  0.5177 -1.0059 -2.2241
  177MPD1    H3 2755   4.281   3.287   9.724 -0.7258 -1.9319 -0.8339
  177MPD1     N 2756   3.873   3.469   9.760  0.0505  0.1268  0.9592
  177MPD1    H5 2757   3.777   3.440   9.775  0.2946 -1.6195 -0.9612
  177MPD1    N1 2758   4.009   3.117  10.047  0.5144  0.5123 -0.1213
  177MPD1    H6 2759   4.083   3.084  10.108  0.7142 -0.8422 -1.1012
  177MPD1    H7 2760   3.926   3.143  10.100  1.3624 -0.7088  1.8114
  178MPD1     C 2761   0.644   3.996   0.260  0.4967 -0.4028  0.0105
  178MPD1    C1 2762   0.684   4.123   0.232  0.1214  0.2682  0.6157
  178MPD1    C2 2763   0.803   4.143   0.157  0.0942 -0.6026 -0.4200
  178MPD1    C3 2764   0.864   4.035   0.093 -0.1623 -0.1372 -0.2126
  178MPD1    C4 2765   0.810   3.912   0.116 -0.2225 -0.1513 -0.2468
  178MPD1    C5 2766   0.708   3.890   0.197 -0.0133 -0.3791  0.1794
  178MPD1     H 2767   0.833   4.245   0.135  1.3018 -0.9190 -0.2475
  178MPD1    H1 2768   0.846   3.818   0.075  1.0912  0.6774 -1.0168
  178MPD1    H2 2769   0.560   3.983   0.327 -0.0365  0.4540 -0.5026
  178MPD1    H3 2770   0.674   3.788   0.212 -2.6711  0.5258  0.3537
  178MPD1     N 2771   0.978   4.032   0.005  0.4497 -0.9270 -0.6356
  178MPD1    H5 2772   1.003   3.942  17.717 -1.7113 -2.0159  0.3933
  178MPD1    N1 2773   0.631   4.228   0.310  0.0956 -0.2196 -0.1752
  178MPD1    H6 2774   0.529   4.222   0.310  0.0459  0.5723 -0.2498
  178MPD1    H7 2775   0.653   4.322   0.278  0.3561  0.2447  1.3752
  179MPD1     C 2776   0.869   2.312  15.448 -0.3028  0.1017 -0.9783
  179MPD1    C1 2777   0.770   2.236  15.389  0.4452 -0.1761  0.1313
  179MPD1    C2 2778   0.698   2.142  15.460  0.5918  0.3537 -0.0486
  179MPD1    C3 2779   0.734   2.106  15.588 -0.8233  0.2388 -0.3577
  179MPD1    C4 2780   0.834   2.180  15.649 -0.6118 -1.0650  0.3290
  179MPD1    C5 2781   0.902   2.277  15.572  0.4646 -0.2595 -0.0089
  179MPD1     H 2782   0.627   2.086  15.400  0.4089 -1.0377  1.4785
  179MPD1    H1 2783   0.870   2.154  15.748  0.0288 -2.1176 -0.1764
  179MPD1    H2 2784   0.924   2.384  15.389 -2.3973  2.6730  0.2383
  179MPD1    H3 2785   0.973   2.336  15.628 -0.9851  0.2605  1.2594
  179MPD1     N 2786   0.679   2.000  15.663 -0.4213  0.0642 -0.5209
  179MPD1    H5 2787   0.709   1.986  15.759  2.6547  2.3867 -1.1169
  179MPD1    N1 2788   0.733   2.264  15.253 -0.0759  0.1787  0.3703
  179MPD1    H6 2789   0.666   2.199  15.212 -0.1295  1.5920 -1.7686
  179MPD1    H7 2790   0.820   2.259  15.200 -2.7360  1.1328 -4.0650
  180MPD1     C 2791   0.980   3.068  15.799 -0.2801  0.1017 -0.7240
  180MPD1    C1 2792   1.068   3.034  15.702  0.1383 -0.1343  0.1642
  180MPD1    C2 2793   1.031   3.064  15.573 -0.9570 -1.0892  0.1589
  180MPD1    C3 2794   0.932   3.155  15.550 -0.5930 -0.1970 -0.5035
  180MPD1    C4 2795   0.859   3.206  15.652  0.7364  0.0014  0.5933
  180MPD1    C5 2796   0.873   3.153  15.773  0.2662 -0.5772  0.5977
  180MPD1     H 2797   1.091   3.026  15.491 -1.1576  0.7591 -0.8711
  180MPD1    H1 2798   0.779   3.279  15.649 -0.8768 -1.8081 -1.1439
  180MPD1    H2 2799   0.989   3.036  15.903 -0.2108 -1.4127 -1.1998
  180MPD1    H3 2800   0.824   3.195  15.860  0.8708  1.6512 -0.1336
  180MPD1     N 2801   0.901   3.187  15.411  0.2561  0.0330  0.6930
  180MPD1    H5 2802   0.973   3.174  15.341  1.1577 -0.5090  1.7133
  180MPD1    N1 2803   1.164   2.941  15.719  0.2656  0.7185 -0.3996
  180MPD1    H6 2804   1.231   2.939  15.643 -1.1576 -0.9034 -1.6010
  180MPD1    H7 2805   1.202   2.947  15.814  0.6795 -0.6107 -0.4893
  181MPD1     C 2806   2.805   0.460  10.132  0.0256  0.1477  0.4775
  181MPD1    C1 2807   2.859   0.562  10.203  0.0547 -0.0678 -0.0218
  181MPD1    C2 2808   2.962   0.619  10.134  0.6267 -0.4053  0.6926
  181MPD1    C3 2809   3.025   0.567  10.024 -0.0174  0.4115  0.4216
  181MPD1    C4 2810   2.971   0.461   9.963  0.7995 -0.2714 -0.0722
  181MPD1    C5 2811   2.857   0.408  10.019  0.7343 -0.1114  0.4783
  181MPD1     H 2812   2.992   0.717  10.168 -0.2596 -0.5741  1.9484
  181MPD1    H1 2813   2.999   0.414   9.870  0.2140 -0.2964 -0.2356
  181MPD1    H2 2814   2.718   0.404  10.166  0.1453  0.9350  2.0867
  181MPD1    H3 2815   2.818   0.320   9.970  0.2908  0.5264 -0.3051
  181MPD1     N 2816   3.143   0.635   9.980 -0.4529 -0.4856 -0.4555
  181MPD1    H5 2817   3.173   0.706  10.046  0.3710 -0.8221 -0.4739
  181MPD1    N1 2818   2.778   0.626  10.301 -0.5725 -0.7458  0.2329
  181MPD1    H6 2819   2.736   0.553  10.356 -1.2905 -0.0341  0.6249
  181MPD1    H7 2820   2.823   0.688  10.368  0.8975  0.3651 -1.7382
  182MPD1     C 2821   3.756   3.761   0.780 -0.6049  0.3487  0.3273
  182MPD1    C1 2822   3.669   3.861   0.815 -0.7198  0.2305  0.4565
  182MPD1    C2 2823   3.593   3.923   0.725 -0.1860 -0.3174  0.9797
  182MPD1    C3 2824   3.581   3.874   0.595 -0.2669  0.1651 -0.3339
  182MPD1    C4 2825   3.668   3.772   0.563 -0.2591 -0.2597  0.1381
  182MPD1    C5 2826   3.754   3.719   0.650 -0.0420  0.4050 -0.7056
  182MPD1     H 2827   3.520   3.992   0.765 -0.7069  0.4542 -1.2854
  182MPD1    H1 2828   3.666   3.718   0.469 -1.2017 -1.3621  0.7906
  182MPD1    H2 2829   3.823   3.709   0.847 -0.1874 -0.7381 -0.9309
  182MPD1    H3 2830   3.816   3.635   0.622  0.9365  1.3160 -1.2809
  182MPD1     N 2831   3.481   3.918   0.498 -0.2118 -0.8388  0.4535
  182MPD1    H5 2832   3.447   3.867   0.416  1.2696 -0.8092 -0.1733
  182MPD1    N1 2833   3.667   3.916   0.944  0.2992 -0.0972 -0.1336
  182MPD1    H6 2834   3.570   3.936   0.965  0.4056  0.4037 -0.1050
  182MPD1    H7 2835   3.698   3.840   1.005  1.0458  1.1244  1.0187
  183MPD1     C 2836   0.105   1.693   9.775 -0.0773 -0.8074 -0.3750
  183MPD1    C1 2837   0.004   1.706   9.862  0.0632 -0.7630 -0.1061
  183MPD1    C2 2838   4.662   1.587   9.889  0.1655 -0.7922 -0.2271
  183MPD1    C3 2839   4.695   1.468   9.821 -0.4231  0.0735 -0.1536
  183MPD1    C4 2840   0.065   1.471   9.735 -0.0461  0.8815 -0.4813
  183MPD1    C5 2841   0.143   1.578   9.723  0.1248 -0.4907 -0.2468
  183MPD1     H 2842   4.575   1.599   9.953  1.4456  0.0996  1.3478
  183MPD1    H1 2843   0.098   1.380   9.685 -0.1640  0.4574  0.2102
  183MPD1    H2 2844   0.160   1.783   9.750 -0.1253 -0.8156 -0.5082
  183MPD1    H3 2845   0.222   1.576   9.649  1.2849  0.6368  0.9481
  183MPD1     N 2846   4.618   1.355   9.841  0.2103  0.3208 -0.5454
  183MPD1    H5 2847   4.528   1.365   9.887 -0.9681 -0.9998 -2.6033
  183MPD1    N1 2848   4.697   1.833   9.911 -0.0790 -0.5684  0.6712
  183MPD1    H6 2849   0.042   1.891   9.910 -0.7649  0.3997 -0.6431
  183MPD1    H7 2850   4.671   1.822  10.009  0.0405 -0.5036  0.7102
  184MPD1     C 2851   3.279   3.155  10.411  0.0100  0.3518 -0.4583
  184MPD1    C1 2852   3.214   3.083  10.314 -0.4815  0.1522  0.0610
  184MPD1    C2 2853   3.196   3.144  10.192  0.5538 -0.3264 -0.0515
  184MPD1    C3 2854   3.243   3.272  10.167  0.2033 -0.3114 -0.6067
  184MPD1    C4 2855   3.314   3.337  10.272 -0.3813 -0.4202  0.2954
  184MPD1    C5 2856   3.337   3.272  10.387  0.8317 -0.2711  0.2256
  184MPD1     H 2857   3.143   3.085  10.118  0.9419 -0.2111 -0.4200
  184MPD1    H1 2858   3.340   3.442  10.274  0.2487 -0.5977  1.5483
  184MPD1    H2 2859   3.309   3.106  10.503  1.6115 -1.5518 -2.0034
  184MPD1    H3 2860   3.390   3.331  10.461 -1.4451  0.8175  1.0194
  184MPD1     N 2861   3.240   3.336  10.040  0.3944  0.2150 -0.1708
  184MPD1    H5 2862   3.296   3.420  10.032  0.4511  0.3843  1.8089
  184MPD1    N1 2863   3.166   2.951  10.340 -0.0703 -0.4558  0.2202
  184MPD1    H6 2864   3.237   2.904  10.397 -1.1536 -1.4718  0.7228
  184MPD1    H7 2865   3.140   2.904  10.254 -1.7288 -0.3475  0.6803
  185MPD1     C 2866   2.561   3.226   9.287  0.4033  0.2619 -0.1479
  185MPD1    C1 2867   2.627   3.345   9.255  0.4475  0.1815 -0.3058
  185MPD1    C2 2868   2.726   3.387   9.343  0.6154  0.2430  0.2669
  185MPD1    C3 2869   2.757   3.314   9.456  0.0323  0.1473  0.2281
  185MPD1    C4 2870   2.687   3.202   9.489 -0.8012 -0.5495  1.5105
  185MPD1    C5 2871   2.594   3.156   9.398 -0.6399  0.2842 -0.0069
  185MPD1     H 2872   2.777   3.480   9.321  0.2723  0.0714 -1.2624
  185MPD1    H1 2873   2.700   3.146   9.581 -0.0624 -2.3792  0.3080
  185MPD1    H2 2874   2.495   3.180   9.215  0.7075 -2.1118  1.0837
  185MPD1    H3 2875   2.542   3.063   9.415  1.4309 -0.5741  1.7043
  185MPD1     N 2876   2.859   3.347   9.546 -0.2364 -0.1185  0.1471
  185MPD1    H5 2877   2.853   3.288   9.629  1.8231  0.6264  0.8102
  185MPD1    N1 2878   2.625   3.406   9.127 -0.1036 -0.5732  0.1998
  185MPD1    H6 2879   2.649   3.505   9.125  1.1897 -0.8040  3.1586
  185MPD1    H7 2880   2.531   3.400   9.090 -0.1508 -1.0082  0.3826
  186MPD1     C 2881   1.083   2.026  15.942 -0.2126 -0.5669 -0.0420
  186MPD1    C1 2882   1.152   1.958  16.041  0.4483 -0.0747  0.1055
  186MPD1    C2 2883   1.188   2.035  16.152 -0.4066  0.9042 -0.3218
  186MPD1    C3 2884   1.168   2.172  16.160  0.0157 -0.3034 -0.6470
  186MPD1    C4 2885   1.118   2.236  16.047  0.9481 -0.7481 -0.2189
  186MPD1    C5 2886   1.083   2.160  15.936 -0.1601 -0.2183  0.0787
  186MPD1     H 2887   1.232   1.988  16.239 -4.9969 -1.5704  0.6728
  186MPD1    H1 2888   1.128   2.342  16.031 -1.9472 -0.1593  1.9841
  186MPD1    H2 2889   1.061   1.971  15.851  0.1970  0.1015 -0.5426
  186MPD1    H3 2890   1.053   2.203  15.841  0.3035  2.5849  1.2085
  186MPD1     N 2891   1.206   2.252  16.266 -0.0116 -0.0681 -0.2274
  186MPD1    H5 2892   1.211   2.353  16.250  1.1590  0.0557  0.8758
  186MPD1    N1 2893   1.160   1.818  16.044  0.1108  0.1611 -0.4046
  186MPD1    H6 2894   1.244   1.787  16.092 -0.7912  1.2452  1.8300
  186MPD1    H7 2895   1.185   1.786  15.950 -1.0759 -0.4564 -0.5061
  187MPD1     C 2896   1.567   4.556  17.053 -0.1343  0.2555 -0.1806
  187MPD1    C1 2897   1.542   4.431  17.114  0.2597 -0.0383 -0.2316
  187MPD1    C2 2898   1.442   4.427  17.202 -0.4011 -0.2180  0.3154
  187MPD1    C3 2899   1.359   4.539  17.229  0.2334  0.3924 -0.0629
  187MPD1    C4 2900   1.379   4.657  17.155 -0.0185 -1.0424  0.7059
  187MPD1    C5 2901   1.478   4.660  17.070 -0.3411  0.0427  0.2185
  187MPD1     H 2902   1.437   4.337  17.262 -0.2484 -0.0245  0.6223
  187MPD1    H1 2903   1.322   0.008  17.175 -0.4321 -1.1678  0.0863
  187MPD1    H2 2904   1.642   4.553  16.974  1.2481  2.4225  1.0439
  187MPD1    H3 2905   1.487   0.001  16.998 -1.9580 -0.6720 -0.7850
  187MPD1     N 2906   1.265   4.541  17.327 -0.0199  0.4966  0.0065
  187MPD1    H5 2907   1.230   4.630  17.360 -0.1360  1.1881 -1.9381
  187MPD1    N1 2908   1.631   4.325  17.099 -0.0077 -0.7799 -0.2382
  187MPD1    H6 2909   1.577   4.239  17.102 -1.0904 -0.1085 -0.5206
  187MPD1    H7 2910   1.681   4.331  17.010  0.2886  0.9291  0.0460
  188MPD1     C 2911   1.160   3.779  10.070 -0.4925 -0.4091  0.5730
  188MPD1    C1 2912   1.169   3.721   9.945 -0.9182 -0.3867  0.1941
  188MPD1    C2 2913   1.117   3.595   9.932  0.1113 -0.9656 -0.3024
  188MPD1    C3 2914   1.079   3.508  10.035 -0.2761  0.3022  0.5598
  188MPD1    C4 2915   1.085   3.569  10.162 -0.5648  0.2795 -0.1177
  188MPD1    C5 2916   1.126   3.698  10.177  0.5066  0.9729 -0.5668
  188MPD1     H 2917   1.119   3.558   9.831  0.6659  1.1244 -1.0504
  188MPD1    H1 2918   1.042   3.521  10.249  1.4556 -0.2824  0.5627
  188MPD1    H2 2919   1.189   3.883  10.080 -1.6268  0.1480 -1.9752
  188MPD1    H3 2920   1.116   3.730  10.280  3.2899  0.8787 -0.2726
  188MPD1     N 2921   1.021   3.379  10.024  0.3468 -0.4311  0.9548
  188MPD1    H5 2922   0.992   3.329  10.107  1.0371  0.2241  1.5841
  188MPD1    N1 2923   1.200   3.807   9.834  0.3732  0.4317 -0.2023
  188MPD1    H6 2924   1.268   3.882   9.849  0.5627  0.4983 -1.4389
  188MPD1    H7 2925   1.214   3.763   9.744  0.1316  0.9694 -0.5028
  189MPD1     C 2926   2.441   0.441   0.233 -0.6839  0.5227 -0.3882
  189MPD1    C1 2927   2.419   0.375   0.115  0.3883 -0.2594 -0.2231
  189MPD1    C2 2928   2.297   0.395   0.051  0.0815  0.3808 -0.3821
  189MPD1    C3 2929   2.207   0.489   0.091 -0.9119 -0.1124 -0.3596
  189MPD1    C4 2930   2.233   0.566   0.207  0.2662 -0.4334  0.2857
  189MPD1    C5 2931   2.353   0.535   0.278 -0.1792 -0.0641 -0.3131
  189MPD1     H 2932   2.273   0.338  17.715 -1.2362 -0.4478  0.4877
  189MPD1    H1 2933   2.161   0.635   0.249 -0.6463 -0.7864 -0.6834
  189MPD1    H2 2934   2.529   0.417   0.292 -0.2769  0.3868 -1.0485
  189MPD1    H3 2935   2.369   0.591   0.370  2.3047 -0.1016 -0.7368
  189MPD1     N 2936   2.088   0.504   0.017 -0.0820  0.1614 -0.0377
  189MPD1    H5 2937   2.075   0.443  17.691  1.3152  1.4971 -1.3039
  189MPD1    N1 2938   2.503   0.264   0.071  0.2956  0.1268  0.8532
  189MPD1    H6 2939   2.600   0.287   0.091  0.2535  0.4367  0.6954
  189MPD1    H7 2940   2.494   0.255  17.723  1.1699 -1.0687  0.8775
  190MPD1     C 2941   0.507   3.920  15.623 -0.3495  0.4170  0.4628
  190MPD1    C1 2942   0.571   3.955  15.738  0.5338 -0.2138 -0.4310
  190MPD1    C2 2943   0.685   3.879  15.766  0.1184 -0.4637 -0.4600
  190MPD1    C3 2944   0.728   3.764  15.706 -0.5834  0.2788 -0.1301
  190MPD1    C4 2945   0.653   3.732  15.591 -0.0563  0.8067  0.0234
  190MPD1    C5 2946   0.548   3.812  15.551  0.0228 -0.4544  0.3114
  190MPD1     H 2947   0.730   3.917  15.857  1.0195 -1.1312 -0.6321
  190MPD1    H1 2948   0.681   3.651  15.525 -0.7540  0.4398  0.1857
  190MPD1    H2 2949   0.433   3.981  15.572 -0.7068 -1.0834 -0.8072
  190MPD1    H3 2950   0.490   3.778  15.466  0.7086 -1.2370  0.1564
  190MPD1     N 2951   0.853   3.708  15.743 -0.4680 -0.6370 -0.4297
  190MPD1    H5 2952   0.894   3.743  15.829 -0.8340 -0.5403 -0.2910
  190MPD1    N1 2953   0.538   4.072  15.803 -0.4592  0.1348  0.2185
  190MPD1    H6 2954   0.572   4.082  15.898  0.3339 -0.4564 -0.0006
  190MPD1    H7 2955   0.441   4.102  15.793 -0.1071  1.0449 -0.4709
  191MPD1     C 2956   0.392   0.645  13.251 -0.7184  0.0832  1.2204
  191MPD1    C1 2957   0.459   0.588  13.144  0.1110 -0.1921 -0.0780
  191MPD1    C2 2958   0.422   0.645  13.025 -0.4712  0.4572  0.3110
  191MPD1    C3 2959   0.327   0.744  13.010  0.3633  0.1886  0.3660
  191MPD1    C4 2960   0.272   0.801  13.119 -0.2424 -0.4073  0.6989
  191MPD1    C5 2961   0.303   0.753  13.241 -0.6044  0.1683  0.2285
  191MPD1     H 2962   0.477   0.617  12.935  3.0896  0.2592  2.5327
  191MPD1    H1 2963   0.202   0.883  13.110 -0.0976 -0.5175 -1.4472
  191MPD1    H2 2964   0.415   0.617  13.354  1.8274 -3.1258 -0.2224
  191MPD1    H3 2965   0.264   0.797  13.332  2.0836  0.5513  1.1988
  191MPD1     N 2966   0.297   0.785  12.877 -0.1906  0.0860 -0.1732
  191MPD1    H5 2967   0.319   0.718  12.804 -2.0842  0.2016 -0.8499
  191MPD1    N1 2968   0.569   0.496  13.164  0.0705 -0.1862  0.2701
  191MPD1    H6 2969   0.571   0.447  13.253  0.7110  1.3899  1.1207
  191MPD1    H7 2970   0.569   0.430  13.086  0.6210  1.1383 -0.8608
  192MPD1     C 2971   4.396   1.465  12.489  0.7939 -0.1848  0.3369
  192MPD1    C1 2972   4.438   1.397  12.380  0.4284 -0.4855  0.4054
  192MPD1    C2 2973   4.538   1.303  12.398 -0.5921  0.3096 -0.3385
  192MPD1    C3 2974   4.593   1.281  12.520  0.6426 -0.2875 -0.1944
  192MPD1    C4 2975   4.553   1.359  12.626 -0.2891 -0.2944  0.1186
  192MPD1    C5 2976   4.460   1.449  12.609 -0.2876 -0.5661  0.3157
  192MPD1     H 2977   4.576   1.255  12.309 -3.3534 -1.1371 -0.7443
  192MPD1    H1 2978   4.608   1.353  12.719 -0.3218  1.8471  0.2829
  192MPD1    H2 2979   4.317   1.539  12.492  1.4198  0.4794  0.2899
  192MPD1    H3 2980   4.421   1.504  12.694  0.5379 -1.3880  1.2421
  192MPD1     N 2981   4.686   1.177  12.552  0.3119  0.4727  0.0638
  192MPD1    H5 2982   4.725   1.178  12.646 -1.2460  2.6549  0.6683
  192MPD1    N1 2983   4.368   1.397  12.260 -0.0338  0.0727  0.0094
  192MPD1    H6 2984   4.306   1.478  12.262  0.1256  0.0456  5.0581
  192MPD1    H7 2985   4.437   1.390  12.186 -2.2000 -0.6066 -1.9329
  193MPD1     C 2986   4.627   0.385  16.183  0.0040 -1.0323 -0.3454
  193MPD1    C1 2987   4.588   0.517  16.175 -0.5730 -0.8557 -0.2571
  193MPD1    C2 2988   4.658   0.605  16.265  0.0894  0.0878 -0.3733
  193MPD1    C3 2989   4.698   0.557  16.390 -0.2089 -0.6412 -0.0609
  193MPD1    C4 2990   4.724   0.418  16.400 -0.6781  0.1481  0.3027
  193MPD1    C5 2991   4.696   0.339  16.300  0.4263 -0.4753  0.0489
  193MPD1     H 2992   4.650   0.711  16.246  1.0153  0.5839  2.1177
  193MPD1    H1 2993   0.030   0.369  16.486  0.6288  0.6907 -0.0692
  193MPD1    H2 2994   4.614   0.315  16.102 -1.5230 -1.2669  0.1088
  193MPD1    H3 2995   4.735   0.239  16.317  1.0851 -0.3537 -0.7502
  193MPD1     N 2996   4.735   0.641  16.498 -0.3210  0.1729 -0.0808
  193MPD1    H5 2997   0.026   0.593  16.582 -1.4960 -1.3958 -0.5562
  193MPD1    N1 2998   4.545   0.573  16.053 -0.4337  0.1345  0.4953
  193MPD1    H6 2999   4.474   0.645  16.069 -0.9431 -0.2535 -0.0041
  193MPD1    H7 3000   4.501   0.503  15.993 -0.1971  1.3561 -1.0853
  194MPD1     C 3001   2.599   2.384  17.498  0.0404 -1.2029  0.3088
  194MPD1    C1 3002   2.596   2.416  17.368 -0.1064  0.5165  0.1756
  194MPD1    C2 3003   2.514   2.336  17.283 -0.5196 -0.3010  0.5425
  194MPD1    C3 3004   2.448   2.226  17.330  0.1896  0.6833 -0.5899
  194MPD1    C4 3005   2.461   2.191  17.463  0.6307 -0.0877 -0.0319
  194MPD1    C5 3006   2.531   2.273  17.547 -0.1427 -1.1603  0.0278
  194MPD1     H 3007   2.495   2.368  17.181 -3.0304 -1.1610  0.7431
  194MPD1    H1 3008   2.421   2.105  17.515  0.5992  0.6437  1.1533
  194MPD1    H2 3009   2.664   2.442  17.562  3.0853 -1.5041 -2.5420
  194MPD1    H3 3010   2.533   2.249  17.653 -0.3136  0.9069  0.5026
  194MPD1     N 3011   2.398   2.132  17.240 -0.0212  0.6351 -0.1909
  194MPD1    H5 3012   2.349   2.052  17.279 -1.8048  1.3995 -0.8954
  194MPD1    N1 3013   2.654   2.526  17.330  0.0910  0.1881  0.0089
  194MPD1    H6 3014   2.659   2.533  17.228  0.6677 -0.1300  0.0159
  194MPD1    H7 3015   2.749   2.535  17.364  1.0745 -1.9913 -2.1534
  195MPD1     C 3016   4.092   4.675  17.331 -0.3336 -0.0649  0.6377
  195MPD1    C1 3017   4.225   4.692  17.346 -0.1738 -0.4960  0.4953
  195MPD1    C2 3018   4.287   4.607  17.444 -0.1049 -0.2018 -0.2125
  195MPD1    C3 3019   4.216   4.495  17.496 -0.8468  0.0496 -0.6023
  195MPD1    C4 3020   4.082   4.477  17.460  0.2389  0.3392  0.7224
  195MPD1    C5 3021   4.019   4.568  17.373  0.3881 -0.4495  0.3935
  195MPD1     H 3022   4.382   4.628  17.493 -0.5135 -1.5121  1.1287
  195MPD1    H1 3023   4.032   4.386  17.491  1.1767  0.1792  1.7748
  195MPD1    H2 3024   4.043   0.016  17.276  0.8262 -0.0996 -0.4625
  195MPD1    H3 3025   3.912   4.567  17.356  0.0816 -0.2083  2.3079
  195MPD1     N 3026   4.276   4.398  17.573 -0.2496 -0.5289  0.3163
  195MPD1    H5 3027   4.213   4.320  17.586 -2.6036  1.0885 -1.3447
  195MPD1    N1 3028   4.288   0.078  17.311 -0.5638 -0.5813  0.0827
  195MPD1    H6 3029   4.264   0.104  17.215  3.4458 -1.9917 -1.2844
  195MPD1    H7 3030   4.389   0.077  17.315 -0.5881 -0.4176  0.6546
  196MPD1     C 3031   3.523   3.163   0.030 -0.4066 -0.0222 -0.4882
  196MPD1    C1 3032   3.604   3.253  17.722  0.6499 -0.0114 -0.1387
  196MPD1    C2 3033   3.683   3.338   0.052 -0.1904 -0.3962 -0.8168
  196MPD1    C3 3034   3.691   3.318   0.188 -0.2310 -0.6491 -0.7450
  196MPD1    C4 3035   3.611   3.217   0.242  0.1212 -0.4776 -0.3977
  196MPD1    C5 3036   3.524   3.145   0.169 -0.2778  0.4324  0.0107
  196MPD1     H 3037   3.737   3.415  17.752 -0.6783  0.5035 -0.0190
  196MPD1    H1 3038   3.614   3.205   0.350 -0.5742  1.5298 -0.1556
  196MPD1    H2 3039   3.460   3.094  17.728 -0.3586 -1.6403  1.4428
  196MPD1    H3 3040   3.459   3.080   0.227 -0.5104  2.3831  1.9476
  196MPD1     N 3041   3.771   3.397   0.274 -0.5456  0.6398  0.1429
  196MPD1    H5 3042   3.776   3.372   0.372  0.0165  0.0330 -0.0371
  196MPD1    N1 3043   3.571   3.289  17.590  0.4330 -0.1240 -0.1136
  196MPD1    H6 3044   3.647   3.326  17.534  0.4912  1.4493  1.0088
  196MPD1    H7 3045   3.523   3.219  17.534  1.5444  0.4533 -1.7686
  197MPD1     C 3046   3.190   1.516   0.134 -0.2623  0.6300  0.4897
  197MPD1    C1 3047   3.168   1.644   0.088 -0.3522  0.4601  0.2660
  197MPD1    C2 3048   3.190   1.660  17.706 -0.2446 -0.9244 -0.4316
  197MPD1    C3 3049   3.216   1.555  17.615 -0.4943 -0.2676 -0.6624
  197MPD1    C4 3050   3.237   1.431  17.667  0.3451 -0.8476  0.3826
  197MPD1    C5 3051   3.234   1.413   0.051 -0.7611 -0.2370 -1.3272
  197MPD1     H 3052   3.165   1.759  17.669  0.1578 -1.1253 -1.2578
  197MPD1    H1 3053   3.265   1.344  17.609  0.7246 -0.9317  0.6894
  197MPD1    H2 3054   3.192   1.500   0.241 -0.1848 -0.6734  0.2948
  197MPD1    H3 3055   3.263   1.316   0.088 -0.5987  0.0634 -0.6700
  197MPD1     N 3056   3.231   1.582  17.475  0.3212  0.4979 -0.3347
  197MPD1    H5 3057   3.248   1.499  17.420 -0.6544 -0.3701  0.6632
  197MPD1    N1 3058   3.163   1.746   0.187 -0.4667 -0.0253 -0.0326
  197MPD1    H6 3059   3.117   1.828   0.148 -0.9141 -0.6436 -0.7926
  197MPD1    H7 3060   3.109   1.713   0.266 -1.8258 -1.3168 -1.5031
  198MPD1     C 3061   0.153   3.757  15.662 -0.2063  0.2711 -0.3057
  198MPD1    C1 3062   0.166   3.851  15.763 -0.0922  1.0763 -1.5092
  198MPD1    C2 3063   0.184   3.983  15.734  0.4224 -0.3649  0.3424
  198MPD1    C3 3064   0.183   4.032  15.608 -0.4320 -0.6991  0.2716
  198MPD1    C4 3065   0.164   3.934  15.512 -0.7021 -0.0147 -0.3047
  198MPD1    C5 3066   0.146   3.797  15.531 -0.4576  0.4466  0.1104
  198MPD1     H 3067   0.190   4.042  15.825  1.7275 -1.7893  1.1819
  198MPD1    H1 3068   0.144   3.965  15.410  0.6689  0.6370 -0.3698
  198MPD1    H2 3069   0.136   3.652  15.682  1.6180  0.1198  0.4235
  198MPD1    H3 3070   0.114   3.733  15.450  2.8976 -1.9436  0.7094
  198MPD1     N 3071   0.207   4.168  15.587  0.5462 -0.3008 -0.3752
  198MPD1    H5 3072   0.261   4.214  15.660  1.7402  1.0250 -2.0941
  198MPD1    N1 3073   0.171   3.802  15.899  0.8051  0.1885  0.5067
  198MPD1    H6 3074   0.114   3.856  15.963  1.0249  0.8474  0.1386
  198MPD1    H7 3075   0.130   3.708  15.897 -0.3832  0.7323 -0.8893
  199MPD1     C 3076   3.084   1.466  10.200 -0.4752  0.5923  0.4684
  199MPD1    C1 3077   2.994   1.361  10.216  0.1255 -0.1615 -0.4436
  199MPD1    C2 3078   2.873   1.368  10.145 -0.5590 -0.0911  0.0444
  199MPD1    C3 3079   2.850   1.466  10.049  0.3686 -0.4657 -0.1631
  199MPD1    C4 3080   2.940   1.574  10.044 -0.0116  0.7216 -0.0862
  199MPD1    C5 3081   3.056   1.568  10.116 -0.4339 -0.3868 -0.6447
  199MPD1     H 3082   2.799   1.291  10.164 -1.7174  1.5277  2.2166
  199MPD1    H1 3083   2.911   1.658   9.982 -0.4316  0.3078 -0.4501
  199MPD1    H2 3084   3.177   1.463  10.256 -0.2548  0.9701  0.1236
  199MPD1    H3 3085   3.113   1.660  10.115 -0.6059 -0.2716  0.5602
  199MPD1     N 3086   2.736   1.472   9.975 -0.1708 -0.9465 -0.1351
  199MPD1    H5 3087   2.714   1.560   9.930 -0.3993 -1.0523 -0.2316
  199MPD1    N1 3088   3.024   1.255  10.304  0.4403  0.2143 -0.7436
  199MPD1    H6 3089   3.122   1.249  10.332  0.4042 -0.9675 -0.8827
  199MPD1    H7 3090   2.992   1.167  10.266 -1.9123 -0.2165  2.2106
  200MPD1     C 3091   1.848   0.443  15.979 -0.1621  0.3036  0.5094
  200MPD1    C1 3092   1.856   0.375  15.857 -0.1207 -0.8388  0.2070
  200MPD1    C2 3093   1.874   0.455  15.746 -0.3925 -0.6756 -0.0625
  200MPD1    C3 3094   1.892   0.587  15.746 -0.3277 -0.3714 -0.3722
  200MPD1    C4 3095   1.883   0.650  15.870  0.8737  0.3663 -0.5506
  200MPD1    C5 3096   1.857   0.574  15.982  0.1203  0.2654  0.9930
  200MPD1     H 3097   1.895   0.400  15.655 -0.4466 -0.3150 -0.2922
  200MPD1    H1 3098   1.900   0.757  15.881  1.1684  0.6005 -3.3934
  200MPD1    H2 3099   1.837   0.384  16.070  2.6869  0.1171  0.7228
  200MPD1    H3 3100   1.838   0.626  16.075  1.7743  0.5661  1.1526
  200MPD1     N 3101   1.931   0.652  15.623 -0.1666  0.4992 -0.0529
  200MPD1    H5 3102   1.939   0.591  15.543 -0.4545  1.4296 -0.7831
  200MPD1    N1 3103   1.870   0.231  15.859  0.3464  0.1693  0.0091
  200MPD1    H6 3104   1.805   0.179  15.918 -1.1829  0.7646 -1.1494
  200MPD1    H7 3105   1.875   0.204  15.761  2.0472  3.5315 -0.8223
  201MPD1     C 3106   3.946   0.172  12.808 -0.4198 -0.2378  0.3225
  201MPD1    C1 3107   3.989   0.087  12.712 -0.0136  0.6146 -0.5068
  201MPD1    C2 3108   4.062   4.717  12.753  0.1560  0.3507 -0.1554
  201MPD1    C3 3109   4.118   4.709  12.881 -0.6290 -0.5244  0.3260
  201MPD1    C4 3110   4.087   0.073  12.968 -0.4303  0.1254  0.4237
  201MPD1    C5 3111   3.998   0.174  12.932  0.4647  0.1032  0.2719
  201MPD1     H 3112   4.082   4.636  12.684  2.5909  0.0754  0.8654
  201MPD1    H1 3113   4.130   0.079  13.068 -0.5066 -0.1881  0.4756
  201MPD1    H2 3114   3.878   0.254  12.786  2.5576  2.5287  1.4585
  201MPD1    H3 3115   3.973   0.243  13.012 -0.1909 -0.4570  0.5579
  201MPD1     N 3116   4.205   4.601  12.909 -0.0290  0.7086  0.8732
  201MPD1    H5 3117   4.220   4.532  12.836  0.6976  1.9749 -0.1728
  201MPD1    N1 3118   3.933   0.084  12.583  0.1593 -0.1994  0.7730
  201MPD1    H6 3119   3.910   0.177  12.548 -1.1972 -0.2432  1.5440
  201MPD1    H7 3120   3.999   0.043  12.517 -1.2940 -1.4632  0.0868
  202MPD1     C 3121   4.620   4.421   9.350  0.3479  0.1193  0.0298
  202MPD1    C1 3122   4.555   4.532   9.399  0.1296  0.2773  0.7525
  202MPD1    C2 3123   4.606   4.572   9.520  0.2315 -0.1501 -0.3973
  202MPD1    C3 3124   4.696   4.493   9.596 -0.1861 -0.6763  0.3041
  202MPD1    C4 3125   4.735   4.372   9.547 -0.0210 -0.5840 -0.0806
  202MPD1    C5 3126   4.705   4.342   9.418 -0.1799  0.4079  0.4949
  202MPD1     H 3127   4.552   4.655   9.564 -0.2970 -0.0952 -1.1476
  202MPD1    H1 3128   0.070   4.319   9.605  1.3876  1.2395 -0.1990
  202MPD1    H2 3129   4.598   4.387   9.250 -0.0159  0.3368  0.0337
  202MPD1    H3 3130   0.016   4.257   9.374 -0.7261 -0.2043  1.0566
  202MPD1     N 3131   0.004   4.537   9.723 -0.3677  0.0535  0.9907
  202MPD1    H5 3132   0.068   4.473   9.769 -1.9995 -1.1953  1.5217
  202MPD1    N1 3133   4.499   4.620   9.304  0.2368  0.3844 -0.2625
  202MPD1    H6 3134   4.443   4.694   9.347 -1.6406 -2.3202  1.8732
  202MPD1    H7 3135   4.448   4.575   9.228  1.1823  0.3030 -0.8528
  203MPD1     C 3136   3.249   1.061  12.447 -0.0789 -0.0643 -0.8061
  203MPD1    C1 3137   3.355   0.985  12.411 -0.1632  0.3965 -0.0138
  203MPD1    C2 3138   3.366   0.854  12.453  0.3003  0.2880  0.1607
  203MPD1    C3 3139   3.281   0.803  12.544  0.2134 -0.3919  0.1469
  203MPD1    C4 3140   3.174   0.882  12.591 -0.2901 -1.0311  0.4126
  203MPD1    C5 3141   3.154   1.016  12.540 -0.3364 -0.1549 -0.3542
  203MPD1     H 3142   3.439   0.790  12.405  1.1237  2.1094 -1.0034
  203MPD1    H1 3143   3.096   0.850  12.659  0.0389 -1.0411  0.7843
  203MPD1    H2 3144   3.237   1.161  12.407  1.7842 -0.0295 -1.2969
  203MPD1    H3 3145   3.073   1.081  12.568  1.4405  1.3913  1.2349
  203MPD1     N 3146   3.287   0.664  12.579  0.6575 -0.1024  0.3884
  203MPD1    H5 3147   3.361   0.617  12.528  0.0504 -0.1632 -0.4370
  203MPD1    N1 3148   3.438   1.027  12.310 -0.2832 -0.3070 -0.5148
  203MPD1    H6 3149   3.535   0.998  12.316 -0.5896 -1.1008  0.6287
  203MPD1    H7 3150   3.427   1.127  12.295  0.9447 -0.0331  0.4447
  204MPD1     C 3151   1.794   1.794  16.754 -0.0646  0.1198  0.5175
  204MPD1    C1 3152   1.884   1.781  16.654  0.0695  0.1353  0.5554
  204MPD1    C2 3153   1.986   1.687  16.676  0.1278  0.4546  0.4519
  204MPD1    C3 3154   1.983   1.599  16.780 -0.2295 -0.0294  0.1150
  204MPD1    C4 3155   1.881   1.602  16.873 -0.0158  0.4639  0.3324
  204MPD1    C5 3156   1.785   1.703  16.860 -0.4938  0.6298 -0.9908
  204MPD1     H 3157   2.069   1.691  16.605  1.1416  0.4334  1.6331
  204MPD1    H1 3158   1.878   1.539  16.962  0.6502  0.0997  0.0905
  204MPD1    H2 3159   1.714   1.867  16.757 -0.7239 -0.6880  2.2013
  204MPD1    H3 3160   1.708   1.711  16.936  1.4237  0.6568  0.9434
  204MPD1     N 3161   2.091   1.509  16.783  0.3462  0.4557 -0.2667
  204MPD1    H5 3162   2.159   1.518  16.707  0.5544 -1.1795 -0.2771
  204MPD1    N1 3163   1.876   1.878  16.552 -0.0377 -0.3275 -0.0036
  204MPD1    H6 3164   1.937   1.851  16.475  1.4556  1.0780  0.7036
  204MPD1    H7 3165   1.781   1.882  16.515  0.3936  1.0851 -0.9492
  205MPD1     C 3166   2.761   0.310  16.483  0.0007 -0.0709 -0.7147
  205MPD1    C1 3167   2.753   0.202  16.567  0.3374 -0.0590 -0.0988
  205MPD1    C2 3168   2.719   0.235  16.701  0.9856  0.7330  0.0509
  205MPD1    C3 3169   2.671   0.362  16.741  0.8186  0.1645 -0.5609
  205MPD1    C4 3170   2.672   0.458  16.643 -0.4122 -0.0239  0.5355
  205MPD1    C5 3171   2.723   0.431  16.522  0.6760  0.1925 -0.0886
  205MPD1     H 3172   2.724   0.153  16.772  1.2604  0.8904  0.2105
  205MPD1    H1 3173   2.641   0.557  16.673  0.1639 -0.1705  1.6165
  205MPD1    H2 3174   2.797   0.299  16.382  1.5515 -2.1345  0.0519
  205MPD1    H3 3175   2.726   0.510  16.448 -1.7271 -0.4073 -0.8375
  205MPD1     N 3176   2.634   0.396  16.871 -0.2864  0.2504 -0.6154
  205MPD1    H5 3177   2.612   0.495  16.883 -1.9337 -0.2647  0.6114
  205MPD1    N1 3178   2.806   0.080  16.525 -0.5175 -0.3028 -0.5133
  205MPD1    H6 3179   2.781   0.065  16.427  0.3236 -0.0749 -0.7646
  205MPD1    H7 3180   2.765   0.006  16.581 -0.0532 -0.6587 -0.6469
  206MPD1     C 3181   2.368   2.561  17.089 -0.3254  0.8765  0.3400
  206MPD1    C1 3182   2.420   2.685  17.058  0.1029  0.2519  0.5161
  206MPD1    C2 3183   2.417   2.738  16.932  0.7152 -0.6483 -0.4732
  206MPD1    C3 3184   2.366   2.663  16.825  0.1880  0.0537 -0.0673
  206MPD1    C4 3185   2.322   2.535  16.851 -0.4525 -0.0335  0.0603
  206MPD1    C5 3186   2.321   2.487  16.978 -0.0862  0.2031 -0.2879
  206MPD1     H 3187   2.461   2.836  16.914 -1.5948  0.5662  0.4521
  206MPD1    H1 3188   2.294   2.475  16.764  0.9669 -1.1682  0.3928
  206MPD1    H2 3189   2.373   2.529  17.192 -1.8548  2.3508  0.8685
  206MPD1    H3 3190   2.279   2.389  16.994 -0.0993 -0.0077 -1.5889
  206MPD1     N 3191   2.364   2.709  16.690 -0.3972 -0.2057  0.4404
  206MPD1    H5 3192   2.328   2.642  16.623 -0.3156 -0.0474  0.2360
  206MPD1    N1 3193   2.496   2.750  17.162  0.1752 -0.2734  0.4320
  206MPD1    H6 3194   2.452   2.730  17.252  1.2517  4.0648  1.9026
  206MPD1    H7 3195   2.503   2.851  17.152  2.1222 -0.2178  2.2698
  207MPD1     C 3196   0.691   1.844   9.394 -0.0910 -0.2070 -0.6324
  207MPD1    C1 3197   0.620   1.729   9.380  0.0316  0.2011 -0.2076
  207MPD1    C2 3198   0.642   1.615   9.462  0.4259 -0.0073 -0.0249
  207MPD1    C3 3199   0.745   1.622   9.552 -0.4225  0.8812 -0.3932
  207MPD1    C4 3200   0.820   1.741   9.562 -0.1987 -0.5822  0.9594
  207MPD1    C5 3201   0.792   1.848   9.484 -0.0222 -0.2430  0.8547
  207MPD1     H 3202   0.571   1.534   9.464  0.8915 -0.4277 -0.5751
  207MPD1    H1 3203   0.908   1.751   9.625  0.9107 -3.8474 -0.0805
  207MPD1    H2 3204   0.661   1.940   9.354  1.0737  0.7711  0.8425
  207MPD1    H3 3205   0.838   1.945   9.491 -2.0833  0.8409 -0.5672
  207MPD1     N 3206   0.779   1.517   9.644 -1.0990  0.1390  0.7003
  207MPD1    H5 3207   0.856   1.544   9.705  0.1302  0.0490 -0.7983
  207MPD1    N1 3208   0.497   1.737   9.308 -0.1973  0.1183 -0.6312
  207MPD1    H6 3209   0.508   1.796   9.226  1.5923  0.0034 -0.4850
  207MPD1    H7 3210   0.450   1.657   9.266 -1.0478  0.2878 -0.0007
  208MPD1     C 3211   3.021   4.379  16.664  0.1430  0.1427  0.8555
  208MPD1    C1 3212   3.086   4.330  16.776  0.0297 -0.2548 -0.1717
  208MPD1    C2 3213   3.014   4.295  16.885 -0.4653 -0.1012 -0.0694
  208MPD1    C3 3214   2.871   4.286  16.892 -0.3439 -0.1216  0.8348
  208MPD1    C4 3215   2.808   4.335  16.781 -0.1234  0.1900  0.3945
  208MPD1    C5 3216   2.884   4.380  16.675  0.3973 -0.3240 -0.1498
  208MPD1     H 3217   3.069   4.257  16.971  0.1023  0.7788 -0.0431
  208MPD1    H1 3218   2.703   4.328  16.757  0.2753 -1.0158 -0.9883
  208MPD1    H2 3219   3.065   4.423  16.575 -0.3616 -0.9566  0.0680
  208MPD1    H3 3220   2.833   4.426  16.591  2.1794  0.1156 -0.9785
  208MPD1     N 3221   2.800   4.228  17.002  0.4386  0.5800 -0.1512
  208MPD1    H5 3222   2.855   4.193  17.080 -1.0868 -0.9821  0.2334
  208MPD1    N1 3223   3.228   4.332  16.777  0.6047 -0.1207  0.1593
  208MPD1    H6 3224   3.261   4.319  16.681  1.8452 -0.0971  0.5896
  208MPD1    H7 3225   3.258   4.254  16.835  0.9907  0.8471  1.2436
  209MPD1     C 3226   0.305   4.496   9.695  0.2131  0.7009  0.2760
  209MPD1    C1 3227   0.340   4.619   9.650  0.4309  0.4955 -0.6199
  209MPD1    C2 3228   0.402   4.706   9.745  0.5706  0.2415  0.0090
  209MPD1    C3 3229   0.418   4.672   9.874 -0.2395  0.7046  0.7713
  209MPD1    C4 3230   0.379   4.542   9.915 -0.4706 -0.3230  0.3549
  209MPD1    C5 3231   0.316   4.461   9.823 -0.0370 -0.5114 -0.0216
  209MPD1     H 3232   0.450   0.056   9.707 -0.1511  1.0326  0.9621
  209MPD1    H1 3233   0.386   4.501  10.015  2.5265  0.2899  0.3970
  209MPD1    H2 3234   0.258   4.430   9.623  0.6630 -1.9717  2.4772
  209MPD1    H3 3235   0.291   4.360   9.852 -1.0557 -0.2997 -0.1296
  209MPD1     N 3236   0.464   0.034   9.968  0.5291  0.4893  0.2862
  209MPD1    H5 3237   0.483   0.125   9.926 -1.2461  1.6044  1.9174
  209MPD1    N1 3238   0.356   4.652   9.510  0.1339 -0.0034 -0.1253
  209MPD1    H6 3239   0.303   4.602   9.439 -1.3279  1.1377  0.1524
  209MPD1    H7 3240   0.360   0.012   9.485  0.5280  0.1723  0.6177
  210MPD1     C 3241   0.565   0.090  11.009  0.1937  0.5275  0.1993
  210MPD1    C1 3242   0.620   0.208  10.957 -0.6324 -0.3271 -0.4149
  210MPD1    C2 3243   0.636   0.225  10.820  0.2837  0.7842 -0.2623
  210MPD1    C3 3244   0.595   0.118  10.734  0.6746 -0.0082  0.1094
  210MPD1    C4 3245   0.537   0.006  10.789 -0.2044 -1.0453 -0.4030
  210MPD1    C5 3246   0.531   4.729  10.922 -0.6298 -1.1896 -0.0382
  210MPD1     H 3247   0.683   0.311  10.773  1.9282  0.2345  0.3599
  210MPD1    H1 3248   0.493   4.662  10.735 -1.2548  0.3416 -1.6760
  210MPD1    H2 3249   0.547   0.085  11.116  0.2714  1.7839  0.2718
  210MPD1    H3 3250   0.471   4.652  10.969 -0.8959 -0.2079  1.2370
  210MPD1     N 3251   0.599   0.115  10.594  0.0565 -0.5393  0.4732
  210MPD1    H5 3252   0.591   0.022  10.553  2.3880 -0.4809 -0.1013
  210MPD1    N1 3253   0.653   0.316  11.036 -0.1590 -0.6571  0.0422
  210MPD1    H6 3254   0.685   0.302  11.132  1.0008 -2.0311 -0.5287
  210MPD1    H7 3255   0.699   0.391  10.985  1.3979 -0.9151  1.0416
  211MPD1     C 3256   3.020   4.355  15.814  0.4480  0.8213  0.0250
  211MPD1    C1 3257   2.909   4.323  15.740  0.0875 -0.2837 -0.4652
  211MPD1    C2 3258   2.810   4.415  15.719 -0.0684  0.0293 -0.2277
  211MPD1    C3 3259   2.821   4.536  15.776 -0.6349  0.4332  0.1645
  211MPD1    C4 3260   2.939   4.573  15.847 -0.4347 -0.3160 -0.3132
  211MPD1    C5 3261   3.038   4.482  15.865  0.6834 -0.0266  0.0274
  211MPD1     H 3262   2.724   4.388  15.659 -0.6149  1.0647  0.1002
  211MPD1    H1 3263   2.948   4.668  15.899 -0.6385  1.0996 -2.8481
  211MPD1    H2 3264   3.096   4.282  15.840 -1.1218 -0.5384  0.7891
  211MPD1    H3 3265   3.132   4.506  15.914 -0.5384  1.9411  1.4327
  211MPD1     N 3266   2.709   4.620  15.747  0.1669 -0.5182 -0.5958
  211MPD1    H5 3267   2.622   4.576  15.720 -0.3290  0.4695 -0.6136
  211MPD1    N1 3268   2.895   4.195  15.692  0.2892 -0.6783 -0.1751
  211MPD1    H6 3269   2.799   4.163  15.701 -0.1055  0.4378 -0.3634
  211MPD1    H7 3270   2.949   4.125  15.743 -2.0814 -1.9752  0.5331
  212MPD1     C 3271   1.914   3.446  16.622  0.3291  0.0996 -0.4338
  212MPD1    C1 3272   1.946   3.316  16.582 -0.2107  0.5359 -1.0923
  212MPD1    C2 3273   1.925   3.221  16.676 -0.0262  0.3162  0.6466
  212MPD1    C3 3274   1.887   3.243  16.805  0.4714  0.7583 -0.4893
  212MPD1    C4 3275   1.870   3.373  16.835 -0.1992  0.1438  0.6804
  212MPD1    C5 3276   1.880   3.478  16.752  0.0308  0.1828  0.7354
  212MPD1     H 3277   1.948   3.120  16.643 -1.5890  0.3625 -0.6022
  212MPD1    H1 3278   1.849   3.401  16.938  0.9832  0.3107  0.8824
  212MPD1    H2 3279   1.932   3.529  16.554 -3.5317  1.7966  0.6065
  212MPD1    H3 3280   1.875   3.581  16.788  0.6703  1.5914 -3.1509
  212MPD1     N 3281   1.884   3.146  16.909 -0.2979 -0.4694 -0.0433
  212MPD1    H5 3282   1.847   3.180  16.997  0.6865  1.2863 -0.2914
  212MPD1    N1 3283   1.960   3.283  16.444  0.7282 -0.2983  0.3005
  212MPD1    H6 3284   1.984   3.361  16.384 -1.4722 -0.0299 -0.1965
  212MPD1    H7 3285   2.019   3.203  16.422  0.9709  0.5012 -1.9250
  213MPD1     C 3286   4.548   3.864  15.929  0.0127 -1.1934 -0.5963
  213MPD1    C1 3287   4.480   3.757  15.878  0.0080  0.0660  0.2982
  213MPD1    C2 3288   4.492   3.737  15.739 -0.7222  0.3229  0.6744
  213MPD1    C3 3289   4.537   3.846  15.657  0.1361 -0.3635  0.3447
  213MPD1    C4 3290   4.559   3.964  15.704 -0.5659 -0.1274 -0.2478
  213MPD1    C5 3291   4.560   3.977  15.842 -0.2413  0.2873 -0.5093
  213MPD1     H 3292   4.460   3.645  15.692  1.4994 -0.8845  1.5640
  213MPD1    H1 3293   4.597   4.051  15.654 -2.6275  1.5824  1.1268
  213MPD1    H2 3294   4.541   3.882  16.036  0.5374  0.3304 -0.8180
  213MPD1    H3 3295   4.590   4.071  15.889 -0.3600 -0.4004  0.9395
  213MPD1     N 3296   4.527   3.820  15.513  0.4862 -0.0237 -0.1990
  213MPD1    H5 3297   4.518   3.724  15.481 -1.5069 -0.2523  1.0083
  213MPD1    N1 3298   4.444   3.649  15.961 -0.0153  0.3813 -0.7830
  213MPD1    H6 3299   4.396   3.683  16.044 -0.0679 -0.7639 -0.3416
  213MPD1    H7 3300   4.367   3.604  15.911  0.2458 -1.0128  0.0548
  214MPD1     C 3301   3.921   3.346  15.337 -0.3587  0.9725  0.4336
  214MPD1    C1 3302   4.001   3.322  15.230 -0.3778 -0.8552  0.3842
  214MPD1    C2 3303   4.073   3.428  15.185  0.2365 -0.6281 -0.3867
  214MPD1    C3 3304   4.086   3.549  15.261 -1.1286  0.4445 -0.0301
  214MPD1    C4 3305   4.002   3.560  15.368 -0.3195  0.8136 -0.1034
  214MPD1    C5 3306   3.916   3.462  15.402 -0.9038  0.3850 -0.7005
  214MPD1     H 3307   4.146   3.418  15.105  0.0698 -0.6349 -0.5362
  214MPD1    H1 3308   4.003   3.649  15.431 -2.9622 -0.2122  1.4292
  214MPD1    H2 3309   3.854   3.275  15.384 -0.3501  1.6061  1.3921
  214MPD1    H3 3310   3.856   3.474  15.492 -1.0760  1.9629 -1.0199
  214MPD1     N 3311   4.178   3.657  15.233 -0.3785  1.3180  0.6594
  214MPD1    H5 3312   4.175   3.737  15.296 -1.8510  1.0299  0.9666
  214MPD1    N1 3313   4.004   3.190  15.185 -0.6499 -0.4734  0.3948
  214MPD1    H6 3314   4.010   3.175  15.084  1.3113  1.0965  0.2827
  214MPD1    H7 3315   3.922   3.139  15.215 -0.0509 -1.7330 -0.0919
  215MPD1     C 3316   0.159   4.675  10.591  0.5261  0.1783 -0.0307
  215MPD1    C1 3317   0.167   4.666  10.727  0.2171 -0.6998  0.6789
  215MPD1    C2 3318   0.189   0.040  10.800  0.2707  0.2417 -0.0319
  215MPD1    C3 3319   0.205   0.165  10.735 -0.2884  0.1828 -0.6823
  215MPD1    C4 3320   0.201   0.166  10.600  0.0110 -0.8295  0.1282
  215MPD1    C5 3321   0.176   0.052  10.534 -0.1258 -0.1802  0.1814
  215MPD1     H 3322   0.211   0.035  10.906 -4.3804 -4.4943  0.7535
  215MPD1    H1 3323   0.204   0.252  10.534 -1.0125 -0.4077  0.6374
  215MPD1    H2 3324   0.137   4.589  10.530 -1.0183  0.6482 -0.1223
  215MPD1    H3 3325   0.159   0.068  10.428 -1.4882 -0.4823  0.3494
  215MPD1     N 3326   0.214   0.275  10.814  0.7810  0.1599  0.1788
  215MPD1    H5 3327   0.220   0.270  10.915  2.0470  1.4904  0.1607
  215MPD1    N1 3328   0.128   4.545  10.789 -0.6756  0.3067  0.1405
  215MPD1    H6 3329   0.154   4.543  10.887 -0.1500 -0.0003 -0.0029
  215MPD1    H7 3330   0.138   4.458  10.738 -0.5551  0.7821 -0.6520
  216MPD1     C 3331   2.521   3.109  17.678 -1.1279 -0.3387  0.2421
  216MPD1    C1 3332   2.395   3.061  17.648  0.3785  0.0797 -0.1797
  216MPD1    C2 3333   2.373   2.933  17.682 -0.1619 -0.1848  0.1778
  216MPD1    C3 3334   2.479   2.848  17.715 -0.0795  0.8366  0.3867
  216MPD1    C4 3335   2.604   2.894  17.734 -0.5957  0.4261  0.1499
  216MPD1    C5 3336   2.621   3.024  17.713  0.0063 -0.2980 -0.9899
  216MPD1     H 3337   2.276   2.884  17.675  0.1204 -0.4047 -2.1487
  216MPD1    H1 3338   2.686   2.829   0.008 -0.5231  1.0674  1.4590
  216MPD1    H2 3339   2.540   3.213  17.655 -0.9724  0.1438  2.4826
  216MPD1    H3 3340   2.721   3.066  17.707 -1.0646  2.0818 -2.3605
  216MPD1     N 3341   2.444   2.717  17.739  0.1229 -0.0408 -0.0978
  216MPD1    H5 3342   2.348   2.691  17.718 -0.8416  2.0336  1.8234
  216MPD1    N1 3343   2.290   3.147  17.614  0.2741  0.0494  0.2533
  216MPD1    H6 3344   2.208   3.098  17.577  1.3020  0.7850 -2.9729
  216MPD1    H7 3345   2.315   3.220  17.547 -2.5488  0.1409 -0.7097
  217MPD1     C 3346   4.026   3.455   9.065  0.1046  0.1402 -0.2630
  217MPD1    C1 3347   4.048   3.580   9.006 -0.3448  0.6998  0.8041
  217MPD1    C2 3348   4.048   3.688   9.090  0.5699  0.2914  0.4897
  217MPD1    C3 3349   4.050   3.669   9.234 -0.1929  0.2149  0.6822
  217MPD1    C4 3350   4.044   3.539   9.286  0.0072 -0.4295  0.0639
  217MPD1    C5 3351   4.035   3.436   9.203  0.0635 -0.0423  0.3776
  217MPD1     H 3352   4.043   3.787   9.045  0.4545  0.1114  0.1066
  217MPD1    H1 3353   4.033   3.516   9.391  1.0789  1.3335  0.5691
  217MPD1    H2 3354   4.025   3.366   9.002  0.0307  1.0994 -1.6130
  217MPD1    H3 3355   4.019   3.340   9.250  2.1150 -0.2066  0.7284
  217MPD1     N 3356   4.039   3.766   9.330 -1.1659  0.1465  0.2874
  217MPD1    H5 3357   4.029   3.738   9.427 -0.4687  2.3132  0.9931
  217MPD1    N1 3358   4.036   3.584   8.864  0.2094  0.2099 -0.2156
  217MPD1    H6 3359   4.066   3.499   8.815  2.1977  0.4690  0.5545
  217MPD1    H7 3360   4.087   3.665   8.829 -1.3922  1.0210 -0.6758
  218MPD1     C 3361   4.504   1.090  13.218 -0.7535  0.4809 -0.4974
  218MPD1    C1 3362   4.537   1.080  13.084 -0.1732  0.5985  0.3344
  218MPD1    C2 3363   4.597   0.960  13.053 -0.2061  0.1113  0.3185
  218MPD1    C3 3364   4.630   0.868  13.146  0.1591 -0.5106 -0.1104
  218MPD1    C4 3365   4.609   0.891  13.281 -0.8148  0.1223 -0.6484
  218MPD1    C5 3366   4.538   1.002  13.320 -0.4186 -0.1803  0.3357
  218MPD1     H 3367   4.602   0.919  12.952  1.4199 -1.2926  0.9600
  218MPD1    H1 3368   4.630   0.818  13.357  0.2842 -0.5524 -1.5914
  218MPD1    H2 3369   4.460   1.181  13.258 -0.5497  1.3305 -2.1724
  218MPD1    H3 3370   4.499   1.024  13.418  1.9661  1.7387  0.8607
  218MPD1     N 3371   4.683   0.746  13.096  0.6052  0.1248 -0.1967
  218MPD1    H5 3372   4.697   0.735  12.996  0.6592 -0.9027 -0.0719
  218MPD1    N1 3373   4.472   1.159  12.988 -0.0264 -0.1145 -0.0612
  218MPD1    H6 3374   4.453   1.252  13.025  0.1947  0.2069 -0.7505
  218MPD1    H7 3375   4.513   1.163  12.895 -1.4204  1.2714 -0.6078
  219MPD1     C 3376   0.362   0.289  12.289 -0.3816  0.2944  0.2473
  219MPD1    C1 3377   0.398   0.396  12.361  0.5404  0.2095  0.3675
  219MPD1    C2 3378   0.346   0.413  12.491  0.3850 -0.0187  0.5486
  219MPD1    C3 3379   0.259   0.326  12.551  0.1019 -0.4445 -0.1527
  219MPD1    C4 3380   0.219   0.219  12.472 -0.1684 -0.0357  0.6482
  219MPD1    C5 3381   0.268   0.201  12.346  0.0627 -0.1544 -0.5680
  219MPD1     H 3382   0.360   0.507  12.544  0.0435 -1.2961  2.9114
  219MPD1    H1 3383   0.143   0.148  12.502  0.2702 -0.7998 -0.0666
  219MPD1    H2 3384   0.389   0.263  12.188  1.5905  1.0237  0.5783
  219MPD1    H3 3385   0.220   0.123  12.287 -3.2678  0.0121  1.9363
  219MPD1     N 3386   0.194   0.343  12.679  0.7744  0.7127 -0.0485
  219MPD1    H5 3387   0.124   0.272  12.701 -1.3645  2.5507 -0.8940
  219MPD1    N1 3388   0.469   0.503  12.298  0.9710 -0.1466 -0.2534
  219MPD1    H6 3389   0.524   0.553  12.368 -0.6346 -0.5028  1.2527
  219MPD1    H7 3390   0.524   0.478  12.216 -0.4651 -0.1800 -1.2207
  220MPD1     C 3391   4.145   1.551   9.638  0.1350  0.2879 -0.0398
  220MPD1    C1 3392   4.051   1.461   9.689  0.1343  0.0488 -0.1025
  220MPD1    C2 3393   4.074   1.395   9.809 -0.2844 -0.7265  0.3560
  220MPD1    C3 3394   4.187   1.425   9.878 -1.4219 -0.4937  0.0115
  220MPD1    C4 3395   4.274   1.524   9.832  0.0697  0.0092 -0.4376
  220MPD1    C5 3396   4.249   1.592   9.719  0.0684  0.2079  0.2620
  220MPD1     H 3397   4.009   1.311   9.832  1.5399 -2.4697 -0.7828
  220MPD1    H1 3398   4.368   1.544   9.883  0.4188 -0.1932 -1.0036
  220MPD1    H2 3399   4.124   1.593   9.540  0.3397  1.4473  0.4195
  220MPD1    H3 3400   4.323   1.664   9.687 -1.4705  2.1452  1.0746
  220MPD1     N 3401   4.221   1.346   9.991 -0.2337  0.6783  0.6639
  220MPD1    H5 3402   4.153   1.275  10.016  0.1567 -0.1807 -0.7063
  220MPD1    N1 3403   3.949   1.409   9.606  0.1355 -0.4895 -0.0103
  220MPD1    H6 3404   3.936   1.468   9.525 -2.0676 -0.4553  0.3531
  220MPD1    H7 3405   3.867   1.392   9.665  0.6247 -0.1679  0.7682
  221MPD1     C 3406   3.070   3.196  17.085 -0.6328 -0.2070  0.1204
  221MPD1    C1 3407   3.150   3.244  16.978  0.0984 -0.0142 -0.2828
  221MPD1    C2 3408   3.115   3.352  16.899  0.9885  0.1758 -0.6163
  221MPD1    C3 3409   2.988   3.408  16.918  0.0940 -0.2429  0.1434
  221MPD1    C4 3410   2.907   3.350  17.011  0.3366 -1.2241  0.3345
  221MPD1    C5 3411   2.942   3.246  17.092 -0.5221 -0.1420  0.0605
  221MPD1     H 3412   3.180   3.381  16.818  0.8054  0.0721 -0.8022
  221MPD1    H1 3413   2.811   3.398  17.024  0.1046 -1.3097 -1.0897
  221MPD1    H2 3414   3.106   3.116  17.148 -0.0906 -0.3620 -0.3911
  221MPD1    H3 3415   2.875   3.216  17.172 -1.6614  0.4845 -0.6430
  221MPD1     N 3416   2.934   3.507  16.832  0.1330 -0.8005 -0.1049
  221MPD1    H5 3417   2.835   3.526  16.840  0.5596  0.8778  1.1838
  221MPD1    N1 3418   3.284   3.194  16.969  0.1453 -0.1310 -0.1787
  221MPD1    H6 3419   3.317   3.215  16.874  0.7357 -1.4923 -0.2814
  221MPD1    H7 3420   3.281   3.092  16.974 -1.3963 -0.1582 -1.5696
  222MPD1     C 3421   2.063   2.992  17.419  0.2424  0.8113 -0.0511
  222MPD1    C1 3422   1.977   3.019  17.516 -0.6796 -0.8077  0.5693
  222MPD1    C2 3423   1.892   3.124  17.496  0.9516 -0.5665  0.0407
  222MPD1    C3 3424   1.896   3.206  17.385  0.7560  0.2683 -0.2971
  222MPD1    C4 3425   1.989   3.172  17.289 -0.2776 -0.4203 -0.3343
  222MPD1    C5 3426   2.073   3.061  17.305 -0.2734 -0.4993  0.4433
  222MPD1     H 3427   1.823   3.155  17.573 -1.8697 -0.6160 -2.4521
  222MPD1    H1 3428   2.003   3.229  17.198  1.0046 -0.6565 -0.2939
  222MPD1    H2 3429   2.144   2.920  17.428  0.8062  1.6845  1.7464
  222MPD1    H3 3430   2.142   3.032  17.227 -0.1931  2.0259 -0.4223
  222MPD1     N 3431   1.817   3.318  17.372 -0.0373 -0.0625 -0.8586
  222MPD1    H5 3432   1.781   3.361  17.456 -0.3322 -1.2129 -0.4107
  222MPD1    N1 3433   2.000   2.964  17.645 -0.2998 -0.0871 -0.2825
  222MPD1    H6 3434   2.039   2.870  17.647  1.1507  0.5344  0.8499
  222MPD1    H7 3435   1.912   2.956  17.695  0.2052 -1.7535  0.3634
  223MPD1     C 3436   1.202   3.950  16.687  0.1489  0.4697  0.1396
  223MPD1    C1 3437   1.166   3.997  16.810  0.8560  0.1939 -0.0310
  223MPD1    C2 3438   1.226   3.937  16.922  0.0961 -0.4505 -0.4047
  223MPD1    C3 3439   1.322   3.835  16.904  0.3930 -0.2691 -0.0531
  223MPD1    C4 3440   1.358   3.799  16.775  0.0509 -0.1424  0.0201
  223MPD1    C5 3441   1.295   3.855  16.670  0.3922  0.3962 -0.0469
  223MPD1     H 3442   1.204   3.982  17.018  2.8452  0.3348 -0.1448
  223MPD1    H1 3443   1.426   3.721  16.743 -0.0169 -1.2317  2.5305
  223MPD1    H2 3444   1.154   3.978  16.594  0.0745  1.2744  0.4204
  223MPD1    H3 3445   1.321   3.804  16.578  2.4129  0.8242  0.3052
  223MPD1     N 3446   1.389   3.782  17.015  0.1010  0.1717  0.4412
  223MPD1    H5 3447   1.369   3.834  17.100  0.3341  1.1851 -0.1197
  223MPD1    N1 3448   1.051   4.075  16.826  0.2155  0.6649 -1.1761
  223MPD1    H6 3449   1.028   4.140  16.752  0.7932  2.0610 -0.1336
  223MPD1    H7 3450   1.059   4.139  16.905  2.4766  0.7533 -1.4649
  224MPD1     C 3451   4.211   4.224   9.219  0.7509 -0.5703 -0.1776
  224MPD1    C1 3452   4.109   4.322   9.209  0.1100 -0.2749  0.6118
  224MPD1    C2 3453   4.096   4.413   9.306  0.5627 -0.2287  0.7649
  224MPD1    C3 3454   4.184   4.412   9.409  0.1047  0.4309 -0.3055
  224MPD1    C4 3455   4.286   4.323   9.415 -0.2856  0.1758 -0.2047
  224MPD1    C5 3456   4.303   4.226   9.325 -0.4988 -0.2360 -1.1680
  224MPD1     H 3457   4.018   4.486   9.288 -0.2660 -1.5436 -0.9427
  224MPD1    H1 3458   4.356   4.324   9.499 -0.1638  0.4185 -0.3086
  224MPD1    H2 3459   4.219   4.147   9.143 -1.0941 -1.1002  0.1721
  224MPD1    H3 3460   4.382   4.154   9.342  0.5115  1.4526  1.3175
  224MPD1     N 3461   4.177   4.496   9.521 -0.0337 -0.4122 -0.2607
  224MPD1    H5 3462   4.232   4.473   9.604 -0.8546 -0.9514  0.1297
  224MPD1    N1 3463   4.008   4.310   9.120  0.6037  0.7814 -0.4954
  224MPD1    H6 3464   3.948   4.392   9.117 -1.3297 -0.5879  0.2370
  224MPD1    H7 3465   4.051   4.282   9.032 -1.4901 -0.2977 -1.1786
  225MPD1     C 3466   4.088   1.380  13.364  0.4084 -0.0206 -0.2806
  225MPD1    C1 3467   4.127   1.267  13.292  0.0989 -0.3669 -0.4546
  225MPD1    C2 3468   4.103   1.267  13.157  0.6373  0.1849  0.2184
  225MPD1    C3 3469   4.061   1.380  13.090 -0.1459  0.2636 -0.2202
  225MPD1    C4 3470   4.034   1.496  13.162  0.4681  0.3313  0.9060
  225MPD1    C5 3471   4.046   1.492  13.301 -0.2114  0.3037  0.8265
  225MPD1     H 3472   4.145   1.183  13.103  0.3735 -1.0583  1.9613
  225MPD1    H1 3473   4.019   1.593  13.116 -1.2247 -0.4449 -0.1619
  225MPD1    H2 3474   4.101   1.381  13.472 -0.2777  1.3596 -0.2174
  225MPD1    H3 3475   4.019   1.579  13.360  1.2235  0.3035  1.4814
  225MPD1     N 3476   4.051   1.382  12.954  0.0252  0.2411 -0.4482
  225MPD1    H5 3477   4.026   1.467  12.906 -1.6463 -0.2968 -0.5513
  225MPD1    N1 3478   4.165   1.152  13.366 -0.0119 -0.5356  0.3481
  225MPD1    H6 3479   4.196   1.178  13.460  2.7502 -0.6161 -0.5446
  225MPD1    H7 3480   4.239   1.105  13.315  0.8776  2.0131 -0.6841
  226MPD1     C 3481   3.538   1.734  10.109  0.0287 -0.1420 -0.5149
  226MPD1    C1 3482   3.629   1.726  10.009  0.0703  0.1602 -0.0394
  226MPD1    C2 3483   3.615   1.625   9.916  0.6052 -0.2330 -0.6614
  226MPD1    C3 3484   3.513   1.529   9.927 -0.3096 -0.0127  0.3198
  226MPD1    C4 3485   3.430   1.546  10.032  0.6379  0.3096  0.8712
  226MPD1    C5 3486   3.441   1.647  10.118  0.0847  0.3385 -0.1237
  226MPD1     H 3487   3.677   1.633   9.828 -2.3899  2.2413 -2.5289
  226MPD1    H1 3488   3.352   1.471  10.046  0.0785  0.6574 -0.4398
  226MPD1    H2 3489   3.536   1.803  10.193  1.9058 -0.1900 -0.4312
  226MPD1    H3 3490   3.364   1.655  10.193 -0.0526 -3.2110  0.1116
  226MPD1     N 3491   3.491   1.415   9.843  0.0135 -0.4337  0.2762
  226MPD1    H5 3492   3.409   1.359   9.860 -0.3214 -0.0362 -0.0135
  226MPD1    N1 3493   3.710   1.834   9.978  0.6357  0.6542 -0.5415
  226MPD1    H6 3494   3.792   1.805   9.926  0.1056 -2.5790  0.4212
  226MPD1    H7 3495   3.740   1.875  10.066 -0.3834 -0.0905  0.1571
  227MPD1     C 3496   2.877   0.674   9.657 -0.3535 -0.0040  0.3904
  227MPD1    C1 3497   2.949   0.661   9.541 -0.9347  0.4344  0.2957
  227MPD1    C2 3498   3.052   0.751   9.513  0.1538 -0.1443 -0.2489
  227MPD1    C3 3499   3.080   0.849   9.607 -0.5959 -0.8369 -0.3017
  227MPD1    C4 3500   3.003   0.860   9.727  0.3965  0.3965  0.6229
  227MPD1    C5 3501   2.892   0.780   9.742 -0.2950 -0.2701  0.3748
  227MPD1     H 3502   3.109   0.734   9.423  0.5991 -3.9251  0.7287
  227MPD1    H1 3503   3.019   0.929   9.809  1.6382  1.9963 -0.9529
  227MPD1    H2 3504   2.807   0.597   9.688 -3.4611  2.3401 -0.7897
  227MPD1    H3 3505   2.831   0.787   9.831 -1.5227 -0.8065 -0.4305
  227MPD1     N 3506   3.185   0.945   9.576 -0.1663  0.2128 -0.3811
  227MPD1    H5 3507   3.235   0.928   9.490 -2.1171 -0.0336 -1.4535
  227MPD1    N1 3508   2.924   0.541   9.472  0.7981 -0.0113 -0.4629
  227MPD1    H6 3509   2.834   0.504   9.503  2.1003 -0.3967  2.8387
  227MPD1    H7 3510   2.927   0.566   9.374  1.0611 -0.4792 -0.5722
  228MPD1     C 3511   1.691   3.292  13.214 -0.4074 -0.4692 -0.2670
  228MPD1    C1 3512   1.616   3.267  13.104 -0.2295  0.0972 -1.1358
  228MPD1    C2 3513   1.484   3.231  13.121  0.0043  0.0433 -0.3616
  228MPD1    C3 3514   1.430   3.212  13.244  0.7366 -0.1231 -0.7336
  228MPD1    C4 3515   1.516   3.225  13.354  0.2637 -0.6476 -0.2659
  228MPD1    C5 3516   1.643   3.275  13.343  0.5992 -0.0368 -0.7564
  228MPD1     H 3517   1.420   3.220  13.034 -0.4981  0.7994 -0.0843
  228MPD1    H1 3518   1.480   3.222  13.456 -0.1999  1.0688 -0.3769
  228MPD1    H2 3519   1.786   3.341  13.197 -1.3130  2.1710  2.2129
  228MPD1    H3 3520   1.710   3.303  13.424  0.1430 -0.5239 -0.2140
  228MPD1     N 3521   1.293   3.192  13.259  0.8751 -0.0299  0.3494
  228MPD1    H5 3522   1.240   3.200  13.173 -1.1177 -2.4570  1.3398
  228MPD1    N1 3523   1.658   3.307  12.976  0.0543 -0.5487 -0.2058
  228MPD1    H6 3524   1.596   3.280  12.899 -0.1999  1.3473 -0.6645
  228MPD1    H7 3525   1.757   3.287  12.962  0.3394 -2.0519  4.0341
  229MPD1     C 3526   0.927   2.640  14.938 -0.3505  0.2245 -0.1351
  229MPD1    C1 3527   0.843   2.535  14.943 -1.0948 -0.1519 -0.2012
  229MPD1    C2 3528   0.883   2.415  14.999  0.3084  0.3287 -0.2069
  229MPD1    C3 3529   1.015   2.398  15.040  0.3577 -0.0963 -0.1367
  229MPD1    C4 3530   1.102   2.505  15.029  0.0459  0.4503 -0.2267
  229MPD1    C5 3531   1.054   2.621  14.976  0.1548  0.2757 -0.2040
  229MPD1     H 3532   0.810   2.335  15.009  0.6249  0.1128  0.3183
  229MPD1    H1 3533   1.204   2.506  15.066 -0.3984 -0.3060  1.0553
  229MPD1    H2 3534   0.894   2.737  14.905 -3.0562 -1.1463 -1.4815
  229MPD1    H3 3535   1.104   2.717  14.978 -0.8134  0.7600  0.6309
  229MPD1     N 3536   1.065   2.279  15.101  0.4358  0.5742  0.6424
  229MPD1    H5 3537   1.157   2.288  15.143  0.5199  2.0541  0.1514
  229MPD1    N1 3538   0.707   2.569  14.919 -0.1456 -0.7104 -0.4754
  229MPD1    H6 3539   0.644   2.494  14.892 -0.3032 -1.3138  1.5462
  229MPD1    H7 3540   0.701   2.638  14.844 -1.8575 -0.0835  0.2294
  230MPD1     C 3541   1.492   1.993  15.925  0.1456  0.0550 -0.1105
  230MPD1    C1 3542   1.528   1.890  15.846 -0.5994  0.1772  0.3667
  230MPD1    C2 3543   1.475   1.884  15.715  0.4192  0.2909 -0.3123
  230MPD1    C3 3544   1.390   1.985  15.675  0.4679  0.0817 -0.7506
  230MPD1    C4 3545   1.366   2.098  15.752 -0.5391 -0.2382  0.8050
  230MPD1    C5 3546   1.419   2.102  15.879  0.1447  0.1283  0.7882
  230MPD1     H 3547   1.511   1.801  15.655  0.8512 -0.5633  1.1249
  230MPD1    H1 3548   1.296   2.178  15.729 -0.3448  0.5189  2.8745
  230MPD1    H2 3549   1.542   2.007  16.020 -0.9618  2.3778  0.1100
  230MPD1    H3 3550   1.395   2.189  15.940  0.4944  0.4134  0.5150
  230MPD1     N 3551   1.329   1.965  15.551 -0.1323  0.2304 -0.4939
  230MPD1    H5 3552   1.361   1.884  15.499 -1.4043 -0.0014 -0.9161
  230MPD1    N1 3553   1.631   1.805  15.890  0.0553 -0.5325  0.1201
  230MPD1    H6 3554   1.647   1.714  15.849 -0.1375 -1.7200  2.7048
  230MPD1    H7 3555   1.653   1.807  15.990 -0.8661  2.0897  0.2857
  231MPD1     C 3556   4.230   4.101  15.430 -0.3023 -0.2678  0.1177
  231MPD1    C1 3557   4.178   4.074  15.302 -0.4467 -0.4361  0.1412
  231MPD1    C2 3558   4.221   4.150  15.197 -0.1654  0.6552  0.2969
  231MPD1    C3 3559   4.302   4.257  15.213 -0.9392 -0.1386 -0.2268
  231MPD1    C4 3560   4.346   4.281  15.339  0.3744  1.1084 -0.5759
  231MPD1    C5 3561   4.307   4.212  15.452  0.0340  0.5337  0.4337
  231MPD1     H 3562   4.183   4.115  15.102  0.8321  0.9250 -0.2005
  231MPD1    H1 3563   4.410   4.366  15.359  1.4094  0.1288  0.2698
  231MPD1    H2 3564   4.203   4.037  15.514  1.8010  1.6818  2.2769
  231MPD1    H3 3565   4.352   4.237  15.548  0.8704  0.5192  0.0516
  231MPD1     N 3566   4.335   4.330  15.095 -0.3632  0.6596 -0.4914
  231MPD1    H5 3567   4.279   4.306  15.014  0.8794  2.2158 -1.8142
  231MPD1    N1 3568   4.103   3.952  15.279 -0.8099 -0.4334 -0.5142
  231MPD1    H6 3569   4.043   3.933  15.360 -0.3790 -1.0517 -0.3372
  231MPD1    H7 3570   4.028   3.970  15.213 -1.8115 -0.3439  0.6412
  232MPD1     C 3571   1.542   1.475   0.574 -0.5531 -0.7333 -0.0685
  232MPD1    C1 3572   1.487   1.518   0.693  0.0194  1.0630  0.3024
  232MPD1    C2 3573   1.372   1.592   0.701  0.2617 -0.3067 -0.0898
  232MPD1    C3 3574   1.298   1.605   0.585 -0.6705  0.9178  0.0765
  232MPD1    C4 3575   1.349   1.574   0.459  0.2237 -0.2069  0.1646
  232MPD1    C5 3576   1.474   1.508   0.456  0.9781 -0.3111  0.5119
  232MPD1     H 3577   1.335   1.625   0.798  1.0928 -0.1779  0.1797
  232MPD1    H1 3578   1.304   1.586   0.361  1.1311 -0.9560 -0.3491
  232MPD1    H2 3579   1.635   1.419   0.573 -1.8535 -2.9682  2.6186
  232MPD1    H3 3580   1.511   1.482   0.358 -0.2394  0.6913 -0.2098
  232MPD1     N 3581   1.167   1.666   0.605  0.3139 -0.1681 -0.0422
  232MPD1    H5 3582   1.126   1.671   0.698  0.1649 -0.2960 -0.1011
  232MPD1    N1 3583   1.566   1.503   0.809  0.8641 -0.0268  0.2098
  232MPD1    H6 3584   1.626   1.421   0.804 -1.5168 -1.6404 -1.3534
  232MPD1    H7 3585   1.518   1.510   0.899 -0.1878  2.0171 -0.5065
  233MPD1     C 3586   1.887   0.079   0.032 -0.3114 -0.6847 -0.3516
  233MPD1    C1 3587   1.842   4.726   0.122 -0.2071  0.5368  0.6882
  233MPD1    C2 3588   1.924   4.681   0.223 -0.6634 -0.2274  0.1910
  233MPD1    C3 3589   2.054   4.719   0.230 -0.1970 -0.1605  0.1471
  233MPD1    C4 3590   2.094   0.079   0.142  0.4906 -0.1298 -0.1748
  233MPD1    C5 3591   2.009   0.137   0.053 -0.0430 -0.4423  0.3353
  233MPD1     H 3592   1.891   4.602   0.290  1.6597  0.9418  2.6968
  233MPD1    H1 3593   2.190   0.129   0.151  0.8576 -0.9983  0.7685
  233MPD1    H2 3594   1.835   0.106  17.694 -0.1818 -2.3619 -0.9281
  233MPD1    H3 3595   2.050   0.207  17.735  0.3997 -0.1773  0.8499
  233MPD1     N 3596   2.142   4.682   0.332  1.0365  0.4488 -0.2945
  233MPD1    H5 3597   2.239   4.709   0.322  1.0488  0.6318  0.3114
  233MPD1    N1 3598   1.701   4.707   0.135 -0.4679 -0.2797 -0.2944
  233MPD1    H6 3599   1.676   4.615   0.173 -0.3974 -0.5554 -0.9169
  233MPD1    H7 3600   1.662   4.709   0.041  0.9355  3.4466 -0.7823
  234MPD1     C 3601   4.556   3.818  11.184 -0.2783  0.2096 -0.5396
  234MPD1    C1 3602   4.521   3.948  11.181 -0.4488 -0.5687  0.1451
  234MPD1    C2 3603   4.504   4.017  11.060  0.2905 -0.6204  0.3104
  234MPD1    C3 3604   4.501   3.939  10.947  0.4373  0.2423  0.3363
  234MPD1    C4 3605   4.540   3.806  10.948  0.4140 -0.2784 -0.3370
  234MPD1    C5 3606   4.564   3.746  11.066  0.6111 -0.4711 -0.0724
  234MPD1     H 3607   4.483   4.122  11.049 -1.4727 -1.1186 -1.0279
  234MPD1    H1 3608   4.560   3.746  10.860  0.2697 -0.3593 -0.3146
  234MPD1    H2 3609   4.570   3.767  11.278 -1.4866  2.0985  0.6714
  234MPD1    H3 3610   4.578   3.638  11.066  1.6271 -0.3398  0.0615
  234MPD1     N 3611   4.477   4.015  10.827 -0.3075  0.1329 -0.2517
  234MPD1    H5 3612   4.467   4.116  10.832 -0.6719  0.0055  1.7611
  234MPD1    N1 3613   4.504   4.022  11.297  0.1762 -0.3136  0.0540
  234MPD1    H6 3614   4.431   4.093  11.300  1.9748  1.5169  0.7217
  234MPD1    H7 3615   4.496   3.964  11.381 -1.7459 -1.3795 -0.8681
  235MPD1     C 3616   0.736   1.304  10.711  0.9329  0.1814  0.2889
  235MPD1    C1 3617   0.752   1.311  10.577  0.8491  0.9141 -0.2408
  235MPD1    C2 3618   0.850   1.400  10.530  0.5135 -0.0763 -0.2383
  235MPD1    C3 3619   0.914   1.484  10.611 -0.3361 -0.0247 -0.2093
  235MPD1    C4 3620   0.895   1.471  10.743 -0.2311 -0.8102  0.2891
  235MPD1    C5 3621   0.804   1.382  10.797 -0.0339 -0.8127 -0.2486
  235MPD1     H 3622   0.880   1.395  10.426 -1.2798  0.4269 -0.7752
  235MPD1    H1 3623   0.948   1.533  10.815  2.1430 -0.1666 -2.0020
  235MPD1    H2 3624   0.661   1.237  10.751 -0.7234  1.4532 -0.6277
  235MPD1    H3 3625   0.791   1.371  10.904 -1.5047  1.5752 -0.1874
  235MPD1     N 3626   1.019   1.559  10.554 -0.0879 -0.1178 -0.4042
  235MPD1    H5 3627   1.035   1.543  10.455 -1.5367  2.4042 -1.0273
  235MPD1    N1 3628   0.692   1.213  10.495 -0.1576  0.0257 -0.2284
  235MPD1    H6 3629   0.681   1.237  10.397  0.5430 -0.7149 -0.4884
  235MPD1    H7 3630   0.600   1.181  10.523 -1.1383  1.1687 -2.1557
  236MPD1     C 3631   4.574   2.104   9.282 -0.1763 -0.4501  0.6573
  236MPD1    C1 3632   4.616   2.227   9.326  0.1947  0.1404 -0.1331
  236MPD1    C2 3633   4.735   2.244   9.397  0.3072  0.3426 -0.2809
  236MPD1    C3 3634   0.064   2.132   9.445 -0.1533 -0.3864  0.2787
  236MPD1    C4 3635   0.021   2.005   9.398  0.2409  0.2401  0.2934
  236MPD1    C5 3636   4.645   1.996   9.324 -0.0984 -0.0413  0.1196
  236MPD1     H 3637   0.022   2.343   9.430  1.6437  1.1344 -3.7163
  236MPD1    H1 3638   0.061   1.910   9.430 -1.1141 -0.4857 -0.1648
  236MPD1    H2 3639   4.483   2.095   9.224 -0.0891 -0.9370  0.5921
  236MPD1    H3 3640   4.613   1.900   9.284  0.7484  0.4042 -1.6301
  236MPD1     N 3641   0.172   2.131   9.541  0.4580  0.3602 -0.2139
  236MPD1    H5 3642   0.219   2.041   9.549 -1.4586 -0.4844  1.7911
  236MPD1    N1 3643   4.554   2.350   9.289 -0.1256  0.3726 -0.2328
  236MPD1    H6 3644   4.582   2.426   9.351  1.0444 -0.3148  0.0755
  236MPD1    H7 3645   4.453   2.350   9.272 -0.5818 -1.9591  2.5970
  237MPD1     C 3646   4.493   0.971  15.733  0.5999  0.5405 -0.1383
  237MPD1    C1 3647   4.431   1.015  15.618  0.1931  0.6157 -0.0876
  237MPD1    C2 3648   4.331   0.934  15.557 -0.1251  0.6712  0.5296
  237MPD1    C3 3649   4.315   0.806  15.606  0.8799  0.1777  0.0867
  237MPD1    C4 3650   4.377   0.763  15.721  0.0196 -0.3540  0.3426
  237MPD1    C5 3651   4.469   0.845  15.780 -0.0564  0.9174 -1.3248
  237MPD1     H 3652   4.272   0.980  15.478  1.7344  0.4658 -0.9751
  237MPD1    H1 3653   4.375   0.662  15.759  1.4977  0.0401  1.4730
  237MPD1    H2 3654   4.572   1.028  15.781 -0.8810  2.4376  0.0772
  237MPD1    H3 3655   4.519   0.806  15.868  0.9940  2.3977 -1.2682
  237MPD1     N 3656   4.232   0.711  15.546  0.2895  0.2796  0.7487
  237MPD1    H5 3657   4.223   0.619  15.587  1.0195 -0.1689 -0.0962
  237MPD1    N1 3658   4.436   1.154  15.596  0.2314 -0.2788 -0.4806
  237MPD1    H6 3659   4.408   1.173  15.500 -1.4949  0.7890  0.2387
  237MPD1    H7 3660   4.527   1.188  15.623 -0.2874  0.3802  0.4230
  238MPD1     C 3661   1.569   3.469  15.415 -0.1953  0.5752 -0.6059
  238MPD1    C1 3662   1.484   3.556  15.483 -0.2596  0.2105 -0.0122
  238MPD1    C2 3663   1.380   3.606  15.415  0.4545  0.3181 -0.3680
  238MPD1    C3 3664   1.336   3.552  15.290  0.0348 -0.5049  0.0493
  238MPD1    C4 3665   1.419   3.457  15.228 -0.3610 -0.1747  0.3943
  238MPD1    C5 3666   1.535   3.415  15.294  0.1871  0.6891 -0.4332
  238MPD1     H 3667   1.302   3.661  15.467  1.4056  1.9221 -0.6313
  238MPD1    H1 3668   1.386   3.417  15.132 -0.6494  4.7241 -1.5735
  238MPD1    H2 3669   1.657   3.428  15.462  1.3106  2.8632 -1.4604
  238MPD1    H3 3670   1.601   3.341  15.250 -0.6230 -0.3277  0.0471
  238MPD1     N 3671   1.215   3.597  15.226  0.0042  0.6762 -0.3898
  238MPD1    H5 3672   1.213   3.579  15.126 -1.1398 -0.7435 -0.1039
  238MPD1    N1 3673   1.519   3.602  15.608 -0.0067  0.1034  0.4132
  238MPD1    H6 3674   1.586   3.540  15.654 -1.0743 -1.5141 -0.2290
  238MPD1    H7 3675   1.441   3.638  15.663 -0.2123 -0.6941  0.6450
  239MPD1     C 3676   1.417   4.096  14.848  0.2538  0.4691  0.4666
  239MPD1    C1 3677   1.300   4.165  14.863  0.5399 -0.6899 -0.3705
  239MPD1    C2 3678   1.275   4.280  14.788 -0.8975 -0.0662  0.1442
  239MPD1    C3 3679   1.379   4.344  14.724 -0.2087  0.8326  0.4925
  239MPD1    C4 3680   1.506   4.276  14.717 -0.0833  0.4454 -0.2454
  239MPD1    C5 3681   1.521   4.155  14.784 -0.0007  0.0359  1.2549
  239MPD1     H 3682   1.178   4.325  14.801 -0.4207  0.9801  0.0899
  239MPD1    H1 3683   1.595   4.325  14.677 -0.3629 -0.5353 -2.0529
  239MPD1    H2 3684   1.423   3.999  14.897  1.0640  0.8001  1.0287
  239MPD1    H3 3685   1.619   4.110  14.792  0.9921  1.8374 -0.8414
  239MPD1     N 3686   1.369   4.472  14.671 -0.0115 -0.0111  0.2464
  239MPD1    H5 3687   1.445   4.503  14.613  0.9841 -0.2487  1.4153
  239MPD1    N1 3688   1.192   4.108  14.929 -0.5020  0.0025  0.2760
  239MPD1    H6 3689   1.114   4.173  14.931 -1.4356 -1.0798 -1.2976
  239MPD1    H7 3690   1.155   4.030  14.875 -0.9801  0.1909  0.3350
  240MPD1     C 3691   1.312   4.508  14.181  0.6203 -0.0194  0.5603
  240MPD1    C1 3692   1.332   4.415  14.280 -0.0582  0.1190  0.1089
  240MPD1    C2 3693   1.230   4.397  14.372  0.7536  0.4079 -0.3466
  240MPD1    C3 3694   1.107   4.453  14.361  0.0566 -0.4096  0.6327
  240MPD1    C4 3695   1.088   4.553  14.268  0.0431  0.2695 -0.6598
  240MPD1    C5 3696   1.189   4.575  14.176  0.0873 -0.6062  0.4183
  240MPD1     H 3697   1.251   4.310  14.433  0.2765  1.1741  0.9100
  240MPD1    H1 3698   1.001   4.617  14.263  0.2619  0.5965 -0.2471
  240MPD1    H2 3699   1.381   4.528  14.100  1.5721 -2.5683  0.7627
  240MPD1    H3 3700   1.183   4.663  14.112 -2.2740 -2.0469 -1.3380
  240MPD1     N 3701   1.009   4.417  14.460 -0.1004  0.3223  0.3515
  240MPD1    H5 3702   1.033   4.349  14.532  4.4693  1.9539  0.3865
  240MPD1    N1 3703   1.458   4.356  14.304 -0.4870  0.3826 -0.8507
  240MPD1    H6 3704   1.452   4.266  14.351  2.3246  0.4588 -0.3335
  240MPD1    H7 3705   1.523   4.357  14.226 -0.1980  1.5567 -0.5934
  241MPD1     C 3706   0.794   4.070  15.385 -0.3673 -0.1549  0.5104
  241MPD1    C1 3707   0.908   4.081  15.304 -0.2910  0.4383  0.1277
  241MPD1    C2 3708   0.891   4.125  15.172  0.1342 -0.0018 -0.7292
  241MPD1    C3 3709   0.768   4.168  15.124  0.1089  0.1327  0.6144
  241MPD1    C4 3710   0.658   4.162  15.214 -0.2932  0.5137  0.1460
  241MPD1    C5 3711   0.678   4.117  15.342  0.2536  0.5524 -0.2221
  241MPD1     H 3712   0.978   4.140  15.109  1.2775  0.0644  0.8877
  241MPD1    H1 3713   0.558   4.195  15.188 -0.8330 -0.1528  1.3845
  241MPD1    H2 3714   0.803   4.024  15.483 -1.3232  0.4540  0.8836
  241MPD1    H3 3715   0.589   4.111  15.405  0.1857 -3.1179 -0.6557
  241MPD1     N 3716   0.745   4.217  14.989  0.4746  0.5511 -0.0045
  241MPD1    H5 3717   0.652   4.251  14.968 -0.2603 -0.9757  0.7711
  241MPD1    N1 3718   1.039   4.057  15.357 -0.0111 -0.0670  0.3609
  241MPD1    H6 3719   1.037   3.977  15.419  1.7768 -0.1507  0.3103
  241MPD1    H7 3720   1.109   4.047  15.284 -1.1016  1.4462 -0.8867
  242MPD1     C 3721   0.167   2.819  15.879  0.2985  0.0363  0.4295
  242MPD1    C1 3722   0.260   2.719  15.883  0.9806 -0.1028  0.5324
  242MPD1    C2 3723   0.355   2.715  15.787  0.1676 -0.2868 -0.1539
  242MPD1    C3 3724   0.362   2.811  15.684  0.7409 -0.2692  0.5155
  242MPD1    C4 3725   0.263   2.905  15.684  0.0004 -0.2260  0.0659
  242MPD1    C5 3726   0.171   2.920  15.786 -0.4457 -0.0294 -0.2403
  242MPD1     H 3727   0.425   2.632  15.788 -0.8531 -1.1673 -1.5012
  242MPD1    H1 3728   0.262   2.991  15.618  1.8068  0.3296  0.7739
  242MPD1    H2 3729   0.109   2.833  15.969 -0.7484 -0.8237 -0.1063
  242MPD1    H3 3730   0.095   2.997  15.783  0.3610  0.7852  0.3739
  242MPD1     N 3731   0.474   2.816  15.593 -0.1160  0.3098 -0.4083
  242MPD1    H5 3732   0.480   2.895  15.530 -1.7462 -0.7123 -1.8276
  242MPD1    N1 3733   0.274   2.629  15.993  0.5817  0.5523  0.6431
  242MPD1    H6 3734   0.182   2.589  16.011  1.3271 -0.7284  1.6319
  242MPD1    H7 3735   0.328   2.547  15.967 -1.1486 -0.6708  0.8916
  243MPD1     C 3736   2.039   1.462  17.648  0.2701 -0.0066  0.2535
  243MPD1    C1 3737   2.031   1.457  17.512 -0.8536  0.6513 -0.3304
  243MPD1    C2 3738   2.038   1.328  17.461 -0.0679 -0.0240  0.1509
  243MPD1    C3 3739   2.046   1.213  17.528 -0.6795  0.0321  0.9214
  243MPD1    C4 3740   2.062   1.216  17.669  0.2889  0.1825  0.3730
  243MPD1    C5 3741   2.059   1.342  17.716  0.6065 -0.2716  0.6070
  243MPD1     H 3742   2.028   1.321  17.353  1.0259  1.8486 -0.0790
  243MPD1    H1 3743   2.064   1.124  17.727 -1.0480 -1.9263 -2.8746
  243MPD1    H2 3744   2.030   1.551  17.708 -0.5031 -0.8145  1.3386
  243MPD1    H3 3745   2.057   1.352   0.070  0.8792 -2.8693  0.8418
  243MPD1     N 3746   2.032   1.092  17.451  0.2971  0.1237 -0.2932
  243MPD1    H5 3747   2.011   1.103  17.353 -0.3138  0.8192 -0.0919
  243MPD1    N1 3748   2.031   1.572  17.433  0.7164 -0.0189 -0.0846
  243MPD1    H6 3749   1.980   1.658  17.456  1.9670  1.7808 -4.0805
  243MPD1    H7 3750   1.998   1.546  17.340  2.0523 -0.5269 -0.4097
  244MPD1     C 3751   2.172   0.025  17.295 -0.4690 -0.6493 -0.2824
  244MPD1    C1 3752   2.166   0.090  17.166  0.0003 -0.5422  0.0423
  244MPD1    C2 3753   2.159   0.229  17.157 -0.0364  0.1558 -0.0775
  244MPD1    C3 3754   2.160   0.302  17.274 -0.8537  0.6528  0.5722
  244MPD1    C4 3755   2.166   0.234  17.396 -0.7178 -0.5143  0.2200
  244MPD1    C5 3756   2.174   0.102  17.408 -0.1848  0.0335 -0.3281
  244MPD1     H 3757   2.158   0.281  17.062  1.5918 -1.4223 -0.9524
  244MPD1    H1 3758   2.173   0.287  17.490 -0.9874  0.0401 -0.0685
  244MPD1    H2 3759   2.173   4.656  17.299  0.6634 -0.5996  0.6215
  244MPD1    H3 3760   2.179   0.057  17.507  0.2911  0.4797 -0.1489
  244MPD1     N 3761   2.160   0.445  17.273  0.6154 -0.7850 -0.8121
  244MPD1    H5 3762   2.137   0.490  17.185  0.4018  2.2165  0.7941
  244MPD1    N1 3763   2.167   0.009  17.051 -0.5315  0.3464 -0.2067
  244MPD1    H6 3764   2.180   0.058  16.962 -0.9193 -0.6001 -0.7773
  244MPD1    H7 3765   2.220   4.662  17.061 -0.4413  0.2810 -1.2186
  245MPD1     C 3766   3.768   1.950  12.894 -1.0531 -0.8417 -0.4314
  245MPD1    C1 3767   3.726   2.002  13.013  0.0423 -0.0475 -0.1305
  245MPD1    C2 3768   3.784   2.112  13.064  0.0142 -0.0889  0.4887
  245MPD1    C3 3769   3.882   2.185  12.998 -0.3477  0.1852  0.2507
  245MPD1    C4 3770   3.915   2.141  12.879 -0.1266  0.6334  0.2373
  245MPD1    C5 3771   3.866   2.025  12.832  0.2139  0.8764 -0.2202
  245MPD1     H 3772   3.748   2.147  13.160  2.5152  1.8505  0.7191
  245MPD1    H1 3773   3.984   2.196  12.816 -1.3087  1.2793 -0.4856
  245MPD1    H2 3774   3.720   1.861  12.855  1.4533 -3.4550  2.4960
  245MPD1    H3 3775   3.896   1.982  12.736 -1.3826 -0.2679 -0.2040
  245MPD1     N 3776   3.940   2.297  13.066  0.1153  0.1581 -0.4549
  245MPD1    H5 3777   3.922   2.305  13.165  0.1665 -0.4651 -0.3958
  245MPD1    N1 3778   3.635   1.924  13.089 -0.2268 -0.2452  0.5372
  245MPD1    H6 3779   3.582   1.977  13.158 -0.5151 -1.0370  0.9242
  245MPD1    H7 3780   3.573   1.872  13.027  0.4527 -0.3337 -0.0673
  246MPD1     C 3781   4.665   1.430   9.294 -0.5563  1.0287 -0.2794
  246MPD1    C1 3782   4.542   1.455   9.229 -0.7673  0.0035 -0.3283
  246MPD1    C2 3783   4.460   1.555   9.273 -0.5000  0.1311  0.1466
  246MPD1    C3 3784   4.497   1.631   9.385 -0.0441  0.2275  1.0154
  246MPD1    C4 3785   4.615   1.610   9.442 -0.4397  0.6838 -0.4136
  246MPD1    C5 3786   4.697   1.512   9.400 -0.8313 -0.8773 -0.3145
  246MPD1     H 3787   4.373   1.572   9.211  0.2334  0.8370 -0.6936
  246MPD1    H1 3788   4.637   1.646   9.542  0.3028 -0.0787 -0.3020
  246MPD1    H2 3789   0.006   1.363   9.265  1.7370  2.5837  2.4500
  246MPD1    H3 3790   0.049   1.484   9.452 -0.8803  1.7066  1.2161
  246MPD1     N 3791   4.420   1.748   9.423  0.0840  0.5778 -0.7519
  246MPD1    H5 3792   4.454   1.803   9.502  0.5095  1.1179 -1.3122
  246MPD1    N1 3793   4.521   1.396   9.101  0.3694  0.5365 -0.7070
  246MPD1    H6 3794   4.428   1.375   9.068  0.0047 -1.7793  1.7577
  246MPD1    H7 3795   4.581   1.315   9.084  3.5044  2.7211 -0.1128
  247MPD1     C 3796   3.367   2.957  15.652 -0.5279 -0.4652 -0.8096
  247MPD1    C1 3797   3.285   2.958  15.758 -0.5565 -0.7322 -0.4655
  247MPD1    C2 3798   3.251   2.836  15.816 -0.2697  0.2711 -0.6154
  247MPD1    C3 3799   3.296   2.714  15.761 -0.1424 -0.8664  0.0502
  247MPD1    C4 3800   3.375   2.715  15.647  0.0293 -0.6168 -0.1259
  247MPD1    C5 3801   3.418   2.838  15.604  0.4471 -0.1258 -0.4969
  247MPD1     H 3802   3.198   2.834  15.910 -2.1946  2.2388 -1.6591
  247MPD1    H1 3803   3.415   2.629  15.595  2.5925  0.7432 -0.3562
  247MPD1    H2 3804   3.385   3.046  15.593 -4.3373 -0.1009 -1.3837
  247MPD1    H3 3805   3.484   2.845  15.519 -0.6891 -2.5899 -1.6016
  247MPD1     N 3806   3.254   2.586  15.816  0.6373  0.0251 -0.5643
  247MPD1    H5 3807   3.299   2.507  15.770 -0.8129 -0.4860 -1.0888
  247MPD1    N1 3808   3.248   3.078  15.826  0.0889  0.1040 -0.6770
  247MPD1    H6 3809   3.182   3.055  15.900 -1.1956  1.1370 -1.5150
  247MPD1    H7 3810   3.205   3.148  15.767  0.0188  1.7268  1.2817
  248MPD1     C 3811   4.411   0.324   0.362 -0.5277  0.1358  0.6971
  248MPD1    C1 3812   4.338   0.324   0.244  0.0163 -0.1317 -0.3152
  248MPD1    C2 3813   4.282   0.441   0.196  0.2069  0.2126 -0.1063
  248MPD1    C3 3814   4.285   0.549   0.285  0.0948 -0.0507  0.1123
  248MPD1    C4 3815   4.355   0.546   0.401  0.6796  0.5012 -0.7934
  248MPD1    C5 3816   4.421   0.433   0.443  0.0642 -0.3867 -0.6014
  248MPD1     H 3817   4.232   0.448   0.100 -1.4205 -0.4691  0.6959
  248MPD1    H1 3818   4.384   0.630   0.462  1.0405  1.0953 -1.7829
  248MPD1    H2 3819   4.450   0.230   0.400 -1.3138 -0.4117  0.1556
  248MPD1    H3 3820   4.481   0.427   0.533 -1.1731 -0.4043  0.2100
  248MPD1     N 3821   4.236   0.674   0.233  0.0664  0.2359 -0.2845
  248MPD1    H5 3822   4.194   0.670   0.141 -1.1366 -0.6324  0.3139
  248MPD1    N1 3823   4.338   0.215   0.158 -0.0160  0.1403  1.0978
  248MPD1    H6 3824   4.354   0.122   0.196  1.9945  0.8418  1.9690
  248MPD1    H7 3825   4.270   0.222   0.082 -1.7685 -1.0625  2.5472
  249MPD1     C 3826   1.819   1.566   9.446 -0.2671 -0.1692 -0.0415
  249MPD1    C1 3827   1.716   1.475   9.437 -0.2509 -0.6226  0.2134
  249MPD1    C2 3828   1.664   1.426   9.553 -0.7934 -0.1889 -0.5090
  249MPD1    C3 3829   1.721   1.437   9.677  0.5354 -0.2139 -1.0918
  249MPD1    C4 3830   1.832   1.517   9.682 -0.4196 -0.4838  0.9996
  249MPD1    C5 3831   1.872   1.588   9.569 -0.3144 -0.2741  0.6879
  249MPD1     H 3832   1.572   1.369   9.538  0.1175 -1.4319 -1.3714
  249MPD1    H1 3833   1.896   1.537   9.767 -1.1406  3.3740  0.6125
  249MPD1    H2 3834   1.863   1.625   9.366  1.3548 -0.8276  0.3708
  249MPD1    H3 3835   1.952   1.658   9.588 -0.5229  0.6558 -1.8523
  249MPD1     N 3836   1.657   1.378   9.789  0.3585 -0.1234  0.0994
  249MPD1    H5 3837   1.583   1.313   9.767  2.1071 -2.3765  0.8223
  249MPD1    N1 3838   1.644   1.455   9.310  0.4289  0.6097  0.2733
  249MPD1    H6 3839   1.590   1.369   9.308 -1.5863  1.8764  0.0144
  249MPD1    H7 3840   1.711   1.458   9.234  0.2304  0.9584  0.1094
  250MPD2     C 3841   2.881   0.687  12.896 -0.3574  0.7561 -0.1613
  250MPD2    C1 3842   2.807   0.717  13.007  0.6038  0.1682 -0.2597
  250MPD2    C2 3843   2.724   0.616  13.057  0.7638  0.1457  0.1864
  250MPD2    C3 3844   2.716   0.489  13.000  0.0495 -0.2446  0.3080
  250MPD2    C4 3845   2.800   0.462  12.893  0.4297  0.1521 -0.3497
  250MPD2    C5 3846   2.882   0.560  12.850 -0.4015 -0.4308  0.0416
  250MPD2     H 3847   2.663   0.640  13.143 -0.3076  0.1963 -0.5863
  250MPD2    H1 3848   2.801   0.366  12.843  0.3567  1.1425 -2.2638
  250MPD2    H2 3849   2.949   0.755  12.845  0.3895  0.9746  1.1272
  250MPD2    H3 3850   2.953   0.540  12.770 -0.7617  2.6780 -1.0433
  250MPD2     N 3851   2.622   0.387  13.035  0.1858 -0.0973  0.1635
  250MPD2    H5 3852   2.634   0.304  12.979  1.5090 -1.6537  2.7375
  250MPD2    N1 3853   2.827   0.849  13.058  0.1469  0.1201  0.0556
  250MPD2    H7 3854   2.898   0.908  13.015  0.1728  0.4874  0.6109
  251TMC3    C1 3855   2.786   1.036  13.188 -0.2138 -0.0363  0.1603
  251TMC3    C2 3856   2.682   1.116  13.234  0.3383 -0.6274  0.3287
  251TMC3    C3 3857   2.714   1.249  13.262  0.4917 -0.6063 -0.4647
  251TMC3    C4 3858   2.917   1.077  13.171 -0.0292 -0.6329 -0.1672
  251TMC3    C5 3859   2.944   1.203  13.210 -0.2311  0.1476  0.5192
  251TMC3    C6 3860   2.847   1.289  13.262 -0.1419 -0.4023 -0.4851
  251TMC3     C 3861   2.759   0.893  13.168 -0.6725  0.4778  0.2291
  251TMC3     O 3862   2.652   0.854  13.211 -0.0932 -0.3893 -0.0834
  251TMC3     H 3863   2.580   1.081  13.250 -0.3246  1.4192  0.4871
  251TMC3    H1 3864   2.993   1.001  13.154 -2.3434 -2.2829 -3.2966
  251TMC3    H2 3865   2.869   1.391  13.289  0.6381 -0.7448  0.1833
  251TMC3    C7 3866   3.080   1.248  13.206  0.2371 -0.6335 -0.4038
  251TMC3    C8 3867   2.608   1.325  13.322 -0.2167  0.5353  0.1133
  251TMC3    O1 3868   3.162   1.164  13.239 -0.2052  0.1134 -0.0666
  251TMC3    O2 3869   2.507   1.265  13.348  0.9033 -0.2318 -0.1538
  252TMC3    C1 3870   2.221   2.397   9.200 -0.5768  0.1706 -0.6666
  252TMC3    C2 3871   2.353   2.429   9.211 -0.0003 -0.7979  0.1985
  252TMC3    C3 3872   2.415   2.412   9.336 -0.2477  0.0896  0.2459
  252TMC3    C4 3873   2.148   2.351   9.302 -0.0965 -0.3574  0.2440
  252TMC3    C5 3874   2.203   2.348   9.421  0.1959  0.1768  0.2375
  252TMC3    C6 3875   2.335   2.388   9.450  0.1637  0.4937 -0.1299
  252TMC3     C 3876   2.141   2.429   9.079 -0.5647  0.5092 -0.2927
  252TMC3     O 3877   2.019   2.418   9.094 -0.0698  0.2640 -0.1294
  252TMC3     H 3878   2.410   2.473   9.130 -2.1881  2.2678  0.3330
  252TMC3    H1 3879   2.057   2.296   9.283 -0.1096 -0.7314  1.3931
  252TMC3    H2 3880   2.364   2.401   9.554 -1.4284 -2.0546  0.6291
  252TMC3    C7 3881   2.124   2.282   9.524 -0.6201  0.0527  0.2699
  252TMC3    C8 3882   2.551   2.466   9.348  0.1950 -0.1046 -0.3497
  252TMC3    O1 3883   2.007   2.320   9.538 -0.1817 -0.7399  0.0469
  252TMC3    O2 3884   2.598   2.510   9.239 -0.2178 -0.4228  0.4012
  253MPD2     C 3885   3.986   1.239  14.961  0.3097 -0.9549 -0.1485
  253MPD2    C1 3886   3.854   1.243  14.993  0.4342  0.5768 -0.5911
  253MPD2    C2 3887   3.810   1.149  15.083  0.5062 -0.1926 -0.2524
  253MPD2    C3 3888   3.892   1.065  15.157  0.6593 -0.0521  0.0646
  253MPD2    C4 3889   4.030   1.059  15.115  0.4720  0.4191 -0.4209
  253MPD2    C5 3890   4.067   1.145  15.011  0.1003  0.3961 -0.5548
  253MPD2     H 3891   3.702   1.140  15.074  0.2507  2.9553 -0.5930
  253MPD2    H1 3892   4.105   0.997  15.163 -2.3505 -1.5883  1.4003
  253MPD2    H2 3893   4.031   1.304  14.887  2.0927 -0.2655  1.5460
  253MPD2    H3 3894   4.174   1.147  14.994  0.1712  1.6010  0.0870
  253MPD2     N 3895   3.843   0.970  15.249 -0.7745 -0.0476  0.4235
  253MPD2    H5 3896   3.912   0.906  15.287 -0.6184 -1.3323 -2.0006
  253MPD2    N1 3897   3.760   1.329  14.934  0.0974 -0.6373 -1.0861
  253MPD2    H7 3898   3.661   1.310  14.947  0.5578 -1.7927  0.8483
  254TMC3    C1 3899   3.670   0.853  15.371  0.8879  0.6590  0.6703
  254TMC3    C2 3900   3.535   0.816  15.358  0.7226  0.0069  0.1078
  254TMC3    C3 3901   3.507   0.711  15.439  0.1369 -0.0553 -0.2485
  254TMC3    C4 3902   3.755   0.798  15.460  0.0965  0.3482 -0.1989
  254TMC3    C5 3903   3.712   0.690  15.532 -0.0484  0.4481  0.3771
  254TMC3    C6 3904   3.583   0.642  15.521 -0.1768 -0.7385 -0.3570
  254TMC3     C 3905   3.711   0.966  15.291 -0.0938  0.7976  0.0782
  254TMC3     O 3906   3.611   1.034  15.265 -0.0326  0.0026 -0.1986
  254TMC3     H 3907   3.469   0.858  15.283  0.6955 -1.7693 -0.8560
  254TMC3    H1 3908   3.857   0.836  15.460  1.3108 -2.9330  1.0769
  254TMC3    H2 3909   3.542   0.555  15.571 -1.5370  0.3453  0.4181
  254TMC3    C7 3910   3.768   0.654  15.662  0.2020 -0.1089 -0.2787
  254TMC3    C8 3911   3.372   0.716  15.484  0.1050  0.7249 -0.5435
  254TMC3    O1 3912   3.725   0.552  15.720 -0.0856  0.1908 -0.2709
  254TMC3    O2 3913   3.312   0.616  15.526  0.1046  0.1080  0.1579
  255MPD2     C 3914   2.520   3.729  10.915  0.6838  0.0128  0.1228
  255MPD2    C1 3915   2.524   3.759  10.777  0.0962  0.4294 -0.2158
  255MPD2    C2 3916   2.577   3.664  10.695 -0.4926  0.5245  0.3475
  255MPD2    C3 3917   2.648   3.556  10.737  0.2041  0.5759 -0.3760
  255MPD2    C4 3918   2.669   3.541  10.875 -0.4422 -0.1668 -0.3827
  255MPD2    C5 3919   2.600   3.625  10.959 -0.1566 -0.2091  0.6657
  255MPD2     H 3920   2.568   3.679  10.588 -0.4010  1.8121  0.5225
  255MPD2    H1 3921   2.715   3.454  10.920  1.4227  1.4088  0.7542
  255MPD2    H2 3922   2.471   3.794  10.986 -1.0241  0.2065 -1.2376
  255MPD2    H3 3923   2.611   3.610  11.066 -4.0427 -1.0465  0.9320
  255MPD2     N 3924   2.701   3.469  10.640  0.6194 -0.2312 -0.0732
  255MPD2    H5 3925   2.689   3.500  10.544 -0.4792 -3.5548 -1.0219
  255MPD2    N1 3926   2.466   3.877  10.723  0.3244 -0.3150 -0.7313
  255MPD2    H7 3927   2.403   3.928  10.783  2.1112  1.3720 -0.2789
  256TMC3    C1 3928   2.438   4.064  10.586  0.1207  0.1975  1.0225
  256TMC3    C2 3929   2.509   4.133  10.485  0.3107  0.2202 -0.4979
  256TMC3    C3 3930   2.448   4.206  10.387  0.1117 -0.1903 -0.6580
  256TMC3    C4 3931   2.296   4.081  10.590 -0.2517  0.2591 -0.6216
  256TMC3    C5 3932   2.244   4.143  10.480  0.1550  0.5795 -0.0300
  256TMC3    C6 3933   2.312   4.200  10.382  0.5282 -0.2297  0.8952
  256TMC3     C 3934   2.490   3.927  10.600  0.4184 -0.6737  0.9472
  256TMC3     O 3935   2.554   3.885  10.503  0.0279  0.5338  0.4685
  256TMC3     H 3936   2.616   4.121  10.477  0.2990 -1.2409  1.7324
  256TMC3    H1 3937   2.238   4.038  10.670 -0.2587  0.8644 -0.3102
  256TMC3    H2 3938   2.263   4.236  10.292  0.9283 -0.8296  0.4270
  256TMC3    C7 3939   2.109   4.111  10.438 -0.1249  0.5987 -0.5368
  256TMC3    C8 3940   2.520   4.169  10.266  0.7198  0.0448  0.4205
  256TMC3    O1 3941   2.093   4.060  10.327  0.3975  0.1000 -0.5310
  256TMC3    O2 3942   2.469   4.080  10.192 -0.1330  0.4144 -0.4168
  257MPD2     C 3943   0.814   0.502  13.378  0.3455  0.3694  0.1592
  257MPD2    C1 3944   0.943   0.474  13.338  0.6578  0.3724  0.1776
  257MPD2    C2 3945   1.011   0.360  13.382 -0.0110 -0.1171  0.5772
  257MPD2    C3 3946   0.944   0.266  13.449 -0.0884 -0.4823  0.8939
  257MPD2    C4 3947   0.826   0.291  13.499  0.3213  0.5580  0.7968
  257MPD2    C5 3948   0.763   0.410  13.462 -0.1236  0.4360  0.7582
  257MPD2     H 3949   1.106   0.335  13.338 -0.3655 -0.0875 -0.1982
  257MPD2    H1 3950   0.770   0.220  13.560  1.8229 -1.4094 -0.1418
  257MPD2    H2 3951   0.743   0.579  13.350 -0.1532 -0.6929 -1.4974
  257MPD2    H3 3952   0.661   0.424  13.494 -0.4645 -0.9318  0.2597
  257MPD2     N 3953   1.001   0.143  13.471 -0.0338 -0.6801 -0.0046
  257MPD2    H5 3954   0.933   0.070  13.493  1.2058 -1.4810  1.1766
  257MPD2    N1 3955   0.998   0.566  13.251  0.2705  0.4039 -0.1698
  257MPD2    H7 3956   0.926   0.626  13.211 -1.0163 -1.2362 -0.3269
  258TMC3    C1 3957   1.149   4.712  13.484  0.1625 -0.4060 -0.8893
  258TMC3    C2 3958   1.087   4.652  13.376  1.2149  0.5640 -0.2449
  258TMC3    C3 3959   1.108   4.518  13.361  0.1474  0.4340  0.8727
  258TMC3    C4 3960   1.214   4.643  13.578  0.5312  1.0732 -0.2584
  258TMC3    C5 3961   1.227   4.507  13.567 -0.9302 -0.6734 -0.0985
  258TMC3    C6 3962   1.177   4.446  13.462  0.7303 -0.3056 -0.0331
  258TMC3     C 3963   1.135   0.114  13.486 -0.4195  0.4417  0.1132
  258TMC3     O 3964   1.226   0.192  13.515 -0.0847 -0.0768 -0.4344
  258TMC3     H 3965   1.057   4.706  13.287  0.6391  2.8589  1.3354
  258TMC3    H1 3966   1.252   4.704  13.659  1.0980  1.9574 -1.1938
  258TMC3    H2 3967   1.190   4.340  13.443 -0.4954 -0.5622  0.5506
  258TMC3    C7 3968   1.279   4.422  13.670  0.3073 -0.3413  0.3314
  258TMC3    C8 3969   1.097   4.465  13.225  1.1153 -0.4600 -0.1343
  258TMC3    O1 3970   1.241   4.304  13.667 -0.6894  0.3349 -0.2629
  258TMC3    O2 3971   1.182   4.386  13.186  0.1306  0.1183  0.1731
  259MPD2     C 3972   0.196   2.285   0.945 -0.6611 -0.6326 -0.2496
  259MPD2    C1 3973   0.164   2.163   0.889  0.1097  0.0681 -0.2287
  259MPD2    C2 3974   0.123   2.142   0.765  0.5059  0.5510  0.4143
  259MPD2    C3 3975   0.120   2.245   0.673 -0.5550  0.3426  0.3862
  259MPD2    C4 3976   0.160   2.368   0.720  0.1767 -0.2646  0.0107
  259MPD2    C5 3977   0.183   2.390   0.857  0.1610  0.4142  0.3024
  259MPD2     H 3978   0.121   2.038   0.732 -1.0336  0.7944 -0.2239
  259MPD2    H1 3979   0.165   2.457   0.660 -3.1773 -0.0204  0.0705
  259MPD2    H2 3980   0.227   2.298   1.048  0.0312  3.0021 -0.9488
  259MPD2    H3 3981   0.223   2.485   0.892  1.2287  0.4433 -1.0004
  259MPD2     N 3982   0.073   2.221   0.542 -0.5711 -0.2268  0.0309
  259MPD2    H5 3983   0.056   2.125   0.514  1.9051  0.2163 -3.0392
  259MPD2    N1 3984   0.161   2.057   0.981  0.1829 -0.5605  0.7214
  259MPD2    H7 3985   0.203   2.083   1.069 -0.7137 -0.2933  1.0747
  260TMC3    C1 3986   0.012   2.263   0.310  0.3561 -0.0917 -0.3009
  260TMC3    C2 3987   0.082   2.314   0.207  1.6308 -0.3630 -0.3018
  260TMC3    C3 3988   0.134   2.235   0.108 -0.0209  0.3542  0.6662
  260TMC3    C4 3989   4.718   2.132   0.311 -0.3116  0.4266  0.9168
  260TMC3    C5 3990   0.028   2.062   0.208 -0.3339 -0.7674  0.2629
  260TMC3    C6 3991   0.101   2.106   0.103  0.2869  0.1327  0.3898
  260TMC3     C 3992   0.051   2.317   0.442 -0.5766  0.2516  0.2814
  260TMC3     O 3993   0.071   2.435   0.456 -0.1127 -0.0703  0.5290
  260TMC3     H 3994   0.126   2.412   0.223 -0.9739  0.7151  0.3708
  260TMC3    H1 3995   4.664   2.085   0.392 -0.3233 -0.4586  0.3970
  260TMC3    H2 3996   0.122   2.034   0.024  0.0009  1.4321 -0.8787
  260TMC3    C7 3997   0.001   1.924   0.211  0.0224 -0.4291  0.0558
  260TMC3    C8 3998   0.267   2.276   0.064 -0.7340 -0.2994  0.4024
  260TMC3    O1 3999   0.078   1.849   0.152  0.7022 -0.5993 -0.2708
  260TMC3    O2 4000   0.298   2.396   0.061 -0.6154 -0.0447 -0.1452
  261MPD2     C 4001   1.825   0.220  13.092 -0.1204  0.4301  0.0454
  261MPD2    C1 4002   1.925   0.313  13.088 -0.0672  0.2136  0.7341
  261MPD2    C2 4003   1.896   0.433  13.022  0.0044 -0.3758  0.3085
  261MPD2    C3 4004   1.780   0.444  12.946  0.1760  0.0400 -0.3407
  261MPD2    C4 4005   1.679   0.347  12.953  0.3293  0.3345  0.1305
  261MPD2    C5 4006   1.699   0.242  13.037 -0.0306  0.3420  0.3933
  261MPD2     H 4007   1.972   0.510  13.026  1.3500 -1.5947 -1.8047
  261MPD2    H1 4008   1.584   0.360  12.903  0.9848  0.5480 -1.0537
  261MPD2    H2 4009   1.842   0.123  13.137  1.1521 -0.0815 -1.5328
  261MPD2    H3 4010   1.622   0.167  13.043  0.3153  0.1977  2.8991
  261MPD2     N 4011   1.767   0.567  12.878 -0.2380  0.1563  0.0089
  261MPD2    H5 4012   1.844   0.633  12.885 -0.5024  0.4077  0.5450
  261MPD2    N1 4013   2.053   0.287  13.140 -0.3252  0.0085 -0.1711
  261MPD2    H7 4014   2.114   0.367  13.128 -0.9517  1.1580  4.2319
  262TMC3    C1 4015   1.732   0.709  12.698  0.0902  0.2196  0.6299
  262TMC3    C2 4016   1.639   0.777  12.629 -0.4692  0.1804 -0.7319
  262TMC3    C3 4017   1.679   0.859  12.527 -0.4985 -0.4483  0.0282
  262TMC3    C4 4018   1.864   0.731  12.677 -0.2851 -0.5578  0.1775
  262TMC3    C5 4019   1.903   0.803  12.566 -0.1067 -0.4558  0.0952
  262TMC3    C6 4020   1.807   0.869  12.491  0.3409 -0.3708 -0.5380
  262TMC3     C 4021   1.687   0.592  12.774  0.5654 -0.1645 -0.4629
  262TMC3     O 4022   1.588   0.523  12.740  0.1573 -0.0939 -0.1620
  262TMC3     H 4023   1.534   0.758  12.652 -0.7462  1.0690 -1.2823
  262TMC3    H1 4024   1.937   0.682  12.740  0.5048 -0.9965 -1.0709
  262TMC3    H2 4025   1.825   0.901  12.389  0.1429 -3.6034 -1.5690
  262TMC3    C7 4026   2.023   0.873  12.583 -0.5284 -0.5445 -0.3402
  262TMC3    C8 4027   1.595   0.959  12.469  0.3454 -0.1291 -0.3135
  262TMC3    O1 4028   2.117   0.824  12.646  0.2256 -0.5396 -0.1341
  262TMC3    O2 4029   1.656   1.055  12.418 -0.2529  0.3500 -0.2619
  263MPD2     C 4030   2.974   0.239  11.666  0.4109  0.5552  0.5268
  263MPD2    C1 4031   3.062   0.274  11.571  0.0745  0.8152 -0.5267
  263MPD2    C2 4032   3.021   0.333  11.456  0.3821  0.5059 -0.0301
  263MPD2    C3 4033   2.882   0.354  11.433  0.3764 -0.9813 -0.2606
  263MPD2    C4 4034   2.793   0.317  11.530  0.4935  0.5049  0.3613
  263MPD2    C5 4035   2.841   0.267  11.654 -0.4814  0.5455  0.1689
  263MPD2     H 4036   3.090   0.346  11.374 -1.0988  2.7158 -0.9344
  263MPD2    H1 4037   2.686   0.335  11.534  0.3587 -0.3364  0.5931
  263MPD2    H2 4038   3.013   0.196  11.758  0.1656 -0.2201  0.2652
  263MPD2    H3 4039   2.768   0.249  11.733 -0.1950  0.8554  0.5060
  263MPD2     N 4040   2.840   0.416  11.312  0.1269  0.0187 -0.1617
  263MPD2    H5 4041   2.913   0.454  11.252 -0.0322 -0.9646 -0.9704
  263MPD2    N1 4042   3.187   0.239  11.603  0.3947  0.2364  0.5374
  263MPD2    H7 4043   3.204   0.176  11.681 -0.5530 -0.8699 -0.1568
  264TMC3    C1 4044   2.708   0.543  11.165  0.4004 -0.2190  0.0245
  264TMC3    C2 4045   2.629   0.652  11.178  0.6884 -0.2077 -0.3543
  264TMC3    C3 4046   2.656   0.762  11.097  0.0368 -0.6101 -0.3982
  264TMC3    C4 4047   2.800   0.529  11.063 -0.5827 -0.2213  0.5263
  264TMC3    C5 4048   2.807   0.628  10.963 -0.2573 -0.5813  0.3678
  264TMC3    C6 4049   2.738   0.746  10.985  0.4279 -0.4892 -0.6553
  264TMC3     C 4050   2.707   0.453  11.280  0.5407 -0.4567  0.5949
  264TMC3     O 4051   2.600   0.423  11.329 -0.3331 -1.0084  0.2536
  264TMC3     H 4052   2.565   0.667  11.265  0.0736  0.1495 -0.8707
  264TMC3    H1 4053   2.863   0.442  11.051 -1.0894 -0.1838 -2.4545
  264TMC3    H2 4054   2.766   0.835  10.931  0.2050  0.8137  1.3759
  264TMC3    C7 4055   2.881   0.612  10.836 -0.3794 -0.0486  0.1220
  264TMC3    C8 4056   2.698   0.883  11.166  0.0654  0.5994 -0.4209
  264TMC3    O1 4057   2.974   0.531  10.840  0.1951 -0.0387 -0.7133
  264TMC3    O2 4058   2.786   0.948  11.108 -0.1189  0.0873 -1.0320
  265MPD2     C 4059   0.039   0.103  15.647 -0.6938 -0.4201 -0.2278
  265MPD2    C1 4060   0.096   0.205  15.578  0.9495  0.2436 -0.4506
  265MPD2    C2 4061   0.153   0.178  15.451  0.5234  0.4306 -0.2145
  265MPD2    C3 4062   0.149   0.053  15.387 -0.6790 -0.2277 -0.2228
  265MPD2    C4 4063   0.074   4.699  15.452 -0.0621 -0.9173  0.0981
  265MPD2    C5 4064   0.025   4.726  15.581  0.9935 -0.1678  0.3203
  265MPD2     H 4065   0.210   0.264  15.418 -0.1635  1.5960  1.5797
  265MPD2    H1 4066   0.051   4.601  15.412  1.4324 -0.0125 -2.9745
  265MPD2    H2 4067   4.718   0.116  15.736  0.0440  1.1644  0.0398
  265MPD2    H3 4068   4.704   4.650  15.630  3.0152 -1.5663  0.6331
  265MPD2     N 4069   0.203   0.028  15.256  0.2637  0.5549  0.5352
  265MPD2    H5 4070   0.179   4.677  15.215 -0.6649  0.3817  1.4568
  265MPD2    N1 4071   0.114   0.335  15.630 -0.3412 -0.0954  0.0466
  265MPD2    H7 4072   0.164   0.405  15.576 -1.0868  0.4118  0.0177
  266TMC3    C1 4073   0.106   0.525  15.784 -0.0172 -0.2935 -0.5169
  266TMC3    C2 4074   0.128   0.561  15.910  0.4735  0.2249  0.5125
  266TMC3    C3 4075   0.112   0.698  15.936 -0.1857  0.4075 -0.0385
  266TMC3    C4 4076   0.089   0.612  15.684  0.1185 -0.3072  0.4507
  266TMC3    C5 4077   0.087   0.755  15.714 -0.2120 -0.8234  1.4909
  266TMC3    C6 4078   0.091   0.804  15.844  0.3231 -0.1909  0.1385
  266TMC3     C 4079   0.087   0.382  15.757 -0.5415 -0.3480 -0.6291
  266TMC3     O 4080   0.077   0.311  15.854 -0.5742  0.3384  0.0243
  266TMC3     H 4081   0.123   0.490  15.991  0.1390 -0.0787  0.2241
  266TMC3    H1 4082   0.076   0.588  15.580  1.3693  0.6960  0.0613
  266TMC3    H2 4083   0.089   0.907  15.878  1.6290  0.2025 -1.0198
  266TMC3    C7 4084   0.059   0.840  15.600  0.5214 -0.9952 -0.5398
  266TMC3    C8 4085   0.167   0.724  16.068  0.1449  0.9512 -0.2782
  266TMC3    O1 4086   0.012   0.780  15.503 -0.0947 -0.2252  0.1020
  266TMC3    O2 4087   0.232   0.638  16.126  0.3004 -0.0005  0.4148
  267MPD2     C 4088   2.834   1.943   0.504  0.6033  0.6312 -0.1690
  267MPD2    C1 4089   2.773   1.902   0.393 -1.3608 -0.7333  0.7785
  267MPD2    C2 4090   2.678   1.989   0.330  0.1871  0.5698  0.7480
  267MPD2    C3 4091   2.662   2.117   0.375  0.4175  0.0595  0.1209
  267MPD2    C4 4092   2.731   2.153   0.491 -0.7662  0.1352 -0.2394
  267MPD2    C5 4093   2.808   2.063   0.552  0.4820 -0.1314 -0.2106
  267MPD2     H 4094   2.623   1.946   0.247  0.7023  0.3352  0.5260
  267MPD2    H1 4095   2.725   2.253   0.534 -0.2946 -0.6733  1.6952
  267MPD2    H2 4096   2.913   1.878   0.541  0.0774  1.0897  1.7555
  267MPD2    H3 4097   2.859   2.097   0.642  0.4066  0.0178 -0.2238
  267MPD2     N 4098   2.580   2.208   0.312  0.6193  0.0492 -0.4065
  267MPD2    H5 4099   2.570   2.300   0.355 -1.1032 -0.6303  0.6323
  267MPD2    N1 4100   2.806   1.772   0.351 -0.1995 -0.4681  0.3797
  267MPD2    H7 4101   2.875   1.720   0.404 -0.0555 -0.8940 -0.2194
  268TMC3    C1 4102   2.806   1.579   0.206  0.6583 -0.1347 -0.6256
  268TMC3    C2 4103   2.821   1.552   0.070  0.6298 -0.1284  0.5191
  268TMC3    C3 4104   2.868   1.432   0.029 -0.0170 -0.0080  0.3368
  268TMC3    C4 4105   2.831   1.486   0.296 -0.2641 -0.6610 -0.3122
  268TMC3    C5 4106   2.868   1.362   0.250  1.0888  0.4531 -0.4849
  268TMC3    C6 4107   2.885   1.334   0.120  0.5084 -0.2273  0.1738
  268TMC3     C 4108   2.761   1.716   0.233 -0.0385 -0.2295 -0.2916
  268TMC3     O 4109   2.692   1.761   0.144 -0.7267 -0.4043 -0.4563
  268TMC3     H 4110   2.827   1.635  17.754  1.4889  0.5166  1.3581
  268TMC3    H1 4111   2.791   1.515   0.392 -2.2281  0.6378 -1.5262
  268TMC3    H2 4112   2.918   1.236   0.088 -2.2270 -1.0823  0.0426
  268TMC3    C7 4113   2.919   1.275   0.354  0.7294 -0.0480  0.0475
  268TMC3    C8 4114   2.879   1.398  17.638 -0.2896 -0.5435 -0.4477
  268TMC3    O1 4115   2.941   1.329   0.464  0.7471 -0.2755 -0.4026
  268TMC3    O2 4116   2.914   1.284  17.611 -0.5045  0.0225  0.4765
  269MPD2     C 4117   2.928   0.977  15.355  0.5636  0.8113  0.3464
  269MPD2    C1 4118   2.810   0.988  15.428 -0.0504 -0.3481 -0.1541
  269MPD2    C2 4119   2.766   1.108  15.485  1.0699  0.2613 -1.1153
  269MPD2    C3 4120   2.836   1.221  15.451 -0.1276 -0.4446 -0.8261
  269MPD2    C4 4121   2.951   1.209  15.372 -0.0761 -0.0418 -0.0589
  269MPD2    C5 4122   2.992   1.087  15.319  0.2714  0.1127  0.1216
  269MPD2     H 4123   2.667   1.116  15.529  1.2410 -0.0953 -0.6688
  269MPD2    H1 4124   3.007   1.299  15.347  1.1651 -0.5625  0.8212
  269MPD2    H2 4125   2.967   0.879  15.329 -0.7981  0.9233 -2.1393
  269MPD2    H3 4126   3.082   1.080  15.258  0.6744  2.2198  0.4842
  269MPD2     N 4127   2.791   1.339  15.513 -0.3066  0.0354 -0.7720
  269MPD2    H5 4128   2.701   1.339  15.559  0.1400 -1.5998  0.1014
  269MPD2    N1 4129   2.744   0.864  15.444  0.1640  0.3075  0.6707
  269MPD2    H7 4130   2.779   0.784  15.392 -3.0292  0.2174 -1.3257
  270TMC3    C1 4131   2.583   0.700  15.488 -0.4430  0.4959  0.5358
  270TMC3    C2 4132   2.451   0.687  15.458  0.1283  0.3420 -0.2010
  270TMC3    C3 4133   2.391   0.568  15.446  0.7704 -0.4495  0.0218
  270TMC3    C4 4134   2.669   0.594  15.510 -0.7661 -0.1989 -0.6606
  270TMC3    C5 4135   2.604   0.478  15.503 -0.0605 -0.6579 -0.2749
  270TMC3    C6 4136   2.473   0.465  15.487 -0.7974 -0.4167  0.2891
  270TMC3     C 4137   2.622   0.839  15.508  0.3962  0.8334 -0.2022
  270TMC3     O 4138   2.553   0.899  15.589  0.3809 -0.2451 -0.4248
  270TMC3     H 4139   2.393   0.775  15.432 -1.5931 -1.1533 -1.4244
  270TMC3    H1 4140   2.764   0.606  15.562 -0.2839  2.2308 -2.0837
  270TMC3    H2 4141   2.426   0.368  15.499 -0.5440 -0.3841  1.5684
  270TMC3    C7 4142   2.686   0.364  15.479 -0.1966  0.0274 -0.5859
  270TMC3    C8 4143   2.344   0.550  15.308  0.1231 -0.1363 -0.2575
  270TMC3    O1 4144   2.800   0.359  15.517  0.0607  0.0165  0.3173
  270TMC3    O2 4145   2.362   0.634  15.218  0.3126 -0.2990  0.2184
  271MPD2     C 4146   1.888   0.671  13.749 -0.1390 -0.2379 -0.0461
  271MPD2    C1 4147   1.818   0.613  13.852  0.1465  0.1961 -0.0028
  271MPD2    C2 4148   1.684   0.640  13.851 -0.0188  0.6779 -0.5271
  271MPD2    C3 4149   1.627   0.707  13.752  0.2204  0.4509  0.0263
  271MPD2    C4 4150   1.699   0.753  13.647 -0.2672 -0.0233  0.0340
  271MPD2    C5 4151   1.828   0.740  13.651  0.8330 -0.2145 -0.4457
  271MPD2     H 4152   1.618   0.589  13.920  0.5961  0.2534 -0.2512
  271MPD2    H1 4153   1.660   0.816  13.568  2.1425  0.5001 -0.7539
  271MPD2    H2 4154   1.997   0.671  13.753 -0.0811 -0.8508 -1.6965
  271MPD2    H3 4155   1.896   0.790  13.583  1.4510  0.6372  0.7957
  271MPD2     N 4156   1.491   0.725  13.736  0.3059  0.0317  0.5277
  271MPD2    H5 4157   1.466   0.771  13.649  0.4253  2.4494  1.7705
  271MPD2    N1 4158   1.876   0.534  13.967 -0.2577 -0.8877 -0.1691
  271MPD2    H7 4159   1.811   0.500  14.037 -0.7398  0.0963 -0.1315
  272TMC3    C1 4160   2.057   0.431  14.098  0.0932  0.4157 -0.3170
  272TMC3    C2 4161   2.188   0.391  14.090 -0.9574  0.1422 -0.4098
  272TMC3    C3 4162   2.257   0.381  14.208 -0.5672 -0.6201  0.4171
  272TMC3    C4 4163   2.001   0.473  14.216  0.1609 -0.8623  0.4484
  272TMC3    C5 4164   2.076   0.479  14.327 -0.0271 -0.3308 -0.2428
  272TMC3    C6 4165   2.205   0.435  14.324  0.1506 -0.1101 -0.4863
  272TMC3     C 4166   2.014   0.505  13.979  0.4990 -0.3078 -0.0448
  272TMC3     O 4167   2.106   0.545  13.907 -0.3425 -0.3102  0.2896
  272TMC3     H 4168   2.229   0.353  13.997  0.2431 -0.8245  0.5178
  272TMC3    H1 4169   1.900   0.509  14.229  1.1327  2.1130 -0.0954
  272TMC3    H2 4170   2.257   0.412  14.417  0.5495 -0.3014 -0.7562
  272TMC3    C7 4171   2.019   0.514  14.456 -0.4070  1.0006 -0.2748
  272TMC3    C8 4172   2.389   0.318  14.202 -0.0539  0.6900 -0.8742
  272TMC3    O1 4173   1.902   0.520  14.475  0.4179 -0.7116  0.3888
  272TMC3    O2 4174   2.449   0.323  14.098 -0.3158  0.2701  0.0842
  273MPD2     C 4175   3.847   3.460  11.726  0.0808  0.0340 -0.5064
  273MPD2    C1 4176   3.872   3.590  11.753 -0.5688  0.6849 -0.7549
  273MPD2    C2 4177   3.851   3.678  11.648  0.5597 -0.4398 -0.4823
  273MPD2    C3 4178   3.810   3.634  11.522  0.2935 -0.0424 -0.9623
  273MPD2    C4 4179   3.793   3.498  11.496  0.1025  0.4836  0.4848
  273MPD2    C5 4180   3.816   3.413  11.597  0.0639  0.1956  0.3671
  273MPD2     H 4181   3.865   3.784  11.661  0.9508 -0.2586 -2.3068
  273MPD2    H1 4182   3.773   3.460  11.396  2.6110  0.2322  0.0852
  273MPD2    H2 4183   3.864   3.384  11.801 -0.2082 -0.3103 -0.7949
  273MPD2    H3 4184   3.793   3.308  11.581  0.2315  0.6751 -3.0424
  273MPD2     N 4185   3.802   3.712  11.405  0.0355 -0.2971  0.2947
  273MPD2    H5 4186   3.790   3.666  11.315  3.9383  3.6407 -2.2249
  273MPD2    N1 4187   3.917   3.628  11.883  0.2199  0.2503 -0.5323
  273MPD2    H7 4188   3.934   3.549  11.944  0.1009  0.9656  0.4247
  274TMC3    C1 4189   3.800   3.903  11.266 -0.8565  0.3426 -0.9411
  274TMC3    C2 4190   3.709   3.847  11.172  0.7175  0.3098  0.2173
  274TMC3    C3 4191   3.683   3.918  11.053 -0.5411 -0.1844  0.2720
  274TMC3    C4 4192   3.834   4.028  11.250 -0.4983  0.0298  0.1039
  274TMC3    C5 4193   3.808   4.098  11.131  0.7039 -0.2246  0.4863
  274TMC3    C6 4194   3.724   4.051  11.036 -0.5288  0.4575 -0.4592
  274TMC3     C 4195   3.807   3.852  11.399 -0.1655 -0.0919  0.6203
  274TMC3     O 4196   3.826   3.936  11.486  0.6105  0.2524  0.1902
  274TMC3     H 4197   3.669   3.747  11.179 -3.2815  2.0351  1.7899
  274TMC3    H1 4198   3.892   4.080  11.325 -1.5414 -1.5951  2.0541
  274TMC3    H2 4199   3.696   4.093  10.940  2.9783 -1.7506 -2.4798
  274TMC3    C7 4200   3.846   4.239  11.115  0.4347 -0.2278 -0.0525
  274TMC3    C8 4201   3.580   3.863  10.961  0.2547 -0.4451 -0.0423
  274TMC3    O1 4202   3.845   4.274  10.997  0.0913 -0.1999 -0.2041
  274TMC3    O2 4203   3.528   3.758  10.994  0.2717 -0.4706  0.4412
  275MPD2     C 4204   3.384   1.756  14.527  0.5093  0.8581  0.1227
  275MPD2    C1 4205   3.280   1.841  14.535 -0.2581  0.4577  0.1284
  275MPD2    C2 4206   3.147   1.806  14.502  0.1403  0.2069  0.2343
  275MPD2    C3 4207   3.123   1.672  14.479  0.2605  0.5276 -0.5502
  275MPD2    C4 4208   3.232   1.585  14.479 -0.3204  1.0330 -0.2406
  275MPD2    C5 4209   3.357   1.626  14.501  0.9047 -0.0504 -0.0984
  275MPD2     H 4210   3.077   1.885  14.474 -2.9469 -2.1087  1.3952
  275MPD2    H1 4211   3.227   1.480  14.452 -0.6117  0.8809  0.3979
  275MPD2    H2 4212   3.485   1.785  14.555  0.5782  0.6281  0.1153
  275MPD2    H3 4213   3.437   1.557  14.477  1.7503  0.6747  0.6574
  275MPD2     N 4214   2.988   1.629  14.466 -0.2042 -0.4798  0.3580
  275MPD2    H5 4215   2.970   1.530  14.458 -0.9029 -0.1862 -1.5133
  275MPD2    N1 4216   3.293   1.983  14.550  0.2000 -0.2990 -0.2436
  275MPD2    H7 4217   3.210   2.042  14.550  0.0842 -0.4496  1.7576
  276TMC3    C1 4218   3.404   2.184  14.614  0.4355 -0.0413 -0.1053
  276TMC3    C2 4219   3.306   2.212  14.694 -0.4127  0.4299 -0.2157
  276TMC3    C3 4220   3.323   2.293  14.806  0.3020  0.4438  0.0551
  276TMC3    C4 4221   3.530   2.234  14.641  0.7583  0.6077 -0.0314
  276TMC3    C5 4222   3.545   2.312  14.749  1.0809  0.1250  0.1688
  276TMC3    C6 4223   3.448   2.347  14.833  0.2276 -0.5439 -0.4920
  276TMC3     C 4224   3.413   2.045  14.570  0.7780 -0.3065 -0.5753
  276TMC3     O 4225   3.530   2.005  14.578  0.1522 -0.1624  0.4193
  276TMC3     H 4226   3.206   2.174  14.676  0.5427 -1.7775 -0.9122
  276TMC3    H1 4227   3.605   2.233  14.563 -0.7694  1.9404 -1.5192
  276TMC3    H2 4228   3.455   2.417  14.915  0.3122 -2.8084  1.4489
  276TMC3    C7 4229   3.659   2.263  14.825  0.4936  1.0115 -0.0174
  276TMC3    C8 4230   3.263   2.229  14.928  0.3865  0.1550  0.1647
  276TMC3    O1 4231   3.685   2.322  14.932 -0.0299  0.2293 -0.1815
  276TMC3    O2 4232   3.160   2.157  14.913  0.2946 -0.1923  0.2724
  277MPD2     C 4233   0.435   0.770  13.663 -0.5682  0.5307  0.4833
  277MPD2    C1 4234   0.309   0.817  13.648 -0.5408  1.1310 -0.2893
  277MPD2    C2 4235   0.209   0.735  13.708  0.6840 -0.0918  0.3736
  277MPD2    C3 4236   0.237   0.608  13.761 -0.0364 -0.9792  0.4993
  277MPD2    C4 4237   0.365   0.570  13.775  0.1786 -0.5592 -1.0882
  277MPD2    C5 4238   0.462   0.653  13.718  0.4246  0.8803  0.4690
  277MPD2     H 4239   0.106   0.766  13.704  1.0490  1.1245  0.4689
  277MPD2    H1 4240   0.402   0.484  13.830  0.7794 -1.4586 -2.8851
  277MPD2    H2 4241   0.518   0.830  13.625 -0.6212  0.1272 -0.2651
  277MPD2    H3 4242   0.563   0.615  13.729  0.4825  1.1276  0.7830
  277MPD2     N 4243   0.127   0.528  13.808  0.1062 -0.7447 -0.0076
  277MPD2    H5 4244   0.037   0.576  13.807 -0.0177 -0.8653  3.3117
  277MPD2    N1 4245   0.283   0.935  13.579 -0.7100 -0.3789  0.4991
  277MPD2    H7 4246   0.364   0.977  13.535  0.2004 -3.4288 -0.6920
  278TMC3    C1 4247   4.738   0.331  13.873 -0.7806  0.2089  0.3600
  278TMC3    C2 4248   4.728   0.205  13.826 -0.4052  0.2090 -0.4105
  278TMC3    C3 4249   4.603   0.160  13.800 -0.1414  0.5463 -0.0546
  278TMC3    C4 4250   4.629   0.406  13.899  0.4173  0.6270  0.5363
  278TMC3    C5 4251   4.503   0.368  13.849 -0.4810  0.0855 -0.7011
  278TMC3    C6 4252   4.495   0.240  13.801 -0.3408  0.2713  0.3209
  278TMC3     C 4253   0.133   0.393  13.848 -0.0362 -0.5254 -0.0643
  278TMC3     O 4254   0.234   0.327  13.854 -0.3082  0.0966  0.0668
  278TMC3     H 4255   0.080   0.147  13.810  0.6607  2.4116 -2.4328
  278TMC3    H1 4256   4.641   0.507  13.936 -0.8379  1.2505 -0.7567
  278TMC3    H2 4257   4.399   0.197  13.775  0.5049 -0.7483 -1.1140
  278TMC3    C7 4258   4.381   0.432  13.885  0.2099  0.2946  0.1339
  278TMC3    C8 4259   4.601   0.046  13.716  0.0205  0.8506  0.6078
  278TMC3    O1 4260   4.278   0.362  13.880  0.0516  0.5092  0.0066
  278TMC3    O2 4261   4.503   0.034  13.644  0.1857  0.5229 -0.0745
  279MPD2     C 4262   3.962   0.261   0.192  0.3024  0.3878 -0.1340
  279MPD2    C1 4263   3.911   0.390   0.177 -0.3266  0.3183  0.7050
  279MPD2    C2 4264   3.928   0.450   0.052 -0.4899  0.2261 -0.2705
  279MPD2    C3 4265   3.991   0.382  17.706  0.3432  0.2250  0.0373
  279MPD2    C4 4266   4.009   0.247  17.713 -0.1673  0.4976  0.3215
  279MPD2    C5 4267   4.000   0.188   0.084  0.1289  0.3864 -0.0762
  279MPD2     H 4268   3.893   0.550   0.030  1.2827  0.8264 -0.3889
  279MPD2    H1 4269   4.048   0.179  17.639 -1.3081  1.0678 -0.8125
  279MPD2    H2 4270   3.966   0.218   0.291 -0.2830  1.6842  0.4515
  279MPD2    H3 4271   4.027   0.084   0.096 -2.1645 -0.0986  0.9780
  279MPD2     N 4272   4.032   0.451  17.590  0.0833  0.4456 -0.7436
  279MPD2    H5 4273   4.071   0.399  17.512  3.2479  1.6157  0.0458
  279MPD2    N1 4274   3.858   0.453   0.292  0.2781  0.0847 -0.5753
  279MPD2    H7 4275   3.858   0.404   0.381  1.6398 -1.2676 -1.2959
  280TMC3    C1 4276   3.695   0.596   0.182 -0.0627 -0.4112 -0.2685
  280TMC3    C2 4277   3.640   0.496   0.105  0.0226  0.3271 -0.6563
  280TMC3    C3 4278   3.557   0.543   0.000  0.0816  0.9288 -0.2490
  280TMC3    C4 4279   3.683   0.729   0.160  0.0102 -0.5667 -0.5278
  280TMC3    C5 4280   3.608   0.765   0.054  0.3291 -0.0016  0.3358
  280TMC3    C6 4281   3.549   0.674  17.726  0.1940 -0.4775 -0.5856
  280TMC3     C 4282   3.783   0.571   0.291 -0.4430  0.1720 -0.6835
  280TMC3     O 4283   3.769   0.636   0.391  0.3653 -0.5287 -0.5531
  280TMC3     H 4284   3.670   0.392   0.109 -2.6344 -0.4431 -0.2380
  280TMC3    H1 4285   3.721   0.808   0.224 -1.1875 -1.0554  0.7854
  280TMC3    H2 4286   3.514   0.704  17.628 -0.8197 -2.2013 -0.7611
  280TMC3    C7 4287   3.608   0.908   0.026  0.0443  0.4036  0.1125
  280TMC3    C8 4288   3.550   0.462  17.631 -0.7993  0.4080 -0.6913
  280TMC3    O1 4289   3.650   0.991   0.106 -0.0035 -0.0343 -0.6016
  280TMC3    O2 4290   3.472   0.498  17.544 -0.2171 -0.5049 -0.3304
  281TMC3    C1 4291   3.386   1.181  13.525 -0.4919  0.8784 -0.3415
  281TMC3    C2 4292   3.459   1.275  13.451  0.0665 -0.1789 -0.3564
  281TMC3    C3 4293   3.527   1.231  13.340 -0.5914  0.0739 -0.2115
  281TMC3    C4 4294   3.401   1.049  13.492  0.8063 -0.3739  0.7020
  281TMC3    C5 4295   3.476   1.012  13.386  0.3078  0.1868 -0.5447
  281TMC3    C6 4296   3.534   1.103  13.303  0.1905  0.3599 -0.0627
  281TMC3     C 4297   3.243   1.209  13.551  0.7031 -0.2397  0.1725
  281TMC3     O 4298   3.176   1.109  13.570 -0.0587  0.3152 -0.0456
  281TMC3     H 4299   3.464   1.380  13.478  1.6512 -0.2716 -0.3099
  281TMC3    H1 4300   3.350   0.974  13.551  0.9429  0.2284  1.5877
  281TMC3    H2 4301   3.590   1.069  13.216  1.7237 -1.0608  1.4934
  281TMC3    C7 4302   3.415   0.900  13.314 -0.4628  0.3320  1.1612
  281TMC3    C8 4303   3.606   1.323  13.258  0.7365  0.2595 -0.1295
  281TMC3    O1 4304   3.495   0.833  13.242  0.0795 -0.1140  0.2427
  281TMC3    O2 4305   3.709   1.277  13.215 -0.2612  0.3323 -0.0333
  282MPD2     C 4306   0.073   2.142  15.231 -0.1195 -0.1425  0.0212
  282MPD2    C1 4307   4.738   2.254  15.234  0.6426  0.2425 -0.1250
  282MPD2    C2 4308   4.732   2.337  15.118  0.4611 -0.7163 -0.4247
  282MPD2    C3 4309   0.044   2.287  15.003  0.5382 -0.2465  0.3347
  282MPD2    C4 4310   0.120   2.173  15.002  0.0290 -0.2396 -0.3150
  282MPD2    C5 4311   0.139   2.103  15.117 -0.0325  0.1378 -0.0700
  282MPD2     H 4312   4.668   2.423  15.124  1.0049 -0.4398  1.3357
  282MPD2    H1 4313   0.160   2.136  14.908  1.5548  1.9674 -0.5467
  282MPD2    H2 4314   0.086   2.075  15.315 -1.2696  0.2215  0.4954
  282MPD2    H3 4315   0.195   2.011  15.127  1.0137  0.4249 -3.0126
  282MPD2     N 4316   0.047   2.347  14.876  0.0216  0.6526  0.0229
  282MPD2    H5 4317   0.103   2.318  14.796  1.3736  1.0773  0.8169
  282MPD2    N1 4318   4.668   2.292  15.352 -0.7834 -0.2384 -0.5361
  282MPD2    H7 4319   4.596   2.361  15.335  0.4768  1.4727  1.1413
  283TMC3    C1 4320   4.565   2.285  15.566 -0.0072  1.0775 -0.0907
  283TMC3    C2 4321   4.557   2.421  15.583 -0.6571  0.2359 -0.0749
  283TMC3    C3 4322   4.492   2.472  15.692  0.3344 -0.3514 -0.7162
  283TMC3    C4 4323   4.505   2.196  15.646 -0.2124 -0.0133 -0.1549
  283TMC3    C5 4324   4.447   2.244  15.764 -0.4236  0.7664  0.3154
  283TMC3    C6 4325   4.439   2.380  15.787 -0.5720  0.4623  0.1994
  283TMC3     C 4326   4.658   2.225  15.473 -0.1166 -0.3667 -0.7942
  283TMC3     O 4327   4.700   2.117  15.507  0.0090  0.1416  0.6826
  283TMC3     H 4328   4.623   2.481  15.521 -0.1854 -0.9602 -0.7274
  283TMC3    H1 4329   4.496   2.092  15.615 -0.7190  0.9713 -3.3257
  283TMC3    H2 4330   4.392   2.422  15.875  3.4949  1.6411  1.8228
  283TMC3    C7 4331   4.387   2.158  15.866 -0.9971 -0.4246 -0.1913
  283TMC3    C8 4332   4.512   2.607  15.734 -0.0040 -0.0019  0.5287
  283TMC3    O1 4333   4.335   2.217  15.958  0.6958 -0.3057 -0.0515
  283TMC3    O2 4334   4.496   2.629  15.854 -0.2733  0.1137  0.0217
  284MPD2     C 4335   2.887   1.733  11.939  0.1631  0.2745 -0.2330
  284MPD2    C1 4336   2.965   1.841  11.952  0.5156  0.5281  0.5779
  284MPD2    C2 4337   3.029   1.855  12.074 -0.2918 -0.2432  0.4050
  284MPD2    C3 4338   3.012   1.763  12.176 -0.2347 -0.7182 -0.1253
  284MPD2    C4 4339   2.936   1.654  12.155 -0.4680  0.1207 -0.3037
  284MPD2    C5 4340   2.878   1.637  12.036 -0.1875  0.1226  0.5490
  284MPD2     H 4341   3.092   1.942  12.089  1.2127 -1.8150  2.9925
  284MPD2    H1 4342   2.937   1.574  12.229  0.1567 -1.0569 -1.5955
  284MPD2    H2 4343   2.825   1.720  11.851  0.9481  2.0247 -1.0552
  284MPD2    H3 4344   2.826   1.545  12.014 -0.4458  0.1181  1.1594
  284MPD2     N 4345   3.087   1.788  12.290 -0.4026  0.2483  0.3344
  284MPD2    H5 4346   3.152   1.866  12.285 -0.2148  0.2578  2.8390
  284MPD2    N1 4347   2.980   1.931  11.848  0.2970  0.1874  0.0008
  284MPD2    H7 4348   2.957   1.889  11.758  1.3530  0.1053 -0.2302
  285TMC3    C1 4349   3.137   2.058  11.732  0.2387  0.0138 -0.2981
  285TMC3    C2 4350   3.226   1.952  11.722  0.7413  0.3876  0.1350
  285TMC3    C3 4351   3.360   1.975  11.698  0.9960  1.3479 -0.5386
  285TMC3    C4 4352   3.182   2.182  11.707 -0.1044 -0.0843  1.5334
  285TMC3    C5 4353   3.308   2.196  11.658 -0.1626 -0.1427  0.2927
  285TMC3    C6 4354   3.401   2.093  11.642 -0.6082  0.4366  1.4804
  285TMC3     C 4355   3.052   2.043  11.849 -0.0575 -0.7440  0.1785
  285TMC3     O 4356   3.073   2.120  11.940  0.3282 -0.5161 -0.4270
  285TMC3     H 4357   3.195   1.860  11.770  0.6148  1.3302  1.8953
  285TMC3    H1 4358   3.112   2.261  11.733  1.9076  1.6426  1.6844
  285TMC3    H2 4359   3.507   2.112  11.645 -0.3757 -1.2069  3.4965
  285TMC3    C7 4360   3.348   2.312  11.581 -0.2245 -0.7112 -0.3400
  285TMC3    C8 4361   3.445   1.854  11.674 -0.6272 -0.1453 -0.2665
  285TMC3    O1 4362   3.466   2.333  11.572 -0.1591 -0.8310  0.5802
  285TMC3    O2 4363   3.415   1.757  11.742  0.5493  0.1705  0.3064
  286MPD2     C 4364   2.915   4.393   0.824  0.2211  0.5832  0.1047
  286MPD2    C1 4365   3.004   4.479   0.891 -0.1027  0.6631 -0.5789
  286MPD2    C2 4366   3.135   4.437   0.893 -0.3857 -0.1691 -0.1529
  286MPD2    C3 4367   3.180   4.319   0.831  0.4861  0.3238 -0.4870
  286MPD2    C4 4368   3.092   4.232   0.771  0.0751 -0.1505  0.3976
  286MPD2    C5 4369   2.957   4.268   0.777 -0.4524 -0.2232 -0.6807
  286MPD2     H 4370   3.208   4.512   0.921 -0.0712 -0.2700 -0.6970
  286MPD2    H1 4371   3.121   4.142   0.718  1.6076  1.6236 -1.7600
  286MPD2    H2 4372   2.807   4.406   0.819  0.3358  1.2774 -0.5639
  286MPD2    H3 4373   2.888   4.194   0.739 -1.3044  1.0871 -1.7124
  286MPD2     N 4374   3.318   4.289   0.829 -0.2282 -0.0023  0.2596
  286MPD2    H5 4375   3.346   4.210   0.771  2.6615  0.2160  1.3655
  286MPD2    N1 4376   2.962   4.603   0.946 -0.5330  0.4351  0.3985
  286MPD2    H7 4377   3.034   4.660   0.989  0.8053 -0.8935 -0.0738
  287TMC3    C1 4378   3.553   4.328   0.865 -0.5672 -0.5875  0.0659
  287TMC3    C2 4379   3.574   4.327   0.733  0.1879 -0.1332 -0.7751
  287TMC3    C3 4380   3.702   4.317   0.687  0.6803  0.0698 -0.2261
  287TMC3    C4 4381   3.661   4.338   0.952  0.0835 -0.5254 -0.1711
  287TMC3    C5 4382   3.780   4.317   0.909 -0.1064 -0.5068 -0.1685
  287TMC3    C6 4383   3.808   4.302   0.772  0.2413 -0.3282  0.4343
  287TMC3     C 4384   3.419   4.360   0.901 -0.0837 -0.3654 -0.2387
  287TMC3     O 4385   3.401   4.446   0.988  0.5397  0.1286 -0.0300
  287TMC3     H 4386   3.489   4.333   0.666 -0.9248 -0.2291  0.6146
  287TMC3    H1 4387   3.640   4.348   1.058 -0.5838 -1.0284 -0.2576
  287TMC3    H2 4388   3.909   4.295   0.734  0.2672 -1.1262  0.6435
  287TMC3    C7 4389   3.891   4.297   1.000  0.1537 -0.2424  0.2949
  287TMC3    C8 4390   3.721   4.280   0.551  0.1334  0.3845  1.2010
  287TMC3    O1 4391   3.883   4.357   1.111 -0.2456  0.4309  0.4295
  287TMC3    O2 4392   3.819   4.212   0.528 -0.1422 -0.3847 -0.3376
  288TMC3    C1 4393   0.699   0.098  14.218 -0.4600 -0.5206  0.1523
  288TMC3    C2 4394   0.594   0.123  14.298  0.0926  0.0225  0.4729
  288TMC3    C3 4395   0.610   0.218  14.399 -0.2630 -0.2629  0.0907
  288TMC3    C4 4396   0.808   0.171  14.222  0.4034 -0.4238 -0.3844
  288TMC3    C5 4397   0.824   0.273  14.312  0.0820 -0.6236 -0.0026
  288TMC3    C6 4398   0.726   0.295  14.405 -0.1652 -0.0220  0.4629
  288TMC3     C 4399   0.679   0.003  14.109 -0.7959 -0.1770  0.0274
  288TMC3     O 4400   0.744   0.025  14.007 -0.1401  0.3202  0.6894
  288TMC3     H 4401   0.504   0.065  14.286 -1.2462  2.1860  0.1807
  288TMC3    H1 4402   0.882   0.158  14.145 -0.2529 -1.3948 -0.8457
  288TMC3    H2 4403   0.730   0.375  14.478 -1.0637  1.3832 -1.0133
  288TMC3    C7 4404   0.934   0.363  14.297  0.3101  0.2230  0.4355
  288TMC3    C8 4405   0.493   0.286  14.455  0.5517 -0.0516 -0.6221
  288TMC3    O1 4406   1.017   0.339  14.211  0.3632 -0.4145  0.3091
  288TMC3    O2 4407   0.493   0.409  14.453 -0.1911  0.2803 -0.6469
  289MPD2     C 4408   0.317   3.919  14.620 -1.0151 -0.2261 -1.0228
  289MPD2    C1 4409   0.347   4.037  14.551 -0.2993 -0.1753 -0.5934
  289MPD2    C2 4410   0.291   4.061  14.424 -0.3429 -0.2003  0.1291
  289MPD2    C3 4411   0.199   3.971  14.375 -0.0300  0.3410  0.1795
  289MPD2    C4 4412   0.180   3.854  14.442  0.4527  0.1765  0.4226
  289MPD2    C5 4413   0.237   3.827  14.564 -0.6896  0.0535  0.3598
  289MPD2     H 4414   0.311   4.155  14.374  0.7272 -1.1426 -1.2006
  289MPD2    H1 4415   0.106   3.780  14.413  1.2927 -0.5479  0.1053
  289MPD2    H2 4416   0.359   3.893  14.716 -0.7571  0.0991 -1.0449
  289MPD2    H3 4417   0.204   3.739  14.618  0.3398 -0.7524 -0.3507
  289MPD2     N 4418   0.123   3.994  14.252  0.7556  0.4959 -0.3925
  289MPD2    H5 4419   0.055   3.924  14.227 -0.9221  2.9109 -2.5931
  289MPD2    N1 4420   0.455   4.120  14.599 -0.0966  0.1583 -0.4580
  289MPD2    H7 4421   0.498   4.084  14.684 -1.7238 -0.0978  0.2676
  290TMC3    C1 4422   0.025   4.132  14.080  0.0580 -0.1242 -0.5436
  290TMC3    C2 4423   4.719   4.263  14.072 -0.4914  0.4397  0.3250
  290TMC3    C3 4424   4.613   4.284  13.995 -0.4969  0.0977 -0.5502
  290TMC3    C4 4425   4.706   4.025  14.017  0.6873  0.1705 -0.8642
  290TMC3    C5 4426   4.603   4.054  13.932 -0.3789  0.3038  0.5341
  290TMC3    C6 4427   4.555   4.178  13.922  0.1542  0.0862  0.3462
  290TMC3     C 4428   0.128   4.117  14.185  0.5261  0.3055 -0.2959
  290TMC3     O 4429   0.180   4.224  14.218 -0.3854  0.6430  0.4440
  290TMC3     H 4430   0.007   4.339  14.145 -1.6222  2.3679 -1.2316
  290TMC3    H1 4431   4.739   3.928  14.051 -0.5528 -0.7011 -2.1922
  290TMC3    H2 4432   4.479   4.205  13.849 -1.3027 -0.5012  1.6293
  290TMC3    C7 4433   4.521   3.951  13.868  0.8375 -0.4361 -0.7636
  290TMC3    C8 4434   4.522   4.394  14.017 -0.5839 -0.9052 -0.4248
  290TMC3    O1 4435   4.443   3.992  13.784 -0.5357 -0.8764  0.7185
  290TMC3    O2 4436   4.407   4.382  13.977 -0.5123 -0.2358 -0.6533
  291MPD2     C 4437   3.974   3.652  17.413  0.5381  0.5873 -0.1356
  291MPD2    C1 4438   4.043   3.624  17.530  0.0690  0.3404  0.1568
  291MPD2    C2 4439   4.113   3.720  17.592 -0.1213  0.4288 -0.8490
  291MPD2    C3 4440   4.112   3.850  17.541  0.1247  0.1463 -0.0336
  291MPD2    C4 4441   4.033   3.884  17.431 -0.0086  0.0767  0.4767
  291MPD2    C5 4442   3.953   3.783  17.366 -0.2744  1.0869 -0.4105
  291MPD2     H 4443   4.176   3.691  17.676 -2.4730  0.4096  0.8885
  291MPD2    H1 4444   4.035   3.985  17.391 -1.9321 -0.3136 -0.5854
  291MPD2    H2 4445   3.919   3.579  17.355 -0.4667 -0.8364  2.6260
  291MPD2    H3 4446   3.884   3.799  17.284  0.6376  1.5915 -1.0819
  291MPD2     N 4447   4.196   3.951  17.602  0.5297 -0.0983  0.3165
  291MPD2    H5 4448   4.189   4.043  17.561 -1.2031 -1.2505 -1.9796
  291MPD2    N1 4449   4.043   3.495  17.589 -0.7719 -0.0437  1.0671
  291MPD2    H7 4450   4.095   3.488  17.676  3.2776 -1.1559 -1.4609
  292TMC3    C1 4451   3.970   3.255  17.630 -0.3425  0.1634  0.7339
  292TMC3    C2 4452   4.045   3.253  17.745  0.7221 -0.4199  0.6579
  292TMC3    C3 4453   4.029   3.147   0.070 -0.4785 -0.2496 -0.0560
  292TMC3    C4 4454   3.895   3.151  17.584  0.7854 -0.9069  0.3584
  292TMC3    C5 4455   3.875   3.044  17.677 -0.0633 -0.5104 -0.0563
  292TMC3    C6 4456   3.936   3.049   0.048 -0.2265 -0.0542  0.3347
  292TMC3     C 4457   3.972   3.375  17.550  0.0837  0.2759  0.2073
  292TMC3     O 4458   3.891   3.357  17.462  0.1872 -0.0591  0.2657
  292TMC3     H 4459   4.117   3.328   0.022  0.5218  0.8674 -2.0015
  292TMC3    H1 4460   3.843   3.144  17.489  2.4531 -1.0749 -0.5488
  292TMC3    H2 4461   3.910   2.968   0.115  0.7097  0.2032  1.0091
  292TMC3    C7 4462   3.773   2.951  17.654  0.8016  0.3614  0.2814
  292TMC3    C8 4463   4.103   3.149   0.194  0.4835 -0.4027  0.6411
  292TMC3    O1 4464   3.749   2.918  17.535  0.3474 -0.2961  0.2340
  292TMC3    O2 4465   4.155   3.255   0.230 -0.0345 -0.7796 -0.3056
  293MPD2     C 4466   1.161   0.065  13.002 -0.9579 -0.1329  0.0923
  293MPD2    C1 4467   1.167   0.199  12.981  0.0654  0.0995 -0.2204
  293MPD2    C2 4468   1.261   0.274  13.049  0.2459  0.8030 -0.9485
  293MPD2    C3 4469   1.337   0.214  13.151 -0.4540 -0.3316 -0.1204
  293MPD2    C4 4470   1.344   0.079  13.162 -0.2007  0.7180 -0.3138
  293MPD2    C5 4471   1.248   0.006  13.083  0.0920  0.4422  0.1652
  293MPD2     H 4472   1.261   0.382  13.039 -0.7114  1.1259  2.3423
  293MPD2    H1 4473   1.403   0.023  13.234 -2.5230  0.3119  1.2862
  293MPD2    H2 4474   1.098   4.736  12.945  0.9680 -1.4091 -0.4888
  293MPD2    H3 4475   1.257   4.637  13.091 -0.9551  0.2668 -0.9292
  293MPD2     N 4476   1.416   0.303  13.228 -0.6518  0.5015 -0.8023
  293MPD2    H5 4477   1.411   0.403  13.213  0.2434  0.4726 -1.3400
  293MPD2    N1 4478   1.061   0.257  12.901  0.0143 -0.3203 -0.2890
  293MPD2    H7 4479   0.983   0.200  12.871 -1.7073  1.6356  0.4933
  294TMC3    C1 4480   0.936   0.425  12.809  0.1217  0.1318  0.4057
  294TMC3    C2 4481   0.827   0.372  12.873 -0.2574  0.2606 -0.8275
  294TMC3    C3 4482   0.707   0.400  12.816  0.3362 -0.3902  0.3033
  294TMC3    C4 4483   0.923   0.502  12.694 -0.0189  0.0468 -1.0825
  294TMC3    C5 4484   0.800   0.517  12.643  0.4485  0.5357  0.6250
  294TMC3    C6 4485   0.684   0.473  12.701 -0.3463 -0.3614  0.4572
  294TMC3     C 4486   1.066   0.386  12.858  0.0949  0.2140  0.3734
  294TMC3     O 4487   1.165   0.454  12.833 -0.2537  0.2557 -0.4499
  294TMC3     H 4488   0.845   0.317  12.965  0.6196  1.6215 -0.1743
  294TMC3    H1 4489   1.017   0.531  12.649  0.3487  1.2074  0.4042
  294TMC3    H2 4490   0.587   0.493  12.658 -0.7100 -0.5321  1.2075
  294TMC3    C7 4491   0.778   0.575  12.514 -0.0782 -0.0016  0.4325
  294TMC3    C8 4492   0.601   0.307  12.852  0.3185  0.2539 -0.8374
  294TMC3    O1 4493   0.662   0.601  12.485 -0.0401 -0.2823 -0.7054
  294TMC3    O2 4494   0.601   0.273  12.968  0.1683 -0.3261  0.4343
  295MPD2     C 4495   1.620   4.092   0.919 -1.1313 -0.5548  0.1728
  295MPD2    C1 4496   1.530   4.178   0.867 -0.0428 -0.0278 -0.1797
  295MPD2    C2 4497   1.472   4.279   0.944  0.3666 -0.7526  0.3747
  295MPD2    C3 4498   1.497   4.281   1.082 -0.1083 -0.1653 -0.0756
  295MPD2    C4 4499   1.588   4.195   1.126  1.1349 -0.1473 -0.5454
  295MPD2    C5 4500   1.648   4.103   1.052  0.5605  0.0535  0.4230
  295MPD2     H 4501   1.395   4.347   0.911  1.5200  0.6419  0.5654
  295MPD2    H1 4502   1.606   4.197   1.233 -0.3411 -1.7947 -0.2804
  295MPD2    H2 4503   1.659   4.015   0.854  0.4591 -0.4997  1.0662
  295MPD2    H3 4504   1.711   4.031   1.104  2.2010  0.5355 -0.8866
  295MPD2     N 4505   1.422   4.363   1.170 -0.2807 -0.9022 -0.1375
  295MPD2    H5 4506   1.443   4.356   1.269  1.5132 -2.3137 -0.6278
  295MPD2    N1 4507   1.487   4.175   0.731 -0.0970  0.2215  0.3585
  295MPD2    H7 4508   1.434   4.254   0.696 -0.0791 -0.1915 -0.6040
  296TMC3    C1 4509   1.277   4.524   1.254 -0.0617  0.9206  0.3375
  296TMC3    C2 4510   1.253   4.660   1.253 -0.4212  0.1524 -0.0869
  296TMC3    C3 4511   1.199   4.724   1.363  0.1319  0.6090 -0.2358
  296TMC3    C4 4512   1.237   4.448   1.358  0.2972 -0.3012 -1.3872
  296TMC3    C5 4513   1.197   4.517   1.474  0.3807 -0.7406  0.0496
  296TMC3    C6 4514   1.185   4.651   1.476  0.1198  0.7645  0.6581
  296TMC3     C 4515   1.329   4.463   1.136 -0.1518  0.1686  0.2658
  296TMC3     O 4516   1.306   4.521   1.032 -0.4000  0.1921  0.2604
  296TMC3     H 4517   1.269   4.716   1.162  0.8809  0.3558  0.2662
  296TMC3    H1 4518   1.236   4.340   1.348  0.5037 -0.4634  0.3387
  296TMC3    H2 4519   1.159   4.697   1.571 -1.2277 -0.0041  0.6594
  296TMC3    C7 4520   1.100   4.449   1.558 -0.3353 -0.4084  0.4051
  296TMC3    C8 4521   1.106   0.093   1.351  0.1763 -0.2601  0.7546
  296TMC3    O1 4522   1.021   4.523   1.616 -0.2870 -0.2409  0.0757
  296TMC3    O2 4523   1.010   0.099   1.425 -0.1516 -0.3140 -0.6074
  297MPD2     C 4524   3.678   1.118  16.409  0.4519 -0.7543 -0.4427
  297MPD2    C1 4525   3.758   1.140  16.303  0.2875 -0.5144 -0.3371
  297MPD2    C2 4526   3.870   1.223  16.317  0.5426  0.1523 -0.1731
  297MPD2    C3 4527   3.896   1.286  16.436  0.2994  0.4205  0.4057
  297MPD2    C4 4528   3.814   1.264  16.540 -0.1717  0.3583  0.5724
  297MPD2    C5 4529   3.718   1.165  16.530  0.2972 -0.8492 -0.5678
  297MPD2     H 4530   3.944   1.240  16.241  0.5173  0.4287 -0.1345
  297MPD2    H1 4531   3.821   1.316  16.634  2.3163  1.9391 -0.5033
  297MPD2    H2 4532   3.582   1.068  16.406  0.2004 -0.3946  1.2347
  297MPD2    H3 4533   3.664   1.132  16.619 -1.1363  1.4850 -0.5662
  297MPD2     N 4534   3.993   1.381  16.432  0.2206 -0.4340  0.1589
  297MPD2    H5 4535   4.033   1.390  16.339  0.4331 -1.8956  0.1069
  297MPD2    N1 4536   3.718   1.076  16.177 -0.1953 -0.0872 -0.0905
  297MPD2    H7 4537   3.623   1.042  16.165 -0.7603  0.7171  2.0491
  298TMC3    C1 4538   3.708   1.064  15.944  0.3041  0.0918  0.4595
  298TMC3    C2 4539   3.781   1.047  15.831  0.5270 -0.3170  0.5263
  298TMC3    C3 4540   3.735   1.107  15.717  0.3560  0.0002  0.3494
  298TMC3    C4 4541   3.585   1.121  15.942 -0.2420  0.3996  0.1993
  298TMC3    C5 4542   3.541   1.179  15.827 -0.8950 -0.0099  0.2748
  298TMC3    C6 4543   3.610   1.165  15.713 -0.4013  0.7018  0.6822
  298TMC3     C 4544   3.789   1.078  16.060 -0.4802 -0.1936 -0.3324
  298TMC3     O 4545   3.906   1.104  16.058  0.8807 -0.2935  0.1737
  298TMC3     H 4546   3.882   1.008  15.838  0.1558 -1.3608 -0.0506
  298TMC3    H1 4547   3.523   1.129  16.031  1.5141 -2.3730  1.6788
  298TMC3    H2 4548   3.565   1.203  15.622 -0.4861 -0.8610  0.0578
  298TMC3    C7 4549   3.406   1.242  15.836 -0.3235  0.4509  0.5271
  298TMC3    C8 4550   3.816   1.108  15.599 -0.6112  0.2134  0.8444
  298TMC3    O1 4551   3.328   1.189  15.913  0.0302 -0.2115 -0.2249
  298TMC3    O2 4552   3.905   1.026  15.591 -1.0661 -0.0788 -0.0472
  299MPD2     C 4553   4.268   0.647  11.092  0.2502  0.4064 -0.1461
  299MPD2    C1 4554   4.287   0.782  11.058 -0.1854  0.4427  0.1125
  299MPD2    C2 4555   4.191   0.833  10.973 -0.3909  0.6735 -0.6635
  299MPD2    C3 4556   4.086   0.759  10.911 -0.4356 -0.6832  0.3715
  299MPD2    C4 4557   4.071   0.630  10.952  0.1729 -0.0373 -0.1233
  299MPD2    C5 4558   4.160   0.582  11.051  0.3839 -0.0789  0.4623
  299MPD2     H 4559   4.201   0.939  10.955 -1.3804  1.2960  2.4908
  299MPD2    H1 4560   3.998   0.560  10.914 -1.8798  1.7380  0.5197
  299MPD2    H2 4561   4.344   0.597  11.152 -0.1440  0.3759  0.3235
  299MPD2    H3 4562   4.173   0.477  11.074 -0.5908  0.1759  2.1614
  299MPD2     N 4563   3.986   0.818  10.828 -0.2017  0.3022  0.2116
  299MPD2    H5 4564   3.923   0.751  10.785  1.4392 -0.3248 -1.2523
  299MPD2    N1 4565   4.406   0.847  11.094  0.1119  1.1737  0.4186
  299MPD2    H7 4566   4.465   0.781  11.145  0.0858  0.3283 -0.6605
  300TMC3    C1 4567   3.880   0.964  10.676 -0.1533  0.5330  0.3619
  300TMC3    C2 4568   3.900   1.078  10.607 -0.5864  0.1101  1.1266
  300TMC3    C3 4569   3.809   1.105  10.510 -0.1045  0.2183 -0.1277
  300TMC3    C4 4570   3.782   0.873  10.640 -0.5079  0.0142  0.0446
  300TMC3    C5 4571   3.692   0.908  10.538  0.1033  0.4732 -0.1376
  300TMC3    C6 4572   3.707   1.024  10.471 -0.6274  0.1186  0.0332
  300TMC3     C 4573   3.983   0.941  10.777  0.2028 -0.4637 -0.9147
  300TMC3     O 4574   4.066   1.032  10.799  0.1253 -0.3189  0.3397
  300TMC3     H 4575   3.982   1.145  10.628 -0.4056  0.5175 -0.9272
  300TMC3    H1 4576   3.771   0.783  10.699  1.2936  0.9882  1.8954
  300TMC3    H2 4577   3.633   1.050  10.397 -1.0097 -2.7535 -0.5996
  300TMC3    C7 4578   3.557   0.872  10.573 -0.3827  0.0947  0.6928
  300TMC3    C8 4579   3.807   1.240  10.465 -0.5270 -0.1202  0.2913
  300TMC3    O1 4580   3.505   0.778  10.515 -0.3570 -0.4247  0.5131
  300TMC3    O2 4581   3.832   1.326  10.551  0.1774  0.0345  0.7116
  301MPD2     C 4582   1.584   2.205   1.733  0.0853 -0.3755 -0.3556
  301MPD2    C1 4583   1.444   2.181   1.752  0.4315 -0.7261  0.5853
  301MPD2    C2 4584   1.399   2.049   1.765  0.3400 -0.7886  0.0431
  301MPD2    C3 4585   1.481   1.939   1.751  0.4150 -0.8768 -0.5633
  301MPD2    C4 4586   1.616   1.965   1.732 -0.0923  0.7080  0.7499
  301MPD2    C5 4587   1.664   2.097   1.733  0.1081 -0.6148 -0.3649
  301MPD2     H 4588   1.292   2.028   1.770  0.4066 -1.2254 -0.4020
  301MPD2    H1 4589   1.688   1.887   1.711  0.6867  1.7506 -0.3950
  301MPD2    H2 4590   1.623   2.306   1.723 -1.8135  0.4812  0.8061
  301MPD2    H3 4591   1.770   2.114   1.716 -0.1460  2.3334  1.0768
  301MPD2     N 4592   1.439   1.808   1.742 -0.2818 -0.0600 -0.1375
  301MPD2    H5 4593   1.511   1.742   1.714 -1.1176 -1.0071 -0.0457
  301MPD2    N1 4594   1.346   2.287   1.756  0.2428 -0.6023  0.7407
  301MPD2    H7 4595   1.257   2.255   1.792  0.9315 -0.5724  2.4807
  302TMC3    C1 4596   1.314   1.609   1.763 -0.0920  0.2103  0.3730
  302TMC3    C2 4597   1.411   1.530   1.709  0.2252 -0.3338 -0.0864
  302TMC3    C3 4598   1.390   1.393   1.700  0.5465 -0.4169  0.2264
  302TMC3    C4 4599   1.186   1.564   1.790  0.0251  0.5213 -0.3601
  302TMC3    C5 4600   1.168   1.423   1.770 -0.1405  0.4867 -0.5987
  302TMC3    C6 4601   1.272   1.334   1.740 -0.2477  0.1994  0.1508
  302TMC3     C 4602   1.313   1.757   1.756  0.1717 -0.7299  0.3535
  302TMC3     O 4603   1.207   1.816   1.766 -0.1042  0.4272 -0.2062
  302TMC3     H 4604   1.507   1.578   1.691 -1.9971  3.4181 -1.9152
  302TMC3    H1 4605   1.107   1.620   1.840  0.8824 -0.0849  1.6404
  302TMC3    H2 4606   1.249   1.231   1.713  0.2504 -0.2510  1.4680
  302TMC3    C7 4607   1.031   1.377   1.744  1.0857  0.0665 -0.1391
  302TMC3    C8 4608   1.497   1.318   1.635  0.0570  0.7314  1.2420
  302TMC3    O1 4609   1.005   1.258   1.760 -0.0293  0.2070 -0.1878
  302TMC3    O2 4610   1.601   1.371   1.597  0.3680 -0.3162 -0.7181
  303MPD2     C 4611   2.377   0.523  10.373  0.1349 -0.6118 -0.3182
  303MPD2    C1 4612   2.239   0.526  10.402 -0.0166 -0.2340  0.5211
  303MPD2    C2 4613   2.159   0.568  10.299  0.5172  0.2346 -1.0411
  303MPD2    C3 4614   2.205   0.584  10.172 -0.3354  0.6619  0.2006
  303MPD2    C4 4615   2.341   0.579  10.146 -0.1575 -0.6555  0.3919
  303MPD2    C5 4616   2.422   0.542  10.246  0.3614 -0.1728 -0.3713
  303MPD2     H 4617   2.052   0.574  10.316  0.8586 -1.9060  1.9163
  303MPD2    H1 4618   2.378   0.591  10.045 -0.6088 -0.8694  0.2014
  303MPD2    H2 4619   2.444   0.498  10.454 -1.1443  1.4230  1.3776
  303MPD2    H3 4620   2.530   0.539  10.235  0.0076 -3.8815 -2.6263
  303MPD2     N 4621   2.120   0.587  10.056  0.1876 -0.9489 -0.3346
  303MPD2    H5 4622   2.164   0.593   9.965  1.0204  1.3017  0.2301
  303MPD2    N1 4623   2.183   0.492  10.528 -0.1424 -0.7513  0.4834
  303MPD2    H7 4624   2.084   0.497  10.549 -0.2401  0.5823 -0.2613
  304TMC3    C1 4625   2.157   0.377  10.729  0.5516 -0.3535 -0.3326
  304TMC3    C2 4626   2.093   0.486  10.788  0.0187  0.2758  0.4449
  304TMC3    C3 4627   2.010   0.458  10.894 -0.4602 -0.3788 -0.2193
  304TMC3    C4 4628   2.136   0.249  10.753 -0.0690  0.7772 -0.0735
  304TMC3    C5 4629   2.039   0.220  10.848  0.1351  0.7471 -0.6566
  304TMC3    C6 4630   1.988   0.324  10.922  0.2421  0.0645 -0.5273
  304TMC3     C 4631   2.250   0.415  10.622  0.0276 -0.6017  0.3536
  304TMC3     O 4632   2.341   0.331  10.598  0.7739  0.0518  0.1662
  304TMC3     H 4633   2.129   0.587  10.769  2.9095 -0.0216  4.4573
  304TMC3    H1 4634   2.185   0.166  10.703  2.2896  1.6619  0.7927
  304TMC3    H2 4635   1.924   0.298  11.006  0.3240 -2.0373 -1.0989
  304TMC3    C7 4636   1.929   0.134  10.823  0.3133 -0.1353 -0.7066
  304TMC3    C8 4637   1.887   0.535  10.879  0.1790  0.2322  0.5767
  304TMC3    O1 4638   1.820   0.181  10.848 -0.2354 -0.2589  0.2044
  304TMC3    O2 4639   1.894   0.653  10.852  0.2758 -0.2347  0.0501
  305MPD2     C 4640   0.093   2.971  13.934  0.4985 -0.8497 -0.6172
  305MPD2    C1 4641   0.127   2.845  13.985 -0.0996  0.4772  0.0330
  305MPD2    C2 4642   0.135   2.741  13.894  0.5422 -0.0272  0.3729
  305MPD2    C3 4643   0.100   2.758  13.760 -0.1250  0.0667 -0.2410
  305MPD2    C4 4644   0.057   2.878  13.720 -0.7272  0.2627  0.0127
  305MPD2    C5 4645   0.065   2.982  13.802  0.0117 -0.3404 -0.4323
  305MPD2     H 4646   0.180   2.646  13.918  1.2038  0.0314 -0.6235
  305MPD2    H1 4647   0.034   2.897  13.616  1.4102  0.8194 -0.3712
  305MPD2    H2 4648   0.086   3.059  13.996  1.1860 -0.7231 -0.7241
  305MPD2    H3 4649   0.057   3.079  13.754  0.2074 -0.7956 -1.3934
  305MPD2     N 4650   0.100   2.656  13.659 -0.0473 -0.0738 -0.2599
  305MPD2    H5 4651   0.053   2.677  13.572 -0.1735  0.1450 -0.1373
  305MPD2    N1 4652   0.182   2.843  14.120 -0.1676  0.4817 -0.2178
  305MPD2    H7 4653   0.190   2.935  14.163  3.0083  0.6769 -1.2069
  306TMC3    C1 4654   0.278   2.737  14.311 -0.0508 -0.1537 -0.4032
  306TMC3    C2 4655   0.299   2.618  14.376  0.0745  0.2096  1.0002
  306TMC3    C3 4656   0.364   2.621  14.494  0.3344 -0.6511  0.8595
  306TMC3    C4 4657   0.305   2.856  14.374  0.2099 -0.4350  0.2669
  306TMC3    C5 4658   0.369   2.845  14.497 -0.1958 -0.0860 -0.2842
  306TMC3    C6 4659   0.417   2.726  14.556  0.3135 -0.0569 -0.3136
  306TMC3     C 4660   0.215   2.725  14.183  0.1110  0.5092  0.1156
  306TMC3     O 4661   0.180   2.609  14.162 -0.6767 -0.4195  0.6087
  306TMC3     H 4662   0.269   2.523  14.335  1.4270 -0.4034  1.4112
  306TMC3    H1 4663   0.288   2.954  14.332 -0.1275 -0.3347  0.6384
  306TMC3    H2 4664   0.472   2.716  14.649  0.1887 -0.7452 -0.3160
  306TMC3    C7 4665   0.343   2.954  14.586 -0.0936 -0.5939  0.7954
  306TMC3    C8 4666   0.359   2.498  14.562  0.3760 -0.1317 -1.0281
  306TMC3    O1 4667   0.253   3.028  14.564  0.3228  0.0529  0.1583
  306TMC3    O2 4668   0.354   2.400  14.493 -0.1141 -0.7096  0.7745
  307MPD2     C 4669   2.864   0.343   0.052  0.0370 -0.1297 -0.1765
  307MPD2    C1 4670   2.836   0.460   0.121  0.5230  0.5095 -0.0428
  307MPD2    C2 4671   2.795   0.447   0.251 -0.2222 -0.1572 -0.3340
  307MPD2    C3 4672   2.783   0.325   0.311  0.1086 -0.4361 -0.4919
  307MPD2    C4 4673   2.812   0.213   0.239 -1.0085 -0.0350  0.4534
  307MPD2    C5 4674   2.855   0.218   0.111 -0.3075  0.2239  0.8438
  307MPD2     H 4675   2.768   0.535   0.309  2.3347  1.1629 -1.1271
  307MPD2    H1 4676   2.817   0.112   0.278 -0.3896  0.4136  1.5312
  307MPD2    H2 4677   2.897   0.345  17.702 -0.6330  3.0089 -0.3343
  307MPD2    H3 4678   2.881   0.126   0.061 -2.1439 -0.0621  0.4217
  307MPD2     N 4679   2.733   0.324   0.439  0.4591  0.2592 -0.1406
  307MPD2    H5 4680   2.732   0.412   0.489  0.6139  0.1661  0.0243
  307MPD2    N1 4681   2.832   0.592   0.066 -0.3187  0.2709  0.1605
  307MPD2    H7 4682   2.784   0.662   0.121  0.0867  0.3020  0.4727
  308TMC3    C1 4683   2.328   0.366   0.571  0.0983 -0.0780 -0.3867
  308TMC3    C2 4684   2.366   0.473   0.644  0.4819  0.4547 -0.0893
  308TMC3    C3 4685   2.495   0.486   0.683 -0.6171 -0.0624  0.8881
  308TMC3    C4 4686   2.416   0.268   0.543 -0.2633 -0.0929 -0.2300
  308TMC3    C5 4687   2.543   0.281   0.579 -0.2525  0.7478 -0.7482
  308TMC3    C6 4688   2.584   0.389   0.653 -0.1147  0.4570 -0.4087
  308TMC3     C 4689   2.189   0.344   0.531 -0.3152 -0.1865  0.0057
  308TMC3     O 4690   2.160   0.235   0.489 -0.3994 -0.1439  0.2285
  308TMC3     H 4691   2.295   0.548   0.676  1.6939  0.9417  1.4643
  308TMC3    H1 4692   2.388   0.184   0.480 -1.2277  0.3735 -0.4213
  308TMC3    H2 4693   2.690   0.398   0.673 -0.0164  0.1052 -0.7732
  308TMC3    C7 4694   2.649   0.227   0.488 -0.4353  0.0639  0.3834
  308TMC3    C8 4695   2.554   0.614   0.721 -0.0081 -0.0306  0.0426
  308TMC3    O1 4696   2.625   0.121   0.434  0.3933 -0.5826 -0.0930
  308TMC3    O2 4697   2.659   0.610   0.778 -0.1270 -0.4701 -0.0466
  309MPD2     C 4698   1.747   0.848  17.089 -0.4101 -0.2195  0.1102
  309MPD2    C1 4699   1.660   0.871  16.994 -0.3548 -0.3156 -0.5318
  309MPD2    C2 4700   1.543   0.941  17.021  0.0061 -1.0725  0.1391
  309MPD2    C3 4701   1.523   0.995  17.148 -0.3973 -0.4466  0.4458
  309MPD2    C4 4702   1.617   0.977  17.245  0.0566 -0.2021  0.9239
  309MPD2    C5 4703   1.720   0.892  17.216  0.4798  0.4060 -0.6373
  309MPD2     H 4704   1.477   0.955  16.936  1.8138 -2.3895 -1.5000
  309MPD2    H1 4705   1.607   1.018  17.345  1.4782 -1.3088  1.5246
  309MPD2    H2 4706   1.830   0.778  17.083  1.8480  2.4417  0.2761
  309MPD2    H3 4707   1.783   0.873  17.302 -0.6672  0.7519  0.2768
  309MPD2     N 4708   1.405   1.065  17.185  0.3347  0.3292  0.1623
  309MPD2    H5 4709   1.393   1.085  17.284  3.0938  0.9870  0.3664
  309MPD2    N1 4710   1.679   0.835  16.856  0.1581  0.6988  0.3873
  309MPD2    H7 4711   1.620   0.876  16.785 -0.1273  0.2686  0.3710
  310TMC3    C1 4712   1.810   0.766  16.666  0.1154 -0.4194 -0.7758
  310TMC3    C2 4713   1.771   0.872  16.589  0.1324 -0.3229 -0.2432
  310TMC3    C3 4714   1.818   0.890  16.459 -0.1738 -0.3918  0.1997
  310TMC3    C4 4715   1.893   0.676  16.612  0.6297  0.2430  0.6295
  310TMC3    C5 4716   1.932   0.688  16.484 -0.6669 -0.2687 -0.6954
  310TMC3    C6 4717   1.896   0.794  16.399  0.3570 -0.0114  0.4662
  310TMC3     C 4718   1.787   0.759  16.807  0.2842 -0.3590 -0.4427
  310TMC3     O 4719   1.874   0.707  16.875 -0.1619 -1.0326 -0.2440
  310TMC3     H 4720   1.715   0.953  16.634 -1.5166 -1.3975 -0.3801
  310TMC3    H1 4721   1.932   0.590  16.667 -0.3293 -1.4806 -1.3682
  310TMC3    H2 4722   1.939   0.805  16.300 -0.2043  0.6344  0.2920
  310TMC3    C7 4723   2.014   0.588  16.415  0.5875  0.4603  0.2007
  310TMC3    C8 4724   1.771   1.007  16.386  0.6051 -0.1610 -0.4189
  310TMC3    O1 4725   2.024   0.574  16.296 -0.2887  0.0749 -0.0118
  310TMC3    O2 4726   1.675   1.069  16.434  0.4865 -0.3975  0.3451
  311MPD2     C 4727   4.028   2.283  12.324 -0.5834  0.3652  0.6718
  311MPD2    C1 4728   4.081   2.329  12.444 -0.4129  0.6423 -0.4018
  311MPD2    C2 4729   3.993   2.332  12.550 -0.2425  0.7175  0.4179
  311MPD2    C3 4730   3.857   2.323  12.531  0.2651 -0.1218  0.2594
  311MPD2    C4 4731   3.801   2.292  12.406  0.4219 -0.9086  0.2114
  311MPD2    C5 4732   3.889   2.264  12.304  0.4958  0.1656 -0.2639
  311MPD2     H 4733   4.034   2.363  12.645  2.1730 -2.0427  0.2803
  311MPD2    H1 4734   3.695   2.281  12.391  0.2990  0.4268  0.1386
  311MPD2    H2 4735   4.081   2.260  12.232  2.6754 -0.2398  2.7032
  311MPD2    H3 4736   3.860   2.223  12.208 -0.6288 -1.7683  0.8947
  311MPD2     N 4737   3.771   2.341  12.635  0.2979 -0.2344 -0.0263
  311MPD2    H5 4738   3.804   2.373  12.726 -0.7083  0.5903  0.0463
  311MPD2    N1 4739   4.214   2.367  12.458  0.1893 -0.0559 -0.1877
  311MPD2    H7 4740   4.255   2.371  12.551  1.7803 -1.0016 -0.8529
  312TMC3    C1 4741   3.596   2.393  12.770 -0.3552 -0.4004  0.1603
  312TMC3    C2 4742   3.487   2.335  12.821 -0.2943  0.3815  0.0904
  312TMC3    C3 4743   3.451   2.361  12.950 -1.1305  0.0414  0.0206
  312TMC3    C4 4744   3.674   2.483  12.837 -0.0131  0.6037  0.5257
  312TMC3    C5 4745   3.630   2.516  12.957  0.0328 -0.8411  0.9426
  312TMC3    C6 4746   3.527   2.455  13.020 -0.0212 -0.3617 -0.0790
  312TMC3     C 4747   3.638   2.333  12.643  0.5969  0.1269 -0.3025
  312TMC3     O 4748   3.557   2.291  12.560  0.5238  0.1678  0.6713
  312TMC3     H 4749   3.437   2.257  12.765 -0.1111 -0.8943  1.6875
  312TMC3    H1 4750   3.743   2.553  12.791  1.1983 -0.6612  0.4231
  312TMC3    H2 4751   3.491   2.484  13.119  0.0963 -0.4073 -0.0237
  312TMC3    C7 4752   3.712   2.612  13.035 -0.3551 -0.8260  0.5851
  312TMC3    C8 4753   3.334   2.289  12.999  0.4724 -0.1089 -0.3447
  312TMC3    O1 4754   3.791   2.680  12.973  0.3279 -0.5591  0.1687
  312TMC3    O2 4755   3.281   2.214  12.918  0.5110 -0.0627 -0.3622
  313MPD2     C 4756   3.216   1.659  11.419  0.1552 -0.4452 -0.1516
  313MPD2    C1 4757   3.239   1.701  11.289 -0.0499 -0.5669  0.8138
  313MPD2    C2 4758   3.235   1.602  11.193 -0.1067  0.4240  0.1046
  313MPD2    C3 4759   3.215   1.464  11.224 -0.3156 -0.0950  0.1148
  313MPD2    C4 4760   3.182   1.428  11.354 -0.4847 -0.3081  0.2398
  313MPD2    C5 4761   3.175   1.531  11.446 -0.5700  0.7622  0.3475
  313MPD2     H 4762   3.268   1.624  11.092  2.9708  1.0342  1.2259
  313MPD2    H1 4763   3.146   1.329  11.380  0.5269 -0.9004 -0.6318
  313MPD2    H2 4764   3.213   1.732  11.498 -0.5507 -1.0834  0.4078
  313MPD2    H3 4765   3.133   1.507  11.544 -0.0362 -2.5682 -0.2499
  313MPD2     N 4766   3.200   1.374  11.115  0.0804  0.0541 -0.6584
  313MPD2    H5 4767   3.219   1.412  11.023 -0.1361 -2.0397 -1.5786
  313MPD2    N1 4768   3.243   1.837  11.253  0.3736  0.0769  0.7544
  313MPD2    H7 4769   3.247   1.849  11.153  1.2938 -0.0726  0.7686
  314TMC3    C1 4770   3.241   2.068  11.262 -0.4328 -0.2708 -0.1462
  314TMC3    C2 4771   3.371   2.083  11.218 -0.0312 -0.1798  0.0144
  314TMC3    C3 4772   3.384   2.164  11.110  0.1609  0.3005 -0.0479
  314TMC3    C4 4773   3.133   2.124  11.197 -0.4912  0.5004  0.7265
  314TMC3    C5 4774   3.156   2.208  11.092 -0.0663  0.4192 -0.0445
  314TMC3    C6 4775   3.283   2.213  11.049  0.1353 -0.0260 -0.1046
  314TMC3     C 4776   3.210   1.947  11.330  0.0490  0.7681 -0.8344
  314TMC3     O 4777   3.160   1.949  11.443  0.3694  0.2117  0.2271
  314TMC3     H 4778   3.450   2.016  11.253  2.4664  2.1970 -1.0756
  314TMC3    H1 4779   3.031   2.093  11.219 -1.1370  2.5502  0.6294
  314TMC3    H2 4780   3.309   2.282  10.968  0.9791 -0.8964 -0.5838
  314TMC3    C7 4781   3.042   2.234  11.000 -0.4631 -0.2120 -0.0845
  314TMC3    C8 4782   3.506   2.168  11.037 -0.2261  0.1073  0.3232
  314TMC3    O1 4783   2.928   2.245  11.051  0.0314  0.2870 -0.6637
  314TMC3    O2 4784   3.505   2.182  10.916  0.2837 -0.0291  0.1692
  315MPD2     C 4785   2.948   0.430  17.066 -0.4246 -0.1881 -0.0952
  315MPD2    C1 4786   2.992   0.498  17.179 -0.0353  0.0577 -0.4437
  315MPD2    C2 4787   3.040   0.628  17.160  0.9387  0.3147  0.2386
  315MPD2    C3 4788   3.042   0.695  17.039 -0.0244 -0.5845  0.3194
  315MPD2    C4 4789   2.988   0.630  16.928 -0.2319 -0.4673  0.9000
  315MPD2    C5 4790   2.945   0.499  16.943  0.5732  0.1474 -0.5663
  315MPD2     H 4791   3.075   0.680  17.248  0.9945  2.0439 -0.7887
  315MPD2    H1 4792   2.986   0.670  16.827 -1.0599  1.5654  1.7198
  315MPD2    H2 4793   2.911   0.329  17.070  0.0109 -0.3538 -0.3345
  315MPD2    H3 4794   2.904   0.449  16.856 -0.6486  1.1619 -0.5811
  315MPD2     N 4795   3.085   0.829  17.034 -0.2611  0.2743  0.4732
  315MPD2    H5 4796   3.109   0.864  17.127  1.1416  1.7479 -0.4507
  315MPD2    N1 4797   3.007   0.439  17.306  0.1231 -0.2187 -0.1133
  315MPD2    H7 4798   3.071   0.478  17.374  0.7766  3.2413 -2.7106
  316TMC3    C1 4799   3.139   1.043  16.949 -0.4595  0.2060  0.4088
  316TMC3    C2 4800   3.225   1.063  17.053 -0.2378  0.6312 -0.0784
  316TMC3    C3 4801   3.215   1.187  17.116 -0.1905 -0.3785  0.3763
  316TMC3    C4 4802   3.062   1.136  16.897  0.0438  0.2287 -0.1702
  316TMC3    C5 4803   3.077   1.268  16.940 -0.1123 -0.4078 -0.5844
  316TMC3    C6 4804   3.149   1.295  17.053  0.3421 -0.5380 -0.2748
  316TMC3     C 4805   3.091   0.912  16.921 -0.2341 -0.5444  0.8953
  316TMC3     O 4806   3.043   0.892  16.810  0.1459 -0.3072  0.4615
  316TMC3     H 4807   3.286   0.982  17.091  0.2193  0.8273 -0.3929
  316TMC3    H1 4808   3.011   1.101  16.807 -1.1254  2.0742 -0.2385
  316TMC3    H2 4809   3.174   1.398  17.078  1.3171 -0.4744 -1.5183
  316TMC3    C7 4810   2.972   1.364  16.901  0.2388 -0.3341 -0.5560
  316TMC3    C8 4811   3.275   1.233  17.243  0.2753 -0.2037  0.1464
  316TMC3    O1 4812   2.937   1.456  16.972  0.0884 -0.4025  0.3971
  316TMC3    O2 4813   3.234   1.341  17.285  0.4110  0.2533  0.7339
  317MPD2     C 4814   0.326   4.193  13.208 -0.4735  0.1771  0.4637
  317MPD2    C1 4815   0.395   4.080  13.180  0.0510  0.5491 -0.3095
  317MPD2    C2 4816   0.469   4.017  13.277  0.6608 -0.4925 -0.1281
  317MPD2    C3 4817   0.468   4.056  13.408 -0.6912  0.2407 -0.1547
  317MPD2    C4 4818   0.395   4.170  13.436  0.3881 -0.0836  0.4824
  317MPD2    C5 4819   0.331   4.246  13.338  0.2832  1.1324 -0.3982
  317MPD2     H 4820   0.524   3.927  13.249  1.5455 -0.1730  0.5755
  317MPD2    H1 4821   0.389   4.208  13.538 -0.0747  1.5623 -0.1591
  317MPD2    H2 4822   0.285   4.255  13.129 -0.2010 -0.3169 -0.0668
  317MPD2    H3 4823   0.281   4.340  13.357 -0.4988  0.7037 -0.3207
  317MPD2     N 4824   0.534   3.984  13.502  0.4489 -0.4798  0.0553
  317MPD2    H5 4825   0.583   3.900  13.472  0.9217  0.0846 -0.7873
  317MPD2    N1 4826   0.404   4.023  13.054 -0.8034 -0.3373 -0.0036
  317MPD2    H7 4827   0.476   3.952  13.046 -0.7617 -0.4902  1.5904
  318TMC3    C1 4828   0.588   3.880  13.709  0.2907 -0.2544  0.1928
  318TMC3    C2 4829   0.531   3.761  13.678 -0.5954 -0.3055  0.4504
  318TMC3    C3 4830   0.549   3.653  13.765  0.1958  0.4920 -0.4670
  318TMC3    C4 4831   0.669   3.895  13.822  0.4406 -0.5482 -0.4505
  318TMC3    C5 4832   0.680   3.787  13.905  0.3628 -0.6474 -0.4275
  318TMC3    C6 4833   0.626   3.668  13.876  0.1233 -0.2093 -0.0917
  318TMC3     C 4834   0.551   4.002  13.635  0.0923  0.0916  0.4327
  318TMC3     O 4835   0.545   4.105  13.699  0.1174  0.3695 -0.6146
  318TMC3     H 4836   0.468   3.768  13.590 -0.2451  0.5371  0.2632
  318TMC3    H1 4837   0.706   3.994  13.846  0.4986 -0.2233 -1.8604
  318TMC3    H2 4838   0.641   3.586  13.945  2.9053  0.1011 -0.3352
  318TMC3    C7 4839   0.793   3.791  14.003 -0.5423 -0.3538 -1.2079
  318TMC3    C8 4840   0.502   3.520  13.732  1.1679  0.4332  1.0373
  318TMC3    O1 4841   0.816   3.891  14.069 -0.7442  0.1220 -0.4007
  318TMC3    O2 4842   0.531   3.426  13.804  0.4607 -0.4365 -0.5135
  319MPD2     C 4843   1.502   0.196  15.963  0.1258  0.5569 -0.3236
  319MPD2    C1 4844   1.477   0.192  16.100  0.0003  0.5308 -0.0792
  319MPD2    C2 4845   1.348   0.230  16.137  0.1850 -0.1287  0.1288
  319MPD2    C3 4846   1.250   0.271  16.046  0.1562  0.2532 -0.1784
  319MPD2    C4 4847   1.280   0.266  15.907 -0.0020 -0.2307 -0.1397
  319MPD2    C5 4848   1.401   0.224  15.866 -0.4138 -0.0892 -0.2783
  319MPD2     H 4849   1.338   0.247  16.243  0.8433 -1.8498  0.4700
  319MPD2    H1 4850   1.207   0.288  15.830 -1.3380 -1.8704  0.6524
  319MPD2    H2 4851   1.600   0.168  15.926 -1.1607 -0.9066 -2.6073
  319MPD2    H3 4852   1.419   0.221  15.759  1.2117 -0.0211 -0.0036
  319MPD2     N 4853   1.119   0.299  16.088 -0.3021 -0.0529 -0.1055
  319MPD2    H5 4854   1.045   0.311  16.019 -0.9342 -1.0970  0.3746
  319MPD2    N1 4855   1.578   0.168  16.205 -0.2310 -0.0493 -0.6671
  319MPD2    H7 4856   1.552   0.189  16.301  0.1123  1.5630 -0.9429
  320TMC3    C1 4857   0.930   0.313  16.243 -0.3221 -0.2395  0.0564
  320TMC3    C2 4858   0.866   0.407  16.164  0.4762 -0.2623 -0.3565
  320TMC3    C3 4859   0.735   0.435  16.204  0.2398  1.0578  0.0420
  320TMC3    C4 4860   0.883   0.259  16.356 -0.0059 -0.1915 -0.0905
  320TMC3    C5 4861   0.754   0.295  16.389  0.8156  0.5482  0.0205
  320TMC3    C6 4862   0.679   0.384  16.316  0.3136  0.0297 -0.2086
  320TMC3     C 4863   1.072   0.280  16.221  0.3745  0.1467  0.4032
  320TMC3     O 4864   1.140   0.260  16.321 -0.2709  0.2794  0.6547
  320TMC3     H 4865   0.909   0.458  16.079 -0.8914  0.0475 -0.8670
  320TMC3    H1 4866   0.943   0.188  16.411 -0.8079 -0.5585  0.3052
  320TMC3    H2 4867   0.581   0.424  16.340  0.8214  1.1644 -0.0136
  320TMC3    C7 4868   0.682   0.190  16.445  0.3159 -0.4092 -0.1193
  320TMC3    C8 4869   0.664   0.556  16.155  0.5764 -0.1716 -0.0916
  320TMC3    O1 4870   0.729   0.076  16.432 -0.3161  0.5422  0.4077
  320TMC3    O2 4871   0.625   0.636  16.242  0.0736 -0.3637 -0.1507
  321TMC3    C1 4872   1.791   0.114  16.286  0.9385 -0.5662  0.3374
  321TMC3    C2 4873   1.876   0.009  16.312 -0.4350  0.2748 -0.3124
  321TMC3    C3 4874   1.981   0.022  16.408  0.1604  0.4714 -0.3449
  321TMC3    C4 4875   1.794   0.231  16.356 -0.2875 -0.3799  0.8033
  321TMC3    C5 4876   1.886   0.237  16.460  0.1186  0.3038  0.4843
  321TMC3    C6 4877   1.984   0.140  16.475  0.3237 -0.4075 -0.1015
  321TMC3     C 4878   1.697   0.105  16.177  0.1716  0.5340  0.4848
  321TMC3     O 4879   1.718   0.035  16.081  0.2251 -0.1572 -0.1674
  321TMC3     H 4880   1.868   4.656  16.256  0.2401 -0.0094  0.0552
  321TMC3    H1 4881   1.714   0.303  16.353  1.4107  1.4792  0.2436
  321TMC3    H2 4882   2.068   0.165  16.539  0.5147  0.2735 -0.6241
  321TMC3    C7 4883   1.843   0.306  16.577 -0.2779  0.4072  0.8500
  321TMC3    C8 4884   1.998   4.656  16.507  0.7854 -0.2564 -0.6936
  321TMC3    O1 4885   1.775   0.406  16.572  0.1463 -0.1943 -0.1059
  321TMC3    O2 4886   1.900   4.640  16.579  0.5688  0.3941 -0.3050
  322MPD2     C 4887   0.594   2.239  13.563  0.6983 -0.3057  0.4767
  322MPD2    C1 4888   0.516   2.147  13.640 -0.6135 -0.2985 -0.5495
  322MPD2    C2 4889   0.493   2.027  13.577 -0.4270 -0.3410  0.4012
  322MPD2    C3 4890   0.550   2.000  13.456 -0.0561  0.0284  0.6631
  322MPD2    C4 4891   0.617   2.091  13.382  0.4966  0.7172 -0.0182
  322MPD2    C5 4892   0.645   2.213  13.443 -0.1385  0.5340 -0.0596
  322MPD2     H 4893   0.421   1.955  13.615  1.1064 -1.5863  0.9860
  322MPD2    H1 4894   0.640   2.075  13.277  1.5935 -1.9176  0.6173
  322MPD2    H2 4895   0.620   2.336  13.602  1.7771 -0.6318  0.5617
  322MPD2    H3 4896   0.691   2.284  13.376 -3.5676  0.2758 -2.7060
  322MPD2     N 4897   0.515   1.876  13.400  0.4685  0.0878  0.0210
  322MPD2    H5 4898   0.440   1.831  13.452 -0.7036  1.1834 -0.7195
  322MPD2    N1 4899   0.484   2.178  13.774  0.0279  0.2677  0.0935
  322MPD2    H7 4900   0.515   2.263  13.820  2.2490  0.7069 -2.1712
  323TMC3    C1 4901   0.389   2.128  13.987  0.5788  0.3305 -0.1290
  323TMC3    C2 4902   0.489   2.204  14.041  0.4197 -0.5620 -0.1237
  323TMC3    C3 4903   0.481   2.228  14.174 -0.2305 -0.6769  0.0323
  323TMC3    C4 4904   0.295   2.065  14.064  0.4226 -0.5287 -0.0229
  323TMC3    C5 4905   0.293   2.092  14.196 -1.0089  0.1133 -0.0375
  323TMC3    C6 4906   0.383   2.169  14.255  0.4643  0.0013 -0.7467
  323TMC3     C 4907   0.396   2.097  13.846 -0.7402  0.4924 -0.3645
  323TMC3     O 4908   0.315   2.015  13.807  0.3935  0.2894  0.3157
  323TMC3     H 4909   0.575   2.246  13.991  0.6830 -1.2476 -0.2461
  323TMC3    H1 4910   0.226   1.995  14.019  0.4204 -0.7966  0.3990
  323TMC3    H2 4911   0.380   2.182  14.362 -1.0490  1.5486 -0.9744
  323TMC3    C7 4912   0.275   1.969  14.265  0.3055  0.8117 -0.0977
  323TMC3    C8 4913   0.607   2.242  14.242 -0.0847 -0.2435  0.5389
  323TMC3    O1 4914   0.297   1.865  14.203 -0.1577 -0.5631 -0.4563
  323TMC3    O2 4915   0.702   2.200  14.179  0.6813 -0.5489 -0.0157
  324MPD2     C 4916   1.950   2.536  14.718  0.0211 -0.2423  0.1628
  324MPD2    C1 4917   1.965   2.646  14.635 -0.2826  0.2546 -0.8895
  324MPD2    C2 4918   1.859   2.701  14.566 -0.4319  0.4868  0.1693
  324MPD2    C3 4919   1.728   2.649  14.581 -0.1439  0.8329 -0.2489
  324MPD2    C4 4920   1.717   2.539  14.664 -0.2103  0.0887 -0.4242
  324MPD2    C5 4921   1.823   2.485  14.739 -1.1221 -0.1742 -0.3631
  324MPD2     H 4922   1.868   2.782  14.494 -0.0547 -0.7372 -1.1425
  324MPD2    H1 4923   1.616   2.504  14.680  0.0015  0.6745  2.2873
  324MPD2    H2 4924   2.021   2.494  14.788  1.4782  1.0422 -0.5536
  324MPD2    H3 4925   1.804   2.411  14.817 -0.3571  1.2109  1.1219
  324MPD2     N 4926   1.606   2.694  14.520 -0.4366 -0.1558 -0.7411
  324MPD2    H5 4927   1.517   2.663  14.559  0.1699 -1.9382 -0.7960
  324MPD2    N1 4928   2.085   2.714  14.626  0.3989  0.3779  0.4505
  324MPD2    H7 4929   2.089   2.800  14.571 -2.3340 -0.6784 -1.3635
  325TMC3    C1 4930   1.472   2.813  14.363  0.3860 -0.0996  0.1596
  325TMC3    C2 4931   1.382   2.716  14.381 -0.8690  0.1327 -0.0068
  325TMC3    C3 4932   1.252   2.752  14.382  0.0919 -0.3864  0.8668
  325TMC3    C4 4933   1.443   2.947  14.363 -0.0689  0.2249  0.5545
  325TMC3    C5 4934   1.316   2.978  14.364 -0.4408 -0.3658  0.7115
  325TMC3    C6 4935   1.216   2.884  14.372 -0.1301  0.7143 -1.2645
  325TMC3     C 4936   1.605   2.781  14.409 -0.5580  0.3935  0.5799
  325TMC3     O 4937   1.688   2.853  14.358 -0.1569 -0.0823  0.0063
  325TMC3     H 4938   1.410   2.611  14.379  1.1315  0.6477  0.3922
  325TMC3    H1 4939   1.522   3.020  14.355  0.3935 -0.7310 -3.6557
  325TMC3    H2 4940   1.118   2.913  14.336 -0.4692  1.0744 -0.0239
  325TMC3    C7 4941   1.277   3.118  14.368  0.2096  0.4600  0.2065
  325TMC3    C8 4942   1.153   2.646  14.358 -0.0252  0.3999 -0.7547
  325TMC3    O1 4943   1.314   3.189  14.279 -0.4134 -0.4423  0.0593
  325TMC3    O2 4944   1.189   2.538  14.313 -0.1450  0.0592 -0.0808
  326MPD2     C 4945   3.240   3.894  11.203  0.3563  0.3309  0.3720
  326MPD2    C1 4946   3.190   3.963  11.095  0.0451 -0.1061  0.5629
  326MPD2    C2 4947   3.258   4.071  11.053  0.5019  0.0118  0.2203
  326MPD2    C3 4948   3.372   4.117  11.114 -0.2479 -0.2419  0.1559
  326MPD2    C4 4949   3.428   4.047  11.215 -0.7007 -0.8440 -1.1394
  326MPD2    C5 4950   3.361   3.940  11.262  0.3534  0.2641 -0.0786
  326MPD2     H 4951   3.214   4.139  10.981 -0.2649 -1.4954 -0.7500
  326MPD2    H1 4952   3.517   4.073  11.271 -0.8050 -0.1644 -1.2883
  326MPD2    H2 4953   3.205   3.805  11.253  2.1834 -0.7575 -0.2961
  326MPD2    H3 4954   3.403   3.898  11.353  2.0426 -2.9045 -2.3457
  326MPD2     N 4955   3.431   4.239  11.064 -0.2906 -0.2914 -0.3558
  326MPD2    H5 4956   3.400   4.276  10.975 -0.1679  0.7872  0.0558
  326MPD2    N1 4957   3.068   3.933  11.026  0.2806 -0.0447  0.3145
  326MPD2    H7 4958   3.043   3.994  10.949 -3.2184 -0.7088  0.9292
  327TMC3    C1 4959   2.877   3.823  10.968 -0.1830  0.7241 -0.3948
  327TMC3    C2 4960   2.809   3.938  10.947 -0.0813  1.0126 -0.2047
  327TMC3    C3 4961   2.775   3.973  10.820 -0.1681 -0.4178 -0.2457
  327TMC3    C4 4962   2.903   3.739  10.862  0.0193  0.2102 -0.7181
  327TMC3    C5 4963   2.884   3.783  10.732 -0.8044  0.2083 -0.1672
  327TMC3    C6 4964   2.818   3.904  10.711 -0.4682  0.5280  0.6262
  327TMC3     C 4965   2.984   3.834  11.065  0.3678 -0.2106 -0.3707
  327TMC3     O 4966   2.993   3.754  11.154 -0.3238  0.2392 -0.1129
  327TMC3     H 4967   2.808   4.004  11.033  0.8896  0.2871  0.3759
  327TMC3    H1 4968   2.953   3.643  10.874  1.2449  0.9767  0.3577
  327TMC3    H2 4969   2.806   3.944  10.611 -0.7429 -0.9870  0.0516
  327TMC3    C7 4970   2.997   3.763  10.645  0.3732 -0.4950 -0.2838
  327TMC3    C8 4971   2.724   4.107  10.795 -0.2770  0.7923  0.1745
  327TMC3    O1 4972   2.977   3.763  10.527 -0.6808 -0.2270  0.3780
  327TMC3    O2 4973   2.740   4.161  10.687 -0.1293 -0.2186  0.2785
  328MPD2     C 4974   0.839   3.917  17.145  0.7605  0.4139  0.4175
  328MPD2    C1 4975   0.706   3.916  17.098 -0.4016 -0.4649  0.2920
  328MPD2    C2 4976   0.656   4.038  17.052  0.0703 -0.4131 -0.5814
  328MPD2    C3 4977   0.732   4.154  17.064  0.1094  0.2224 -0.4321
  328MPD2    C4 4978   0.853   4.155  17.125  0.2428 -0.2906 -0.0999
  328MPD2    C5 4979   0.914   4.036  17.153  0.4501 -0.6044 -0.2613
  328MPD2     H 4980   0.555   4.032  17.014  0.8782  2.2453 -3.1172
  328MPD2    H1 4981   0.910   4.246  17.138 -2.4913  1.4500 -0.3560
  328MPD2    H2 4982   0.882   3.825  17.180  1.6668  0.1723 -1.3250
  328MPD2    H3 4983   1.013   4.039  17.198 -0.1465 -2.6981  1.1709
  328MPD2     N 4984   0.681   4.279  17.021  0.8363  0.1369  0.1332
  328MPD2    H5 4985   0.728   4.367  17.039 -0.5206  1.1096 -1.0696
  328MPD2    N1 4986   0.630   3.797  17.090  0.0967  0.0518 -0.2425
  328MPD2    H7 4987   0.667   3.717  17.141 -0.1796  1.0490  1.5355
  329TMC3    C1 4988   0.439   3.672  17.048 -0.2902  0.3235 -0.1708
  329TMC3    C2 4989   0.442   3.650  17.181 -0.0995 -0.5209  0.0842
  329TMC3    C3 4990   0.327   3.649  17.245 -0.4045 -0.5709 -0.8306
  329TMC3    C4 4991   0.316   3.673  16.984 -0.3485  0.4262  0.7326
  329TMC3    C5 4992   0.203   3.659  17.052  0.4465 -0.1556  0.4452
  329TMC3    C6 4993   0.205   3.650  17.190  0.5105 -0.0678 -0.3952
  329TMC3     C 4994   0.537   3.764  16.995 -1.1896  0.3752  0.1021
  329TMC3     O 4995   0.513   3.816  16.887 -0.0856 -0.5848 -0.4117
  329TMC3     H 4996   0.534   3.654  17.238  0.3500  1.2128 -0.7508
  329TMC3    H1 4997   0.320   3.711  16.882 -0.2600 -1.0603  0.1799
  329TMC3    H2 4998   0.110   3.650  17.241  0.9542  3.4653  0.4518
  329TMC3    C7 4999   0.080   3.623  16.984 -0.1894 -0.3927  0.0189
  329TMC3    C8 5000   0.342   3.670  17.388 -0.1121 -0.1877  0.1608
  329TMC3    O1 5001   4.717   3.636  17.048  0.4965 -0.0988  0.1932
  329TMC3    O2 5002   0.442   3.630  17.446  0.2091  0.2800 -0.1125
  330TMC3    C1 5003   3.656   3.716   9.434 -0.5652  0.2968  0.0386
  330TMC3    C2 5004   3.572   3.614   9.402 -0.4596 -0.0721  0.5726
  330TMC3    C3 5005   3.591   3.493   9.467  0.6276 -0.1710 -0.4791
  330TMC3    C4 5006   3.748   3.705   9.532 -0.0848  0.8728 -0.0990
  330TMC3    C5 5007   3.764   3.587   9.590  0.1062  0.7159  0.0659
  330TMC3    C6 5008   3.701   3.474   9.550 -0.1582 -0.6325 -0.1229
  330TMC3     C 5009   3.624   3.848   9.388  0.2560 -0.6789  0.0274
  330TMC3     O 5010   3.718   3.914   9.345 -0.3000  0.3583 -0.1934
  330TMC3     H 5011   3.479   3.629   9.348  0.7506  3.4198 -0.5386
  330TMC3    H1 5012   3.812   3.787   9.564 -2.3433  1.8507  1.9790
  330TMC3    H2 5013   3.709   3.375   9.592  0.4378 -0.1615  0.8631
  330TMC3    C7 5014   3.880   3.573   9.669  0.4840  0.7047  0.2793
  330TMC3    C8 5015   3.486   3.389   9.467 -0.0379 -0.8024 -0.4237
  330TMC3    O1 5016   3.980   3.623   9.620  0.2018  0.6164 -0.1606
  330TMC3    O2 5017   3.462   3.325   9.568 -0.3298 -0.0042 -0.4620
  331MPD2     C 5018   1.496   2.556  12.747  0.4195 -0.2549 -0.3833
  331MPD2    C1 5019   1.424   2.461  12.682  0.0635  0.2664 -0.2357
  331MPD2    C2 5020   1.450   2.322  12.700  0.0030  0.7891 -0.1889
  331MPD2    C3 5021   1.540   2.285  12.797  0.1694 -0.0268  0.0536
  331MPD2    C4 5022   1.604   2.383  12.875 -0.2380 -0.3473  0.0061
  331MPD2    C5 5023   1.577   2.519  12.850 -0.2466  0.0065 -0.3198
  331MPD2     H 5024   1.404   2.246  12.638  1.8259  0.7910 -1.5521
  331MPD2    H1 5025   1.678   2.369  12.952 -0.9227 -1.6148  0.4297
  331MPD2    H2 5026   1.461   2.657  12.734 -0.8844 -0.4641  1.5727
  331MPD2    H3 5027   1.614   2.604  12.906  0.3775 -1.4830  1.5557
  331MPD2     N 5028   1.558   2.147  12.804 -0.1368 -0.5773 -0.2777
  331MPD2    H5 5029   1.523   2.098  12.722 -0.2333 -2.0469  0.6328
  331MPD2    N1 5030   1.335   2.507  12.583  0.6485 -0.0863  0.0207
  331MPD2    H7 5031   1.346   2.602  12.548 -1.5435  0.4710  0.8642
  332TMC3    C1 5032   1.604   1.934  12.870  0.3461 -0.1362  0.2361
  332TMC3    C2 5033   1.498   1.890  12.792 -0.1248 -0.1592 -0.6554
  332TMC3    C3 5034   1.466   1.755  12.796 -0.1622  0.0312  0.2011
  332TMC3    C4 5035   1.686   1.844  12.944 -0.1350  0.7215  0.0836
  332TMC3    C5 5036   1.647   1.710  12.937  0.2208 -0.3456  0.0692
  332TMC3    C6 5037   1.546   1.663  12.857 -0.0528  0.3258  0.3583
  332TMC3     C 5038   1.628   2.076  12.900 -0.2963  0.7194  0.1712
  332TMC3     O 5039   1.697   2.113  12.995  0.8356  0.7186 -0.2415
  332TMC3     H 5040   1.431   1.953  12.734 -1.4536 -0.2826  0.7115
  332TMC3    H1 5041   1.755   1.873  13.022 -0.9565  4.7016 -0.6745
  332TMC3    H2 5042   1.527   1.558  12.837  1.8297  0.1490 -0.5260
  332TMC3    C7 5043   1.749   1.616  12.979 -0.3670 -0.2222  0.5545
  332TMC3    C8 5044   1.356   1.700  12.717 -0.9208  0.5097  0.3965
  332TMC3    O1 5045   1.710   1.499  12.977 -0.1225  0.8895  0.1562
  332TMC3    O2 5046   1.339   1.758  12.610 -0.2340  0.5001  0.4467
  333MPD2     C 5047   1.594   2.679  11.400  0.5101  0.3473  0.4736
  333MPD2    C1 5048   1.620   2.614  11.285  0.3632  0.1292 -0.1792
  333MPD2    C2 5049   1.542   2.504  11.256  0.1488 -0.2736 -0.6543
  333MPD2    C3 5050   1.438   2.472  11.337  0.0583  0.0662  0.7716
  333MPD2    C4 5051   1.425   2.534  11.461  0.1666 -0.2329 -0.1199
  333MPD2    C5 5052   1.511   2.639  11.493 -0.5013  0.5031 -0.6349
  333MPD2     H 5053   1.553   2.449  11.163 -1.2922 -0.4750 -0.7141
  333MPD2    H1 5054   1.348   2.500  11.530  0.1621 -0.7100 -0.3553
  333MPD2    H2 5055   1.660   2.759  11.430 -1.0593  1.0603  2.0276
  333MPD2    H3 5056   1.507   2.693  11.586 -2.1689 -0.6324 -0.0412
  333MPD2     N 5057   1.365   2.356  11.297 -0.3380  0.3901 -0.4125
  333MPD2    H5 5058   1.380   2.309  11.208 -1.0888  1.5429 -1.1504
  333MPD2    N1 5059   1.723   2.658  11.196  0.1633 -0.2806  0.1361
  333MPD2    H7 5060   1.758   2.752  11.211  1.0531 -0.7810  1.1364
  334TMC3    C1 5061   1.859   2.671  11.003 -0.6900  0.4747 -0.3517
  334TMC3    C2 5062   1.946   2.599  10.929 -0.7123  0.6443  0.2227
  334TMC3    C3 5063   2.021   2.669  10.840  0.2715  0.1773 -0.5489
  334TMC3    C4 5064   1.836   2.804  10.983  0.3662 -0.2053  0.2228
  334TMC3    C5 5065   1.893   2.867  10.876  0.0305  0.3409  0.2213
  334TMC3    C6 5066   1.992   2.804  10.808  0.0634  0.6080 -0.0717
  334TMC3     C 5067   1.771   2.592  11.084  0.0003  0.0512 -0.0160
  334TMC3     O 5068   1.763   2.475  11.064 -0.0468 -0.1689 -0.4865
  334TMC3     H 5069   1.977   2.498  10.953 -1.4945  0.1029 -1.0275
  334TMC3    H1 5070   1.771   2.863  11.047 -0.2985 -1.0711  0.3428
  334TMC3    H2 5071   2.028   2.847  10.715 -0.1902  0.4438 -0.2486
  334TMC3    C7 5072   1.864   3.006  10.842  0.3187 -0.4441  0.4436
  334TMC3    C8 5073   2.067   2.578  10.736  0.0403  0.3060 -0.8053
  334TMC3    O1 5074   1.953   3.075  10.785  0.2084  0.4148 -0.4059
  334TMC3    O2 5075   2.006   2.475  10.705  0.0226 -0.0875  0.7167
  335TMC3    C1 5076   1.162   4.103  17.636  0.3717 -0.6789 -0.9910
  335TMC3    C2 5077   1.124   4.010  17.542 -1.2692  0.2752 -0.0161
  335TMC3    C3 5078   1.205   3.999  17.435 -0.6269  0.3567 -0.4229
  335TMC3    C4 5079   1.284   4.164  17.644  0.4698 -0.1515  0.2360
  335TMC3    C5 5080   1.372   4.138  17.541 -0.1744  0.2545  0.1777
  335TMC3    C6 5081   1.330   4.065  17.431  0.0611  0.1332 -0.1984
  335TMC3     C 5082   1.062   4.135  17.734 -0.6016 -0.0686  0.7227
  335TMC3     O 5083   1.082   4.244   0.040 -0.4156  0.0742 -0.0120
  335TMC3     H 5084   1.026   3.966  17.527 -0.5422 -1.0918 -0.7251
  335TMC3    H1 5085   1.308   4.244  17.713 -1.7530 -0.2639  1.1315
  335TMC3    H2 5086   1.407   4.032  17.362 -1.7975  0.5040 -2.4511
  335TMC3    C7 5087   1.518   4.109  17.566  0.1521 -0.6727 -0.1495
  335TMC3    C8 5088   1.192   3.887  17.341  0.4472  0.0098 -0.7825
  335TMC3    O1 5089   1.597   4.135  17.475 -0.4315  0.5620  0.1841
  335TMC3    O2 5090   1.256   3.901  17.236  0.3103  0.2717 -0.1951
  336MPD2     C 5091   0.827   1.463  16.193  0.2927 -0.0706  0.1336
  336MPD2    C1 5092   0.799   1.395  16.072 -0.5933 -0.4246 -0.7341
  336MPD2    C2 5093   0.804   1.255  16.073 -0.7461  0.6094 -0.1588
  336MPD2    C3 5094   0.861   1.192  16.181 -0.0329  0.9409  0.1322
  336MPD2    C4 5095   0.889   1.262  16.299 -0.4081  0.3796  0.8856
  336MPD2    C5 5096   0.868   1.398  16.301  0.0929 -0.8970 -0.3527
  336MPD2     H 5097   0.788   1.197  15.982 -0.1693 -0.4468  0.4085
  336MPD2    H1 5098   0.918   1.213  16.391  3.2897 -0.5395 -0.7866
  336MPD2    H2 5099   0.791   1.565  16.201 -2.3625 -1.1186  1.7664
  336MPD2    H3 5100   0.873   1.454  16.394 -0.4572 -1.8043  0.2344
  336MPD2     N 5101   0.891   1.055  16.196 -0.2193 -0.1089 -0.0643
  336MPD2    H5 5102   0.927   1.022  16.285  0.3955  1.1652  0.1520
  336MPD2    N1 5103   0.739   1.461  15.958  0.0204  0.8640 -0.4171
  336MPD2    H7 5104   0.698   1.405  15.884 -0.0294 -0.3533  0.5497
  337TMC3    C1 5105   0.633   1.621  15.814  0.0526 -0.9609 -0.0753
  337TMC3    C2 5106   0.528   1.547  15.777 -0.4864  0.1712  0.2247
  337TMC3    C3 5107   0.432   1.605  15.693 -0.0969  0.4719 -0.3434
  337TMC3    C4 5108   0.642   1.754  15.781  0.2665  0.1553 -0.0451
  337TMC3    C5 5109   0.543   1.811  15.699  0.3382 -0.5052 -0.4180
  337TMC3    C6 5110   0.437   1.740  15.663 -0.1216  0.0465  0.3062
  337TMC3     C 5111   0.706   1.593  15.942 -0.0454  0.1993 -0.4408
  337TMC3     O 5112   0.727   1.694  16.010 -0.3806 -0.3945  0.1779
  337TMC3     H 5113   0.505   1.448  15.815 -3.1439  1.0203  0.8175
  337TMC3    H1 5114   0.730   1.805  15.816  2.1020 -2.9300 -0.2276
  337TMC3    H2 5115   0.378   1.783  15.583  1.1002  2.3083  0.6242
  337TMC3    C7 5116   0.583   1.916  15.611  0.4672  0.3923 -0.0336
  337TMC3    C8 5117   0.307   1.531  15.663 -0.9302  0.5258  0.2041
  337TMC3    O1 5118   0.536   1.908  15.496  0.5591 -0.2005  0.5280
  337TMC3    O2 5119   0.310   1.414  15.688 -0.4813 -0.3752 -0.0997
  338MPD2     C 5120   1.693   1.259   0.994 -0.3441  0.0606 -0.1060
  338MPD2    C1 5121   1.587   1.177   0.962  0.1364 -0.5772 -0.6945
  338MPD2    C2 5122   1.493   1.161   1.055  0.4527  0.3014  0.2820
  338MPD2    C3 5123   1.484   1.248   1.163 -0.3820 -0.1290  0.0670
  338MPD2    C4 5124   1.590   1.335   1.196  0.2300 -0.0159  0.2490
  338MPD2    C5 5125   1.693   1.334   1.110 -0.1987  0.4440  0.1540
  338MPD2     H 5126   1.420   1.083   1.036  0.6646 -0.7573  3.8567
  338MPD2    H1 5127   1.594   1.396   1.286 -0.0469 -1.9404  1.5872
  338MPD2    H2 5128   1.777   1.280   0.929 -0.4483 -0.7767 -0.5086
  338MPD2    H3 5129   1.776   1.402   1.128 -0.1549 -0.2679  2.6245
  338MPD2     N 5130   1.371   1.232   1.245  0.5590  0.1364  0.5968
  338MPD2    H5 5131   1.307   1.155   1.228  0.5414  0.1289  0.6996
  338MPD2    N1 5132   1.570   1.101   0.838 -0.5263 -0.2728  0.4574
  338MPD2    H7 5133   1.498   1.030   0.829 -0.8744  0.2281 -0.5787
  339TMC3    C1 5134   1.218   1.283   1.414  0.0012  0.0401 -0.3459
  339TMC3    C2 5135   1.197   1.148   1.427 -0.9429 -0.0296  0.3794
  339TMC3    C3 5136   1.064   1.114   1.442  1.3844  0.4848 -0.3127
  339TMC3    C4 5137   1.117   1.379   1.408  0.3195  0.0505  0.1278
  339TMC3    C5 5138   0.986   1.336   1.394 -0.1672  0.0829  0.2001
  339TMC3    C6 5139   0.959   1.201   1.409 -0.2403 -0.1523  0.1729
  339TMC3     C 5140   1.332   1.330   1.333 -0.4307  0.2799 -0.5102
  339TMC3     O 5141   1.377   1.443   1.335 -0.1632 -0.1354  0.4111
  339TMC3     H 5142   1.270   1.070   1.445  1.4034  1.9613 -0.5489
  339TMC3    H1 5143   1.141   1.483   1.392 -0.3400  0.4288  1.6376
  339TMC3    H2 5144   0.856   1.166   1.407 -0.0285 -0.7505 -0.3813
  339TMC3    C7 5145   0.927   1.400   1.284 -0.1467 -0.0665 -0.2729
  339TMC3    C8 5146   1.038   0.973   1.472  0.9428  0.2095 -0.1027
  339TMC3    O1 5147   0.980   1.493   1.226 -0.6690  0.5154  0.5203
  339TMC3    O2 5148   1.128   0.893   1.453  0.3977  0.3385  0.1473
  340MPD2     C 5149   1.629   3.976  10.541  0.4100 -0.2500  0.2106
  340MPD2    C1 5150   1.710   3.950  10.432  0.5964 -0.8500  0.0641
  340MPD2    C2 5151   1.841   3.995  10.443  0.3869  0.1359  0.2410
  340MPD2    C3 5152   1.886   4.078  10.543  0.1686 -0.6482 -0.4799
  340MPD2    C4 5153   1.808   4.102  10.649  0.5978  0.0494  0.3300
  340MPD2    C5 5154   1.679   4.046  10.648  0.0666 -0.1023  0.1319
  340MPD2     H 5155   1.912   3.956  10.372  0.7580 -0.4488  0.9361
  340MPD2    H1 5156   1.844   4.148  10.740 -2.1072  1.2319  0.7880
  340MPD2    H2 5157   1.524   3.947  10.536  0.0265  1.3215 -0.9448
  340MPD2    H3 5158   1.612   4.070  10.730 -0.1587 -1.2548  0.2846
  340MPD2     N 5159   2.019   4.130  10.545 -0.1265  0.3081 -0.0738
  340MPD2    H5 5160   2.047   4.183  10.627 -1.0658 -0.7363  0.9264
  340MPD2    N1 5161   1.662   3.878  10.321 -0.2959  0.3877 -0.2492
  340MPD2    H7 5162   1.562   3.861  10.321 -0.5548  1.9326 -0.3811
  341TMC3    C1 5163   1.665   3.798  10.086  0.4564  0.5711 -0.0736
  341TMC3    C2 5164   1.559   3.715  10.102  0.1152 -0.1218  0.0897
  341TMC3    C3 5165   1.511   3.642   9.994 -0.5790  0.2403 -0.5861
  341TMC3    C4 5166   1.715   3.829   9.962 -0.0106  0.3985  0.1887
  341TMC3    C5 5167   1.657   3.763   9.856  0.1741 -0.6567 -0.1766
  341TMC3    C6 5168   1.559   3.673   9.869  0.3796 -0.5276 -0.0316
  341TMC3     C 5169   1.736   3.842  10.205 -0.4488  0.0272  0.5278
  341TMC3     O 5170   1.846   3.887  10.180  0.2405  0.1802  0.3615
  341TMC3     H 5171   1.537   3.683  10.203  3.0190 -2.4489 -0.0003
  341TMC3    H1 5172   1.815   3.868   9.946 -0.9155  1.3825 -3.1482
  341TMC3    H2 5173   1.513   3.630   9.781  0.8608 -0.9807 -0.0609
  341TMC3    C7 5174   1.735   3.739   9.735 -0.5750 -0.4624  0.4727
  341TMC3    C8 5175   1.449   3.509  10.000 -0.2298  0.6185 -0.1367
  341TMC3    O1 5176   1.732   3.622   9.702  0.3306  0.1481 -0.1068
  341TMC3    O2 5177   1.451   3.437   9.900 -0.1238  0.1876  0.1484
  342MPD2     C 5178   3.614   1.697  17.546  0.1516  0.1698  0.2162
  342MPD2    C1 5179   3.675   1.748  17.429 -0.2414 -0.4861 -0.3111
  342MPD2    C2 5180   3.643   1.874  17.386 -0.1207  0.1075  0.1674
  342MPD2    C3 5181   3.542   1.944  17.450  0.3866  0.1856  1.1268
  342MPD2    C4 5182   3.479   1.897  17.562 -0.3375 -0.1928 -0.0748
  342MPD2    C5 5183   3.516   1.772  17.610  0.2988  0.4706 -0.2878
  342MPD2     H 5184   3.673   1.910  17.288 -1.9941  0.9953 -0.0639
  342MPD2    H1 5185   3.398   1.953  17.608 -0.9804 -1.1912  0.0043
  342MPD2    H2 5186   3.629   1.595  17.579  0.2201 -0.1272 -0.7428
  342MPD2    H3 5187   3.461   1.730  17.693 -0.6623  2.8931  0.3018
  342MPD2     N 5188   3.499   2.067  17.412 -0.3086  0.1744 -0.0129
  342MPD2    H5 5189   3.446   2.113  17.486 -1.1533 -1.6736  0.5211
  342MPD2    N1 5190   3.770   1.674  17.353  0.5225 -0.1876  0.7062
  342MPD2    H7 5191   3.796   1.718  17.265  1.7058  1.2213  1.7623
  343TMC3    C1 5192   3.880   1.481  17.269  0.4960 -0.5806 -0.2857
  343TMC3    C2 5193   4.007   1.527  17.231  0.5690  0.5758 -0.2704
  343TMC3    C3 5194   4.101   1.425  17.200 -1.1539  0.5990 -0.0977
  343TMC3    C4 5195   3.843   1.350  17.269 -0.0592 -0.8106  0.0289
  343TMC3    C5 5196   3.936   1.254  17.232  0.1953  0.0831 -0.2065
  343TMC3    C6 5197   4.061   1.288  17.194 -0.4241 -0.2773  0.8276
  343TMC3     C 5198   3.808   1.546  17.375  0.2054 -0.6569  1.3875
  343TMC3     O 5199   3.789   1.484  17.481  0.4371 -0.4099  0.4109
  343TMC3     H 5200   4.035   1.631  17.235 -1.6762  1.1521  0.4589
  343TMC3    H1 5201   3.744   1.327  17.307 -0.2423 -2.9063 -1.7728
  343TMC3    H2 5202   4.137   1.211  17.184 -0.3501 -0.1093  0.1130
  343TMC3    C7 5203   3.905   1.109  17.252  0.3076 -0.9009 -0.8401
  343TMC3    C8 5204   4.233   1.463  17.170 -0.3693 -0.0153  0.3946
  343TMC3    O1 5205   4.003   1.039  17.272  0.1603 -0.4256  0.5774
  343TMC3    O2 5206   4.271   1.575  17.210  0.2977  0.2853 -0.3609
  344MPD2     C 5207   0.173   1.590  11.321 -0.1005 -0.3318 -0.4589
  344MPD2    C1 5208   0.165   1.502  11.211 -0.4728 -0.1707  0.4197
  344MPD2    C2 5209   0.241   1.522  11.094 -0.4217 -0.0047 -0.2717
  344MPD2    C3 5210   0.335   1.625  11.091 -0.2065  0.2197  0.4576
  344MPD2    C4 5211   0.353   1.704  11.206  0.5274 -0.2522 -0.8063
  344MPD2    C5 5212   0.277   1.682  11.320  0.4144 -0.0424  0.0599
  344MPD2     H 5213   0.223   1.452  11.013 -0.6142  1.8183 -1.8249
  344MPD2    H1 5214   0.434   1.777  11.201  0.7535 -0.4683 -0.3184
  344MPD2    H2 5215   0.119   1.585  11.415 -1.3337  0.6264 -1.1126
  344MPD2    H3 5216   0.302   1.738  11.409 -2.2990  2.8814 -1.0397
  344MPD2     N 5217   0.418   1.643  10.972  0.7102  0.0755  0.3267
  344MPD2    H5 5218   0.504   1.692  10.991  0.4801  0.7605 -0.4127
  344MPD2    N1 5219   0.071   1.397  11.229  0.6043  0.7722 -0.1532
  344MPD2    H7 5220   0.008   1.405  11.309 -0.6387  1.1322 -1.1706
  345TMC3    C1 5221   0.499   1.651  10.759 -0.0828 -0.2849  0.6811
  345TMC3    C2 5222   0.569   1.767  10.802 -0.2032  0.6080  0.2181
  345TMC3    C3 5223   0.658   1.814  10.708 -0.1054  0.8704  0.7315
  345TMC3    C4 5224   0.523   1.600  10.631 -0.6974  0.1796 -0.1429
  345TMC3    C5 5225   0.611   1.662  10.544 -0.0737  0.1194  0.1973
  345TMC3    C6 5226   0.678   1.771  10.584 -0.6619  0.6391 -0.4448
  345TMC3     C 5227   0.404   1.584  10.848  0.4314 -0.2628 -0.3171
  345TMC3     O 5228   0.326   1.509  10.796  0.1436 -0.4290  0.0510
  345TMC3     H 5229   0.561   1.814  10.899 -0.3702 -1.4616  1.2081
  345TMC3    H1 5230   0.467   1.514  10.598  1.4248 -1.0467 -0.5250
  345TMC3    H2 5231   0.741   1.833  10.522  1.9370 -0.6527  0.9086
  345TMC3    C7 5232   0.644   1.619  10.413 -0.6882  0.7502 -0.2202
  345TMC3    C8 5233   0.697   1.949  10.730  0.2481  0.4333 -0.0407
  345TMC3    O1 5234   0.755   1.658  10.373  0.0118 -0.3096 -0.3731
  345TMC3    O2 5235   0.688   2.029  10.635 -0.3632  0.6163 -0.0077
  346MPD2     C 5236   0.141   3.496  14.650 -0.3306 -0.0387  0.5681
  346MPD2    C1 5237   0.250   3.446  14.575  0.3224  0.3292 -0.3787
  346MPD2    C2 5238   0.359   3.410  14.652 -0.5393 -0.5032 -0.4528
  346MPD2    C3 5239   0.369   3.420  14.791  0.0418 -0.0137  0.2272
  346MPD2    C4 5240   0.255   3.476  14.857  0.0999 -0.4277  0.5374
  346MPD2    C5 5241   0.145   3.516  14.788 -0.1821  0.5491 -0.4984
  346MPD2     H 5242   0.437   3.356  14.600  0.7731  0.5495  0.4185
  346MPD2    H1 5243   0.238   3.482  14.964 -2.6998 -1.8689  0.1451
  346MPD2    H2 5244   0.042   3.512  14.608  0.1153  1.6144  0.1664
  346MPD2    H3 5245   0.059   3.555  14.841  0.8813 -0.5427  2.0527
  346MPD2     N 5246   0.483   3.358  14.856  0.1292 -0.0388  0.5015
  346MPD2    H5 5247   0.551   3.306  14.801 -2.1348 -3.2923  0.7793
  346MPD2    N1 5248   0.244   3.417  14.436  0.1989 -0.3546  0.2261
  346MPD2    H7 5249   0.315   3.359  14.392  0.0882 -0.4570  0.1836
  347TMC3    C1 5250   0.628   3.327  15.044  0.1989 -0.1691 -0.6803
  347TMC3    C2 5251   0.730   3.326  14.960  0.8544 -1.0191 -0.2625
  347TMC3    C3 5252   0.857   3.298  15.004  0.2650  0.0503 -0.0909
  347TMC3    C4 5253   0.640   3.303  15.177 -0.3580  0.0963 -0.5804
  347TMC3    C5 5254   0.762   3.261  15.221 -0.5494  0.8500 -0.7872
  347TMC3    C6 5255   0.876   3.264  15.138  0.2187 -0.1670 -0.1886
  347TMC3     C 5256   0.496   3.375  14.996 -0.0629  0.2603  0.2832
  347TMC3     O 5257   0.413   3.419  15.073 -0.4206  1.0087 -0.2281
  347TMC3     H 5258   0.713   3.346  14.855 -1.6458 -1.8423 -0.0044
  347TMC3    H1 5259   0.555   3.311  15.244  0.3092 -1.9184  0.4901
  347TMC3    H2 5260   0.978   3.250  15.173  0.3405 -0.0035 -0.4802
  347TMC3    C7 5261   0.771   3.228  15.370 -0.4189 -0.1455 -0.3597
  347TMC3    C8 5262   0.974   3.309  14.919 -0.7792 -0.4114 -0.4284
  347TMC3    O1 5263   0.661   3.221  15.432  0.4381  0.8699  0.2292
  347TMC3    O2 5264   1.085   3.266  14.961  0.0155  0.4700 -0.0907
  348MPD2     C 5265   4.454   2.946  11.921 -0.2566  0.2477 -0.0131
  348MPD2    C1 5266   4.427   2.889  11.795  0.0868  0.0629 -0.3203
  348MPD2    C2 5267   4.354   2.959  11.700  0.6645 -0.1917  0.3084
  348MPD2    C3 5268   4.324   3.089  11.729 -0.0022  0.1367 -0.0131
  348MPD2    C4 5269   4.363   3.148  11.841 -0.1758  0.0273  0.9878
  348MPD2    C5 5270   4.428   3.081  11.938  0.4313  0.2636  0.4074
  348MPD2     H 5271   4.327   2.907  11.609 -0.9504  1.6562 -0.2895
  348MPD2    H1 5272   4.339   3.251  11.866  0.6418  0.1493  1.2773
  348MPD2    H2 5273   4.506   2.895  12.001 -0.0343  1.6210  0.7110
  348MPD2    H3 5274   4.451   3.131  12.032 -1.7059  1.3482  0.3647
  348MPD2     N 5275   4.266   3.165  11.623 -0.1618 -0.6213  0.2965
  348MPD2    H5 5276   4.251   3.116  11.535  0.5377  2.2005 -1.3950
  348MPD2    N1 5277   4.456   2.752  11.769 -0.4526  0.1532 -0.3227
  348MPD2    H7 5278   4.436   2.724  11.674  0.7235  1.3515 -0.9212
  349TMC3    C1 5279   4.527   2.531  11.798 -0.2918  0.2157 -0.4804
  349TMC3    C2 5280   4.536   2.429  11.893  0.1932 -0.0316 -0.0177
  349TMC3    C3 5281   4.485   2.307  11.854  0.2656 -0.0369  0.4726
  349TMC3    C4 5282   4.470   2.519  11.677 -0.2281 -1.1063 -0.0757
  349TMC3    C5 5283   4.430   2.391  11.644  0.6577 -0.7990 -0.1093
  349TMC3    C6 5284   4.425   2.286  11.736 -0.2059  0.4300  0.4479
  349TMC3     C 5285   4.521   2.663  11.856  0.2967  0.1732  0.0960
  349TMC3     O 5286   4.547   2.675  11.975 -0.2487 -0.0468 -0.2476
  349TMC3     H 5287   4.575   2.451  11.991  0.0284 -0.9034  0.2422
  349TMC3    H1 5288   4.481   2.601  11.607 -0.8664  0.1953  1.3719
  349TMC3    H2 5289   4.398   2.186  11.706  2.3216 -0.2515  0.4354
  349TMC3    C7 5290   4.357   2.369  11.520  0.0213  0.8155  0.6513
  349TMC3    C8 5291   4.433   2.225  11.957  0.1152 -0.9016  1.0519
  349TMC3    O1 5292   4.272   2.279  11.517  0.2855  0.2716 -0.4690
  349TMC3    O2 5293   4.503   2.216  12.057  0.2698  0.1259 -0.3742
  350MPD2     C 5294   3.442   1.245  10.188  0.4221 -0.3251  0.3204
  350MPD2    C1 5295   3.377   1.129  10.207  0.3881  0.0702  0.3639
  350MPD2    C2 5296   3.319   1.099  10.329 -0.2077 -0.0965  0.2311
  350MPD2    C3 5297   3.334   1.187  10.439 -0.1242 -0.7216  0.4981
  350MPD2    C4 5298   3.400   1.302  10.413 -0.5406 -0.7314  0.7840
  350MPD2    C5 5299   3.455   1.333  10.289  0.1728  0.5271 -0.0690
  350MPD2     H 5300   3.278   1.000  10.346 -0.8883 -0.0547 -1.1704
  350MPD2    H1 5301   3.432   1.378  10.482  1.0343  2.1044 -3.0360
  350MPD2    H2 5302   3.478   1.264  10.087  1.6963  2.0892  1.2322
  350MPD2    H3 5303   3.512   1.424  10.278 -1.6513  1.8786  1.7372
  350MPD2     N 5304   3.265   1.161  10.553  0.1906  0.2558 -0.0029
  350MPD2    H5 5305   3.188   1.095  10.548  0.2076  0.2500 -0.2125
  350MPD2    N1 5306   3.368   1.024  10.111 -0.5502 -0.2383  0.2155
  350MPD2    H7 5307   3.321   0.942  10.149 -0.3739 -1.3891 -2.0244
  351TMC3    C1 5308   3.439   0.889   9.926  0.0446 -0.1040 -0.1399
  351TMC3    C2 5309   3.552   0.854   9.857  0.2351 -0.2735  0.5253
  351TMC3    C3 5310   3.550   0.739   9.792 -0.0813 -0.5280 -0.1474
  351TMC3    C4 5311   3.319   0.824   9.921 -0.1967 -0.1507  0.7059
  351TMC3    C5 5312   3.317   0.712   9.840  0.3217  0.3715 -0.6730
  351TMC3    C6 5313   3.430   0.669   9.773  0.3272  0.5551  0.4173
  351TMC3     C 5314   3.443   1.016   9.992  0.4578 -0.3776 -0.2150
  351TMC3     O 5315   3.516   1.103   9.945 -0.4438  0.1979 -0.0553
  351TMC3     H 5316   3.646   0.904   9.877 -0.4606  2.0224 -2.0627
  351TMC3    H1 5317   3.230   0.861   9.972 -1.3563 -0.9698 -0.7489
  351TMC3    H2 5318   3.425   0.587   9.702  3.0714 -0.1927  1.0605
  351TMC3    C7 5319   3.224   0.605   9.871 -0.2440 -0.3162 -0.1272
  351TMC3    C8 5320   3.666   0.660   9.790  0.2071 -0.1587 -0.1435
  351TMC3    O1 5321   3.228   0.512   9.794 -0.0806 -0.0960  0.2621
  351TMC3    O2 5322   3.647   0.553   9.737 -0.4750 -0.2189  0.1788
  352MPD2     C 5323   1.219   3.053   1.109  0.4540  0.1041  0.5486
  352MPD2    C1 5324   1.114   3.066   1.196  0.3252  0.1988  0.9471
  352MPD2    C2 5325   1.122   3.003   1.319 -0.3410 -0.0856 -0.0357
  352MPD2    C3 5326   1.227   2.921   1.348  0.1498  0.2443 -0.6618
  352MPD2    C4 5327   1.335   2.915   1.267  0.3726  0.1633  0.9452
  352MPD2    C5 5328   1.333   2.982   1.149 -1.0716  0.0630 -0.2646
  352MPD2     H 5329   1.046   3.028   1.392  1.2488  1.5351  1.0634
  352MPD2    H1 5330   1.429   2.866   1.289 -0.5215 -1.8062  0.4439
  352MPD2    H2 5331   1.218   3.083   1.005  0.9495  1.2410  0.8765
  352MPD2    H3 5332   1.418   2.989   1.082 -2.8964  1.0949 -2.4812
  352MPD2     N 5333   1.224   2.826   1.451 -0.4756  0.5952  0.8567
  352MPD2    H5 5334   1.304   2.765   1.468 -0.9537 -0.1813  0.3315
  352MPD2    N1 5335   0.999   3.134   1.151 -0.3237  0.1939  0.3944
  352MPD2    H7 5336   0.995   3.137   1.049  1.1852  3.6725  0.4365
  353TMC3    C1 5337   1.121   2.668   1.591 -0.3710 -0.2427  0.2927
  353TMC3    C2 5338   1.243   2.622   1.636 -0.1707  0.2528 -1.1652
  353TMC3    C3 5339   1.244   2.493   1.695 -0.7775  0.1188 -0.5969
  353TMC3    C4 5340   1.010   2.597   1.594  0.2716 -0.1690  0.4474
  353TMC3    C5 5341   1.016   2.475   1.650  0.3829  0.4660 -0.6187
  353TMC3    C6 5342   1.123   2.422   1.702 -0.0511  0.1841  0.0253
  353TMC3     C 5343   1.113   2.795   1.523  0.0849  0.0336 -0.4544
  353TMC3     O 5344   1.007   2.860   1.528 -0.1679 -0.0870 -0.6394
  353TMC3     H 5345   1.334   2.682   1.635  0.9896 -1.4735  0.4636
  353TMC3    H1 5346   0.923   2.637   1.544  0.2761  0.3882  0.8743
  353TMC3    H2 5347   1.114   2.323   1.745  1.6221 -0.0451 -0.1536
  353TMC3    C7 5348   0.911   2.379   1.624 -0.9239  0.2135 -0.5729
  353TMC3    C8 5349   1.367   2.411   1.698 -0.2047 -0.9058  0.7477
  353TMC3    O1 5350   0.934   2.256   1.609  0.1578 -0.3097 -0.2811
  353TMC3    O2 5351   1.461   2.462   1.642  0.2374  0.3136  0.4009
  354TMC3    C1 5352   3.089   4.180  13.519  0.4544 -0.2929  0.0726
  354TMC3    C2 5353   3.099   4.317  13.523 -0.3187  0.6250 -0.1240
  354TMC3    C3 5354   3.147   4.383  13.411  0.3017  0.1555 -0.1271
  354TMC3    C4 5355   3.127   4.113  13.412 -0.1388 -0.3802  0.1339
  354TMC3    C5 5356   3.164   4.181  13.300 -0.1119  0.3166  0.6477
  354TMC3    C6 5357   3.185   4.320  13.302 -0.0054 -0.1315 -0.4403
  354TMC3     C 5358   3.072   4.104  13.639  0.2737  0.5146 -0.3587
  354TMC3     O 5359   3.109   3.986  13.621  0.1279 -0.4872 -0.1446
  354TMC3     H 5360   3.047   4.373  13.599  1.0460  0.2106  1.1092
  354TMC3    H1 5361   3.069   4.023  13.397 -0.5502  0.0816 -1.0477
  354TMC3    H2 5362   3.235   4.376  13.224 -0.3789  1.3890  0.3951
  354TMC3    C7 5363   3.234   4.100  13.201  0.6374 -0.6528 -0.5299
  354TMC3    C8 5364   3.175   4.528  13.428  0.1136  0.1135  1.1878
  354TMC3    O1 5365   3.240   3.980  13.224  0.7842  0.1532  0.0589
  354TMC3    O2 5366   3.178   4.565  13.542 -0.5328 -0.0515  0.1789
  355MPD2     C 5367   3.208   0.738  12.031  0.7218 -0.3235 -0.8051
  355MPD2    C1 5368   3.240   0.693  11.905 -0.0643  0.2300 -0.4707
  355MPD2    C2 5369   3.339   0.596  11.893  0.0764 -0.3784 -0.3853
  355MPD2    C3 5370   3.412   0.559  12.003 -0.1894 -0.4809  0.2601
  355MPD2    C4 5371   3.372   0.595  12.128 -1.0902  0.4180 -0.0395
  355MPD2    C5 5372   3.284   0.697  12.139 -0.3177  0.5795 -0.0587
  355MPD2     H 5373   3.351   0.551  11.795  0.1670 -0.9142 -0.1311
  355MPD2    H1 5374   3.423   0.554  12.214 -1.6851 -1.1524 -0.4226
  355MPD2    H2 5375   3.131   0.814  12.043  0.4658 -0.7112 -0.0160
  355MPD2    H3 5376   3.271   0.744  12.236 -0.6519  0.6237 -0.1249
  355MPD2     N 5377   3.530   0.483  11.994 -0.7712 -0.5311 -0.2127
  355MPD2    H5 5378   3.575   0.437  12.072  1.2729  1.8959  0.0319
  355MPD2    N1 5379   3.162   0.736  11.796  0.7433  0.1335 -0.1150
  355MPD2    H7 5380   3.088   0.797  11.827  0.9815  0.7723 -0.8339
  356TMC3    C1 5381   3.731   0.415  11.898 -0.6135 -0.6930 -0.5026
  356TMC3    C2 5382   3.796   0.430  11.781  0.6770 -0.4326 -0.1066
  356TMC3    C3 5383   3.915   0.503  11.775 -0.0791  1.0939 -0.0987
  356TMC3    C4 5384   3.785   0.469  12.013 -0.6598 -0.2196  0.1572
  356TMC3    C5 5385   3.906   0.539  12.008  0.5763  1.0708 -0.0426
  356TMC3    C6 5386   3.969   0.559  11.890  0.0550 -0.4785 -0.5338
  356TMC3     C 5387   3.599   0.470  11.875  0.6920  0.0836 -0.2217
  356TMC3     O 5388   3.581   0.512  11.764  0.2324 -0.3160 -0.2092
  356TMC3     H 5389   3.760   0.392  11.687  0.1113  2.4430 -1.0483
  356TMC3    H1 5390   3.742   0.452  12.111 -2.1707  0.4780 -0.3963
  356TMC3    H2 5391   4.063   0.614  11.889 -0.4842  0.4331 -1.1270
  356TMC3    C7 5392   3.983   0.540  12.131 -0.0385 -0.1525 -1.2067
  356TMC3    C8 5393   3.945   0.560  11.651  0.6119  0.1079  0.1665
  356TMC3    O1 5394   3.973   0.432  12.195  0.3483 -0.1007  0.1644
  356TMC3    O2 5395   3.897   0.510  11.551 -0.0809  0.0441 -0.1863
  357MPD2     C 5396   2.909   4.514   0.048  0.2413  0.7258  0.2669
  357MPD2    C1 5397   2.930   4.459   0.173 -0.1162 -0.2515  0.0210
  357MPD2    C2 5398   2.825   4.477   0.265  0.7574 -0.9185  0.8319
  357MPD2    C3 5399   2.713   4.551   0.238  0.4999  0.0887  0.6807
  357MPD2    C4 5400   2.694   4.604   0.113  0.0174  0.6228  0.0805
  357MPD2    C5 5401   2.798   4.590   0.023 -0.1609  0.1662  0.3161
  357MPD2     H 5402   2.832   4.430   0.362  0.2767  1.2790  1.9369
  357MPD2    H1 5403   2.620   4.680   0.088  1.3840  2.3857  1.4065
  357MPD2    H2 5404   2.983   4.499  17.723 -0.8052 -0.2633 -0.5352
  357MPD2    H3 5405   2.785   4.638  17.681  0.4852 -2.2253 -0.9599
  357MPD2     N 5406   2.610   4.561   0.334 -0.4265 -0.0194  0.4087
  357MPD2    H5 5407   2.533   4.621   0.306 -2.1284 -1.4525  1.9899
  357MPD2    N1 5408   3.045   4.379   0.194 -0.2363  0.1288 -0.2094
  357MPD2    H7 5409   3.108   4.385   0.114  0.2306 -0.9846  0.0765
  358TMC3    C1 5410   3.180   4.213   0.290  0.4582 -0.3128  0.8351
  358TMC3    C2 5411   3.173   4.135   0.185 -0.6941 -0.3575  0.0555
  358TMC3    C3 5412   3.269   4.031   0.175 -0.4124  0.7653 -0.0219
  358TMC3    C4 5413   3.252   4.175   0.400 -0.0055  0.4295 -0.3486
  358TMC3    C5 5414   3.332   4.057   0.394 -0.0010  0.1608  0.2801
  358TMC3    C6 5415   3.350   3.997   0.275 -0.4377  0.4041  0.2193
  358TMC3     C 5416   3.084   4.313   0.307  0.6863 -0.2656  0.0501
  358TMC3     O 5417   3.037   4.332   0.414 -0.0415 -0.2702 -0.0014
  358TMC3     H 5418   3.113   4.160   0.099 -1.3820 -1.4531  0.2104
  358TMC3    H1 5419   3.228   4.233   0.489  0.0634 -1.0913  0.6754
  358TMC3    H2 5420   3.413   3.909   0.268  1.1239  1.4200  1.6149
  358TMC3    C7 5421   3.407   4.028   0.511 -0.0279 -0.4625  0.6227
  358TMC3    C8 5422   3.279   3.956   0.053 -0.2475 -1.5003 -0.5750
  358TMC3    O1 5423   3.392   4.099   0.606 -0.9726  0.3440 -0.1157
  358TMC3    O2 5424   3.387   3.905   0.026 -0.4161 -0.3070 -0.4216
  359MPD2     C 5425   3.938   3.335  12.526 -0.0829  0.3820  0.1944
  359MPD2    C1 5426   3.869   3.400  12.420  0.1680  0.1809  0.0584
  359MPD2    C2 5427   3.746   3.346  12.378 -0.3659 -0.5439  0.9482
  359MPD2    C3 5428   3.690   3.243  12.452  0.3149 -0.2471  0.6950
  359MPD2    C4 5429   3.756   3.181  12.558 -0.9767  0.3811  0.1780
  359MPD2    C5 5430   3.885   3.221  12.587  0.3943 -0.0610  0.5497
  359MPD2     H 5431   3.682   3.390  12.303 -1.6456 -2.6533  0.8245
  359MPD2    H1 5432   3.701   3.109  12.619  2.0461 -2.4548 -0.4622
  359MPD2    H2 5433   4.036   3.368  12.558 -0.2806  1.5577 -0.4281
  359MPD2    H3 5434   3.949   3.167  12.656  0.7854  0.2198  0.4108
  359MPD2     N 5435   3.562   3.195  12.429  0.3213  0.2692 -0.0646
  359MPD2    H5 5436   3.521   3.127  12.492  1.3739  1.1556  1.5727
  359MPD2    N1 5437   3.919   3.510  12.347  0.2055  0.1070  0.5557
  359MPD2    H7 5438   3.864   3.560  12.278  0.2078 -2.1348 -1.0890
  360TMC3    C1 5439   4.083   3.643  12.244  0.2709 -0.4542  0.3010
  360TMC3    C2 5440   4.193   3.729  12.265  0.1055  0.1567  0.1363
  360TMC3    C3 5441   4.228   3.818  12.172  0.5038 -0.4740  0.8825
  360TMC3    C4 5442   3.998   3.661  12.141  0.2108 -0.4955  0.2467
  360TMC3    C5 5443   4.035   3.754  12.050  0.1589  0.6901  0.8114
  360TMC3    C6 5444   4.155   3.819  12.052 -0.2735 -0.3786  0.2243
  360TMC3     C 5445   4.048   3.553  12.349  0.2441 -0.2960 -0.2250
  360TMC3     O 5446   4.138   3.534  12.432  0.3983 -0.2883  0.4909
  360TMC3     H 5447   4.267   3.708  12.342 -1.5173  1.1440  1.9488
  360TMC3    H1 5448   3.913   3.597  12.121 -0.9947  1.2318 -0.1473
  360TMC3    H2 5449   4.169   3.895  11.976  0.1485 -0.8054 -0.1205
  360TMC3    C7 5450   3.968   3.752  11.919  0.3595 -0.5639 -0.4690
  360TMC3    C8 5451   4.375   3.829  12.151  0.0979  0.4086 -0.0615
  360TMC3    O1 5452   3.970   3.856  11.859 -0.6680  0.3706 -0.2548
  360TMC3    O2 5453   4.452   3.832  12.246 -0.5487  0.3549  0.0611
  361MPD2     C 5454   0.893   2.785  16.633 -0.1222  0.1811  0.1706
  361MPD2    C1 5455   0.817   2.807  16.749 -0.3263  0.3901  0.1092
  361MPD2    C2 5456   0.808   2.703  16.840 -0.5822  0.5457 -0.2090
  361MPD2    C3 5457   0.867   2.583  16.818 -0.4885  0.3718  0.5046
  361MPD2    C4 5458   0.936   2.563  16.698 -0.1142 -0.7357 -0.5550
  361MPD2    C5 5459   0.946   2.664  16.606  0.3575  0.0867  0.2014
  361MPD2     H 5460   0.751   2.716  16.932 -2.3072 -2.8440 -0.8008
  361MPD2    H1 5461   0.969   2.463  16.672 -2.4949 -1.6952  0.0943
  361MPD2    H2 5462   0.905   2.868  16.564 -0.7875  0.1937  0.0726
  361MPD2    H3 5463   0.988   2.646  16.508 -1.8366 -1.1054 -0.5209
  361MPD2     N 5464   0.849   2.473  16.903  0.4040  0.2630  0.4120
  361MPD2    H5 5465   0.875   2.382  16.866 -0.6155 -0.0199  0.3940
  361MPD2    N1 5466   0.748   2.923  16.784 -0.1370 -0.0756  0.1299
  361MPD2    H7 5467   0.701   2.921  16.873 -2.2888 -2.7802 -1.0548
  362TMC3    C1 5468   0.670   3.150  16.764 -0.0436  0.0288 -0.4319
  362TMC3    C2 5469   0.647   3.153  16.902 -1.0598 -1.3320  0.1047
  362TMC3    C3 5470   0.571   3.252  16.953  0.1032  0.0556 -0.4302
  362TMC3    C4 5471   0.636   3.251  16.684 -0.5858  0.6167  0.3319
  362TMC3    C5 5472   0.556   3.349  16.746 -0.6655  0.0577 -1.1582
  362TMC3    C6 5473   0.525   3.357  16.884 -0.0082 -0.5609 -0.4939
  362TMC3     C 5474   0.738   3.033  16.704 -0.4409 -0.1408 -0.3052
  362TMC3     O 5475   0.770   3.040  16.590  0.1529 -0.2112 -0.5336
  362TMC3     H 5476   0.691   3.073  16.960  0.5742  0.0695  0.8273
  362TMC3    H1 5477   0.648   3.248  16.576  0.0372 -2.1907  0.4932
  362TMC3    H2 5478   0.473   3.445  16.921  1.7763 -1.1684  3.5238
  362TMC3    C7 5479   0.466   3.429  16.668  0.1800  0.2678 -0.2317
  362TMC3    C8 5480   0.523   3.239  17.083 -0.0617  0.0478 -0.6462
  362TMC3    O1 5481   0.361   3.464  16.723 -0.3470  0.5306 -0.2074
  362TMC3    O2 5482   0.594   3.182  17.164  0.2009  0.3835  0.0398
  363TMC3    C1 5483   4.574   1.127   9.881 -0.8874 -0.1817 -0.0416
  363TMC3    C2 5484   4.633   1.011   9.932  0.2767  0.3874  0.3823
  363TMC3    C3 5485   4.553   0.909   9.971 -0.5647  0.0204 -0.5980
  363TMC3    C4 5486   4.443   1.132   9.839 -0.6121  0.2372  0.5805
  363TMC3    C5 5487   4.370   1.013   9.874  0.1060  0.1384  0.6613
  363TMC3    C6 5488   4.423   0.903   9.939  0.1692 -0.3689 -0.3186
  363TMC3     C 5489   4.660   1.225   9.820 -0.2049 -0.3513  0.5638
  363TMC3     O 5490   0.032   1.183   9.788  0.3492  0.6600  0.0031
  363TMC3     H 5491   0.001   1.009   9.952  0.1875 -2.0437  0.6861
  363TMC3    H1 5492   4.413   1.215   9.777 -2.1015 -0.6753  0.0831
  363TMC3    H2 5493   4.355   0.830   9.979  0.6431 -0.9119 -0.4988
  363TMC3    C7 5494   4.239   0.999   9.827  0.1211  0.8552 -0.8885
  363TMC3    C8 5495   4.601   0.774  10.025 -0.0486 -0.0254 -0.5793
  363TMC3    O1 5496   4.174   1.101   9.825  0.2516  0.3465  0.4263
  363TMC3    O2 5497   4.539   0.681   9.986  0.3832 -0.2380 -0.2916
  364MPD2     C 5498   2.568   4.566  10.971 -0.2700  1.1692  0.4002
  364MPD2    C1 5499   2.654   4.539  10.868  0.6696 -0.0105  0.2218
  364MPD2    C2 5500   2.695   4.407  10.843 -0.3769 -0.4485 -0.6408
  364MPD2    C3 5501   2.641   4.302  10.922 -0.0179 -0.1946  0.3384
  364MPD2    C4 5502   2.551   4.340  11.023 -0.4956  0.1750 -0.4724
  364MPD2    C5 5503   2.508   4.465  11.043 -0.1544 -0.3033  0.8274
  364MPD2     H 5504   2.767   4.389  10.763 -0.7626  1.9649 -1.5507
  364MPD2    H1 5505   2.492   4.262  11.070  0.5762 -0.6755 -0.5615
  364MPD2    H2 5506   2.537   4.670  10.981 -2.8169  0.4900 -0.5066
  364MPD2    H3 5507   2.434   4.489  11.120 -0.5919  0.8994  0.0385
  364MPD2     N 5508   2.662   4.163  10.906  0.5756  0.3815  0.3056
  364MPD2    H5 5509   2.629   4.097  10.976 -0.2080  1.0950  0.6093
  364MPD2    N1 5510   2.707   4.654  10.799 -0.1336  0.1290  0.2061
  364MPD2    H7 5511   2.679   0.007  10.832  1.7175  0.9979 -0.5837
  365TMC3    C1 5512   2.849   0.047  10.652  0.5747  0.6911 -0.4182
  365TMC3    C2 5513   2.969   0.046  10.583 -0.5728 -0.2003 -0.2572
  365TMC3    C3 5514   3.014   0.164  10.528  0.2389  0.1709  0.0041
  365TMC3    C4 5515   2.777   0.156  10.670 -0.2305  0.5863  0.1701
  365TMC3    C5 5516   2.823   0.274  10.616  0.5728  0.1378  0.0133
  365TMC3    C6 5517   2.938   0.281  10.540 -0.1651 -1.0544  0.0316
  365TMC3     C 5518   2.797   4.656  10.692 -0.3361  0.0496 -0.1758
  365TMC3     O 5519   2.840   4.559  10.639  0.0330  0.2408  0.7015
  365TMC3     H 5520   3.027   4.693  10.578 -2.4994 -1.4153 -0.0935
  365TMC3    H1 5521   2.675   0.141  10.702 -0.1128  4.1835  2.2901
  365TMC3    H2 5522   2.965   0.378  10.500 -0.0780 -1.2788 -0.4544
  365TMC3    C7 5523   2.732   0.382  10.625  0.6452  0.6572  0.8088
  365TMC3    C8 5524   3.105   0.167  10.418 -0.4574  0.3113 -0.5332
  365TMC3    O1 5525   2.737   0.478  10.545  0.3633 -0.0424 -0.2082
  365TMC3    O2 5526   3.095   0.256  10.337  0.1777 -0.7610 -0.2400
  366MPD2     C 5527   0.429   0.797  15.142 -0.2435 -0.2740  0.2210
  366MPD2    C1 5528   0.532   0.887  15.112 -0.3099  0.9084  0.1538
  366MPD2    C2 5529   0.659   0.837  15.081  0.5577  0.0702  0.4928
  366MPD2    C3 5530   0.686   0.704  15.086 -0.5603 -0.1635 -0.3044
  366MPD2    C4 5531   0.584   0.617  15.114  0.0178 -0.2551  1.0430
  366MPD2    C5 5532   0.458   0.662  15.139 -0.1107 -0.2436  0.5596
  366MPD2     H 5533   0.739   0.909  15.073 -0.1056  0.7830  0.3104
  366MPD2    H1 5534   0.594   0.512  15.138  1.2547 -0.0429  1.4535
  366MPD2    H2 5535   0.328   0.832  15.163 -0.5398 -1.8092  1.4544
  366MPD2    H3 5536   0.386   0.586  15.166 -1.4212  0.3880 -1.1205
  366MPD2     N 5537   0.823   0.659  15.083 -0.0568  0.4493 -0.1605
  366MPD2    H5 5538   0.901   0.724  15.083 -0.7852  1.3367  1.1137
  366MPD2    N1 5539   0.515   1.027  15.121  0.0928 -0.8186 -0.3772
  366MPD2    H7 5540   0.592   1.090  15.100 -0.1766 -0.5241 -0.4758
  367TMC3    C1 5541   0.419   1.227  15.188 -0.8218  1.0420 -0.9262
  367TMC3    C2 5542   0.526   1.256  15.264 -0.1986 -0.1161 -0.1693
  367TMC3    C3 5543   0.530   1.385  15.314 -0.2763 -0.5557  0.0004
  367TMC3    C4 5544   0.322   1.321  15.162  0.9008 -0.2293  0.6134
  367TMC3    C5 5545   0.339   1.452  15.210 -0.2437 -0.0996  0.0050
  367TMC3    C6 5546   0.442   1.481  15.291  0.3057  0.0551  0.6030
  367TMC3     C 5547   0.396   1.088  15.144 -0.2711  0.2359  0.5693
  367TMC3     O 5548   0.293   1.057  15.084  0.5738 -0.0449  0.2062
  367TMC3     H 5549   0.607   1.188  15.286 -1.4559 -1.5911 -0.1529
  367TMC3    H1 5550   0.227   1.287  15.123 -0.0395  2.1037  0.9167
  367TMC3    H2 5551   0.448   1.577  15.340  0.3356  1.5171 -2.2667
  367TMC3    C7 5552   0.249   1.563  15.183 -0.4308  0.2700  0.4581
  367TMC3    C8 5553   0.642   1.418  15.403 -0.2482 -0.1779 -0.0937
  367TMC3    O1 5554   0.247   1.663  15.252  0.1843  0.3055  0.0085
  367TMC3    O2 5555   0.681   1.317  15.464 -0.1744 -0.0764 -0.5171
  368MPD2     C 5556   1.938   2.562  13.277 -0.1480  0.0574 -0.9572
  368MPD2    C1 5557   1.949   2.665  13.186 -0.3515  0.0808 -0.0602
  368MPD2    C2 5558   2.075   2.681  13.118 -0.7839 -0.3756 -1.6092
  368MPD2    C3 5559   2.180   2.593  13.140  0.4277  0.1482  0.0881
  368MPD2    C4 5560   2.161   2.494  13.242 -0.1886 -0.0942 -0.2907
  368MPD2    C5 5561   2.040   2.483  13.313  0.0366  0.2425  0.0986
  368MPD2     H 5562   2.087   2.747  13.033  1.9350  0.9298 -0.2130
  368MPD2    H1 5563   2.240   2.426  13.269  0.3850  0.8817  0.4848
  368MPD2    H2 5564   1.844   2.547  13.328  1.0097  0.0130  1.1611
  368MPD2    H3 5565   2.020   2.409  13.390  1.3509 -0.3249 -0.1076
  368MPD2     N 5566   2.288   2.578  13.046  0.1951 -0.0569 -0.3180
  368MPD2    H5 5567   2.371   2.525  13.072  0.3152  0.3893  0.2190
  368MPD2    N1 5568   1.832   2.742  13.152  0.3170 -0.0060 -0.1127
  368MPD2    H7 5569   1.743   2.714  13.192  1.5549 -2.4354  0.8942
  369TMC3    C1 5570   1.686   2.878  13.019 -0.3876 -0.3724 -0.1170
  369TMC3    C2 5571   1.666   2.928  12.894 -0.3549 -0.0812 -0.5391
  369TMC3    C3 5572   1.536   2.942  12.856  0.0412 -0.5952  0.1201
  369TMC3    C4 5573   1.583   2.850  13.100 -0.0728 -0.4750  0.2461
  369TMC3    C5 5574   1.456   2.878  13.057 -1.1549 -0.5626 -0.0336
  369TMC3    C6 5575   1.428   2.932  12.941 -0.1100 -0.8631  0.6460
  369TMC3     C 5576   1.825   2.846  13.064  0.1265 -0.6162 -0.0864
  369TMC3     O 5577   1.910   2.923  13.021  0.0654  0.0510 -0.1544
  369TMC3     H 5578   1.755   2.957  12.839 -1.1159  1.4881 -0.9521
  369TMC3    H1 5579   1.598   2.805  13.197  1.6750  2.0364  1.1421
  369TMC3    H2 5580   1.335   2.972  12.902  0.8584  0.2177 -0.5767
  369TMC3    C7 5581   1.355   2.861  13.162  0.3470 -0.4223  0.7078
  369TMC3    C8 5582   1.537   3.054  12.763  0.2978 -0.2916  0.4877
  369TMC3    O1 5583   1.397   2.822  13.273 -0.1208 -0.0831  0.5181
  369TMC3    O2 5584   1.460   3.146  12.794  0.6172  0.7616 -0.2786
  370TMC3    C1 5585   1.343   3.249  16.419  0.2390  0.0426 -0.2620
  370TMC3    C2 5586   1.316   3.165  16.526  0.0460  0.0500  0.3141
  370TMC3    C3 5587   1.286   3.030  16.518  0.2370  0.1204  0.5586
  370TMC3    C4 5588   1.370   3.186  16.302 -0.4581 -0.1915  0.0973
  370TMC3    C5 5589   1.358   3.047  16.298  0.0144  0.0086 -0.2144
  370TMC3    C6 5590   1.312   2.969  16.401 -0.3616 -0.2998 -0.3092
  370TMC3     C 5591   1.424   3.360  16.456 -0.6260  0.6325 -0.1960
  370TMC3     O 5592   1.457   3.356  16.574  0.4595  0.3044 -0.3187
  370TMC3     H 5593   1.301   3.210  16.623 -3.0775 -0.8040  0.2447
  370TMC3    H1 5594   1.423   3.242  16.226  0.1214 -0.0951  0.5690
  370TMC3    H2 5595   1.301   2.862  16.387  2.8605 -1.1013  3.2781
  370TMC3    C7 5596   1.395   2.990  16.179  0.2650 -0.3252  0.1405
  370TMC3    C8 5597   1.256   2.950  16.634 -0.0789  0.4590  0.1250
  370TMC3    O1 5598   1.424   3.059  16.084  0.9327  0.4498  0.0291
  370TMC3    O2 5599   1.276   2.829  16.628 -0.8185  0.0104 -0.0090
  371TMC3    C1 5600   2.777   1.572  15.570  0.5538 -0.1846 -0.3477
  371TMC3    C2 5601   2.663   1.551  15.639  0.1809  0.1302 -0.1531
  371TMC3    C3 5602   2.584   1.656  15.693  0.2191 -0.2435 -0.4464
  371TMC3    C4 5603   2.835   1.694  15.556  0.1097  0.3358  0.2797
  371TMC3    C5 5604   2.754   1.794  15.610  0.0267  0.3295 -0.4949
  371TMC3    C6 5605   2.629   1.781  15.671 -0.3103 -0.6001 -0.0771
  371TMC3     C 5606   2.855   1.462  15.506 -0.2537 -0.5987 -0.4127
  371TMC3     O 5607   2.957   1.494  15.453  0.4129  0.3243  0.1715
  371TMC3     H 5608   2.626   1.450  15.657 -2.7058  1.2629  0.3744
  371TMC3    H1 5609   2.930   1.713  15.509  0.8236 -0.3385  1.4483
  371TMC3    H2 5610   2.586   1.871  15.713 -1.1444 -0.6489 -0.8419
  371TMC3    C7 5611   2.806   1.924  15.605 -0.1918 -0.3465  0.2955
  371TMC3    C8 5612   2.461   1.613  15.762  0.5827  0.2784  0.1222
  371TMC3    O1 5613   2.779   1.994  15.702  0.1827  0.1457  0.0634
  371TMC3    O2 5614   2.441   1.493  15.778  0.4997 -0.2484 -0.3181
  372MPD2     C 5615   1.993   3.018  13.351 -0.3545 -0.1208 -0.0200
  372MPD2    C1 5616   2.099   2.931  13.365 -0.0636 -0.1754 -0.2049
  372MPD2    C2 5617   2.094   2.838  13.469 -0.0162  0.1289  0.4345
  372MPD2    C3 5618   1.983   2.819  13.555 -0.5786 -0.3269 -0.0546
  372MPD2    C4 5619   1.883   2.912  13.544 -0.7033  0.0153  0.0010
  372MPD2    C5 5620   1.896   3.011  13.443 -0.1085  0.1927  0.6274
  372MPD2     H 5621   2.180   2.772  13.476 -0.9978 -1.2464 -0.4182
  372MPD2    H1 5622   1.799   2.906  13.612 -1.8182 -0.7841 -1.4130
  372MPD2    H2 5623   1.989   3.088  13.269  0.7148  0.4454  0.4108
  372MPD2    H3 5624   1.820   3.088  13.442  1.2428  1.5334  1.6431
  372MPD2     N 5625   1.987   2.709  13.641  0.4425  0.6886  0.0746
  372MPD2    H5 5626   2.076   2.660  13.649  0.3804  0.6391  0.4663
  372MPD2    N1 5627   2.214   2.932  13.279  0.4556  0.6175 -0.0909
  372MPD2    H7 5628   2.273   2.851  13.297  1.6142  1.0383 -1.9680
  373TMC3    C1 5629   1.926   2.561  13.812  0.8602 -0.1849 -0.8740
  373TMC3    C2 5630   1.911   2.581  13.950 -0.6788 -0.3850 -0.6284
  373TMC3    C3 5631   1.957   2.476  14.030 -0.4996  0.5720  0.1078
  373TMC3    C4 5632   1.976   2.451  13.754 -0.3651  0.4323 -0.7248
  373TMC3    C5 5633   2.032   2.365  13.835 -0.1493 -0.7817 -0.6564
  373TMC3    C6 5634   2.015   2.361  13.975 -0.2769 -0.1964 -0.0636
  373TMC3     C 5635   1.889   2.675  13.734  0.3036 -0.1678  0.6249
  373TMC3     O 5636   1.785   2.730  13.764  0.1809 -0.5280  0.4858
  373TMC3     H 5637   1.878   2.676  13.991 -1.0254 -1.1118  0.7939
  373TMC3    H1 5638   1.974   2.446  13.646 -0.2773  2.4586 -0.8083
  373TMC3    H2 5639   2.085   2.302  14.033  0.9786  2.6894  1.3363
  373TMC3    C7 5640   2.157   2.294  13.785  0.2387  0.0000  0.0216
  373TMC3    C8 5641   2.008   2.533  14.154 -0.1736  0.2489 -0.7281
  373TMC3    O1 5642   2.251   2.271  13.864 -0.1870 -0.4169  0.2898
  373TMC3    O2 5643   2.002   2.656  14.161  0.8019  0.3432  0.0094
  374TMC3    C1 5644   3.158   3.379   9.823  0.6295 -0.9041 -0.4717
  374TMC3    C2 5645   3.268   3.456   9.803 -0.3119 -0.0997  0.1943
  374TMC3    C3 5646   3.265   3.527   9.686  0.8698  0.7278 -0.0935
  374TMC3    C4 5647   3.059   3.358   9.731  0.5348 -0.2335  0.0616
  374TMC3    C5 5648   3.062   3.441   9.618 -0.7661  0.2462  0.1691
  374TMC3    C6 5649   3.166   3.522   9.593 -0.0804  0.0355  0.7628
  374TMC3     C 5650   3.164   3.291   9.934 -0.6163  0.2709 -0.2834
  374TMC3     O 5651   3.092   3.193   9.926 -0.2817  0.0232  0.5774
  374TMC3     H 5652   3.347   3.458   9.877 -0.9058  1.9496  0.7840
  374TMC3    H1 5653   2.990   3.276   9.748 -4.0375  3.5408 -0.1850
  374TMC3    H2 5654   3.173   3.588   9.507  1.9372  1.3888  1.9752
  374TMC3    C7 5655   2.954   3.439   9.521 -1.2107  0.2100 -0.5903
  374TMC3    C8 5656   3.341   3.649   9.679 -0.2226 -0.4932  0.6729
  374TMC3    O1 5657   2.975   3.501   9.420  0.8073  0.1629  0.1602
  374TMC3    O2 5658   3.297   3.747   9.616 -0.1880  0.5229  0.2129
  375MPD2     C 5659   2.449   3.157  17.242  0.5886  0.1062 -0.0118
  375MPD2    C1 5660   2.415   3.253  17.156  0.3124  0.0032  0.9099
  375MPD2    C2 5661   2.469   3.255  17.031  0.0594 -0.4648  0.5243
  375MPD2    C3 5662   2.565   3.169  16.992 -0.2641  0.2960  0.9795
  375MPD2    C4 5663   2.613   3.076  17.083  0.6539  0.4764  0.4492
  375MPD2    C5 5664   2.550   3.070  17.204 -1.2436  0.1991  0.9999
  375MPD2     H 5665   2.449   3.338  16.964 -0.7938 -0.7911  0.3769
  375MPD2    H1 5666   2.699   3.014  17.064  0.6980 -0.1870  2.8080
  375MPD2    H2 5667   2.393   3.136  17.333  0.5002  0.3768 -0.0045
  375MPD2    H3 5668   2.587   3.005  17.282  2.5925  0.5866 -0.4722
  375MPD2     N 5669   2.624   3.166  16.864 -0.5198  0.2827  0.3775
  375MPD2    H5 5670   2.709   3.112  16.853  0.4797  2.0078 -0.3924
  375MPD2    N1 5671   2.308   3.348  17.187  0.5552  0.9296 -0.0364
  375MPD2    H7 5672   2.277   3.408  17.111 -1.5503  0.0101  0.1004
  376TMC3    C1 5673   2.642   3.226  16.642  0.4022  0.2319 -0.5166
  376TMC3    C2 5674   2.775   3.217  16.643  0.3586  0.4456  0.6021
  376TMC3    C3 5675   2.832   3.227  16.513 -0.6629  0.6046  0.3446
  376TMC3    C4 5676   2.568   3.229  16.526  0.5665  0.1176  0.2211
  376TMC3    C5 5677   2.630   3.230  16.402 -0.1607  0.2195  0.3414
  376TMC3    C6 5678   2.766   3.248  16.395  0.5101 -0.5864 -0.4811
  376TMC3     C 5679   2.571   3.226  16.761 -0.1697  0.3130  0.9057
  376TMC3     O 5680   2.461   3.285  16.745 -0.6335  0.3829 -0.2486
  376TMC3     H 5681   2.831   3.212  16.736 -0.3394  0.9434  1.0535
  376TMC3    H1 5682   2.461   3.212  16.530  0.2889  1.6716 -0.6314
  376TMC3    H2 5683   2.819   3.249  16.301 -1.4896 -3.0521 -1.6602
  376TMC3    C7 5684   2.551   3.259  16.284 -0.6775 -0.8727  0.2864
  376TMC3    C8 5685   2.974   3.255  16.508  0.5312 -0.2291 -0.0536
  376TMC3    O1 5686   2.606   3.239  16.175 -0.2952 -0.1662  0.4309
  376TMC3    O2 5687   3.013   3.335  16.420 -0.5188 -0.2650 -0.3947
  377MPD2     C 5688   0.929   3.336  12.301 -0.5986  0.3037 -0.8069
  377MPD2    C1 5689   0.977   3.259  12.393  0.0607  0.2994 -0.3532
  377MPD2    C2 5690   0.901   3.221  12.501 -0.5140  0.8322 -0.1292
  377MPD2    C3 5691   0.773   3.271  12.517  0.0456 -0.1090  0.1903
  377MPD2    C4 5692   0.734   3.369  12.432 -0.4468  0.1125  0.2696
  377MPD2    C5 5693   0.805   3.394  12.316  0.0995  0.2194  0.3277
  377MPD2     H 5694   0.943   3.158  12.579  1.5741  2.5130  0.1149
  377MPD2    H1 5695   0.639   3.420  12.441 -0.2773  0.1838  1.6879
  377MPD2    H2 5696   0.988   3.359  12.213 -0.3651  1.5814 -0.3208
  377MPD2    H3 5697   0.761   3.459  12.242  0.6351  3.2771  2.6749
  377MPD2     N 5698   0.685   3.230  12.618  0.2226  0.1236 -0.2958
  377MPD2    H5 5699   0.592   3.270  12.622  0.1840 -0.2167  1.8692
  377MPD2    N1 5700   1.116   3.223  12.374  0.6837  0.1161  0.1057
  377MPD2    H7 5701   1.159   3.242  12.284 -0.8104 -1.5210 -0.9609
  378TMC3    C1 5702   1.416   3.081  12.183  0.3120  0.9606 -0.4407
  378TMC3    C2 5703   1.351   3.152  12.280 -0.6527  0.2420 -0.4537
  378TMC3    C3 5704   1.307   3.082  12.389 -0.1654  0.3974  0.3972
  378TMC3    C4 5705   1.462   2.952  12.204  0.1130 -1.1581 -0.6761
  378TMC3    C5 5706   1.439   2.896  12.327 -0.6193  0.2155  0.7606
  378TMC3    C6 5707   1.351   2.956  12.417 -0.3768 -0.8799  0.4393
  378TMC3     C 5708   1.460   3.145  12.063  0.4665  0.0098 -0.0395
  378TMC3     O 5709   1.402   3.250  12.044 -0.0437 -0.3074  0.1749
  378TMC3     H 5710   1.322   3.250  12.244 -0.6944  0.0104 -1.0453
  378TMC3    H1 5711   1.513   2.896  12.126  0.8866 -0.0450 -0.9769
  378TMC3    H2 5712   1.328   2.925  12.518  0.4651 -0.2772  0.8123
  378TMC3    C7 5713   1.515   2.784  12.388  0.4668  0.6437  0.0660
  378TMC3    C8 5714   1.185   3.125  12.449 -0.2208 -0.4324  0.3824
  378TMC3    O1 5715   1.456   2.734  12.479 -0.3651  0.0462 -0.1622
  378TMC3    O2 5716   1.150   3.068  12.547  0.4001  0.2787  0.9264
  379MPD2     C 5717   1.729   1.316  15.970 -0.2315 -0.4956 -0.2189
  379MPD2    C1 5718   1.638   1.295  16.075  0.0754 -0.1949  0.7386
  379MPD2    C2 5719   1.678   1.213  16.177  0.0416 -0.3522  0.0208
  379MPD2    C3 5720   1.804   1.151  16.178  0.5467  0.3363  0.5429
  379MPD2    C4 5721   1.890   1.178  16.080 -0.3743 -0.0085  0.0982
  379MPD2    C5 5722   1.856   1.266  15.980 -0.2891  0.4247 -0.0883
  379MPD2     H 5723   1.610   1.208  16.261 -0.5303 -1.0576 -0.4896
  379MPD2    H1 5724   1.983   1.123  16.072 -0.7038 -0.3688 -1.2813
  379MPD2    H2 5725   1.711   1.388  15.891 -0.8197  0.0239  0.3884
  379MPD2    H3 5726   1.912   1.273  15.888 -0.9446  1.2327 -0.4338
  379MPD2     N 5727   1.848   1.052  16.280 -0.2200  0.9172 -0.0902
  379MPD2    H5 5728   1.939   1.018  16.252 -0.3743  1.3428 -1.1154
  379MPD2    N1 5729   1.514   1.364  16.077  0.2375 -0.8529 -0.2976
  379MPD2    H7 5730   1.489   1.414  15.992 -0.2849  0.1148  0.4200
  380TMC3    C1 5731   1.287   1.384  16.120  0.7320 -0.7956  0.2505
  380TMC3    C2 5732   1.211   1.267  16.135  0.1290 -0.0074  0.1958
  380TMC3    C3 5733   1.132   1.231  16.033 -0.0188 -0.7863 -0.3630
  380TMC3    C4 5734   1.276   1.472  16.014  0.3874 -0.2953  0.3824
  380TMC3    C5 5735   1.171   1.445  15.933  0.6289 -0.2493  0.6831
  380TMC3    C6 5736   1.102   1.331  15.939 -0.5906  0.5950  0.0696
  380TMC3     C 5737   1.417   1.366  16.175 -0.5060  0.0900 -0.1758
  380TMC3     O 5738   1.416   1.309  16.278  0.6297  0.2377  0.3179
  380TMC3     H 5739   1.226   1.201  16.219 -0.7751  0.7690  0.9787
  380TMC3    H1 5740   1.351   1.550  16.008 -0.7128  0.6241 -1.2682
  380TMC3    H2 5741   1.048   1.297  15.851  2.7378 -1.3636 -1.2263
  380TMC3    C7 5742   1.140   1.535  15.812 -0.3316  0.3831 -0.6899
  380TMC3    C8 5743   1.181   1.110  15.968 -0.2227 -0.0479  0.2665
  380TMC3    O1 5744   1.206   1.637  15.807 -0.8177  0.5544 -0.0321
  380TMC3    O2 5745   1.176   1.106  15.846  0.3866 -0.3078 -0.1130
  381TMC3    C1 5746   1.260   2.306  16.490  0.4240  0.5871  0.1933
  381TMC3    C2 5747   1.341   2.403  16.450  0.1114  0.1872  0.4179
  381TMC3    C3 5748   1.375   2.496  16.545 -0.6477 -0.3444  0.0140
  381TMC3    C4 5749   1.213   2.286  16.613 -0.1866  0.0493  0.2080
  381TMC3    C5 5750   1.241   2.389  16.701  0.4895  0.1403  0.0987
  381TMC3    C6 5751   1.329   2.486  16.672 -0.2929 -0.2382 -0.1030
  381TMC3     C 5752   1.209   2.203  16.398 -0.4849  0.8725 -0.5480
  381TMC3     O 5753   1.164   2.098  16.436 -0.5095 -0.3413 -0.3649
  381TMC3     H 5754   1.388   2.404  16.353  0.4533 -0.9276  0.5718
  381TMC3    H1 5755   1.154   2.200  16.644  0.1392  0.1491  1.1150
  381TMC3    H2 5756   1.350   2.559  16.750 -0.1637 -0.2244 -0.1503
  381TMC3    C7 5757   1.235   2.354  16.847 -0.0389  0.0024 -0.0749
  381TMC3    C8 5758   1.503   2.559  16.507 -0.3979 -1.2848 -0.0424
  381TMC3    O1 5759   1.265   2.236  16.871 -0.8441  0.1913 -0.2050
  381TMC3    O2 5760   1.575   2.493  16.431  0.0198  0.8243  0.0548
  382MPD2     C 5761   1.046   0.474  17.735 -0.7685 -0.2388 -0.8499
  382MPD2    C1 5762   1.027   0.380   0.081  0.1951 -0.1171 -0.3828
  382MPD2    C2 5763   1.022   0.248   0.051  0.0226  0.6923  0.2687
  382MPD2    C3 5764   1.044   0.203  17.671 -0.0212  0.5456  0.2988
  382MPD2    C4 5765   1.045   0.300  17.569 -0.4289  0.1371 -0.0284
  382MPD2    C5 5766   1.049   0.432  17.603 -0.0975  0.1822  0.0879
  382MPD2     H 5767   1.002   0.186   0.138  1.4517 -0.8035 -0.4625
  382MPD2    H1 5768   1.037   0.278  17.463 -2.7026 -1.6826  0.5318
  382MPD2    H2 5769   1.058   0.580  17.750 -0.4965 -0.2214 -1.2013
  382MPD2    H3 5770   1.065   0.507  17.526 -0.8775 -0.6351 -0.8709
  382MPD2     N 5771   1.040   0.072  17.625  0.2434  0.2057  0.2318
  382MPD2    H5 5772   1.078   0.053  17.534  0.0712 -0.3791  0.2850
  382MPD2    N1 5773   1.008   0.415   0.221  0.2692  0.2873  0.3085
  382MPD2    H7 5774   1.005   0.344   0.293  2.1820 -0.0928  0.0094
  383TMC3    C1 5775   1.021   4.582  17.655  0.0685  0.2609  0.1908
  383TMC3    C2 5776   0.903   4.510  17.643  0.1310 -0.9631 -0.0070
  383TMC3    C3 5777   0.887   4.418  17.551  0.2897 -0.9999  0.1682
  383TMC3    C4 5778   1.117   4.564  17.561  0.4461  0.0153 -0.5251
  383TMC3    C5 5779   1.102   4.461  17.468  0.5858  0.5367 -0.2342
  383TMC3    C6 5780   0.992   4.380  17.465  1.0175 -1.0397 -0.3943
  383TMC3     C 5781   1.006   4.714  17.714  0.2438  0.0661 -0.8070
  383TMC3     O 5782   0.931   4.716   0.054  0.1077 -0.1228  0.0466
  383TMC3     H 5783   0.814   4.539  17.698 -0.8169  1.2075 -2.7386
  383TMC3    H1 5784   1.204   4.627  17.569 -0.4737  1.1703  0.4664
  383TMC3    H2 5785   0.980   4.322  17.374  4.1151 -1.1737 -0.7445
  383TMC3    C7 5786   1.200   4.429  17.375  0.4493 -0.0988  0.5585
  383TMC3    C8 5787   0.752   4.367  17.527 -0.1722  0.0853 -1.0388
  383TMC3    O1 5788   1.196   4.317  17.329  0.0578 -0.0474 -0.3168
  383TMC3    O2 5789   0.659   4.443  17.529  0.5291 -0.3301 -0.3256
  384MPD2     C 5790   2.654   1.135  12.654 -0.4179 -0.3614  0.0100
  384MPD2    C1 5791   2.618   1.016  12.706 -0.0083 -0.5980 -0.2537
  384MPD2    C2 5792   2.680   0.903  12.654  0.2684 -0.0924 -0.1750
  384MPD2    C3 5793   2.764   0.905  12.543  0.0668  0.2735 -0.0246
  384MPD2    C4 5794   2.786   1.029  12.487 -0.3766  0.5792 -0.0924
  384MPD2    C5 5795   2.733   1.139  12.549 -0.0942 -0.3676 -0.4788
  384MPD2     H 5796   2.654   0.807  12.699  1.5122 -0.7441 -0.8453
  384MPD2    H1 5797   2.851   1.036  12.400 -0.7101 -1.8844 -0.5376
  384MPD2    H2 5798   2.605   1.225  12.691 -1.5522 -0.6850 -0.6887
  384MPD2    H3 5799   2.735   1.239  12.507 -0.9098  0.7624  2.1789
  384MPD2     N 5800   2.803   0.793  12.465  0.9095  0.0151 -0.2134
  384MPD2    H5 5801   2.853   0.815  12.380  0.4216  1.2058 -0.1960
  384MPD2    N1 5802   2.521   0.994  12.806 -0.1611  0.1200  0.0102
  384MPD2    H7 5803   2.513   0.898  12.838 -0.0837  0.4694  1.0825
  385TMC3    C1 5804   2.814   0.563  12.404  0.0784 -0.3410 -0.3215
  385TMC3    C2 5805   2.753   0.584  12.286  0.2212  0.0876 -0.4470
  385TMC3    C3 5806   2.704   0.470  12.219  0.2238  0.1870  0.3810
  385TMC3    C4 5807   2.790   0.444  12.465 -0.2486  0.2662 -0.3182
  385TMC3    C5 5808   2.723   0.339  12.409 -0.4453  0.7253 -0.2350
  385TMC3    C6 5809   2.685   0.347  12.279  0.0398 -0.0645 -0.1788
  385TMC3     C 5810   2.775   0.663  12.503  0.2745  0.0041  0.4552
  385TMC3     O 5811   2.711   0.618  12.600  0.0587  0.3919 -0.1560
  385TMC3     H 5812   2.789   0.664  12.223 -2.5104 -0.3190 -2.5138
  385TMC3    H1 5813   2.825   0.415  12.563  0.4780 -1.5129 -1.1098
  385TMC3    H2 5814   2.645   0.263  12.223  0.3906 -0.4029  0.0790
  385TMC3    C7 5815   2.615   0.289  12.489  1.0341 -0.3934 -0.1434
  385TMC3    C8 5816   2.645   0.495  12.088 -0.0491  0.3837 -0.4695
  385TMC3    O1 5817   2.556   0.193  12.440 -0.1768 -0.5039 -0.4036
  385TMC3    O2 5818   2.542   0.426  12.070 -0.5160 -0.1302  0.4455
  386TMC3    C1 5819   2.157   3.204  11.661 -0.9478  0.1457  0.4896
  386TMC3    C2 5820   2.167   3.210  11.523 -0.3465  0.4193  0.0568
  386TMC3    C3 5821   2.122   3.323  11.464 -0.2193  0.2648  0.5090
  386TMC3    C4 5822   2.103   3.302  11.736 -0.3724  0.1260  0.3149
  386TMC3    C5 5823   2.057   3.410  11.670  0.4559  0.0751  0.5421
  386TMC3    C6 5824   2.063   3.427  11.530  0.5030 -0.2313 -0.2489
  386TMC3     C 5825   2.256   3.110  11.713 -0.2758  0.2712 -0.0908
  386TMC3     O 5826   2.339   3.052  11.641 -0.1184 -0.6405 -0.0634
  386TMC3     H 5827   2.213   3.124  11.475  0.1300 -0.0748  1.4058
  386TMC3    H1 5828   2.114   3.304  11.844  0.8007 -0.8178  0.2160
  386TMC3    H2 5829   2.016   3.512  11.483 -0.8088 -2.3795 -2.8322
  386TMC3    C7 5830   1.955   3.477  11.749  0.1632  0.4066 -0.0281
  386TMC3    C8 5831   2.122   3.335  11.311 -0.2176 -0.2266  0.3331
  386TMC3    O1 5832   1.964   3.462  11.868 -0.3332 -0.5632 -0.1552
  386TMC3    O2 5833   2.016   3.384  11.271 -0.2833 -0.3475 -0.2195
  387MPD2     C 5834   0.559   2.763   9.562 -0.1462  0.5727  0.2083
  387MPD2    C1 5835   0.655   2.740   9.656  0.5334 -0.2586  0.5644
  387MPD2    C2 5836   0.706   2.605   9.668  0.1728  0.2730  0.6034
  387MPD2    C3 5837   0.659   2.503   9.589 -0.0709  1.0413  0.3190
  387MPD2    C4 5838   0.566   2.537   9.489  0.3840  0.3095  0.2507
  387MPD2    C5 5839   0.527   2.662   9.477  0.9299 -0.1578  0.2683
  387MPD2     H 5840   0.777   2.586   9.748 -1.0544  1.9110  2.0664
  387MPD2    H1 5841   0.527   2.463   9.420  0.3901 -0.8214  1.4640
  387MPD2    H2 5842   0.505   2.856   9.553 -0.2308  0.6663  1.6068
  387MPD2    H3 5843   0.461   2.674   9.392  1.2608 -0.4236 -0.0273
  387MPD2     N 5844   0.706   2.379   9.632 -0.7210 -0.2021  0.2728
  387MPD2    H5 5845   0.779   2.387   9.702  1.2732  0.7082 -1.9089
  387MPD2    N1 5846   0.701   2.832   9.743  0.8553 -0.2051 -0.8138
  387MPD2    H7 5847   0.764   2.799   9.816 -1.2812 -0.7333  0.8207
  388TMC3    C1 5848   0.755   3.019   9.855 -0.7649  0.2562 -0.2583
  388TMC3    C2 5849   0.822   3.141   9.836  0.2777  0.3213  0.0568
  388TMC3    C3 5850   0.915   3.183   9.928  0.2984 -0.3212 -0.2343
  388TMC3    C4 5851   0.788   2.946   9.965 -0.6194  0.0954  0.2280
  388TMC3    C5 5852   0.898   2.983  10.044  0.1087  0.3892 -0.3312
  388TMC3    C6 5853   0.961   3.104  10.034 -0.1274  0.0067 -0.3802
  388TMC3     C 5854   0.682   2.965   9.740 -0.1106 -0.0552  0.0701
  388TMC3     O 5855   0.628   3.042   9.663  0.2776  0.6008 -0.3341
  388TMC3     H 5856   0.793   3.201   9.751 -0.8701 -0.1884  0.0865
  388TMC3    H1 5857   0.726   2.861   9.991  0.0738 -1.2226 -2.4393
  388TMC3    H2 5858   1.038   3.124  10.108  0.0084  0.3656 -0.6212
  388TMC3    C7 5859   0.944   2.877  10.131 -0.2613  0.0373  0.5577
  388TMC3    C8 5860   0.976   3.317   9.904  0.4384 -0.0909  0.5866
  388TMC3    O1 5861   0.920   2.885  10.249 -0.2361 -0.3477 -0.5202
  388TMC3    O2 5862   0.984   3.362   9.790 -0.8844  0.5577  0.0315
  389MPD2     C 5863   4.499   2.009  10.906 -0.0681 -0.3499 -0.7737
  389MPD2    C1 5864   4.421   1.895  10.876  0.0737  0.3221 -0.5047
  389MPD2    C2 5865   4.337   1.839  10.976  0.4221 -0.2550 -0.2721
  389MPD2    C3 5866   4.322   1.911  11.094 -0.1853  0.4501  0.3032
  389MPD2    C4 5867   4.394   2.021  11.121  0.5163 -0.2422 -0.2494
  389MPD2    C5 5868   4.484   2.061  11.031  0.3190 -0.5593 -0.8107
  389MPD2     H 5869   4.293   1.741  10.962  1.8875 -1.4388  3.3277
  389MPD2    H1 5870   4.377   2.066  11.218  2.2729  1.5025 -0.7583
  389MPD2    H2 5871   4.580   2.044  10.844 -0.2539 -0.0411 -0.8420
  389MPD2    H3 5872   4.555   2.141  11.046  0.4286 -0.6238 -0.9853
  389MPD2     N 5873   4.220   1.875  11.187  0.0722 -0.1671  0.0511
  389MPD2    H5 5874   4.216   1.923  11.277 -2.4565  0.3539 -0.3361
  389MPD2    N1 5875   4.432   1.839  10.745  0.0375 -0.2718 -0.3412
  389MPD2    H7 5876   4.484   1.892  10.676  0.3659 -1.5089 -1.0417
  390TMC3    C1 5877   4.049   1.748  11.296  0.9997  0.4499  0.2740
  390TMC3    C2 5878   3.998   1.621  11.311  0.2149  0.1770  0.2677
  390TMC3    C3 5879   3.937   1.584  11.425  0.1126  0.0127  0.0893
  390TMC3    C4 5880   4.028   1.846  11.393  0.1073  0.7590 -0.0716
  390TMC3    C5 5881   3.952   1.806  11.503  0.0030  0.5941 -0.2139
  390TMC3    C6 5882   3.904   1.679  11.521  0.5278  0.2680  0.7972
  390TMC3     C 5883   4.126   1.774  11.177 -0.0283  0.4120  0.0857
  390TMC3     O 5884   4.112   1.688  11.091  0.5076  0.2351  0.0215
  390TMC3     H 5885   4.026   1.537  11.247 -1.1626  1.2749 -1.7517
  390TMC3    H1 5886   4.047   1.950  11.367 -0.7944  1.5657  2.4598
  390TMC3    H2 5887   3.830   1.651  11.595 -1.5207 -0.7498 -1.6186
  390TMC3    C7 5888   3.881   1.912  11.577  0.9579 -1.1034  0.1044
  390TMC3    C8 5889   3.925   1.450  11.459 -0.4286 -0.3645 -0.0666
  390TMC3    O1 5890   3.883   2.027  11.527  0.0600 -0.1201 -1.0249
  390TMC3    O2 5891   3.923   1.371  11.368 -0.7636 -0.3421  0.6117
  391MPD2     C 5892   4.047   3.156  10.892 -0.3024  0.0482 -0.1862
  391MPD2    C1 5893   4.092   3.283  10.922 -0.4068  0.6539 -0.1495
  391MPD2    C2 5894   4.106   3.376  10.819 -0.5336 -0.3330 -0.4966
  391MPD2    C3 5895   4.066   3.346  10.690 -0.0392 -0.6027 -0.3371
  391MPD2    C4 5896   4.032   3.217  10.657  0.0188  0.8652 -0.4218
  391MPD2    C5 5897   4.035   3.123  10.764 -0.5763  0.3576  0.3144
  391MPD2     H 5898   4.140   3.474  10.848 -0.5800 -0.4184 -0.1512
  391MPD2    H1 5899   4.012   3.169  10.562 -0.3176 -1.6098  0.9046
  391MPD2    H2 5900   4.040   3.081  10.970 -1.8824 -0.3381 -0.6949
  391MPD2    H3 5901   4.024   3.020  10.732 -0.3276  0.5660 -0.4411
  391MPD2     N 5902   4.065   3.449  10.594 -0.0338 -0.2306 -0.0396
  391MPD2    H5 5903   4.085   3.544  10.625  2.6102 -1.0424  0.7207
  391MPD2    N1 5904   4.111   3.333  11.054 -0.6076  0.0464 -0.3189
  391MPD2    H7 5905   4.149   3.426  11.065 -0.2905 -0.1353  0.1026
  392TMC3    C1 5906   4.032   3.553  10.387  0.0226 -0.4427  0.1440
  392TMC3    C2 5907   3.950   3.543  10.281 -0.2759  0.7873 -0.4914
  392TMC3    C3 5908   3.913   3.667  10.231 -0.5243  0.0737  0.0623
  392TMC3    C4 5909   4.084   3.664  10.443  0.4292 -0.1641  0.0179
  392TMC3    C5 5910   4.043   3.780  10.382 -0.2716 -0.2837  0.3800
  392TMC3    C6 5911   3.953   3.783  10.284 -0.1027 -0.1239 -0.1564
  392TMC3     C 5912   4.041   3.430  10.458  0.2690 -0.1872 -0.6405
  392TMC3     O 5913   4.023   3.328  10.390 -0.1463 -0.2411  0.0186
  392TMC3     H 5914   3.909   3.452  10.239 -2.5726  1.6696 -0.1469
  392TMC3    H1 5915   4.172   3.654  10.506  0.6939 -2.3598 -0.7090
  392TMC3    H2 5916   3.909   3.880  10.264 -0.0806  0.1319  1.0630
  392TMC3    C7 5917   4.080   3.904  10.445  0.1728  0.0708 -0.1260
  392TMC3    C8 5918   3.813   3.668  10.125  0.4611  0.6121 -0.5368
  392TMC3    O1 5919   4.141   3.893  10.549 -0.8671 -0.1383  0.0543
  392TMC3    O2 5920   3.758   3.562  10.119 -0.0720 -0.0462  0.2179
  393TMC3    C1 5921   2.195   1.228  10.230  0.0196  0.5659 -0.7855
  393TMC3    C2 5922   2.119   1.151  10.150  0.6778 -0.5423 -0.9217
  393TMC3    C3 5923   2.094   1.022  10.193 -0.8848 -0.4247 -0.7127
  393TMC3    C4 5924   2.246   1.176  10.351 -0.5874 -0.9307 -0.0115
  393TMC3    C5 5925   2.211   1.048  10.390 -0.2141  0.5593  0.8377
  393TMC3    C6 5926   2.132   0.966  10.314 -0.0973  0.9312  0.8359
  393TMC3     C 5927   2.237   1.363  10.194 -0.9094 -1.1814  0.5180
  393TMC3     O 5928   2.167   1.419  10.115  0.0807  0.1788 -0.3457
  393TMC3     H 5929   2.101   1.186  10.049 -1.7394  1.9900  0.3997
  393TMC3    H1 5930   2.275   1.252  10.423  1.2543 -0.4568 -1.2365
  393TMC3    H2 5931   2.118   0.862  10.340 -3.3970  1.1092 -0.1881
  393TMC3    C7 5932   2.229   1.018  10.524 -0.0996 -0.2870 -0.6247
  393TMC3    C8 5933   1.989   0.947  10.125 -0.3814 -0.6304 -0.7848
  393TMC3    O1 5934   2.168   0.930  10.582  0.3348 -0.1245  0.2023
  393TMC3    O2 5935   1.929   0.883  10.208 -0.5431 -0.0282  0.6334
  394TMC3    C1 5936   4.386   1.722  10.546  0.0195  0.2874 -0.2669
  394TMC3    C2 5937   4.284   1.686  10.465 -0.0970  0.2171 -0.0790
  394TMC3    C3 5938   4.300   1.702  10.332 -0.8142  0.0314 -0.1198
  394TMC3    C4 5939   4.505   1.761  10.496  0.2757 -0.3836 -0.6833
  394TMC3    C5 5940   4.531   1.750  10.360 -0.9784 -0.7910  0.3464
  394TMC3    C6 5941   4.422   1.736  10.280  0.2637  0.9234  0.4896
  394TMC3     C 5942   4.348   1.742  10.687  0.5991 -0.6809 -0.2674
  394TMC3     O 5943   4.267   1.668  10.746 -0.0761 -0.1254 -0.0510
  394TMC3     H 5944   4.187   1.674  10.511  0.2691 -1.5859  0.2379
  394TMC3    H1 5945   4.581   1.793  10.566  0.6888  1.2574 -1.8919
  394TMC3    H2 5946   4.440   1.745  10.174 -0.7016 -1.2488  0.1515
  394TMC3    C7 5947   4.656   1.791  10.292  0.2248 -0.5554 -0.1680
  394TMC3    C8 5948   4.197   1.675  10.233 -0.2961 -0.2934 -1.1877
  394TMC3    O1 5949   4.656   1.811  10.169  0.4834 -0.3128 -0.0195
  394TMC3    O2 5950   4.208   1.715  10.119  0.0239  0.0802 -0.5873
  395TMC3    C1 5951   3.876   3.662  14.281 -0.9066  0.0517 -0.0164
  395TMC3    C2 5952   3.742   3.683  14.292  0.4725  0.1085  0.3704
  395TMC3    C3 5953   3.693   3.770  14.386 -0.2206  0.3033 -0.0378
  395TMC3    C4 5954   3.965   3.752  14.332 -0.0259  0.2998 -0.1410
  395TMC3    C5 5955   3.913   3.855  14.412 -0.1819 -0.5370  0.6413
  395TMC3    C6 5956   3.775   3.863  14.443  0.5644 -0.0751 -0.7257
  395TMC3     C 5957   3.899   3.540  14.351 -0.4373 -0.3800 -0.1645
  395TMC3     O 5958   3.960   3.546  14.458 -0.4005 -0.4233  0.4059
  395TMC3     H 5959   3.670   3.619  14.244  2.3967 -0.1894 -2.1530
  395TMC3    H1 5960   4.073   3.743  14.329  0.2925  3.0804  3.6667
  395TMC3    H2 5961   3.731   3.925  14.521  0.8951 -0.6037 -0.1215
  395TMC3    C7 5962   3.997   3.957  14.461  0.0972  0.6292  0.4659
  395TMC3    C8 5963   3.590   3.720  14.478  0.5022  0.1512  1.0701
  395TMC3    O1 5964   3.974   4.015  14.566 -0.8347 -0.2125 -0.6939
  395TMC3    O2 5965   3.595   3.767  14.592 -0.2215 -0.3231 -0.5951
  396MPD2     C 5966   3.268   4.663  16.661  0.1036 -0.2301  0.2979
  396MPD2    C1 5967   3.363   4.686  16.750 -0.3640 -0.1130 -0.0625
  396MPD2    C2 5968   3.484   4.734  16.705  0.5236 -0.0509  1.1708
  396MPD2    C3 5969   3.495   0.027  16.569 -0.1419 -0.2086  0.6417
  396MPD2    C4 5970   3.393   0.008  16.479  0.1329 -0.5933 -0.2118
  396MPD2    C5 5971   3.280   4.696  16.531  0.5681 -1.1418 -0.9833
  396MPD2     H 5972   3.559   0.018  16.780  2.1258 -0.7088 -0.2398
  396MPD2    H1 5973   3.403   0.030  16.374  1.9465  1.5074  0.3985
  396MPD2    H2 5974   3.183   4.610  16.702 -0.8743 -0.3768 -1.9547
  396MPD2    H3 5975   3.193   4.671  16.470 -1.2684  2.1906  0.2667
  396MPD2     N 5976   3.611   0.100  16.537  0.4394  0.3767  0.2914
  396MPD2    H5 5977   3.660   0.151  16.610  1.9774 -0.7498  0.0504
  396MPD2    N1 5978   3.335   4.661  16.886  0.7502 -0.5998 -0.5488
  396MPD2    H7 5979   3.236   4.648  16.909  0.7388 -0.0290 -0.2934
  397TMC3    C1 5980   3.348   4.620  17.111 -0.3490  0.3622  0.3269
  397TMC3    C2 5981   3.408   4.666  17.228  0.5506  1.0225  1.0344
  397TMC3    C3 5982   3.430   4.574  17.328  0.6108 -0.2238 -0.1302
  397TMC3    C4 5983   3.311   4.490  17.093 -0.2778  0.7559  0.2319
  397TMC3    C5 5984   3.334   4.399  17.194  0.0018  0.3724 -0.3510
  397TMC3    C6 5985   3.384   4.441  17.319 -0.2225 -0.1279 -0.0221
  397TMC3     C 5986   3.415   4.666  16.996  0.5310 -0.2269  0.0679
  397TMC3     O 5987   3.520   4.728  17.019  0.3130 -0.3846  1.2724
  397TMC3     H 5988   3.448   0.027  17.241  0.3118  1.3804 -0.9469
  397TMC3    H1 5989   3.270   4.457  16.999  1.5231 -0.7743 -0.0144
  397TMC3    H2 5990   3.379   4.368  17.399 -1.2100  1.3520  1.2869
  397TMC3    C7 5991   3.339   4.259  17.161  0.4327 -0.6899 -0.2695
  397TMC3    C8 5992   3.518   4.610  17.430  0.8451  0.1867 -0.3970
  397TMC3    O1 5993   3.288   4.229  17.054 -0.2424 -0.0485 -0.5262
  397TMC3    O2 5994   3.484   4.712  17.483 -0.4290 -0.1910 -0.3638
  398MPD2     C 5995   1.611   1.161   0.037  0.0053  1.0107  0.9704
  398MPD2    C1 5996   1.718   1.083   0.070  0.5698  0.6700 -0.1610
  398MPD2    C2 5997   1.806   1.132   0.166 -0.2111 -0.9600 -0.7622
  398MPD2    C3 5998   1.792   1.251   0.223  0.5730 -0.3160  0.0957
  398MPD2    C4 5999   1.696   1.339   0.176  0.4414 -0.1014 -0.2504
  398MPD2    C5 6000   1.603   1.289   0.088  0.1445 -0.8934  0.1011
  398MPD2     H 6001   1.898   1.079   0.191  1.6796  2.9290  0.4375
  398MPD2    H1 6002   1.680   1.435   0.224  2.7615 -1.4213  3.2552
  398MPD2    H2 6003   1.532   1.134  17.721 -0.7776  2.1584  1.3971
  398MPD2    H3 6004   1.513   1.345   0.063  0.3732  0.1589  1.6663
  398MPD2     N 6005   1.880   1.290   0.324  0.2267 -0.0001 -0.3513
  398MPD2    H5 6006   1.954   1.223   0.342  0.0895  0.0958  0.5837
  398MPD2    N1 6007   1.737   0.959   0.009  0.1628  0.1825 -0.1978
  398MPD2    H7 6008   1.805   0.898   0.054 -0.6069  0.2396  1.0278
  399TMC3    C1 6009   1.714   0.760  17.636 -0.0644  0.0223  0.1391
  399TMC3    C2 6010   1.842   0.738  17.660  0.4578 -0.2711 -0.6675
  399TMC3    C3 6011   1.884   0.611  17.686  0.2267 -1.0579  0.4461
  399TMC3    C4 6012   1.623   0.656  17.639 -0.3946 -0.6231  1.1083
  399TMC3    C5 6013   1.676   0.534  17.654  0.0792 -0.2353 -0.1060
  399TMC3    C6 6014   1.807   0.502  17.674  0.0715  0.1259 -0.3632
  399TMC3     C 6015   1.664   0.897  17.660 -0.0518 -0.0416  0.3774
  399TMC3     O 6016   1.557   0.930  17.610  0.4159  0.3418  0.4680
  399TMC3     H 6017   1.916   0.818  17.663 -1.3644  1.3543  0.9688
  399TMC3    H1 6018   1.516   0.664  17.631 -0.1788 -0.1596 -1.2491
  399TMC3    H2 6019   1.846   0.407  17.709  0.3752  0.4026  0.0498
  399TMC3    C7 6020   1.575   0.440  17.700  1.2200 -0.7807 -0.1883
  399TMC3    C8 6021   1.998   0.613   0.029  0.4036  0.2962  1.1259
  399TMC3    O1 6022   1.473   0.481  17.747 -0.1549 -0.2154 -0.1435
  399TMC3    O2 6023   2.013   0.713   0.098 -0.6173  0.3464 -1.0065
  400TMC3    C1 6024   0.527   4.428  16.926 -0.4273 -0.1863  0.2219
  400TMC3    C2 6025   0.411   4.439  16.853 -1.3604 -0.3673 -0.6498
  400TMC3    C3 6026   0.345   4.559  16.868  0.0870 -0.1284 -0.5992
  400TMC3    C4 6027   0.582   4.537  16.992  0.2612 -0.1174 -0.0347
  400TMC3    C5 6028   0.506   4.646  17.011  0.4091 -0.0322  0.4464
  400TMC3    C6 6029   0.394   4.669  16.939 -0.3873  1.0693 -0.1992
  400TMC3     C 6030   0.566   4.289  16.948  0.0016  0.0647  0.9327
  400TMC3     O 6031   0.488   4.207  16.897 -0.1405  0.0975 -0.3467
  400TMC3     H 6032   0.375   4.353  16.798  1.9033 -1.5016 -1.0192
  400TMC3    H1 6033   0.666   4.538  17.060 -0.2583 -1.5551  0.6295
  400TMC3    H2 6034   0.332   0.019  16.942 -0.9106  0.7328 -1.0536
  400TMC3    C7 6035   0.567   0.026  17.064 -0.2666  0.1558  0.5928
  400TMC3    C8 6036   0.206   4.561  16.822 -0.3514 -0.0526 -0.2399
  400TMC3    O1 6037   0.688   0.021  17.078  1.0370  0.6842  0.9750
  400TMC3    O2 6038   0.135   4.658  16.849 -0.0305  0.2979 -0.4454
  401MPD2     C 6039   3.861   2.148   1.131  0.5092  0.1694  0.7346
  401MPD2    C1 6040   3.848   2.107   0.997 -0.3359 -0.6464 -0.1978
  401MPD2    C2 6041   3.772   1.997   0.977  0.0215 -0.0954 -0.3626
  401MPD2    C3 6042   3.715   1.925   1.081 -0.2711  0.5018  0.5144
  401MPD2    C4 6043   3.730   1.962   1.210  0.1009 -0.2616 -0.0094
  401MPD2    C5 6044   3.802   2.075   1.233 -0.3398 -0.0013 -1.0563
  401MPD2     H 6045   3.767   1.964   0.874  1.4144 -1.6592  0.0788
  401MPD2    H1 6046   3.679   1.915   1.293  0.7656  0.4662  0.8077
  401MPD2    H2 6047   3.916   2.237   1.159  0.7908  0.1255  0.3164
  401MPD2    H3 6048   3.806   2.127   1.328  1.5052  0.9501 -1.6382
  401MPD2     N 6049   3.636   1.814   1.045 -0.7062 -0.0235 -0.2179
  401MPD2    H5 6050   3.622   1.802   0.945 -0.2575 -0.5107 -0.2287
  401MPD2    N1 6051   3.896   2.169   0.879 -0.3864 -0.5787  0.0127
  401MPD2    H7 6052   3.877   2.128   0.787  0.0112 -0.1032 -0.2770
  402TMC3    C1 6053   3.511   1.616   1.071  0.8391 -0.1334  0.1170
  402TMC3    C2 6054   3.532   1.491   1.127  0.4182  0.4119  0.0384
  402TMC3    C3 6055   3.522   1.377   1.049  0.5014  0.0436 -0.2656
  402TMC3    C4 6056   3.492   1.625   0.935  0.0341  0.1019  0.5281
  402TMC3    C5 6057   3.496   1.515   0.861 -0.6301 -0.4229 -0.2052
  402TMC3    C6 6058   3.514   1.395   0.914  0.5941 -0.1181 -0.6879
  402TMC3     C 6059   3.578   1.722   1.139  0.3105 -0.1932 -0.1089
  402TMC3     O 6060   3.579   1.716   1.259 -0.3129 -0.7233 -0.6393
  402TMC3     H 6061   3.547   1.488   1.235  0.4790 -3.1224 -0.0790
  402TMC3    H1 6062   3.462   1.716   0.885  1.3578  2.2549  3.6418
  402TMC3    H2 6063   3.507   1.302   0.858  2.4523 -0.6819 -0.0033
  402TMC3    C7 6064   3.483   1.535   0.717  0.2413 -0.7357  0.2096
  402TMC3    C8 6065   3.591   1.255   1.100  0.5559 -0.3386 -0.0514
  402TMC3    O1 6066   3.423   1.631   0.675 -0.0702  0.0116  0.6105
  402TMC3    O2 6067   3.650   1.186   1.018 -0.1247 -0.0298  0.1953
  403MPD2     C 6068   1.637   0.912  13.250 -0.1619  0.2482 -0.1109
  403MPD2    C1 6069   1.747   0.829  13.294 -0.9669  0.1052  0.3152
  403MPD2    C2 6070   1.864   0.892  13.317 -0.7173 -0.2136 -0.5430
  403MPD2    C3 6071   1.880   1.027  13.306 -0.9622  0.2897 -0.2564
  403MPD2    C4 6072   1.783   1.102  13.248  0.3815 -0.0843  0.2240
  403MPD2    C5 6073   1.657   1.048  13.231 -0.0937  0.7203 -0.5666
  403MPD2     H 6074   1.948   0.829  13.343 -0.5771  0.3336  0.3483
  403MPD2    H1 6075   1.803   1.208  13.233 -1.3865  0.4425  1.6219
  403MPD2    H2 6076   1.541   0.863  13.234 -0.6416  1.1694 -0.0003
  403MPD2    H3 6077   1.580   1.111  13.188 -0.1472 -0.0635 -1.6252
  403MPD2     N 6078   2.001   1.076  13.368  0.1534 -0.3252  0.0209
  403MPD2    H5 6079   2.062   1.003  13.403  0.9209 -0.2161 -1.0835
  403MPD2    N1 6080   1.719   0.690  13.315  0.0711  0.0249 -0.1764
  403MPD2    H7 6081   1.619   0.674  13.321 -0.1485  1.4159 -0.0509
  404TMC3    C1 6082   1.751   0.473  13.377  0.0310  1.0722 -0.2016
  404TMC3    C2 6083   1.792   0.425  13.502 -0.4273  0.3768 -0.2355
  404TMC3    C3 6084   1.706   0.358  13.586 -0.7191  0.3004 -0.8253
  404TMC3    C4 6085   1.622   0.448  13.340  0.0011  0.6506 -0.3393
  404TMC3    C5 6086   1.545   0.367  13.413  0.3585 -0.5704  0.3205
  404TMC3    C6 6087   1.582   0.324  13.542  0.3764  0.1962  0.0711
  404TMC3     C 6088   1.814   0.596  13.332 -0.2563  0.7611  0.5542
  404TMC3     O 6089   1.937   0.599  13.344  0.8621  0.0497 -0.1339
  404TMC3     H 6090   1.894   0.451  13.528 -0.6116  0.8259  0.0286
  404TMC3    H1 6091   1.601   0.487  13.241 -0.8238  1.0401 -0.0038
  404TMC3    H2 6092   1.502   0.276  13.597  0.1647  0.0935 -0.3297
  404TMC3    C7 6093   1.485   0.260  13.338 -0.3284 -0.3347 -0.0907
  404TMC3    C8 6094   1.759   0.311  13.707 -0.7424  0.4011 -0.2186
  404TMC3    O1 6095   1.519   0.152  13.375  0.3436  0.0120 -0.3622
  404TMC3    O2 6096   1.876   0.289  13.706 -0.4354  0.1061  0.1199
  405MPD2     C 6097   2.210   1.399  15.459  0.0345 -0.0426 -0.0752
  405MPD2    C1 6098   2.168   1.325  15.358 -0.5057  0.7954  0.4229
  405MPD2    C2 6099   2.107   1.391  15.249 -0.0978 -0.2370 -0.4807
  405MPD2    C3 6100   2.069   1.525  15.240  0.3035  0.2739  0.1505
  405MPD2    C4 6101   2.104   1.598  15.346  0.1478  0.1992  0.5627
  405MPD2    C5 6102   2.178   1.537  15.451 -0.4060 -0.2369  0.4192
  405MPD2     H 6103   2.087   1.333  15.159 -0.3478  0.0099 -0.5849
  405MPD2    H1 6104   2.067   1.700  15.355 -1.2781 -0.4021  1.5541
  405MPD2    H2 6105   2.260   1.362  15.547  0.0223 -1.0882 -0.5071
  405MPD2    H3 6106   2.200   1.599  15.537  2.2475 -4.1841  2.5454
  405MPD2     N 6107   1.994   1.562  15.128 -0.0619  0.0212  0.1069
  405MPD2    H5 6108   1.974   1.490  15.060  1.6191  0.5262 -0.9319
  405MPD2    N1 6109   2.178   1.187  15.373  0.0325 -0.0161  0.3914
  405MPD2    H7 6110   2.228   1.151  15.453 -0.0195 -1.1964 -0.1182
  406TMC3    C1 6111   1.701   1.769  14.844  0.4954  0.0199  0.3746
  406TMC3    C2 6112   1.636   1.650  14.828 -0.4318 -0.3596 -0.2455
  406TMC3    C3 6113   1.652   1.553  14.921  0.1324  0.5435 -0.6213
  406TMC3    C4 6114   1.805   1.788  14.934 -0.5430 -0.5423 -0.4760
  406TMC3    C5 6115   1.834   1.678  15.009  0.1482 -0.0089 -0.5981
  406TMC3    C6 6116   1.761   1.562  15.005 -0.6530  0.5669  0.5486
  406TMC3     C 6117   1.619   1.884  14.819  0.6397 -0.0593 -0.7376
  406TMC3     O 6118   1.679   1.986  14.844  0.0428 -0.4438  0.2803
  406TMC3     H 6119   1.567   1.638  14.745 -1.4817  0.2292  0.5392
  406TMC3    H1 6120   1.856   1.883  14.942 -0.6586 -0.4226 -1.1332
  406TMC3    H2 6121   1.754   1.495  15.090  0.8901 -0.6120 -0.2431
  406TMC3    C7 6122   1.942   1.687  15.107  0.2972  0.2610  0.5395
  406TMC3    C8 6123   1.603   1.420  14.891 -0.5076 -0.2031  0.3090
  406TMC3    O1 6124   1.974   1.796  15.156  0.2308  0.3880  0.0505
  406TMC3    O2 6125   1.483   1.399  14.880  0.5409 -0.8851 -0.0700
  407MPD2     C 6126   0.228   3.089  10.265  0.4281  0.3218  0.3669
  407MPD2    C1 6127   0.110   3.153  10.227  0.1628  0.4316 -0.2971
  407MPD2    C2 6128   0.081   3.279  10.290  0.2950 -0.2872  0.4249
  407MPD2    C3 6129   0.168   3.331  10.384  0.1465 -0.2654  0.3606
  407MPD2    C4 6130   0.281   3.265  10.408  0.2646 -0.2551  0.1155
  407MPD2    C5 6131   0.307   3.143  10.358  0.5989  0.0928  0.5347
  407MPD2     H 6132   4.739   3.340  10.252 -0.3219 -1.2646  0.1739
  407MPD2    H1 6133   0.341   3.299  10.492  0.7838 -1.1002  0.0966
  407MPD2    H2 6134   0.260   2.989  10.236  0.8248 -0.0320  1.9899
  407MPD2    H3 6135   0.381   3.080  10.406  1.1771  1.7423  1.8006
  407MPD2     N 6136   0.141   3.455  10.448 -0.4491 -0.3455  0.3728
  407MPD2    H5 6137   0.209   3.480  10.518  3.1675 -0.1090 -3.1853
  407MPD2    N1 6138   0.035   3.118  10.112  0.8882 -0.2318  0.9657
  407MPD2    H7 6139   4.697   3.179  10.084  0.8681 -1.5226 -1.8562
  408TMC3    C1 6140   4.692   2.968   9.940 -0.1094 -0.1938 -0.0983
  408TMC3    C2 6141   4.632   3.070   9.867 -0.5475 -0.2357  0.1189
  408TMC3    C3 6142   4.556   3.031   9.757 -0.1971 -0.3641  0.0535
  408TMC3    C4 6143   4.683   2.834   9.907  0.2232  0.6314 -0.0829
  408TMC3    C5 6144   4.607   2.808   9.796  0.6856  0.5886 -0.1898
  408TMC3    C6 6145   4.545   2.902   9.717 -0.0014  0.1214  0.4722
  408TMC3     C 6146   0.051   2.998  10.050  0.0826 -0.2225  0.5220
  408TMC3     O 6147   0.126   2.906  10.078  0.0516  0.3062 -0.0533
  408TMC3     H 6148   4.653   3.172   9.899  1.0555 -0.2509 -0.8620
  408TMC3    H1 6149   0.007   2.756   9.946 -0.3878  0.6695  0.9624
  408TMC3    H2 6150   4.485   2.871   9.632  0.4234 -3.6682  1.5460
  408TMC3    C7 6151   4.583   2.670   9.752  0.0918  0.0920  0.0549
  408TMC3    C8 6152   4.494   3.128   9.673 -0.2810  1.0627 -0.4209
  408TMC3    O1 6153   4.489   2.650   9.673 -0.0284 -0.4040 -0.1497
  408TMC3    O2 6154   4.397   3.081   9.611 -0.2231 -0.4131  0.2344
  409MPD2     C 6155   4.292   3.822  16.855  0.5189  0.0907 -0.0734
  409MPD2    C1 6156   4.386   3.804  16.957  0.1739  0.4902  0.3604
  409MPD2    C2 6157   4.476   3.900  16.985  0.3256  0.5519  0.2209
  409MPD2    C3 6158   4.466   4.030  16.933 -0.2294  0.0580 -0.2846
  409MPD2    C4 6159   4.366   4.049  16.846  0.1252  0.8619  0.5418
  409MPD2    C5 6160   4.286   3.949  16.796  0.0598  0.5893 -0.2528
  409MPD2     H 6161   4.564   3.872  17.042 -1.2907 -2.3056  1.3242
  409MPD2    H1 6162   4.362   4.143  16.793  0.3475  1.1325  1.0037
  409MPD2    H2 6163   4.233   3.738  16.820  0.2576  0.6212 -0.9081
  409MPD2    H3 6164   4.214   3.976  16.720  0.1445  1.1952 -0.1143
  409MPD2     N 6165   4.547   4.139  16.969 -0.1516 -0.4608 -0.1446
  409MPD2    H5 6166   4.503   4.227  16.945  0.8386  0.1223  0.2085
  409MPD2    N1 6167   4.390   3.685  17.036 -0.3810 -0.1071 -0.1847
  409MPD2    H7 6168   4.478   3.670  17.085 -0.0769  0.6901 -0.4893
  410TMC3    C1 6169   0.014   4.249  17.036  0.3065 -0.2122 -0.1211
  410TMC3    C2 6170   0.136   4.235  17.092 -0.1766 -0.1056 -0.0226
  410TMC3    C3 6171   0.194   4.339  17.157 -0.7169  0.5105  0.3994
  410TMC3    C4 6172   4.689   4.375  17.027  0.3896 -0.0753 -0.6263
  410TMC3    C5 6173   0.003   4.469  17.109  0.7106 -0.1979 -0.2208
  410TMC3    C6 6174   0.121   4.453  17.173 -0.5662  0.9709 -0.6516
  410TMC3     C 6175   4.673   4.127  17.019  0.3256  0.5403 -0.0707
  410TMC3     O 6176   0.001   4.026  17.017 -0.3327  0.7819 -0.2768
  410TMC3     H 6177   0.206   4.157  17.065  1.2569  1.2052 -0.0846
  410TMC3    H1 6178   4.587   4.389  16.994 -0.1146 -1.8989  0.1836
  410TMC3    H2 6179   0.149   4.528  17.246 -2.8336  0.8344  0.3381
  410TMC3    C7 6180   4.672   4.592  17.135 -0.2570  0.8249 -0.1716
  410TMC3    C8 6181   0.305   4.313  17.246 -0.6207 -0.5743  0.5163
  410TMC3    O1 6182   4.701   4.646  17.243  0.3954  0.4625 -0.2378
  410TMC3    O2 6183   0.360   4.409  17.296 -0.4236  0.7998  0.1261
  411MPD2     C 6184   4.456   0.165  14.554  0.0910  0.1099  0.4183
  411MPD2    C1 6185   4.328   0.143  14.598  0.0200 -0.2057 -0.3007
  411MPD2    C2 6186   4.248   0.051  14.528  0.4556  0.0647  0.1332
  411MPD2    C3 6187   4.298   4.703  14.433  0.5532  0.1345  0.0322
  411MPD2    C4 6188   4.436   4.715  14.409 -0.1550 -0.3398  0.0715
  411MPD2    C5 6189   4.507   0.077  14.458  0.6627  0.0403 -0.0659
  411MPD2     H 6190   4.143   0.055  14.556  0.1759 -1.1875 -0.7382
  411MPD2    H1 6191   4.482   4.659  14.328 -0.4613  0.8583 -0.9274
  411MPD2    H2 6192   4.512   0.248  14.595  0.8676 -0.1851 -0.0622
  411MPD2    H3 6193   4.609   0.091  14.424  0.9099  1.0205  1.0874
  411MPD2     N 6194   4.228   4.603  14.356  0.6706 -0.5744  0.0957
  411MPD2    H5 6195   4.281   4.554  14.285  1.1860 -1.7848  1.3371
  411MPD2    N1 6196   4.267   0.222  14.695  0.3000  0.2734  0.4351
  411MPD2    H7 6197   4.168   0.204  14.711  0.5912 -0.0386  1.8906
  412TMC3    C1 6198   4.067   4.453  14.281  0.7187  0.4496  0.0321
  412TMC3    C2 6199   3.961   4.380  14.312 -0.0973  0.1081  0.2059
  412TMC3    C3 6200   3.931   4.272  14.242 -0.5654  1.1031  0.0606
  412TMC3    C4 6201   4.138   4.433  14.168  0.0055  0.1462 -0.2725
  412TMC3    C5 6202   4.096   4.334  14.081  0.1019 -0.8024 -0.1284
  412TMC3    C6 6203   4.000   4.247  14.130  0.0169 -0.1612  0.5632
  412TMC3     C 6204   4.097   4.563  14.374  0.6594 -0.1032  0.4789
  412TMC3     O 6205   4.024   4.594  14.469  0.1768 -0.1195  0.4390
  412TMC3     H 6206   3.907   4.412  14.399 -1.1984 -0.4237 -0.2838
  412TMC3    H1 6207   4.199   4.517  14.137 -0.0260  0.9340  1.7922
  412TMC3    H2 6208   3.968   4.159  14.076  0.3520 -0.1612  0.3659
  412TMC3    C7 6209   4.043   4.394  13.960  0.5381  1.4084  0.2131
  412TMC3    C8 6210   3.791   4.248  14.239 -0.7333  0.4039  0.1886
  412TMC3    O1 6211   3.924   4.385  13.939  0.2292  0.5560  0.0496
  412TMC3    O2 6212   3.741   4.185  14.331 -0.5389 -0.6431 -0.8489
  413MPD2     C 6213   1.187   2.536  15.682 -0.4188 -0.7414 -0.1587
  413MPD2    C1 6214   1.163   2.544  15.548  0.1592  0.2512 -0.1464
  413MPD2    C2 6215   1.258   2.498  15.461  0.1186  0.4039  0.3581
  413MPD2    C3 6216   1.377   2.444  15.507  0.1084 -0.3362  0.6154
  413MPD2    C4 6217   1.405   2.447  15.646 -1.3222 -0.3596  0.5764
  413MPD2    C5 6218   1.300   2.491  15.731 -0.3430  0.4508  0.3100
  413MPD2     H 6219   1.231   2.497  15.356 -0.3220 -4.2900  0.5256
  413MPD2    H1 6220   1.494   2.423  15.703 -0.8798  0.7398  0.3411
  413MPD2    H2 6221   1.115   2.577  15.752  1.1735  0.8842  0.5250
  413MPD2    H3 6222   1.325   2.486  15.836 -0.9752 -0.6387  0.4157
  413MPD2     N 6223   1.455   2.373  15.414 -0.0073 -0.6478 -0.1933
  413MPD2    H5 6224   1.430   2.369  15.316 -0.7370  3.9230 -0.2181
  413MPD2    N1 6225   1.043   2.612  15.511  0.3746 -0.2881 -0.5672
  413MPD2    H7 6226   0.984   2.631  15.592  0.3927  0.6970 -0.7912
  414TMC3    C1 6227   1.611   2.209  15.367 -0.2674 -0.5313 -0.1855
  414TMC3    C2 6228   1.625   2.080  15.397  0.2670 -0.5833 -0.7213
  414TMC3    C3 6229   1.694   2.000  15.314 -0.0738  0.0838 -0.1453
  414TMC3    C4 6230   1.654   2.259  15.249 -0.6048 -0.4539  0.0402
  414TMC3    C5 6231   1.706   2.171  15.155 -0.0642 -0.1159  0.6656
  414TMC3    C6 6232   1.727   2.039  15.186 -0.1276  0.0245  0.5439
  414TMC3     C 6233   1.555   2.295  15.463  0.5986 -0.2279 -0.0299
  414TMC3     O 6234   1.594   2.273  15.574  0.0004 -0.4503  0.3730
  414TMC3     H 6235   1.579   2.044  15.488  0.8571  1.7349  0.5038
  414TMC3    H1 6236   1.647   2.365  15.229  1.4793 -0.3552 -0.1681
  414TMC3    H2 6237   1.776   1.961  15.128  0.6257  0.7780  0.1758
  414TMC3    C7 6238   1.816   2.235  15.081  0.4553 -0.3806 -0.4754
  414TMC3    C8 6239   1.696   1.861  15.347  0.3131  0.7385  0.1173
  414TMC3    O1 6240   1.875   2.325  15.140  0.0411  0.1902  0.3464
  414TMC3    O2 6241   1.662   1.784  15.257 -0.3317  0.0474 -0.5054
  415TMC3    C1 6242   1.929   0.545   9.924  0.1263 -0.6793  0.1019
  415TMC3    C2 6243   1.968   0.627   9.820  0.1684 -0.1229 -0.1806
  415TMC3    C3 6244   1.888   0.617   9.707 -0.1262  0.1211  0.4078
  415TMC3    C4 6245   1.825   0.459   9.913 -0.2491  0.3329  0.3830
  415TMC3    C5 6246   1.754   0.454   9.795  0.3283  0.7295 -0.1906
  415TMC3    C6 6247   1.783   0.533   9.693  0.1864 -0.1380  0.0917
  415TMC3     C 6248   1.987   0.567  10.056 -0.1065  0.0813  0.0063
  415TMC3     O 6249   1.906   0.545  10.144 -0.3437  0.1041  0.3115
  415TMC3     H 6250   2.057   0.687   9.832  0.2190  0.0917 -1.6521
  415TMC3    H1 6251   1.818   0.385   9.991 -1.5288 -1.2557 -1.2322
  415TMC3    H2 6252   1.714   0.545   9.611  1.5150  3.0738 -0.5583
  415TMC3    C7 6253   1.637   0.368   9.795 -0.2620  0.1479  0.1824
  415TMC3    C8 6254   1.901   0.715   9.603  0.7869  0.0028  0.4889
  415TMC3    O1 6255   1.587   0.363   9.681  0.4675 -0.4620  0.6814
  415TMC3    O2 6256   1.847   0.691   9.496 -0.4468 -0.1880 -0.7884
  416MPD2     C 6257   3.831   0.001  11.205 -0.5912 -0.2716 -0.0260
  416MPD2    C1 6258   3.780   4.674  11.320  0.2419 -0.7670 -0.1272
  416MPD2    C2 6259   3.802   4.536  11.333  0.3945 -0.1338 -0.2721
  416MPD2    C3 6260   3.855   4.462  11.226  1.4422 -0.1030  0.2339
  416MPD2    C4 6261   3.908   4.525  11.121 -0.0562 -0.5706  0.2464
  416MPD2    C5 6262   3.898   4.664  11.112  0.0715 -0.1239  0.0861
  416MPD2     H 6263   3.762   4.489  11.423  0.8453 -0.2356 -0.1283
  416MPD2    H1 6264   3.967   4.480  11.042 -1.8536 -2.5429  0.0398
  416MPD2    H2 6265   3.804   0.103  11.181 -0.6306  0.1195  1.6234
  416MPD2    H3 6266   3.922   4.707  11.016  2.4313 -1.3435  0.1226
  416MPD2     N 6267   3.846   4.317  11.229 -0.0957 -0.0003 -0.0062
  416MPD2    H5 6268   3.824   4.274  11.318  0.4918 -3.4062 -1.5166
  416MPD2    N1 6269   3.712   0.022  11.410 -0.4535 -0.3574  0.6274
  416MPD2    H7 6270   3.699   0.111  11.363  1.4539 -0.5095 -0.1953
  417TMC3    C1 6271   3.596   0.086  11.605  0.7780 -0.4143 -0.3541
  417TMC3    C2 6272   3.583   0.070  11.742 -0.0586  0.0719 -0.3785
  417TMC3    C3 6273   3.496   0.151  11.806  0.7476  0.4276 -0.0359
  417TMC3    C4 6274   3.501   0.152  11.531 -0.7083 -0.4061 -0.3950
  417TMC3    C5 6275   3.417   0.231  11.599 -0.8219  0.1467 -0.6775
  417TMC3    C6 6276   3.413   0.233  11.737 -0.4441  0.0962  0.4708
  417TMC3     C 6277   3.680   4.724  11.537  0.1418  0.0326  0.7754
  417TMC3     O 6278   3.704   4.622  11.604 -0.3267 -0.2862  0.0651
  417TMC3     H 6279   3.641   4.733  11.792 -0.7625 -1.0846 -1.3307
  417TMC3    H1 6280   3.506   0.153  11.423  0.4022 -2.5370 -0.3591
  417TMC3    H2 6281   3.342   0.301  11.784 -0.4416 -0.2121  0.9160
  417TMC3    C7 6282   3.301   0.275  11.532  0.9533 -0.3210 -0.4188
  417TMC3    C8 6283   3.452   0.122  11.942 -0.9515 -0.0242  0.2880
  417TMC3    O1 6284   3.319   0.297  11.413  0.5843 -0.3350 -0.1673
  417TMC3    O2 6285   3.387   0.210  11.995  0.2598  0.3854  0.7699
  418TMC3    C1 6286   2.239   1.501   0.446  0.1807  0.6138 -1.1916
  418TMC3    C2 6287   2.109   1.522   0.416  0.0717 -0.3149 -0.5962
  418TMC3    C3 6288   2.023   1.422   0.453  0.7559  0.1756  0.9557
  418TMC3    C4 6289   2.289   1.390   0.514  0.3626 -0.4785  0.1532
  418TMC3    C5 6290   2.187   1.306   0.564  0.0348 -0.2702  0.0496
  418TMC3    C6 6291   2.058   1.318   0.533  1.0038  0.5425  0.2927
  418TMC3     C 6292   2.328   1.542   0.342 -0.1856  0.8234  0.5406
  418TMC3     O 6293   2.301   1.647   0.283 -0.0960  0.5201  0.0650
  418TMC3     H 6294   2.075   1.599   0.348  2.9273  1.5463  0.0808
  418TMC3    H1 6295   2.393   1.372   0.540  0.7335  0.0067 -1.0179
  418TMC3    H2 6296   1.998   1.232   0.562 -0.2255  1.4914  0.5591
  418TMC3    C7 6297   2.229   1.182   0.631  0.1051  0.5789  0.5555
  418TMC3    C8 6298   1.892   1.419   0.379 -0.8169 -1.1795  0.2100
  418TMC3    O1 6299   2.166   1.081   0.603 -1.3310 -0.2624 -0.2623
  418TMC3    O2 6300   1.856   1.527   0.343 -0.5765 -0.2495 -0.3050
  419MPD2     C 6301   0.634   4.065  12.524  0.2970  1.0440  0.1176
  419MPD2    C1 6302   0.564   4.183  12.548  0.0063 -0.6474  0.1073
  419MPD2    C2 6303   0.575   4.245  12.677 -0.1546  0.3424  0.3867
  419MPD2    C3 6304   0.632   4.166  12.776  0.5151 -0.1445  0.1042
  419MPD2    C4 6305   0.690   4.040  12.751  0.3008  0.8632 -0.6850
  419MPD2    C5 6306   0.700   4.002  12.623  0.4561  1.1759 -0.1835
  419MPD2     H 6307   0.529   4.343  12.684  1.4902  0.9963  1.8184
  419MPD2    H1 6308   0.737   3.972  12.821  0.3410  1.9519  0.3391
  419MPD2    H2 6309   0.634   4.027  12.423 -0.7043  0.4280  0.3502
  419MPD2    H3 6310   0.754   3.910  12.605 -0.2311  0.4419  1.4215
  419MPD2     N 6311   0.644   4.220  12.906  0.2896 -0.0827 -0.3952
  419MPD2    H5 6312   0.599   4.309  12.923 -0.8249 -0.6739 -0.2738
  419MPD2    N1 6313   0.494   4.256  12.452  0.5146 -0.3369  0.2620
  419MPD2    H7 6314   0.449   4.344  12.474 -0.8333 -0.9346 -0.1287
  420TMC3    C1 6315   0.695   4.244  13.129  0.6660 -0.5262  0.5244
  420TMC3    C2 6316   0.596   4.343  13.129  0.2741  0.2684  0.1986
  420TMC3    C3 6317   0.593   4.429  13.238  0.0926 -0.1468  0.5774
  420TMC3    C4 6318   0.778   4.230  13.232  0.3843  0.3546 -0.3726
  420TMC3    C5 6319   0.762   4.313  13.345  0.3761 -0.5331  0.4237
  420TMC3    C6 6320   0.664   4.404  13.352 -0.1273 -0.4502 -0.3082
  420TMC3     C 6321   0.713   4.165  13.009 -0.6955  0.7865 -0.2701
  420TMC3     O 6322   0.800   4.076  13.011  0.0191  0.4036  0.1610
  420TMC3     H 6323   0.527   4.358  13.047  2.5371 -0.4185 -1.8347
  420TMC3    H1 6324   0.866   4.167  13.233 -0.1225 -0.3532 -0.3216
  420TMC3    H2 6325   0.660   4.458  13.446 -0.4613 -0.5407 -0.2697
  420TMC3    C7 6326   0.841   4.291  13.463 -0.6273  0.6939  0.4186
  420TMC3    C8 6327   0.489   4.522  13.246 -0.7445 -0.3403 -0.2574
  420TMC3    O1 6328   0.828   4.378  13.551 -0.2616 -0.4493  0.1710
  420TMC3    O2 6329   0.431   4.558  13.144 -0.1623 -0.1732  0.4146
  421TMC3    C1 6330   2.128   1.209  13.517  0.0018 -0.2464  0.1960
  421TMC3    C2 6331   2.115   1.311  13.611  0.6003  0.4431  0.2345
  421TMC3    C3 6332   2.230   1.348  13.677 -0.1914  0.1206 -0.6530
  421TMC3    C4 6333   2.251   1.139  13.504  0.5562  0.9829  0.7482
  421TMC3    C5 6334   2.352   1.174  13.590  0.0995 -0.0424 -0.3255
  421TMC3    C6 6335   2.348   1.286  13.664 -0.1652  0.1100  0.6433
  421TMC3     C 6336   2.019   1.199  13.426 -0.2382  0.0390  0.1592
  421TMC3     O 6337   1.951   1.302  13.407  0.4704 -0.4373  0.1570
  421TMC3     H 6338   2.018   1.357  13.622  1.3923  2.2802 -0.4740
  421TMC3    H1 6339   2.260   1.060  13.430 -3.2593  0.3348  0.9804
  421TMC3    H2 6340   2.428   1.307  13.734  0.8764 -1.1683 -0.1464
  421TMC3    C7 6341   2.444   1.068  13.634  0.0245  0.4271 -0.7138
  421TMC3    C8 6342   2.230   1.462  13.772  0.2124 -0.2038 -0.4965
  421TMC3    O1 6343   2.543   1.114  13.691  0.0838 -0.1386  0.0184
  421TMC3    O2 6344   2.337   1.503  13.817 -0.0865 -0.3715  0.0307
  422TMC3    C1 6345   4.652   2.485  12.377 -0.7200 -0.3901  0.2359
  422TMC3    C2 6346   4.668   2.526  12.508 -0.0386  0.1775 -1.1226
  422TMC3    C3 6347   4.565   2.513  12.588 -0.3137  0.6237  0.3794
  422TMC3    C4 6348   4.530   2.450  12.321 -0.3337  0.1353 -0.5221
  422TMC3    C5 6349   4.433   2.426  12.411  0.3410  0.6117  0.1970
  422TMC3    C6 6350   4.446   2.468  12.541  0.3849  0.0931 -0.2144
  422TMC3     C 6351   0.027   2.491  12.293  0.2926 -0.3242 -0.4586
  422TMC3     O 6352   0.107   2.571  12.338  0.0891 -0.0425 -0.0873
  422TMC3     H 6353   0.022   2.573  12.538 -0.2178 -0.3247  0.2026
  422TMC3    H1 6354   4.508   2.422  12.219  0.3814  0.7089 -0.8307
  422TMC3    H2 6355   4.364   2.470  12.611 -0.3974  1.1552 -1.1781
  422TMC3    C7 6356   4.310   2.377  12.360  0.1751 -0.4595 -0.0236
  422TMC3    C8 6357   4.553   2.633  12.658 -0.6333 -0.3217  0.5385
  422TMC3    O1 6358   4.290   2.394  12.241  0.0906 -0.1960 -0.3992
  422TMC3    O2 6359   4.655   2.692  12.687 -0.4074 -0.3690  0.5603
  423MPD2     C 6360   0.566   3.011   0.604  0.0236 -0.0473  0.5483
  423MPD2    C1 6361   0.677   2.959   0.673 -1.0760 -0.3324  0.1365
  423MPD2    C2 6362   0.786   2.916   0.600 -0.2095  0.3147 -0.5693
  423MPD2    C3 6363   0.794   2.930   0.466  0.5313  0.4235  0.8148
  423MPD2    C4 6364   0.686   2.992   0.405 -0.6196 -0.2270 -0.2707
  423MPD2    C5 6365   0.575   3.036   0.472  0.4493  0.6108  0.7583
  423MPD2     H 6366   0.866   2.875   0.661 -0.7606 -0.3172 -0.2726
  423MPD2    H1 6367   0.697   3.028   0.303 -1.6938 -2.3624 -1.1283
  423MPD2    H2 6368   0.471   3.045   0.644 -0.2155 -0.5574  0.4096
  423MPD2    H3 6369   0.493   3.089   0.425 -0.6936 -0.4671  1.5231
  423MPD2     N 6370   0.907   2.908   0.383  0.2098  0.2718  0.5794
  423MPD2    H5 6371   0.898   2.926   0.284  0.5806 -1.4225  0.2416
  423MPD2    N1 6372   0.683   2.948   0.811  0.1635 -0.1207 -0.1364
  423MPD2    H7 6373   0.769   2.909   0.849  0.4076 -0.9437 -1.5550
  424TMC3    C1 6374   0.625   2.974   1.036 -0.7285 -0.3290 -0.4121
  424TMC3    C2 6375   0.755   3.014   1.061  0.0826  0.4974  0.1953
  424TMC3    C3 6376   0.764   3.120   1.155  0.3356 -0.5238  0.1785
  424TMC3    C4 6377   0.522   3.018   1.112 -0.8578  0.4155  0.1067
  424TMC3    C5 6378   0.535   3.123   1.195 -0.0387  0.2464 -0.9609
  424TMC3    C6 6379   0.656   3.171   1.218  0.0273 -0.3256  0.2248
  424TMC3     C 6380   0.585   2.989   0.898  0.4667  0.3774 -1.0922
  424TMC3     O 6381   0.481   3.051   0.880  0.1141  0.2066 -0.1411
  424TMC3     H 6382   0.845   2.973   1.017 -0.7655 -0.0497 -1.0142
  424TMC3    H1 6383   0.423   2.980   1.089 -1.5088  2.3414 -0.2399
  424TMC3    H2 6384   0.665   3.256   1.284 -0.6256 -0.8090  0.9298
  424TMC3    C7 6385   0.429   3.224   1.204 -0.6236 -0.1200 -0.4008
  424TMC3    C8 6386   0.886   3.142   1.226  0.7211 -0.2981 -0.5925
  424TMC3    O1 6387   0.427   3.303   1.295 -1.0016  0.4452  0.1054
  424TMC3    O2 6388   0.879   3.173   1.344  0.4750  0.5756  0.0432
  425MPD2     C 6389   3.823   2.743  16.729  0.3305  0.3884 -0.4897
  425MPD2    C1 6390   3.876   2.635  16.790 -0.6545 -0.5822  0.2914
  425MPD2    C2 6391   3.802   2.566  16.880 -0.1074 -0.4488 -0.9596
  425MPD2    C3 6392   3.677   2.614  16.909 -0.7748 -0.7391  0.6534
  425MPD2    C4 6393   3.620   2.729  16.857  0.0316 -0.0408 -0.8234
  425MPD2    C5 6394   3.701   2.796  16.763  0.2557  0.0220 -0.3523
  425MPD2     H 6395   3.847   2.484  16.935  0.4286  0.5473  0.0608
  425MPD2    H1 6396   3.525   2.770  16.888  0.9177  1.5372 -0.1833
  425MPD2    H2 6397   3.873   2.792  16.647  1.6903 -1.6721 -0.8938
  425MPD2    H3 6398   3.664   2.878  16.703 -0.4909 -1.0009 -1.2781
  425MPD2     N 6399   3.614   2.535  17.009  0.2938 -0.0638  0.4102
  425MPD2    H5 6400   3.662   2.451  17.040  2.5215  0.0408 -2.7057
  425MPD2    N1 6401   4.007   2.594  16.751 -0.0881  0.2834  0.1170
  425MPD2    H7 6402   4.062   2.658  16.695  0.9764 -0.9660 -0.2559
  426TMC3    C1 6403   4.183   2.444  16.735  0.1237 -0.3234  1.0072
  426TMC3    C2 6404   4.201   2.308  16.709 -0.1536  1.0151  0.4463
  426TMC3    C3 6405   4.333   2.276  16.713  0.4502  0.6558  0.6783
  426TMC3    C4 6406   4.281   2.538  16.746 -0.0481  0.0168 -0.9302
  426TMC3    C5 6407   4.405   2.494  16.739  0.0374 -0.6330  0.1312
  426TMC3    C6 6408   4.436   2.365  16.719  0.4572 -0.3231 -0.0867
  426TMC3     C 6409   4.049   2.467  16.783 -0.1090  0.0170  0.4660
  426TMC3     O 6410   3.995   2.365  16.818  0.1375 -0.0017  0.5589
  426TMC3     H 6411   4.131   2.237  16.668  0.1035 -0.7061  2.9982
  426TMC3    H1 6412   4.277   2.641  16.783 -1.3627 -0.8613  1.3907
  426TMC3    H2 6413   4.535   2.322  16.718  1.3027  1.6458 -0.0571
  426TMC3    C7 6414   4.513   2.589  16.753 -0.3400  0.6830 -0.2583
  426TMC3    C8 6415   4.364   2.146  16.663 -0.0865  0.7411  0.1134
  426TMC3    O1 6416   4.483   2.698  16.708  0.0171 -0.1645 -0.5109
  426TMC3    O2 6417   4.449   2.134  16.580  0.8202  0.2441 -0.3104
  427MPD2     C 6418   3.510   0.020  14.844  0.0858 -0.3727 -0.1133
  427MPD2    C1 6419   3.479   4.644  14.910 -0.8932  0.6526  0.0826
  427MPD2    C2 6420   3.348   4.613  14.924 -0.5939 -1.4885 -0.1413
  427MPD2    C3 6421   3.245   4.696  14.873 -0.2864 -0.3054 -0.3954
  427MPD2    C4 6422   3.286   0.069  14.809  0.5537  0.1532 -0.1291
  427MPD2    C5 6423   3.415   0.108  14.804 -0.2775  0.2034 -0.3234
  427MPD2     H 6424   3.316   4.526  14.979 -1.6977 -1.2702 -0.4477
  427MPD2    H1 6425   3.209   0.135  14.772 -0.8844 -0.3694  1.9119
  427MPD2    H2 6426   3.612   0.057  14.835  0.3555 -1.3360 -1.0462
  427MPD2    H3 6427   3.440   0.204  14.758  0.2835  0.5555  0.7128
  427MPD2     N 6428   3.107   4.659  14.866 -0.5428  0.4581 -0.4805
  427MPD2    H5 6429   3.059   4.734  14.817 -1.2205  0.2823 -0.0894
  427MPD2    N1 6430   3.575   4.545  14.946 -0.6284  0.4960  0.3419
  427MPD2    H7 6431   3.542   4.460  14.991 -0.4981  0.2857  0.0384
  428TMC3    C1 6432   3.787   4.454  15.009  0.5710 -0.5042 -0.5150
  428TMC3    C2 6433   3.735   4.325  15.010  0.3101  0.0945 -0.0360
  428TMC3    C3 6434   3.797   4.239  15.093  0.8608  0.1787  0.1328
  428TMC3    C4 6435   3.899   4.487  15.076 -0.5292  0.1843  0.1442
  428TMC3    C5 6436   3.966   4.396  15.143 -0.2425 -0.6191  0.1601
  428TMC3    C6 6437   3.913   4.274  15.163  0.1573 -0.1566  0.6426
  428TMC3     C 6438   3.714   4.565  14.945 -0.3362  0.2767 -0.0122
  428TMC3     O 6439   3.777   4.665  14.922  0.8348 -1.3406 -0.7624
  428TMC3     H 6440   3.645   4.308  14.952  0.6350 -2.2595  0.1631
  428TMC3    H1 6441   3.928   4.591  15.070  2.0249 -0.5213  0.2403
  428TMC3    H2 6442   3.954   4.208  15.238 -0.0891  0.7693  1.5944
  428TMC3    C7 6443   4.038   4.451  15.260 -0.3096 -0.3064 -0.1667
  428TMC3    C8 6444   3.755   4.103  15.107  0.0556  0.5552  0.3187
  428TMC3    O1 6445   4.024   4.387  15.369  0.5657 -0.7195  0.0255
  428TMC3    O2 6446   3.835   4.024  15.158 -0.4429  0.3211  0.4596
  429MPD2     C 6447   4.476   0.105  17.597 -0.4505  0.0019  0.1875
  429MPD2    C1 6448   4.605   0.102  17.553 -0.2256  0.0812  0.3003
  429MPD2    C2 6449   4.648   0.210  17.481  0.6151 -0.4225 -0.2684
  429MPD2    C3 6450   4.576   0.319  17.449 -0.1196 -0.6305  0.5920
  429MPD2    C4 6451   4.442   0.314  17.486 -0.5822 -0.3612 -0.0345
  429MPD2    C5 6452   4.393   0.209  17.562  0.9537  0.4176 -0.3368
  429MPD2     H 6453   0.006   0.202  17.433  0.9252 -0.4728  0.3583
  429MPD2    H1 6454   4.368   0.389  17.459 -1.1858 -1.8731 -2.5554
  429MPD2    H2 6455   4.439   0.018  17.649  0.7330 -0.2113  0.6604
  429MPD2    H3 6456   4.287   0.206  17.586  0.9892  1.5825 -0.0438
  429MPD2     N 6457   4.637   0.427  17.373 -0.1561  0.2207 -0.4845
  429MPD2    H5 6458   4.738   0.425  17.367 -0.0497  2.1984  0.7359
  429MPD2    N1 6459   4.682   4.720  17.567 -0.5180 -0.1329 -0.7301
  429MPD2    H7 6460   4.629   4.637  17.591 -0.7330  0.0594 -0.5433
  430TMC3    C1 6461   4.660   0.644  17.270  0.2952 -0.4154 -1.1629
  430TMC3    C2 6462   4.600   0.741  17.202  0.7240 -0.6681 -0.1880
  430TMC3    C3 6463   4.670   0.820  17.119  0.3956  0.1482 -0.1487
  430TMC3    C4 6464   0.055   0.618  17.266  0.5792 -0.2023  0.2019
  430TMC3    C5 6465   0.124   0.712  17.199 -0.9688  0.3788 -0.5414
  430TMC3    C6 6466   0.066   0.804  17.118  0.5726  0.4833 -0.5038
  430TMC3     C 6467   4.573   0.543  17.337  0.2969  0.1749 -0.3172
  430TMC3     O 6468   4.454   0.569  17.326 -0.0945  0.5695  0.9720
  430TMC3     H 6469   4.493   0.754  17.216  1.0071  0.7985  0.5117
  430TMC3    H1 6470   0.102   0.558  17.344  0.9529 -0.9726 -0.6134
  430TMC3    H2 6471   0.127   0.851  17.042  0.2926  0.1411 -0.9477
  430TMC3    C7 6472   0.264   0.679  17.165 -0.5820 -0.2722 -0.0626
  430TMC3    C8 6473   4.616   0.822  16.979  0.5620 -0.5407  0.5194
  430TMC3    O1 6474   0.340   0.769  17.127  0.3923  0.0376 -0.0304
  430TMC3    O2 6475   4.686   0.771  16.894 -0.1982  0.4965  0.2620
  431MPD2     C 6476   0.407   0.087  12.862 -0.0344  0.2590 -0.0194
  431MPD2    C1 6477   0.473   0.126  12.748  0.1229 -0.6537  0.1881
  431MPD2    C2 6478   0.462   0.065  12.629 -0.3640 -0.8795 -0.4413
  431MPD2    C3 6479   0.369   4.697  12.618  0.5080  0.2501 -0.5078
  431MPD2    C4 6480   0.299   4.655  12.730  0.1260 -1.1543 -0.5526
  431MPD2    C5 6481   0.324   4.719  12.847  0.4370 -0.6287  0.6392
  431MPD2     H 6482   0.508   0.123  12.549 -2.1794  0.3344 -0.6090
  431MPD2    H1 6483   0.222   4.579  12.721  0.3843 -1.2346 -2.1513
  431MPD2    H2 6484   0.426   0.126  12.961  0.7731 -2.8300  1.0699
  431MPD2    H3 6485   0.257   4.696  12.930 -0.9189  0.7558 -0.0747
  431MPD2     N 6486   0.338   4.625  12.505  0.3548 -0.2419 -0.2213
  431MPD2    H5 6487   0.253   4.569  12.511  1.1513 -1.4606 -0.3947
  431MPD2    N1 6488   0.554   0.241  12.746 -0.8391  0.0341  0.1670
  431MPD2    H7 6489   0.596   0.261  12.656 -1.3029 -0.3316 -0.1316
  432TMC3    C1 6490   0.375   4.559  12.282 -0.1317 -0.2855  0.9862
  432TMC3    C2 6491   0.438   4.586  12.169  0.1315  0.0919 -0.1706
  432TMC3    C3 6492   0.485   4.481  12.090 -0.6200  0.6483 -0.6932
  432TMC3    C4 6493   0.358   4.426  12.329 -0.8391 -0.8766 -0.5181
  432TMC3    C5 6494   0.413   4.325  12.253 -0.0959 -0.6401  0.0552
  432TMC3    C6 6495   0.470   4.350  12.132 -0.1721 -0.0398 -0.2047
  432TMC3     C 6496   0.409   4.649  12.393  0.0456  0.3605  0.0629
  432TMC3     O 6497   0.505   4.723  12.362  0.2742 -0.0504 -0.3004
  432TMC3     H 6498   0.440   4.684  12.124  0.3515 -0.1190 -0.6174
  432TMC3    H1 6499   0.295   4.401  12.413 -3.1074  0.1958 -1.8916
  432TMC3    H2 6500   0.526   4.269  12.086 -1.7097 -1.2008 -0.0285
  432TMC3    C7 6501   0.477   4.220  12.321 -0.4296  0.4256  0.0703
  432TMC3    C8 6502   0.578   4.521  11.985 -0.4041  0.1855 -0.5506
  432TMC3    O1 6503   0.523   4.125  12.257  0.4290 -0.1401 -0.1887
  432TMC3    O2 6504   0.553   4.625  11.927 -0.6654 -0.2086 -0.0717
  433MPD2     C 6505   4.501   3.390  10.649 -0.1666  0.2468 -0.3683
  433MPD2    C1 6506   4.580   3.294  10.706  0.2496 -0.5531  0.1209
  433MPD2    C2 6507   4.581   3.287  10.841 -0.4259 -0.9026 -0.1758
  433MPD2    C3 6508   4.509   3.373  10.919 -0.6956  0.1338 -0.1538
  433MPD2    C4 6509   4.437   3.479  10.862  0.7296 -0.2241 -0.2441
  433MPD2    C5 6510   4.436   3.487  10.726  0.0506 -0.2866  0.5249
  433MPD2     H 6511   4.632   3.198  10.878  3.2973  1.3255  0.1315
  433MPD2    H1 6512   4.378   3.550  10.920 -1.3746 -0.6741 -1.8174
  433MPD2    H2 6513   4.488   3.399  10.542  0.2465 -1.1797 -0.5240
  433MPD2    H3 6514   4.378   3.561  10.673 -0.6388 -1.9808 -1.0849
  433MPD2     N 6515   4.506   3.345  11.060 -0.5816 -0.1688 -0.3281
  433MPD2    H5 6516   4.570   3.272  11.089 -0.9971 -0.2675  0.3515
  433MPD2    N1 6517   4.657   3.200  10.628  0.1702 -0.0976  0.4855
  433MPD2    H7 6518   4.633   3.207  10.530 -0.8094  0.6792  0.7723
  434TMC3    C1 6519   0.071   3.032  10.606 -0.2678  0.0584  0.8194
  434TMC3    C2 6520   0.192   2.978  10.639  0.5846  0.4519  0.1913
  434TMC3    C3 6521   0.230   2.861  10.576 -0.3290 -0.5886 -0.0704
  434TMC3    C4 6522   4.729   2.991  10.502  0.0183 -0.5852  0.2620
  434TMC3    C5 6523   0.032   2.876  10.442 -0.1751 -0.4803 -0.3101
  434TMC3    C6 6524   0.149   2.815  10.478 -0.4367 -0.2970  0.0661
  434TMC3     C 6525   0.040   3.159  10.671  0.3691 -0.3527  0.0618
  434TMC3     O 6526   0.104   3.209  10.765  0.4059 -0.1916  0.0131
  434TMC3     H 6527   0.250   3.033  10.713  1.2279  2.9578 -2.1680
  434TMC3    H1 6528   4.633   3.036  10.482  0.3594  0.3918  0.8167
  434TMC3    H2 6529   0.172   2.720  10.430  2.0841  0.9461 -1.1996
  434TMC3    C7 6530   4.697   2.817  10.332 -0.4061 -0.2784 -0.0366
  434TMC3    C8 6531   0.319   2.780  10.649 -0.4669 -0.7411  0.2507
  434TMC3    O1 6532   4.737   2.707  10.288  0.3858  0.3985  0.0836
  434TMC3    O2 6533   0.364   2.836  10.745 -0.3496  0.1722  0.2605
  435MPD2     C 6534   1.516   3.170  15.524  0.0768 -0.2247  0.2556
  435MPD2    C1 6535   1.493   3.181  15.664 -0.6873  0.6653  0.5451
  435MPD2    C2 6536   1.576   3.111  15.745  0.7557 -0.2375  0.0267
  435MPD2    C3 6537   1.683   3.031  15.702  0.1951 -0.2368  0.7636
  435MPD2    C4 6538   1.706   3.039  15.562  0.1894 -0.0147 -0.2086
  435MPD2    C5 6539   1.621   3.097  15.481  0.6214  0.5297 -0.4154
  435MPD2     H 6540   1.551   3.106  15.850  0.3229 -0.4105 -0.0859
  435MPD2    H1 6541   1.795   2.994  15.519  1.1431  0.5430  1.2012
  435MPD2    H2 6542   1.460   3.229  15.453  0.4120  0.8348  0.8657
  435MPD2    H3 6543   1.637   3.090  15.374  0.8792 -2.2135 -0.1866
  435MPD2     N 6544   1.770   2.973  15.797 -0.3801  0.6433 -0.1698
  435MPD2    H5 6545   1.761   3.005  15.893 -0.3305 -0.1112  0.0867
  435MPD2    N1 6546   1.382   3.242  15.723 -0.5303  0.0654 -0.3097
  435MPD2    H7 6547   1.370   3.228  15.823 -1.4095  1.9626 -0.1450
  436TMC3    C1 6548   1.126   3.471  15.950 -0.1507  0.3463  0.3309
  436TMC3    C2 6549   1.222   3.403  15.882  0.4833 -0.7506  0.2506
  436TMC3    C3 6550   1.200   3.392  15.745  0.0731 -0.1560 -0.3322
  436TMC3    C4 6551   1.018   3.530  15.881 -0.6532 -0.6288 -0.0968
  436TMC3    C5 6552   1.017   3.540  15.748  0.4216  0.5734  1.0239
  436TMC3    C6 6553   1.102   3.462  15.678  0.1460 -0.1793  0.3622
  436TMC3     C 6554   1.141   3.492  16.097  0.4342  0.3051  0.1049
  436TMC3     O 6555   1.243   3.453  16.150 -0.2799 -0.1165 -0.5629
  436TMC3     H 6556   1.306   3.356  15.932  0.8476  1.2513  1.5087
  436TMC3    H1 6557   0.939   3.579  15.937 -0.3597  0.3047 -0.5034
  436TMC3    H2 6558   1.095   3.459  15.570  1.2394  0.9035  0.2595
  436TMC3    C7 6559   0.905   3.598  15.677  0.8564  0.6869  0.4941
  436TMC3    C8 6560   1.284   3.311  15.656 -0.4269 -0.2676  0.3859
  436TMC3    O1 6561   0.868   3.537  15.573 -0.1316 -0.1720 -0.5235
  436TMC3    O2 6562   1.277   3.323  15.537  0.4106 -0.0191  0.2942
  437TMC3    C1 6563   0.199   0.900  12.695  0.0706 -0.6774  0.6315
  437TMC3    C2 6564   0.086   0.965  12.645 -0.1900  0.3167  0.2106
  437TMC3    C3 6565   0.112   1.021  12.519  0.4520 -0.0343  0.2241
  437TMC3    C4 6566   0.318   0.877  12.635 -0.1333  0.0939  0.5598
  437TMC3    C5 6567   0.327   0.916  12.506 -0.2163 -0.1143  0.1044
  437TMC3    C6 6568   0.222   0.988  12.450 -0.4260  0.3268 -0.1097
  437TMC3     C 6569   0.207   0.882  12.839  0.3807 -0.8727  0.2975
  437TMC3     O 6570   0.122   0.945  12.901 -0.1647 -0.2289  0.6018
  437TMC3     H 6571   4.733   0.990  12.697 -1.2448 -0.0791 -1.4615
  437TMC3    H1 6572   0.397   0.825  12.688  0.4592  2.6811  2.2617
  437TMC3    H2 6573   0.234   1.040  12.355 -1.2710 -0.6443 -0.7491
  437TMC3    C7 6574   0.455   0.943  12.444  0.4793 -0.3794 -0.0638
  437TMC3    C8 6575   0.015   1.102  12.458  0.1526  0.2267  0.4813
  437TMC3    O1 6576   0.455   1.004  12.341 -0.8620  0.4656 -0.3880
  437TMC3    O2 6577   0.009   1.102  12.336 -0.1844 -0.4669  0.2262
  438MPD2     C 6578   2.354   1.129  16.100 -0.6880 -0.4261 -0.3412
  438MPD2    C1 6579   2.449   1.066  16.184 -0.0408  0.2369  0.1902
  438MPD2    C2 6580   2.449   1.095  16.317  0.7488  0.3227 -0.3078
  438MPD2    C3 6581   2.365   1.188  16.363 -0.8404  0.2154  0.2096
  438MPD2    C4 6582   2.273   1.248  16.286 -0.1105  0.5688 -0.0171
  438MPD2    C5 6583   2.264   1.215  16.155  0.1251 -0.5197  0.4392
  438MPD2     H 6584   2.526   1.065  16.387 -0.2216 -2.0742 -0.2771
  438MPD2    H1 6585   2.197   1.311  16.331  0.8149  0.5704  1.5364
  438MPD2    H2 6586   2.352   1.121  15.992 -0.0695  1.5465 -0.4993
  438MPD2    H3 6587   2.198   1.266  16.085 -0.4272  0.1783  1.4668
  438MPD2     N 6588   2.359   1.224  16.495  0.2200  0.6110 -0.2714
  438MPD2    H5 6589   2.311   1.311  16.513 -0.9900 -0.2515  0.6383
  438MPD2    N1 6590   2.546   0.977  16.137 -0.2173 -0.6170  0.1258
  438MPD2    H7 6591   2.620   0.947  16.200  0.3086 -0.7097 -0.5419
  439TMC3    C1 6592   2.652   0.823  16.002 -0.3395 -0.0653 -0.8092
  439TMC3    C2 6593   2.714   0.821  15.881  0.5526  0.3091  0.6895
  439TMC3    C3 6594   2.803   0.723  15.860  0.6309 -0.4380  0.0537
  439TMC3    C4 6595   2.689   0.744  16.111  0.3056 -0.3279  1.0387
  439TMC3    C5 6596   2.794   0.653  16.094  0.1184  0.3270  0.1101
  439TMC3    C6 6597   2.843   0.637  15.965 -0.3438  0.5536  0.3995
  439TMC3     C 6598   2.553   0.934  16.008 -0.6508  0.1639  0.6208
  439TMC3     O 6599   2.494   0.966  15.904  0.1808  0.1503  0.1087
  439TMC3     H 6600   2.685   0.892  15.804  0.9139 -0.1082  0.1704
  439TMC3    H1 6601   2.657   0.758  16.214  3.0816 -0.3562  1.8877
  439TMC3    H2 6602   2.935   0.580  15.955 -0.3954  0.7057 -1.0416
  439TMC3    C7 6603   2.863   0.604  16.213  0.8409 -0.6383  0.1528
  439TMC3    C8 6604   2.910   0.749  15.767 -0.6106  0.3709  0.2237
  439TMC3    O1 6605   2.859   0.673  16.312 -0.5614  0.0553  0.5394
  439TMC3    O2 6606   2.978   0.650  15.736 -0.5209  0.1633 -0.2800
  440MPD2     C 6607   1.060   1.387  15.248 -0.1153 -0.1790  0.2159
  440MPD2    C1 6608   1.185   1.456  15.255 -0.3429 -0.4161  0.3015
  440MPD2    C2 6609   1.297   1.379  15.292  0.2818  0.5144 -0.5890
  440MPD2    C3 6610   1.296   1.241  15.301  0.5688  0.7695 -0.3429
  440MPD2    C4 6611   1.175   1.182  15.273  0.4538  0.1222 -0.0401
  440MPD2    C5 6612   1.055   1.251  15.255  0.0724 -0.3476 -0.0450
  440MPD2     H 6613   1.389   1.436  15.298  0.5546  0.0287 -0.0999
  440MPD2    H1 6614   1.168   1.075  15.288  0.1472 -0.1648 -2.3417
  440MPD2    H2 6615   0.965   1.429  15.215  0.3483 -0.9799 -2.1621
  440MPD2    H3 6616   0.958   1.204  15.242 -1.4536  2.4880  0.9047
  440MPD2     N 6617   1.401   1.158  15.304  0.3289 -0.2538  0.2109
  440MPD2    H5 6618   1.382   1.059  15.289  0.4509 -0.0366 -1.3466
  440MPD2    N1 6619   1.182   1.596  15.261 -0.1491  0.4714  0.4150
  440MPD2    H7 6620   1.269   1.645  15.282  1.0230 -1.2023 -0.4762
  441TMC3    C1 6621   1.628   1.085  15.312 -0.2792  0.3608 -0.0812
  441TMC3    C2 6622   1.746   1.151  15.342 -0.0043  0.3767  0.2945
  441TMC3    C3 6623   1.800   1.118  15.464 -0.4959 -0.6869 -0.3675
  441TMC3    C4 6624   1.582   0.986  15.390  0.2358  0.2484 -0.2586
  441TMC3    C5 6625   1.640   0.966  15.517 -0.6638  0.6824  0.1413
  441TMC3    C6 6626   1.743   1.042  15.555 -0.9733  0.1539  0.3399
  441TMC3     C 6627   1.537   1.194  15.308  0.3608 -0.1723 -0.1607
  441TMC3     O 6628   1.589   1.303  15.332  0.5078  0.0752 -1.4815
  441TMC3     H 6629   1.798   1.205  15.264  0.4289 -0.7697 -0.1995
  441TMC3    H1 6630   1.483   0.948  15.369  0.5305 -0.6013 -0.0956
  441TMC3    H2 6631   1.780   1.045  15.657 -0.6903 -1.0047  0.2689
  441TMC3    C7 6632   1.545   0.932  15.618 -0.0052 -0.3360  0.3234
  441TMC3    C8 6633   1.865   1.230  15.525 -0.1744 -0.0997 -0.4216
  441TMC3    O1 6634   1.426   0.945  15.592 -0.7462  0.3002 -0.2742
  441TMC3    O2 6635   1.934   1.201  15.627 -0.0933  0.1087 -0.0861
  442MPD2     C 6636   3.993   2.457  16.332 -0.3793 -0.8488  0.1405
  442MPD2    C1 6637   3.901   2.377  16.397  0.1405 -0.2027  0.0046
  442MPD2    C2 6638   3.932   2.242  16.416  0.3433  0.6250  0.1143
  442MPD2    C3 6639   4.049   2.192  16.360 -0.1782 -0.1476  0.1224
  442MPD2    C4 6640   4.133   2.276  16.293  0.4287 -0.3143  0.0089
  442MPD2    C5 6641   4.104   2.409  16.272  0.0636  1.0062  0.2603
  442MPD2     H 6642   3.867   2.173  16.468  0.6021  0.5667  0.3587
  442MPD2    H1 6643   4.220   2.235  16.243  0.0038 -1.0992 -0.0953
  442MPD2    H2 6644   3.994   2.565  16.329 -0.4078 -0.8036  1.7382
  442MPD2    H3 6645   4.158   2.471  16.201 -1.2998  1.1097 -0.6815
  442MPD2     N 6646   4.091   2.060  16.366 -0.1544  0.4905  0.1388
  442MPD2    H5 6647   4.182   2.038  16.326 -0.0222  0.4212  0.4756
  442MPD2    N1 6648   3.784   2.423  16.457 -0.1518 -0.5415 -0.2885
  442MPD2    H7 6649   3.728   2.361  16.514 -1.6385  1.9348  0.8913
  443TMC3    C1 6650   3.610   2.571  16.513 -0.5503 -0.2295  0.0694
  443TMC3    C2 6651   3.523   2.658  16.452  0.5482  0.0365 -0.1458
  443TMC3    C3 6652   3.388   2.631  16.462 -0.7212 -0.3765  0.0663
  443TMC3    C4 6653   3.557   2.468  16.588 -0.1348  0.0809  0.4474
  443TMC3    C5 6654   3.424   2.469  16.618 -0.1398 -0.0807 -0.3942
  443TMC3    C6 6655   3.329   2.551  16.560 -0.5180  0.6028 -0.3755
  443TMC3     C 6656   3.726   2.545  16.438 -0.4439 -0.5206  0.2097
  443TMC3     O 6657   3.771   2.640  16.373  0.1077 -0.2172 -0.0499
  443TMC3     H 6658   3.558   2.736  16.386 -0.1244  1.1633  0.8181
  443TMC3    H1 6659   3.623   2.392  16.628  0.0054  1.0357  2.0291
  443TMC3    H2 6660   3.222   2.535  16.571 -0.4405  1.1485  1.2213
  443TMC3    C7 6661   3.393   2.410  16.747  0.8097  0.0792 -0.2328
  443TMC3    C8 6662   3.292   2.704  16.388 -0.3583  0.6758  0.3926
  443TMC3    O1 6663   3.460   2.316  16.782 -0.1271 -0.3908 -0.4097
  443TMC3    O2 6664   3.203   2.752  16.450  0.3008  0.4849  0.4412
  444MPD2     C 6665   4.520   1.472  17.086 -0.4274 -0.1609  0.6403
  444MPD2    C1 6666   4.435   1.379  17.034  0.0710 -0.2745  0.0795
  444MPD2    C2 6667   4.485   1.281  16.942 -0.1193 -0.4462 -0.8514
  444MPD2    C3 6668   4.624   1.270  16.914  0.2296  0.4978  0.1840
  444MPD2    C4 6669   4.704   1.377  16.960 -0.1575  0.4556  0.1742
  444MPD2    C5 6670   4.652   1.477  17.044  0.2796 -0.0390  0.6742
  444MPD2     H 6671   4.418   1.216  16.887 -0.9433  0.8072 -1.3056
  444MPD2    H1 6672   0.070   1.385  16.937 -0.5629  1.3780 -1.3303
  444MPD2    H2 6673   4.488   1.551  17.153 -2.8977  0.3064 -1.0750
  444MPD2    H3 6674   4.713   1.559  17.081  1.4013 -0.2407 -0.7241
  444MPD2     N 6675   4.677   1.166  16.829  0.0621  0.2275 -0.1799
  444MPD2    H5 6676   4.607   1.111  16.780  0.8479 -0.6147 -0.3494
  444MPD2    N1 6677   4.293   1.376  17.077 -0.1792  0.0166 -0.3699
  444MPD2    H7 6678   4.226   1.316  17.030  0.6953 -0.2367 -1.3011
  445TMC3    C1 6679   0.102   1.017  16.758  0.1555 -0.7338 -0.4990
  445TMC3    C2 6680   0.026   0.961  16.659 -0.1053 -0.5097 -0.1322
  445TMC3    C3 6681   0.067   0.832  16.616 -0.9667  0.7610  0.0189
  445TMC3    C4 6682   0.227   0.959  16.786 -0.2977 -0.6567  0.4345
  445TMC3    C5 6683   0.262   0.841  16.747 -0.3173  0.1892 -0.0202
  445TMC3    C6 6684   0.185   0.767  16.661  0.0582 -0.2202  0.8023
  445TMC3     C 6685   0.071   1.136  16.825 -0.0672 -0.1709  1.1780
  445TMC3     O 6686   0.172   1.196  16.860 -0.3621 -0.1969  0.0281
  445TMC3     H 6687   4.677   1.008  16.616  0.1500 -0.7423 -0.9112
  445TMC3    H1 6688   0.291   1.011  16.856  3.2617 -0.7028 -2.7741
  445TMC3    H2 6689   0.210   0.672  16.617 -0.4917 -0.1072  0.2390
  445TMC3    C7 6690   0.399   0.804  16.746 -0.4259 -0.4733 -0.1353
  445TMC3    C8 6691   4.732   0.779  16.502 -0.3371 -0.1903 -1.0937
  445TMC3    O1 6692   0.482   0.896  16.736 -0.3584  0.0481  0.8413
  445TMC3    O2 6693   4.664   0.863  16.442  0.4551  0.3031 -0.3731
  446MPD2     C 6694   4.563   2.478  10.493 -0.4221 -0.4585  0.7998
  446MPD2    C1 6695   4.469   2.534  10.577  0.3171 -0.2739 -0.1454
  446MPD2    C2 6696   4.511   2.612  10.683 -0.7599  0.4847 -0.3372
  446MPD2    C3 6697   4.645   2.626  10.705  0.0511  0.2121  0.4622
  446MPD2    C4 6698   4.736   2.564  10.615  0.4902 -0.8659 -0.3211
  446MPD2    C5 6699   4.689   2.490  10.515  0.3954  0.5965  0.2055
  446MPD2     H 6700   4.437   2.643  10.757 -0.3793 -1.5357  0.8993
  446MPD2    H1 6701   0.104   2.580  10.616  0.4497 -0.6915  0.6705
  446MPD2    H2 6702   4.533   2.409  10.414 -2.3318 -1.2365  2.2065
  446MPD2    H3 6703   0.021   2.444  10.448 -0.3966  0.6472 -0.6782
  446MPD2     N 6704   4.687   2.707  10.816 -0.5355 -0.1959 -0.3248
  446MPD2    H5 6705   4.622   2.757  10.876  0.4532  0.7867 -0.0788
  446MPD2    N1 6706   4.329   2.511  10.567  0.6844 -0.3127 -1.1014
  446MPD2    H7 6707   4.268   2.555  10.636  1.7610  0.0586 -0.3849
  447TMC3    C1 6708   0.112   2.780  10.979  0.4514 -0.2414 -0.0752
  447TMC3    C2 6709   0.055   2.901  11.003 -0.0803  0.9406  0.1734
  447TMC3    C3 6710   0.129   2.991  11.083 -0.4686 -0.0534  0.0793
  447TMC3    C4 6711   0.240   2.749  11.031 -0.2400 -0.1874 -0.6746
  447TMC3    C5 6712   0.307   2.849  11.105  0.2456  0.1365 -0.8127
  447TMC3    C6 6713   0.254   2.975  11.127  0.2844  0.7216 -0.6143
  447TMC3     C 6714   0.066   2.682  10.880 -0.1295  0.3714 -0.6426
  447TMC3     O 6715   0.125   2.578  10.872 -0.1913  0.7266  0.2022
  447TMC3     H 6716   4.700   2.932  10.958 -0.1119  1.4679  0.6046
  447TMC3    H1 6717   0.293   2.654  11.024 -0.2137 -0.2824  0.7469
  447TMC3    H2 6718   0.324   3.055  11.149 -0.0956  0.6142  1.0192
  447TMC3    C7 6719   0.447   2.827  11.134 -0.0320 -0.0586 -0.1805
  447TMC3    C8 6720   0.064   3.114  11.116  0.4030  0.7493  0.7254
  447TMC3    O1 6721   0.495   2.738  11.073  0.3650  0.0778 -0.3949
  447TMC3    O2 6722   4.692   3.133  11.069  0.3443  0.2578 -0.4423
  448TMC3    C1 6723   2.399   1.998  17.044 -0.2774  0.0512 -0.3814
  448TMC3    C2 6724   2.353   1.999  16.916 -0.0250  1.0559 -0.0595
  448TMC3    C3 6725   2.314   1.879  16.856 -0.0490  0.3057  0.3924
  448TMC3    C4 6726   2.427   1.886  17.115  0.0749  0.1491 -0.6327
  448TMC3    C5 6727   2.391   1.768  17.055 -0.1535  0.1686 -0.3196
  448TMC3    C6 6728   2.332   1.764  16.929 -0.0025  0.0302  0.2707
  448TMC3     C 6729   2.436   2.121  17.111 -0.3975 -0.5249  0.2869
  448TMC3     O 6730   2.475   2.206  17.035  0.0612 -0.6638  0.2554
  448TMC3     H 6731   2.333   2.094  16.866 -0.1681  0.8994 -0.3026
  448TMC3    H1 6732   2.462   1.891  17.217  0.5387 -0.5957 -0.7591
  448TMC3    H2 6733   2.287   1.670  16.900  0.6224 -0.1946  0.0408
  448TMC3    C7 6734   2.462   1.644  17.092 -0.2097  0.0048 -0.1465
  448TMC3    C8 6735   2.324   1.871  16.714  1.0923  0.4447  0.3136
  448TMC3    O1 6736   2.446   1.548  17.021  0.1280  0.1269 -0.0775
  448TMC3    O2 6737   2.350   1.762  16.662  0.9662 -0.0572 -0.2651
  449MPD2     C 6738   4.116   1.273  14.182  0.1736  0.8282  0.9995
  449MPD2    C1 6739   4.027   1.346  14.107  0.0199  0.6152  0.2836
  449MPD2    C2 6740   3.902   1.303  14.087 -0.2300  0.0589  0.8014
  449MPD2    C3 6741   3.863   1.178  14.137  0.5789 -0.6943 -0.1217
  449MPD2    C4 6742   3.962   1.100  14.207  0.4956  0.2432  0.0387
  449MPD2    C5 6743   4.085   1.146  14.221  0.1710 -0.1746 -0.5224
  449MPD2     H 6744   3.827   1.363  14.036 -1.4039 -0.7245  1.5886
  449MPD2    H1 6745   3.943   1.000  14.244 -1.5562  0.7270  0.2829
  449MPD2    H2 6746   4.211   1.316  14.212  1.3053 -1.2735  0.4497
  449MPD2    H3 6747   4.158   1.085  14.273  0.5188  1.5491  1.0043
  449MPD2     N 6748   3.739   1.127  14.093 -0.4617 -0.0950 -0.4490
  449MPD2    H5 6749   3.678   1.177  14.028  0.5904  1.1333 -0.4950
  449MPD2    N1 6750   4.046   1.475  14.052 -0.0689  0.3705 -0.8222
  449MPD2    H7 6751   3.961   1.521  14.021 -0.0807  0.6838 -0.3328
  450TMC3    C1 6752   4.129   1.681  13.998  0.5036 -0.1638  0.4875
  450TMC3    C2 6753   4.168   1.679  13.864  0.1075  0.0436  0.7299
  450TMC3    C3 6754   4.071   1.722  13.774  0.4298  0.3223  0.2422
  450TMC3    C4 6755   4.002   1.714  14.039 -0.3207 -0.3807 -0.1811
  450TMC3    C5 6756   3.904   1.756  13.950 -0.0987 -0.6489  0.1610
  450TMC3    C6 6757   3.948   1.763  13.816  0.0484  0.0663 -0.6069
  450TMC3     C 6758   4.163   1.547  14.051 -0.4193  0.1101 -0.3655
  450TMC3     O 6759   4.276   1.503  14.046  0.0531 -0.2094 -0.4640
  450TMC3     H 6760   4.253   1.618  13.836  0.9545  1.2579  0.6451
  450TMC3    H1 6761   3.972   1.723  14.142 -0.5279  0.8112 -0.3462
  450TMC3    H2 6762   3.873   1.776  13.739 -0.4565  0.7339  0.0005
  450TMC3    C7 6763   3.778   1.687  13.965 -0.0381  0.3815 -0.7866
  450TMC3    C8 6764   4.107   1.726  13.634  0.3043  0.3998 -0.0896
  450TMC3    O1 6765   3.780   1.592  14.037 -0.3571  1.0198 -0.0831
  450TMC3    O2 6766   4.032   1.796  13.570 -0.5547 -0.1138  0.3036
  451MPD2     C 6767   0.745   4.352   1.367 -0.5232 -0.3542  0.0152
  451MPD2    C1 6768   0.730   4.222   1.401  0.1157 -0.5318 -0.5879
  451MPD2    C2 6769   0.834   4.135   1.362  0.0803 -0.4148 -0.4268
  451MPD2    C3 6770   0.947   4.175   1.288  0.0164  0.1771  0.0220
  451MPD2    C4 6771   0.955   4.308   1.248 -0.3719 -0.2659  0.3678
  451MPD2    C5 6772   0.853   4.390   1.289  0.5302  0.1992  0.1042
  451MPD2     H 6773   0.828   4.032   1.395  0.1673 -0.6523 -1.1524
  451MPD2    H1 6774   1.025   4.350   1.177  1.0436 -3.3899 -0.0511
  451MPD2    H2 6775   0.669   4.427   1.382  0.7314  0.8983  0.1232
  451MPD2    H3 6776   0.863   4.494   1.258 -1.6249 -0.1676 -1.7763
  451MPD2     N 6777   1.039   4.077   1.231  0.2318 -0.2709 -0.5043
  451MPD2    H5 6778   1.112   4.114   1.171  0.4286 -0.8402 -0.6154
  451MPD2    N1 6779   0.603   4.186   1.449 -0.1759  0.0218  0.6847
  451MPD2    H7 6780   0.531   4.257   1.452 -1.8670 -1.6816  0.3504
  452TMC3    C1 6781   1.118   3.883   1.131 -0.1440 -0.5993 -0.1029
  452TMC3    C2 6782   1.070   3.763   1.091  0.3093  0.2242  0.2508
  452TMC3    C3 6783   1.128   3.714   0.976 -0.7138 -0.2034 -0.0913
  452TMC3    C4 6784   1.209   3.959   1.070  0.8147  0.0525  0.2721
  452TMC3    C5 6785   1.246   3.920   0.941  0.3324 -0.3790 -0.4967
  452TMC3    C6 6786   1.215   3.789   0.892 -0.0915 -0.3621 -0.0473
  452TMC3     C 6787   1.033   3.940   1.240  0.3329  0.3885 -0.1896
  452TMC3     O 6788   0.943   3.871   1.280 -0.0952 -0.0964 -0.2894
  452TMC3     H 6789   1.002   3.703   1.150 -0.4943 -0.3846 -1.2845
  452TMC3    H1 6790   1.235   4.056   1.110 -0.0446 -0.3045  1.7035
  452TMC3    H2 6791   1.265   3.754   0.802  0.0221  0.3881 -0.2767
  452TMC3    C7 6792   1.209   4.024   0.847  0.4545  0.3067  0.1251
  452TMC3    C8 6793   1.062   3.619   0.892 -0.1136 -0.4152 -0.1211
  452TMC3    O1 6794   1.189   4.139   0.893 -0.1005 -0.0938 -0.0540
  452TMC3    O2 6795   1.072   3.639   0.772 -0.1424  0.5121  0.0589
  453TMC3    C1 6796   1.526   1.719  12.317 -0.1994  0.2305 -0.5635
  453TMC3    C2 6797   1.459   1.604  12.338  0.5317 -0.1752 -0.5808
  453TMC3    C3 6798   1.374   1.578  12.231  0.3260 -0.8538 -0.2796
  453TMC3    C4 6799   1.513   1.804  12.210 -0.0043  0.5226  0.1859
  453TMC3    C5 6800   1.424   1.771  12.110  0.4230  0.3160 -0.2295
  453TMC3    C6 6801   1.357   1.650  12.121  0.0666 -0.3987  0.3174
  453TMC3     C 6802   1.639   1.748  12.411  0.5072  0.8129  1.0283
  453TMC3     O 6803   1.682   1.864  12.402 -0.0907 -0.7546 -0.1328
  453TMC3     H 6804   1.457   1.546  12.429  1.3361 -0.6708 -0.8735
  453TMC3    H1 6805   1.581   1.886  12.191  0.5736 -0.1095 -0.4331
  453TMC3    H2 6806   1.296   1.614  12.039 -0.1866  1.4590 -0.3243
  453TMC3    C7 6807   1.460   1.841  11.992  0.7605 -0.1447  0.0425
  453TMC3    C8 6808   1.293   1.464  12.246  0.0521  0.1025 -0.2042
  453TMC3    O1 6809   1.496   1.956  12.003 -0.3469  0.4191 -0.1872
  453TMC3    O2 6810   1.188   1.470  12.181 -0.1137  0.4019  0.3768
  454MPD2     C 6811   0.600   1.252  16.562 -0.3383 -0.5681 -0.6940
  454MPD2    C1 6812   0.519   1.350  16.508  0.5601 -0.0049  0.5225
  454MPD2    C2 6813   0.435   1.431  16.584  0.4656  0.6853 -0.0985
  454MPD2    C3 6814   0.440   1.424  16.722 -0.3538 -0.1670 -0.0656
  454MPD2    C4 6815   0.537   1.343  16.772 -0.6304 -0.3012 -0.2264
  454MPD2    C5 6816   0.605   1.250  16.701 -0.2525  0.1137 -0.0776
  454MPD2     H 6817   0.377   1.496  16.519  0.8744  1.9239  0.7728
  454MPD2    H1 6818   0.544   1.342  16.880 -1.6287 -0.6420 -0.1585
  454MPD2    H2 6819   0.655   1.186  16.496 -1.6166  0.0036 -2.3296
  454MPD2    H3 6820   0.679   1.192  16.755 -0.8703  0.5049  1.1923
  454MPD2     N 6821   0.352   1.493  16.809 -0.2877  0.4122  0.1206
  454MPD2    H5 6822   0.380   1.503  16.906  1.5439 -0.5330 -0.3111
  454MPD2    N1 6823   0.505   1.371  16.368 -0.6887  0.9979  0.0240
  454MPD2    H7 6824   0.458   1.457  16.341 -0.0208  1.5196  0.5238
  455TMC3    C1 6825   0.169   1.544  16.657 -0.0926 -0.1706  0.1408
  455TMC3    C2 6826   0.086   1.643  16.608 -0.6605 -0.0081  0.1593
  455TMC3    C3 6827   4.722   1.611  16.523 -0.5830 -0.3738 -0.6482
  455TMC3    C4 6828   0.129   1.416  16.626 -0.3066  0.0492  0.1172
  455TMC3    C5 6829   0.036   1.385  16.534  0.1542  0.2158  0.8661
  455TMC3    C6 6830   4.692   1.483  16.485 -0.1402  0.9463  0.0821
  455TMC3     C 6831   0.236   1.563  16.783 -0.0624  0.4433  0.9761
  455TMC3     O 6832   0.178   1.631  16.865  0.1080  0.9212  0.7962
  455TMC3     H 6833   0.106   1.749  16.622  0.0540 -0.0311 -0.6724
  455TMC3    H1 6834   0.197   1.339  16.662  0.4111 -0.1847 -1.7496
  455TMC3    H2 6835   4.635   1.470  16.395 -2.6199  0.8981  1.6690
  455TMC3    C7 6836   0.059   1.278  16.446  0.2949  0.2915  0.1549
  455TMC3    C8 6837   4.615   1.711  16.529  0.3362  0.5398 -0.5934
  455TMC3    O1 6838   4.708   1.259  16.368  0.0831  0.8338  0.5742
  455TMC3    O2 6839   4.648   1.827  16.520 -0.0499 -0.2509 -0.0072
  456MPD2     C 6840   3.276   1.548  15.674  0.0213  0.1974 -0.0656
  456MPD2    C1 6841   3.272   1.441  15.763  0.4644  0.1292  0.5015
  456MPD2    C2 6842   3.168   1.433  15.853 -0.6555 -0.5096 -0.5534
  456MPD2    C3 6843   3.073   1.529  15.866 -0.2312  0.4805 -0.0436
  456MPD2    C4 6844   3.091   1.641  15.786  0.0843 -0.9115 -0.0745
  456MPD2    C5 6845   3.194   1.656  15.692  0.7231 -0.0302 -0.6311
  456MPD2     H 6846   3.177   1.354  15.927 -1.3429 -1.1650 -1.1714
  456MPD2    H1 6847   3.016   1.720  15.786  0.6592 -0.3619 -0.1648
  456MPD2    H2 6848   3.358   1.561  15.604 -2.5579  0.3263 -3.0601
  456MPD2    H3 6849   3.195   1.736  15.619  1.7541  1.4282  0.9719
  456MPD2     N 6850   2.967   1.515  15.958 -0.4304 -0.0589  0.2011
  456MPD2    H5 6851   2.964   1.421  15.996 -0.2269 -1.3033 -2.8215
  456MPD2    N1 6852   3.386   1.352  15.756 -0.1785  0.4304 -0.4132
  456MPD2    H7 6853   3.464   1.377  15.697  0.7987  0.4783  0.9080
  457TMC3    C1 6854   2.757   1.562  16.063 -0.1484  0.3903 -0.6112
  457TMC3    C2 6855   2.654   1.654  16.084 -0.5656  0.0781  0.6219
  457TMC3    C3 6856   2.541   1.607  16.139  0.1628 -0.1626 -0.1576
  457TMC3    C4 6857   2.748   1.435  16.103 -0.3709  0.5942 -0.0270
  457TMC3    C5 6858   2.639   1.394  16.169  0.8265  0.2588  0.3354
  457TMC3    C6 6859   2.532   1.477  16.177 -0.1806  0.4967  0.5379
  457TMC3     C 6860   2.873   1.610  15.983 -0.6797 -0.1434  0.3589
  457TMC3     O 6861   2.862   1.728  15.957  0.2209 -0.0913  0.3491
  457TMC3     H 6862   2.652   1.754  16.042 -1.6349 -1.9895 -4.2803
  457TMC3    H1 6863   2.833   1.367  16.103  1.0363  2.3403  2.1814
  457TMC3    H2 6864   2.445   1.443  16.231  0.4717 -0.9820  0.6356
  457TMC3    C7 6865   2.681   1.346  16.303 -0.1855  0.6261  0.1738
  457TMC3    C8 6866   2.479   1.693  16.235 -0.3864 -0.4310  0.3912
  457TMC3    O1 6867   2.787   1.290  16.307  0.0264  0.0494 -0.2012
  457TMC3    O2 6868   2.449   1.644  16.340 -0.5811  0.0740  0.0633
  458MPD2     C 6869   0.940   1.061  12.555  0.0958  0.1089 -0.2393
  458MPD2    C1 6870   0.902   0.959  12.636  0.6972 -0.6203  0.2249
  458MPD2    C2 6871   0.773   0.907  12.616 -0.0466 -0.1022  0.1766
  458MPD2    C3 6872   0.690   0.952  12.516 -0.1857  0.0766 -0.2028
  458MPD2    C4 6873   0.734   1.054  12.435 -0.5195 -0.6277  0.3553
  458MPD2    C5 6874   0.864   1.096  12.449  0.0105 -0.1768 -0.6235
  458MPD2     H 6875   0.725   0.837  12.684  1.5412 -0.0544  1.3420
  458MPD2    H1 6876   0.679   1.091  12.348  3.3521 -1.1307 -2.2848
  458MPD2    H2 6877   1.035   1.112  12.567 -0.9101  1.9803 -0.1821
  458MPD2    H3 6878   0.892   1.177  12.382 -2.7647  1.2936 -0.0376
  458MPD2     N 6879   0.557   0.899  12.522 -0.0960 -0.6604  1.1220
  458MPD2    H5 6880   0.543   0.826  12.591  2.2910 -1.8274  0.3819
  458MPD2    N1 6881   0.986   0.923  12.741 -0.1645  0.3185 -0.2473
  458MPD2    H7 6882   1.078   0.964  12.757 -1.0519  1.7132  1.3415
  459TMC3    C1 6883   1.082   0.780  12.911 -0.3555  0.3464  0.1068
  459TMC3    C2 6884   1.209   0.821  12.882 -0.2125 -0.9892  0.3889
  459TMC3    C3 6885   1.313   0.773  12.960  0.2221  0.3844 -0.1970
  459TMC3    C4 6886   1.053   0.698  13.018 -0.4381 -0.4192  0.3930
  459TMC3    C5 6887   1.160   0.669  13.102  0.4718  0.7140 -0.2262
  459TMC3    C6 6888   1.287   0.700  13.072  0.0702  0.0835 -0.3174
  459TMC3     C 6889   0.962   0.821  12.830  0.2063  0.2340 -0.5737
  459TMC3     O 6890   0.859   0.767  12.865  0.6802 -0.1271 -0.3269
  459TMC3     H 6891   1.233   0.874  12.790  0.2643 -0.3000  0.9138
  459TMC3    H1 6892   0.958   0.647  13.023  0.0447 -1.4973 -1.6594
  459TMC3    H2 6893   1.370   0.673  13.137  0.4887  1.2498 -0.3623
  459TMC3    C7 6894   1.134   0.582  13.219  0.6448 -0.0694 -0.2781
  459TMC3    C8 6895   1.446   0.821  12.952  0.1599 -0.2312 -0.1413
  459TMC3    O1 6896   1.234   0.542  13.280 -0.3499  0.4722 -0.8659
  459TMC3    O2 6897   1.538   0.749  12.989  0.2553  0.3330 -0.0823
  460MPD2     C 6898   0.195   3.430  11.274  0.2520 -0.6621  0.0629
  460MPD2    C1 6899   0.145   3.352  11.172 -0.0673  0.2354  0.6237
  460MPD2    C2 6900   0.097   3.408  11.059 -0.4827 -0.1480  0.5367
  460MPD2    C3 6901   0.108   3.543  11.039  0.2300  0.7558  0.2994
  460MPD2    C4 6902   0.150   3.630  11.144 -0.1634  0.5413 -0.1911
  460MPD2    C5 6903   0.190   3.570  11.260  0.3715  0.0813  0.3650
  460MPD2     H 6904   0.058   3.348  10.977 -0.6039  0.3375  0.2390
  460MPD2    H1 6905   0.161   3.735  11.123 -2.2589  0.8276  0.1330
  460MPD2    H2 6906   0.230   3.395  11.370 -0.0264 -0.1296  0.3575
  460MPD2    H3 6907   0.230   3.636  11.336 -0.6124 -1.9554  2.6662
  460MPD2     N 6908   0.084   3.595  10.911 -0.1204  0.5489  0.2214
  460MPD2    H5 6909   0.074   3.527  10.836  0.6018  0.5597  0.1190
  460MPD2    N1 6910   0.142   3.207  11.189 -0.0411  0.6847  0.4148
  460MPD2    H7 6911   0.209   3.169  11.255  1.2914  1.1174 -0.6894
  461TMC3    C1 6912   0.091   3.739  10.718 -0.5265 -0.5775  0.5835
  461TMC3    C2 6913   0.059   3.627  10.642  0.2469 -0.3340  0.1483
  461TMC3    C3 6914   0.033   3.654  10.508  0.2754 -0.6415  0.0114
  461TMC3    C4 6915   0.112   3.863  10.667 -0.1972 -0.1050  0.0482
  461TMC3    C5 6916   0.100   3.880  10.527  0.5107  0.5346  0.5242
  461TMC3    C6 6917   0.061   3.774  10.453  0.7763  0.2682  0.0555
  461TMC3     C 6918   0.115   3.723  10.862  0.3570  0.8757 -0.2782
  461TMC3     O 6919   0.166   3.816  10.923  0.4106 -0.8062  0.0607
  461TMC3     H 6920   0.040   3.529  10.685  0.9395  1.6493  4.9174
  461TMC3    H1 6921   0.145   3.939  10.737 -1.1463 -1.1718  1.6397
  461TMC3    H2 6922   0.057   3.789  10.346 -3.2697 -2.1968 -0.1467
  461TMC3    C7 6923   0.128   4.012  10.466 -0.2886  0.3996  0.5070
  461TMC3    C8 6924   0.042   3.542  10.419 -0.4250  0.3178 -0.4571
  461TMC3    O1 6925   0.080   4.038  10.354  0.5800 -0.2058 -0.3272
  461TMC3    O2 6926   4.683   3.534  10.343  0.0773  0.0232 -0.5090
  462TMC3    C1 6927   4.443   4.263  17.665  0.8257 -0.4136 -0.2403
  462TMC3    C2 6928   4.548   4.265  17.744 -0.4915 -0.5626 -0.7051
  462TMC3    C3 6929   4.573   4.140   0.059 -0.1135  0.0868  0.0912
  462TMC3    C4 6930   4.354   4.157  17.642 -0.4003 -0.2287  0.0412
  462TMC3    C5 6931   4.386   4.040  17.703  0.0507 -0.2174 -1.1592
  462TMC3    C6 6932   4.495   4.028   0.033  0.2540 -0.1069 -0.0301
  462TMC3     C 6933   4.407   4.386  17.606  0.1136  0.3308  0.6966
  462TMC3     O 6934   4.510   4.459  17.582  0.4576 -0.6011  0.1761
  462TMC3     H 6935   4.620   4.344  17.727 -0.9785 -0.3973 -2.0027
  462TMC3    H1 6936   4.274   4.165  17.570  0.1841  2.8035 -0.2995
  462TMC3    H2 6937   4.509   3.936   0.088 -2.3252  0.0294  0.8520
  462TMC3    C7 6938   4.299   3.922  17.688  0.3928 -0.7122 -0.8722
  462TMC3    C8 6939   4.708   4.104   0.074  0.2727 -0.5067 -0.4081
  462TMC3    O1 6940   4.350   3.818  17.730  0.1563  0.4078  0.1684
  462TMC3    O2 6941   0.056   4.192   0.082  0.8104 -0.2592  0.3765
  463MPD2     C 6942   1.124   2.804   1.935 -0.3130  0.0772  0.0037
  463MPD2    C1 6943   0.996   2.845   1.899 -1.0116  0.1907 -0.4180
  463MPD2    C2 6944   0.986   2.968   1.837  0.0434 -0.4190  0.8213
  463MPD2    C3 6945   1.097   3.047   1.798 -0.1947 -0.4157 -0.0403
  463MPD2    C4 6946   1.225   3.001   1.832 -0.5651  0.0683  0.5344
  463MPD2    C5 6947   1.229   2.877   1.891  0.0768  0.1659 -0.8327
  463MPD2     H 6948   0.889   3.011   1.813  1.0505  1.7416  0.6501
  463MPD2    H1 6949   1.316   3.053   1.803  0.6854 -1.9784  0.7474
  463MPD2    H2 6950   1.143   2.712   1.989  1.7043 -0.4619 -1.6031
  463MPD2    H3 6951   1.330   2.842   1.910  0.4445  0.6652 -1.8728
  463MPD2     N 6952   1.095   3.177   1.740 -0.1578  0.1014  0.5797
  463MPD2    H5 6953   1.176   3.202   1.685 -0.2399 -0.0196  0.4048
  463MPD2    N1 6954   0.876   2.767   1.916 -0.1487 -0.4951 -0.6845
  463MPD2    H7 6955   0.791   2.808   1.879 -0.0324 -1.1763 -1.7099
  464TMC3    C1 6956   0.742   2.565   1.932  0.1819  0.7263  0.0018
  464TMC3    C2 6957   0.620   2.632   1.917  0.4996  0.4582 -0.3009
  464TMC3    C3 6958   0.501   2.561   1.896 -0.0714 -0.7784  0.4270
  464TMC3    C4 6959   0.744   2.426   1.918  0.3125  0.3262  0.0222
  464TMC3    C5 6960   0.630   2.365   1.876 -0.3918 -0.1634  0.4894
  464TMC3    C6 6961   0.507   2.423   1.872 -0.8483 -0.6051 -1.0329
  464TMC3     C 6962   0.873   2.631   1.949 -0.1875 -0.4441  0.0017
  464TMC3     O 6963   0.962   2.562   1.993 -0.3363  0.4427 -0.3662
  464TMC3     H 6964   0.609   2.739   1.924  0.0920  0.4744 -1.0981
  464TMC3    H1 6965   0.840   2.377   1.903 -1.2372 -2.3076 -1.3756
  464TMC3    H2 6966   0.412   2.372   1.876 -0.8539 -0.3451  2.0518
  464TMC3    C7 6967   0.626   2.224   1.866 -0.1455  0.1579 -0.3269
  464TMC3    C8 6968   0.381   2.631   1.875 -0.6477 -0.5235 -0.6397
  464TMC3    O1 6969   0.726   2.173   1.910 -0.5064 -0.6211 -0.6956
  464TMC3    O2 6970   0.307   2.578   1.790  0.2007 -0.1450  0.2858
  465MPD2     C 6971   2.140   0.951  16.752 -0.4355  0.4763 -0.2192
  465MPD2    C1 6972   2.071   0.995  16.870 -0.5966  0.5089 -0.7067
  465MPD2    C2 6973   1.978   1.089  16.854  0.0038  0.1565  0.2301
  465MPD2    C3 6974   1.947   1.144  16.732  0.0046 -0.5115 -0.5368
  465MPD2    C4 6975   2.016   1.111  16.622  0.3085  0.1738 -0.2385
  465MPD2    C5 6976   2.114   1.016  16.634  0.4788 -1.0755 -0.0980
  465MPD2     H 6977   1.917   1.119  16.938  0.4421  0.2088  0.5250
  465MPD2    H1 6978   2.001   1.155  16.524  0.0352  1.7909  0.5445
  465MPD2    H2 6979   2.210   0.869  16.751 -0.3954  0.5237 -1.7029
  465MPD2    H3 6980   2.170   0.982  16.547  1.8183  1.4690 -0.2380
  465MPD2     N 6981   1.842   1.235  16.729  0.2483 -0.3576  0.9748
  465MPD2    H5 6982   1.777   1.238  16.807 -0.1934  2.8461  0.4527
  465MPD2    N1 6983   2.101   0.950  16.998  0.2383 -0.1381  0.0593
  465MPD2    H7 6984   2.043   0.974  17.077  0.5045 -0.6788  0.4173
  466TMC3    C1 6985   1.482   1.418  16.768  0.1937 -0.1470 -0.5893
  466TMC3    C2 6986   1.455   1.530  16.693 -0.5012  0.1799  0.9048
  466TMC3    C3 6987   1.532   1.559  16.589 -0.1075 -0.1847 -0.1276
  466TMC3    C4 6988   1.597   1.342  16.753  0.2740 -1.2203 -0.2962
  466TMC3    C5 6989   1.680   1.383  16.655 -0.1611 -0.2751 -0.2113
  466TMC3    C6 6990   1.643   1.483  16.571 -0.6818  0.4709  0.5728
  466TMC3     C 6991   1.423   1.406  16.902 -0.1718  0.5352 -0.0785
  466TMC3     O 6992   1.496   1.352  16.990 -0.1376 -0.0698  0.5058
  466TMC3     H 6993   1.358   1.578  16.698 -1.2415 -1.2149 -0.1119
  466TMC3    H1 6994   1.610   1.255  16.815  0.3033  0.2183  1.7153
  466TMC3    H2 6995   1.712   1.498  16.488 -0.0957  3.2043  1.5594
  466TMC3    C7 6996   1.801   1.307  16.625  0.3326 -0.1309 -0.0806
  466TMC3    C8 6997   1.517   1.678  16.512 -0.6652 -0.2771 -0.9649
  466TMC3    O1 6998   1.854   1.328  16.517  0.4255 -0.0538 -0.2833
  466TMC3    O2 6999   1.542   1.669  16.397 -0.0498 -0.4725  0.6962
  467TMC3    C1 7000   2.788   0.529  13.776 -0.0911  0.2103 -0.6482
  467TMC3    C2 7001   2.803   0.641  13.703  0.0540 -0.6604 -0.0631
  467TMC3    C3 7002   2.754   0.647  13.577  0.0192  0.5702 -0.0393
  467TMC3    C4 7003   2.720   0.422  13.738  0.7732 -0.3223  0.3618
  467TMC3    C5 7004   2.667   0.434  13.610 -0.2042  0.3653  0.2584
  467TMC3    C6 7005   2.679   0.539  13.524 -0.1916 -0.6843  0.0911
  467TMC3     C 7006   2.895   0.515  13.875  0.0804  0.4683 -0.2267
  467TMC3     O 7007   2.993   0.584  13.853 -0.0089  0.2207 -0.3755
  467TMC3     H 7008   2.860   0.725  13.742 -0.6973  0.1545 -0.7288
  467TMC3    H1 7009   2.739   0.325  13.782  1.4235 -0.1300  0.5094
  467TMC3    H2 7010   2.643   0.539  13.422  1.8962 -2.6229 -0.6802
  467TMC3    C7 7011   2.554   0.347  13.575 -0.0947  0.7164  0.5820
  467TMC3    C8 7012   2.827   0.732  13.484 -0.4343  0.4265 -0.2355
  467TMC3    O1 7013   2.526   0.348  13.454  0.2573 -0.1711 -0.2100
  467TMC3    O2 7014   2.864   0.841  13.523 -0.0597 -0.2570 -0.2019
  468MPD2     C 7015   1.529   3.386  10.799  0.0835 -0.2034 -0.2137
  468MPD2    C1 7016   1.669   3.394  10.792  0.3222 -0.0202  0.3484
  468MPD2    C2 7017   1.738   3.274  10.792 -0.1483  0.1933 -0.1979
  468MPD2    C3 7018   1.673   3.156  10.816 -0.3803 -0.4874  0.4250
  468MPD2    C4 7019   1.533   3.158  10.811  0.3307 -0.3437  0.5184
  468MPD2    C5 7020   1.461   3.270  10.799 -0.0418  0.2857 -0.0202
  468MPD2     H 7021   1.847   3.267  10.792 -0.0431  1.8219  0.8672
  468MPD2    H1 7022   1.482   3.064  10.830  0.1443 -0.5389 -0.9908
  468MPD2    H2 7023   1.478   3.481  10.789 -0.5438 -0.4296  0.8386
  468MPD2    H3 7024   1.353   3.268  10.805  0.0246  0.3051  1.0144
  468MPD2     N 7025   1.732   3.032  10.834  0.4923 -0.4746  0.4816
  468MPD2    H5 7026   1.668   2.958  10.862 -0.0260 -0.6798 -1.2849
  468MPD2    N1 7027   1.751   3.511  10.800 -0.1235 -0.3207 -0.5474
  468MPD2    H7 7028   1.850   3.488  10.808 -0.5017 -1.6382  0.2078
  469TMC3    C1 7029   1.829   3.728  10.804 -0.0375  0.2691 -0.2724
  469TMC3    C2 7030   1.964   3.696  10.798  0.0502 -0.5067 -0.4690
  469TMC3    C3 7031   2.061   3.784  10.835 -0.8906 -0.2002 -0.0006
  469TMC3    C4 7032   1.790   3.849  10.858  0.7308 -0.0001  0.6553
  469TMC3    C5 7033   1.889   3.931  10.904 -0.5009  0.8696  0.2066
  469TMC3    C6 7034   2.027   3.904  10.889  0.0414 -0.1433 -0.1509
  469TMC3     C 7035   1.714   3.635  10.804 -0.4385  0.1618 -0.4646
  469TMC3     O 7036   1.602   3.681  10.827 -0.1179 -0.4973  0.0391
  469TMC3     H 7037   1.992   3.591  10.791  0.9889 -0.3147  0.3652
  469TMC3    H1 7038   1.691   3.886  10.880  0.7611  0.3581  0.1939
  469TMC3    H2 7039   2.108   3.971  10.915  1.0744 -1.5868  0.3431
  469TMC3    C7 7040   1.856   4.002  11.018 -0.8231  0.6832  0.6116
  469TMC3    C8 7041   2.141   3.708  10.922 -0.5208  0.4141 -0.4881
  469TMC3    O1 7042   1.758   4.072  11.022  0.7163  0.0443 -0.4498
  469TMC3    O2 7043   2.095   3.728  11.038  0.3407  0.2915 -0.1567
  470TMC3    C1 7044   3.957   3.523   0.324  0.0008  0.5218 -0.2908
  470TMC3    C2 7045   4.028   3.639   0.297 -0.0170 -0.2653  0.3459
  470TMC3    C3 7046   4.141   3.660   0.364  0.8086 -0.0288 -0.1948
  470TMC3    C4 7047   3.994   3.429   0.420  0.4595  0.0901 -0.2075
  470TMC3    C5 7048   4.107   3.464   0.487 -0.4145 -0.0062  0.0212
  470TMC3    C6 7049   4.185   3.571   0.459  0.3860 -0.2830 -0.2880
  470TMC3     C 7050   3.856   3.493   0.225  0.2617  0.1424  0.3231
  470TMC3     O 7051   3.871   3.543   0.119 -0.3064 -0.7899 -0.5061
  470TMC3     H 7052   3.989   3.717   0.231  2.5861  0.3183 -0.4947
  470TMC3    H1 7053   3.946   3.334   0.437 -0.6393  0.5585 -0.6934
  470TMC3    H2 7054   4.279   3.587   0.508  0.3320 -0.1471 -0.2308
  470TMC3    C7 7055   4.112   3.417   0.621 -0.4022  0.3207 -0.6551
  470TMC3    C8 7056   4.207   3.784   0.356  0.9572 -1.0853  0.0286
  470TMC3    O1 7057   4.066   3.304   0.631  0.3538 -0.2205  0.1937
  470TMC3    O2 7058   4.138   3.878   0.317 -0.2409 -0.1013  0.5124
  471MPD2     C 7059   4.210   0.822  16.667 -0.2000  0.8343 -0.0629
  471MPD2    C1 7060   4.332   0.764  16.652 -0.2498  0.0916  0.3415
  471MPD2    C2 7061   4.439   0.794  16.741 -0.1781 -0.4181 -0.5998
  471MPD2    C3 7062   4.399   0.858  16.861  0.0608 -0.6736 -0.0524
  471MPD2    C4 7063   4.274   0.914  16.874 -0.0935 -0.1861  0.3209
  471MPD2    C5 7064   4.178   0.893  16.781 -0.6667 -0.2002 -0.1426
  471MPD2     H 7065   4.528   0.732  16.731  0.1237 -0.1660  0.5208
  471MPD2    H1 7066   4.256   0.972  16.964  2.4532  1.7608 -0.4262
  471MPD2    H2 7067   4.124   0.807  16.603 -0.1540  2.4868 -0.5224
  471MPD2    H3 7068   4.076   0.931  16.787 -0.3770  0.4003  0.9455
  471MPD2     N 7069   4.484   0.865  16.975 -0.0561  0.3635 -0.3388
  471MPD2    H5 7070   4.446   0.897  17.063 -2.3320  0.0170 -1.2074
  471MPD2    N1 7071   4.371   0.674  16.559 -0.1551  0.1112  0.2431
  471MPD2    H7 7072   4.470   0.651  16.558  0.1465  1.4326 -0.5871
  472TMC3    C1 7073   4.343   0.487  16.429  0.2808  0.1325 -0.4380
  472TMC3    C2 7074   4.267   0.432  16.331  0.1080 -0.1308 -0.4047
  472TMC3    C3 7075   4.276   0.291  16.330 -0.1736  0.3870  0.8753
  472TMC3    C4 7076   4.422   0.413  16.527  0.1038 -0.0092  0.2155
  472TMC3    C5 7077   4.426   0.278  16.509  0.2311 -0.1740  0.4104
  472TMC3    C6 7078   4.360   0.218  16.405  0.6596 -0.2075 -0.0101
  472TMC3     C 7079   4.289   0.615  16.471 -0.0903  0.7663 -0.2167
  472TMC3     O 7080   4.174   0.642  16.443  0.2618 -0.3728 -0.1921
  472TMC3     H 7081   4.204   0.487  16.262  1.7313 -2.7607 -4.0285
  472TMC3    H1 7082   4.472   0.465  16.607 -2.2899  2.1784  0.3134
  472TMC3    H2 7083   4.356   0.110  16.407  1.7625 -0.2075  2.1759
  472TMC3    C7 7084   4.473   0.194  16.616 -0.3626  0.3435  0.8747
  472TMC3    C8 7085   4.199   0.220  16.233  0.1593 -0.2085 -0.9054
  472TMC3    O1 7086   4.497   0.080  16.579 -0.2773 -0.1554  0.3570
  472TMC3    O2 7087   4.169   0.278  16.130  0.1952  0.2631  0.1423
  473MPD2     C 7088   4.427   2.405  13.641  0.5095 -0.2382  0.3903
  473MPD2    C1 7089   4.396   2.535  13.597  0.3686  0.0763  0.0464
  473MPD2    C2 7090   4.439   2.643  13.677 -0.5503  0.0363 -0.6099
  473MPD2    C3 7091   4.496   2.620  13.801  0.0025 -0.3185  0.1535
  473MPD2    C4 7092   4.539   2.494  13.830  0.1240  1.0389  0.2205
  473MPD2    C5 7093   4.494   2.381  13.756 -0.4066 -0.7906  0.2285
  473MPD2     H 7094   4.419   2.745  13.644  1.0084  0.6868  0.4257
  473MPD2    H1 7095   4.587   2.470  13.925  0.0132 -0.6510 -0.1498
  473MPD2    H2 7096   4.396   2.311  13.596  0.1908 -0.0838  0.2877
  473MPD2    H3 7097   4.521   2.281  13.786 -1.8225  0.0095  4.2121
  473MPD2     N 7098   4.518   2.723  13.894 -0.3468 -1.1275  0.2456
  473MPD2    H5 7099   4.551   2.676  13.977 -1.2324  0.4873  1.5125
  473MPD2    N1 7100   4.326   2.567  13.475  0.0002  0.2957 -0.7758
  473MPD2    H7 7101   4.318   2.667  13.462  1.9528  0.5716  0.0539
  474TMC3    C1 7102   4.514   2.944  13.996  0.7977 -0.2403 -0.1248
  474TMC3    C2 7103   4.523   3.080  13.969  0.1256 -0.1779 -0.2438
  474TMC3    C3 7104   4.493   3.167  14.072  0.5189 -0.1601  0.3105
  474TMC3    C4 7105   4.474   2.900  14.118  0.5236 -0.4187  0.0835
  474TMC3    C5 7106   4.464   2.989  14.219 -0.1746 -0.6101  0.2591
  474TMC3    C6 7107   4.477   3.127  14.201 -0.1867  0.3051  0.0099
  474TMC3     C 7108   4.494   2.861  13.877 -0.7496 -0.4811 -0.9083
  474TMC3     O 7109   4.457   2.930  13.783 -0.4571 -0.1872  0.0604
  474TMC3     H 7110   4.556   3.115  13.871  1.3861  1.2028  0.6750
  474TMC3    H1 7111   4.466   2.795  14.143 -4.8501 -0.2959 -1.1308
  474TMC3    H2 7112   4.479   3.197  14.284 -0.3879  1.3529 -0.8765
  474TMC3    C7 7113   4.408   2.938  14.347  0.0544 -0.1329 -0.3344
  474TMC3    C8 7114   4.510   3.308  14.049  0.0133 -0.4732  0.4220
  474TMC3    O1 7115   4.359   2.826  14.350 -0.1545  0.7012 -0.3418
  474TMC3    O2 7116   4.539   3.378  14.144  0.0165  0.3571 -0.3569
  475MPD2     C 7117   2.529   1.059  10.947 -0.0874 -0.6045 -0.2367
  475MPD2    C1 7118   2.606   1.082  10.832  0.6930  0.1526 -0.0550
  475MPD2    C2 7119   2.540   1.084  10.709  1.1540 -0.2256 -0.5107
  475MPD2    C3 7120   2.404   1.053  10.696 -0.3221  0.0025 -0.6154
  475MPD2    C4 7121   2.334   1.031  10.809  0.3572  0.0187 -1.1665
  475MPD2    C5 7122   2.397   1.024  10.933 -0.3285 -0.1152 -0.2254
  475MPD2     H 7123   2.598   1.109  10.621 -0.9537  1.2562 -1.4690
  475MPD2    H1 7124   2.229   1.003  10.806  0.6659 -1.1967 -0.6243
  475MPD2    H2 7125   2.566   1.049  11.048 -0.7859 -1.4487 -0.0637
  475MPD2    H3 7126   2.333   0.988  11.012  0.2987 -1.0850 -0.1480
  475MPD2     N 7127   2.345   1.076  10.569  0.3961 -0.0600  0.8912
  475MPD2    H5 7128   2.399   1.120  10.495  0.8654 -1.1911  0.5659
  475MPD2    N1 7129   2.744   1.100  10.857  0.1276 -0.1459 -0.1902
  475MPD2    H7 7130   2.781   1.092  10.951 -1.1509 -2.0192  0.1375
  476TMC3    C1 7131   2.975   1.141  10.825 -0.2981  0.4420 -0.1401
  476TMC3    C2 7132   3.072   1.144  10.732 -0.4998 -0.0325 -0.5678
  476TMC3    C3 7133   3.196   1.181  10.770 -0.1029  0.9346  0.3427
  476TMC3    C4 7134   2.986   1.163  10.959  0.3224 -0.2074  0.0566
  476TMC3    C5 7135   3.119   1.196  10.986  0.1952 -0.5338  0.5565
  476TMC3    C6 7136   3.227   1.206  10.900  0.9285  0.4029  0.6672
  476TMC3     C 7137   2.843   1.124  10.758  0.1236  0.2105  0.4277
  476TMC3     O 7138   2.828   1.152  10.639 -0.0218 -0.6763  0.7657
  476TMC3     H 7139   3.043   1.158  10.629  1.8733 -0.1555 -1.2470
  476TMC3    H1 7140   2.915   1.158  11.040  1.2705 -0.8956  0.8450
  476TMC3    H2 7141   3.326   1.242  10.922  0.3482  0.1114  3.7197
  476TMC3    C7 7142   3.148   1.248  11.120  0.1084  0.0159 -0.1187
  476TMC3    C8 7143   3.297   1.215  10.675  0.1519 -0.0900  0.1071
  476TMC3    O1 7144   3.095   1.186  11.212  0.4011 -0.1911  0.2586
  476TMC3    O2 7145   3.395   1.277  10.706 -0.0669  0.1362 -0.0881
  477MPD2     C 7146   0.855   2.779  11.757 -0.2371  0.5859  0.0171
  477MPD2    C1 7147   0.827   2.667  11.684  0.2639  0.6048 -0.2877
  477MPD2    C2 7148   0.792   2.553  11.748  0.2908 -0.4524 -0.2927
  477MPD2    C3 7149   0.795   2.553  11.886  0.1040 -0.8314 -0.4951
  477MPD2    C4 7150   0.828   2.667  11.958 -0.0441 -0.4816  0.2939
  477MPD2    C5 7151   0.859   2.784  11.895  0.2149  0.3323 -0.3890
  477MPD2     H 7152   0.774   2.460  11.694  0.4291  0.4181 -1.8523
  477MPD2    H1 7153   0.816   2.669  12.065 -0.9931  0.6704  0.1685
  477MPD2    H2 7154   0.864   2.878  11.716 -0.0461  0.9328  0.9036
  477MPD2    H3 7155   0.883   2.873  11.952 -0.0989 -1.0168  1.8662
  477MPD2     N 7156   0.735   2.442  11.940  0.5062 -0.3209  0.1506
  477MPD2    H5 7157   0.722   2.370  11.870  2.4574 -1.3464  0.8201
  477MPD2    N1 7158   0.794   2.678  11.546 -0.0329 -0.0646  0.3891
  477MPD2    H7 7159   0.771   2.770  11.509  0.8910  0.4929  1.2001
  478TMC3    C1 7160   0.648   2.577  11.390 -0.4774  0.4944  0.0926
  478TMC3    C2 7161   0.538   2.632  11.442  0.1691  0.4696  0.1140
  478TMC3    C3 7162   0.415   2.602  11.388  0.8442 -0.1327 -0.5458
  478TMC3    C4 7163   0.642   2.485  11.286 -0.0660  0.2147 -0.0080
  478TMC3    C5 7164   0.519   2.455  11.236  0.3170 -0.8751  0.0527
  478TMC3    C6 7165   0.408   2.518  11.281  0.1494  0.8376  0.2024
  478TMC3     C 7166   0.765   2.565  11.475 -0.3326  0.2358 -0.2749
  478TMC3     O 7167   0.834   2.462  11.470  0.1307  0.3854  0.1580
  478TMC3     H 7168   0.542   2.709  11.518 -2.5715  0.3366  0.3970
  478TMC3    H1 7169   0.730   2.438  11.245 -1.2788 -1.0613 -1.1161
  478TMC3    H2 7170   0.308   2.507  11.242  0.2155  0.3664  0.1657
  478TMC3    C7 7171   0.508   2.379  11.116 -0.3115 -0.5891  0.1621
  478TMC3    C8 7172   0.304   2.685  11.427  0.3522  0.1780 -0.1481
  478TMC3    O1 7173   0.526   2.254  11.121  0.1667 -0.1436 -0.1815
  478TMC3    O2 7174   0.226   2.699  11.339 -0.6539  0.1873  0.8850
  479MPD2     C 7175   4.200   0.039  15.297 -0.4118  0.2793 -0.2197
  479MPD2    C1 7176   4.143   4.659  15.339  0.3097 -0.2762 -0.5398
  479MPD2    C2 7177   4.142   4.632  15.477 -0.1806 -0.6782 -0.3171
  479MPD2    C3 7178   4.174   4.735  15.567  0.5719 -0.0938 -0.0559
  479MPD2    C4 7179   4.214   0.117  15.515 -0.0291 -0.4663  0.2563
  479MPD2    C5 7180   4.234   0.135  15.390  0.0792 -0.3441 -0.1558
  479MPD2     H 7181   4.104   4.538  15.516  2.5534 -2.0921 -1.0876
  479MPD2    H1 7182   4.228   0.197  15.587 -0.4299 -1.0340  0.9644
  479MPD2    H2 7183   4.214   0.070  15.194 -1.7047  0.0064 -0.4779
  479MPD2    H3 7184   4.272   0.231  15.357  4.2058 -1.8586  0.1654
  479MPD2     N 7185   4.158   4.722  15.705  0.2808  0.0291  0.2832
  479MPD2    H5 7186   4.207   0.048  15.767 -3.1125  1.0970  1.8261
  479MPD2    N1 7187   4.104   4.569  15.238  0.0213 -0.3510  0.5269
  479MPD2    H7 7188   4.110   4.600  15.142  0.6030 -1.6869  0.1282
  480TMC3    C1 7189   3.821   4.413  15.788 -0.2882  0.3372  0.3051
  480TMC3    C2 7190   3.744   4.459  15.691 -0.4109 -0.9227  0.0073
  480TMC3    C3 7191   3.791   4.572  15.628  0.5693 -0.4374  0.6210
  480TMC3    C4 7192   3.948   4.456  15.810  0.6999 -0.1862  0.6051
  480TMC3    C5 7193   3.987   4.569  15.747 -0.3104 -0.1628 -0.1945
  480TMC3    C6 7194   3.903   4.639  15.663 -0.4255  0.2172  0.1567
  480TMC3     C 7195   3.762   4.326  15.884 -0.1230  0.1620 -0.4815
  480TMC3     O 7196   3.842   4.261  15.942  0.3554 -0.5522  0.2290
  480TMC3     H 7197   3.649   4.417  15.661 -0.5714 -0.1864 -0.5239
  480TMC3    H1 7198   4.006   4.403  15.885  1.6134 -1.1225 -0.7514
  480TMC3    H2 7199   3.919   0.002  15.630  0.1715  0.3707  0.9117
  480TMC3    C7 7200   4.120   4.608  15.771 -0.3863  0.2147  0.1667
  480TMC3    C8 7201   3.731   4.595  15.496 -0.2275 -0.1368 -0.4278
  480TMC3    O1 7202   4.177   4.564  15.872 -0.4328 -0.2008  0.0763
  480TMC3    O2 7203   3.643   4.520  15.465 -0.5877  0.1005  0.0092
  481MPD2     C 7204   1.209   3.968  14.472  0.1907 -0.4012  0.6435
  481MPD2    C1 7205   1.083   3.998  14.504  0.5123  0.2390 -0.0325
  481MPD2    C2 7206   1.037   3.960  14.624  0.8151  0.6851  0.2260
  481MPD2    C3 7207   1.105   3.868  14.702  0.5420 -0.8694 -0.2610
  481MPD2    C4 7208   1.237   3.828  14.659 -0.1845  0.3550  0.0626
  481MPD2    C5 7209   1.282   3.881  14.542 -0.2499  0.2566 -0.1481
  481MPD2     H 7210   0.944   4.000  14.664  0.1586 -0.8472  0.2189
  481MPD2    H1 7211   1.289   3.757  14.723 -0.0861 -0.6159 -1.0996
  481MPD2    H2 7212   1.250   3.999  14.377 -1.5312  0.8063  0.2900
  481MPD2    H3 7213   1.381   3.843  14.517 -0.0497  0.2065  0.7197
  481MPD2     N 7214   1.057   3.811  14.823 -0.0596 -0.7081 -0.2864
  481MPD2    H5 7215   1.124   3.744  14.861  1.9308  1.4011 -0.1124
  481MPD2    N1 7216   1.006   4.074  14.412 -0.9751  0.2839 -0.9335
  481MPD2    H7 7217   1.052   4.106  14.327  1.4807  0.6631  0.5500
  482TMC3    C1 7218   0.797   4.146  14.298 -0.3805 -0.4346  0.2120
  482TMC3    C2 7219   0.659   4.129  14.287  0.6979 -0.1849 -0.4227
  482TMC3    C3 7220   0.607   4.145  14.160 -0.9354  0.4224  0.6572
  482TMC3    C4 7221   0.875   4.210  14.206 -0.3188 -0.4864  0.4270
  482TMC3    C5 7222   0.807   4.239  14.090  1.0097 -0.3242  0.0052
  482TMC3    C6 7223   0.682   4.199  14.055  0.3796 -0.2088 -0.2920
  482TMC3     C 7224   0.866   4.071  14.407  0.8153 -0.5310 -0.3037
  482TMC3     O 7225   0.790   4.013  14.481 -0.4235 -0.1877  0.9898
  482TMC3     H 7226   0.613   4.070  14.365 -0.7097  0.2698 -0.9089
  482TMC3    H1 7227   0.977   4.238  14.226 -0.3000  0.7675 -1.4566
  482TMC3    H2 7228   0.660   4.194  13.949  0.9094  1.0153 -0.4655
  482TMC3    C7 7229   0.899   4.247  13.986 -0.2485  1.0068 -0.4364
  482TMC3    C8 7230   0.510   4.048  14.123  0.4400  0.0593  0.9162
  482TMC3    O1 7231   0.908   4.347  13.919 -0.0807  0.2601  0.3118
  482TMC3    O2 7232   0.529   3.942  14.180 -0.5946 -0.9889  0.3027
  483TMC3    C1 7233   4.032   2.313   0.751 -0.4000 -0.3717  0.2484
  483TMC3    C2 7234   4.063   2.441   0.722  0.0523 -0.5097 -0.0781
  483TMC3    C3 7235   4.098   2.466   0.592 -0.0361 -0.1729 -0.3366
  483TMC3    C4 7236   4.045   2.205   0.667 -0.5095  0.3999  0.2819
  483TMC3    C5 7237   4.070   2.238   0.537  0.3724  0.2183  0.2876
  483TMC3    C6 7238   4.102   2.364   0.498  0.5478  0.2091  0.2407
  483TMC3     C 7239   3.968   2.279   0.880  0.0463  0.6854  0.2715
  483TMC3     O 7240   3.998   2.355   0.975  0.6769  0.2707 -0.1582
  483TMC3     H 7241   4.059   2.526   0.790 -0.6277 -0.8782  0.3421
  483TMC3    H1 7242   4.029   2.103   0.698  0.4564  0.1599 -0.0052
  483TMC3    H2 7243   4.126   2.389   0.395 -2.7946 -0.3302 -0.6748
  483TMC3    C7 7244   4.076   2.139   0.431 -0.2697  0.5454  0.2931
  483TMC3    C8 7245   4.077   2.601   0.527 -0.2664  0.1749  0.5013
  483TMC3    O1 7246   4.164   2.158   0.345  0.2087 -0.6101  0.2104
  483TMC3    O2 7247   4.016   2.596   0.420  0.3667  0.3151  0.0950
  484MPD2     C 7248   1.547   1.141  12.803  0.5531  0.6920 -0.3373
  484MPD2    C1 7249   1.576   1.019  12.858 -0.1423  0.2425  0.1973
  484MPD2    C2 7250   1.705   0.983  12.889  0.4857 -0.5679 -0.0065
  484MPD2    C3 7251   1.806   1.074  12.865 -0.5058 -1.2528 -1.1960
  484MPD2    C4 7252   1.774   1.196  12.815 -0.3428  0.8403  0.3944
  484MPD2    C5 7253   1.644   1.227  12.778  0.4577  0.1692  0.2495
  484MPD2     H 7254   1.741   0.886  12.921  0.4701 -0.9684 -1.2366
  484MPD2    H1 7255   1.845   1.277  12.815  1.6207 -0.8989  1.7795
  484MPD2    H2 7256   1.446   1.178  12.796  0.7245  0.8623 -1.9936
  484MPD2    H3 7257   1.626   1.331  12.750  0.4840 -0.3724 -1.7705
  484MPD2     N 7258   1.942   1.050  12.887  0.3599  0.4333  0.2511
  484MPD2    H5 7259   2.013   1.118  12.863  0.3675  0.4945  0.4439
  484MPD2    N1 7260   1.454   0.944  12.884  0.0145 -0.0963  0.1045
  484MPD2    H7 7261   1.369   0.997  12.864 -2.1843 -3.7346 -0.1262
  485TMC3    C1 7262   2.136   0.927  12.954  0.0067  0.4614 -0.5858
  485TMC3    C2 7263   2.191   0.804  12.981 -0.6402 -0.0759 -0.2525
  485TMC3    C3 7264   2.323   0.801  13.016  0.4904  0.7360  0.3588
  485TMC3    C4 7265   2.217   1.030  12.925 -0.1176 -0.2599 -0.2084
  485TMC3    C5 7266   2.346   1.026  12.959 -0.3235 -0.3491  0.0363
  485TMC3    C6 7267   2.403   0.915  13.012 -0.2832 -1.1970  0.0612
  485TMC3     C 7268   1.993   0.928  12.938 -0.0255  0.2706  0.5349
  485TMC3     O 7269   1.939   0.821  12.954 -0.1759  0.2936  0.1420
  485TMC3     H 7270   2.133   0.713  12.976  2.8545 -2.2925 -0.3412
  485TMC3    H1 7271   2.181   1.118  12.871  0.6222 -0.9906 -1.9009
  485TMC3    H2 7272   2.508   0.911  13.040 -0.7053 -2.1167  1.4644
  485TMC3    C7 7273   2.423   1.085  12.852 -0.1707 -0.2834 -0.2602
  485TMC3    C8 7274   2.392   0.696  12.938  0.5335 -0.3060 -0.0905
  485TMC3    O1 7275   2.394   1.202  12.819  0.3444  0.0808 -0.3640
  485TMC3    O2 7276   2.479   0.740  12.869 -0.5774 -0.0795  0.4662
  486MPD2     C 7277   3.559   0.033  12.887 -0.5045 -0.6626 -0.5241
  486MPD2    C1 7278   3.589   0.078  12.760 -0.1848 -0.3316 -0.4406
  486MPD2    C2 7279   3.604   0.212  12.732  0.2526 -0.5845 -0.0373
  486MPD2    C3 7280   3.575   0.304  12.832  0.2391  0.1377  0.0768
  486MPD2    C4 7281   3.546   0.261  12.959 -0.1502 -0.5287 -0.3937
  486MPD2    C5 7282   3.533   0.125  12.985 -0.3254 -0.4261  0.0713
  486MPD2     H 7283   3.637   0.241  12.633  1.5919 -0.6171  0.4001
  486MPD2    H1 7284   3.522   0.319  13.047 -1.6282 -2.6443  0.6227
  486MPD2    H2 7285   3.564   4.667  12.914 -3.4806 -0.5711  0.3231
  486MPD2    H3 7286   3.494   0.085  13.078 -0.9690  3.6302  1.5624
  486MPD2     N 7287   3.584   0.441  12.798  0.0767 -0.2710  0.2998
  486MPD2    H5 7288   3.602   0.462  12.700 -0.3064  1.3902  0.5892
  486MPD2    N1 7289   3.607   4.725  12.648  0.7663  0.4911 -0.0194
  486MPD2    H7 7290   3.639   0.031  12.563  2.2512  0.6931  0.6476
  487TMC3    C1 7291   3.622   4.520  12.541  0.1577 -0.4450 -0.2787
  487TMC3    C2 7292   3.540   4.419  12.519 -0.4273  0.4246 -0.8784
  487TMC3    C3 7293   3.595   4.298  12.485 -0.3738  0.0117  0.5675
  487TMC3    C4 7294   3.764   4.507  12.532  0.1669 -0.1861  0.0179
  487TMC3    C5 7295   3.815   4.390  12.502  0.6815  0.3161  0.2556
  487TMC3    C6 7296   3.729   4.293  12.447  0.3175  0.3550  0.5872
  487TMC3     C 7297   3.561   4.598  12.647 -0.0701  0.5240  0.7664
  487TMC3     O 7298   3.506   4.530  12.739 -0.2686  0.5567  0.0764
  487TMC3     H 7299   3.434   4.432  12.541 -0.0360  1.5416  0.2910
  487TMC3    H1 7300   3.823   4.591  12.567 -0.1660 -0.7692  1.9946
  487TMC3    H2 7301   3.782   4.201  12.425 -0.4105 -0.3412  1.7160
  487TMC3    C7 7302   3.865   4.340  12.629 -0.8101 -0.2468  0.4359
  487TMC3    C8 7303   3.543   4.179  12.546  0.4971 -0.2704 -0.0700
  487TMC3    O1 7304   3.890   4.424  12.715 -0.4074  0.2770  0.5608
  487TMC3    O2 7305   3.563   4.066  12.494  0.2317  0.2743  0.2404
  488MPD2     C 7306   3.532   1.553  16.529 -0.5806 -0.1531  0.7000
  488MPD2    C1 7307   3.538   1.684  16.567  0.1510 -0.4523  0.0090
  488MPD2    C2 7308   3.519   1.720  16.704  0.3145 -0.2593 -0.3836
  488MPD2    C3 7309   3.507   1.618  16.800 -0.5014  0.1481 -0.8954
  488MPD2    C4 7310   3.504   1.482  16.766 -0.3488  0.2740 -0.6206
  488MPD2    C5 7311   3.515   1.456  16.630 -0.0766 -0.4076  0.0356
  488MPD2     H 7312   3.496   1.823  16.729  1.8931 -0.5247  2.1629
  488MPD2    H1 7313   3.485   1.398  16.832  1.0069 -0.4162 -1.1025
  488MPD2    H2 7314   3.543   1.518  16.427  2.1800  1.3791  0.4636
  488MPD2    H3 7315   3.514   1.355  16.590  0.1943 -0.7185  0.8035
  488MPD2     N 7316   3.490   1.671  16.930 -0.6707 -0.7021  0.2837
  488MPD2    H5 7317   3.497   1.771  16.941 -0.5345 -0.8611  1.6457
  488MPD2    N1 7318   3.558   1.786  16.469 -0.2027  0.1053  0.3911
  488MPD2    H7 7319   3.566   1.883  16.496  1.6478  0.5167 -1.5857
  489TMC3    C1 7320   3.456   1.681  17.160  0.0300  0.4547 -0.4863
  489TMC3    C2 7321   3.444   1.813  17.120 -0.0197  0.7053 -0.2380
  489TMC3    C3 7322   3.345   1.897  17.165 -0.6303 -0.1902  0.0065
  489TMC3    C4 7323   3.364   1.630  17.250  0.5477 -0.0223  0.0697
  489TMC3    C5 7324   3.260   1.714  17.278 -0.9285 -0.2138 -0.0001
  489TMC3    C6 7325   3.245   1.839  17.235 -1.1355 -0.1469 -0.9292
  489TMC3     C 7326   3.478   1.594  17.048  0.1194  0.4624 -0.3913
  489TMC3     O 7327   3.475   1.473  17.058  0.7801 -0.1966 -0.0948
  489TMC3     H 7328   3.534   1.856  17.077 -0.9781  1.8118 -1.1157
  489TMC3    H1 7329   3.375   1.529  17.286  1.3608 -0.0267 -0.1731
  489TMC3    H2 7330   3.145   1.882  17.242 -1.0767 -0.2801  0.7933
  489TMC3    C7 7331   3.213   1.705  17.416  0.3379  0.4317  0.8485
  489TMC3    C8 7332   3.326   2.028  17.100  0.4851  0.5773 -0.5171
  489TMC3    O1 7333   3.167   1.809  17.456 -0.4016 -0.1151  0.6577
  489TMC3    O2 7334   3.385   2.038  16.994 -0.2131 -0.3474 -0.1840
  490MPD2     C 7335   4.527   1.114  17.359 -0.3468 -0.2688  0.0939
  490MPD2    C1 7336   4.524   1.008  17.443 -0.3084  0.1231  0.2911
  490MPD2    C2 7337   4.592   1.019  17.564 -0.5146  0.6833  0.1244
  490MPD2    C3 7338   4.676   1.126  17.595 -0.1189  0.3042  0.4021
  490MPD2    C4 7339   4.691   1.227  17.505 -0.6089 -0.3661 -0.7212
  490MPD2    C5 7340   4.613   1.216  17.389  0.1391  0.4684 -0.3028
  490MPD2     H 7341   4.569   0.948  17.643  0.1883  1.6054  1.1492
  490MPD2    H1 7342   0.006   1.320  17.520  0.6055 -1.1701 -0.1373
  490MPD2    H2 7343   4.476   1.122  17.264  1.1614  0.4172 -0.6675
  490MPD2    H3 7344   4.619   1.300  17.321 -2.1174 -0.0649 -1.1444
  490MPD2     N 7345   4.736   1.145  17.725  0.0146  0.0297 -0.0272
  490MPD2    H5 7346   0.038   1.237  17.740  0.0546  0.0362 -0.1796
  490MPD2    N1 7347   4.416   0.913  17.431  1.3533  0.2914 -0.1769
  490MPD2    H7 7348   4.405   0.858  17.515 -0.2259 -0.5149 -0.9159
  491TMC3    C1 7349   4.219   0.804  17.342 -0.5683 -0.3878 -0.5369
  491TMC3    C2 7350   4.190   0.749  17.460 -0.6411  0.2201  0.0732
  491TMC3    C3 7351   4.099   0.650  17.467 -0.2516  0.6755 -0.4436
  491TMC3    C4 7352   4.148   0.778  17.228  0.1380  0.0039 -0.0071
  491TMC3    C5 7353   4.046   0.683  17.244  0.4228  0.2643  0.5808
  491TMC3    C6 7354   4.028   0.607  17.355 -0.1208  0.0541 -0.1480
  491TMC3     C 7355   4.329   0.902  17.324  1.0986  0.9789  0.5587
  491TMC3     O 7356   4.346   0.935  17.210  0.1465 -0.0828 -0.4306
  491TMC3     H 7357   4.250   0.773  17.547 -0.4305  1.9254 -0.5550
  491TMC3    H1 7358   4.170   0.822  17.131  1.5473  0.2568  0.4428
  491TMC3    H2 7359   3.936   0.548  17.359 -0.3687  0.4434 -0.1323
  491TMC3    C7 7360   3.966   0.662  17.128  0.1619 -1.0030 -0.5481
  491TMC3    C8 7361   4.058   0.589  17.592  0.3246  0.1237 -0.4119
  491TMC3    O1 7362   3.922   0.548  17.114 -0.0695 -0.2972  0.2660
  491TMC3    O2 7363   4.074   0.667  17.686 -0.0727  0.5138  0.2119
  492MPD2     C 7364   0.181   1.075  11.746  0.4651 -0.0328 -0.1677
  492MPD2    C1 7365   0.052   1.054  11.714  0.5816 -0.4091 -0.6682
  492MPD2    C2 7366   4.699   1.009  11.810  0.4770 -0.2409 -0.3373
  492MPD2    C3 7367   0.013   0.988  11.939 -0.4814 -0.0163  0.4172
  492MPD2    C4 7368   0.140   1.021  11.967 -0.1789 -0.1325  0.2379
  492MPD2    C5 7369   0.229   1.061  11.874 -0.7263 -0.5130  0.3607
  492MPD2     H 7370   4.601   0.978  11.775 -0.2223 -1.1422  2.4466
  492MPD2    H1 7371   0.185   1.007  12.064 -2.2115  2.5095  1.5502
  492MPD2    H2 7372   0.249   1.094  11.664 -1.5652 -0.9676 -2.0862
  492MPD2    H3 7373   0.334   1.074  11.894 -0.6216  2.1198 -1.8365
  492MPD2     N 7374   4.673   0.948  12.044  0.3421 -0.0143 -0.2319
  492MPD2    H5 7375   4.724   0.924  12.129  0.2315 -0.0261 -0.1691
  492MPD2    N1 7376   0.024   1.052  11.574 -0.7127 -0.6237  0.1849
  492MPD2    H7 7377   0.102   1.071  11.513  0.5911 -2.3633  1.3071
  493TMC3    C1 7378   4.661   1.022  11.366  0.2504 -0.4171 -0.2719
  493TMC3    C2 7379   4.734   1.136  11.326  0.0668 -0.6483 -0.3080
  493TMC3    C3 7380   4.708   1.194  11.205 -0.2411 -0.0526  0.2434
  493TMC3    C4 7381   4.574   0.958  11.281  0.8312 -0.5529 -0.1778
  493TMC3    C5 7382   4.562   1.014  11.153 -0.3373 -0.4737 -1.0357
  493TMC3    C6 7383   4.636   1.126  11.113 -0.2489  0.1041  0.1250
  493TMC3     C 7384   4.650   1.004  11.507  0.3959 -0.2038 -0.3642
  493TMC3     O 7385   4.559   0.935  11.555 -0.1578 -0.1306  0.1188
  493TMC3     H 7386   0.049   1.202  11.394  0.5090 -1.6510  0.3201
  493TMC3    H1 7387   4.508   0.884  11.325  0.5861  1.2379  2.4646
  493TMC3    H2 7388   4.618   1.171  11.016 -1.3049 -1.3244 -0.3555
  493TMC3    C7 7389   4.440   0.980  11.073 -0.2624  1.2255  0.0758
  493TMC3    C8 7390   0.073   1.282  11.156  0.2708 -0.1122 -0.4058
  493TMC3    O1 7391   4.409   1.052  10.984  0.0329  0.0123 -0.5540
  493TMC3    O2 7392   0.152   1.239  11.072 -0.6541 -0.3990 -0.7977
  494TMC3    C1 7393   0.394   2.626   0.599  0.1232  0.2571  1.5055
  494TMC3    C2 7394   0.445   2.499   0.623 -0.2065 -0.3005 -0.1814
  494TMC3    C3 7395   0.462   2.431   0.510  0.2583 -0.2278  0.1856
  494TMC3    C4 7396   0.372   2.677   0.477  0.3482  0.0711 -0.5096
  494TMC3    C5 7397   0.402   2.605   0.374  0.2456  0.3734  0.2080
  494TMC3    C6 7398   0.442   2.475   0.387 -0.4093 -1.1519  0.0510
  494TMC3     C 7399   0.365   2.719   0.705  0.0333 -0.4318 -0.8525
  494TMC3     O 7400   0.248   2.759   0.702  0.6295  0.1982  0.6409
  494TMC3     H 7401   0.446   2.443   0.716 -1.1719 -0.6527 -0.3837
  494TMC3    H1 7402   0.354   2.784   0.470  0.5954  0.0571 -1.3166
  494TMC3    H2 7403   0.460   2.422   0.294 -0.1107 -1.5654  0.3507
  494TMC3    C7 7404   0.464   2.673   0.268 -0.0068 -0.0033 -0.5165
  494TMC3    C8 7405   0.499   2.286   0.525  0.1043 -0.3173 -0.0548
  494TMC3    O1 7406   0.584   2.648   0.259 -0.5762 -0.4804  0.2645
  494TMC3    O2 7407   0.605   2.261   0.585 -0.8139  0.2122  0.2563
  495TMC3    C1 7408   4.228   0.405  14.823  0.9615 -0.1848  0.1302
  495TMC3    C2 7409   4.167   0.514  14.766 -1.3962  0.8658 -0.6021
  495TMC3    C3 7410   4.032   0.523  14.782  0.3544 -0.6199 -0.2518
  495TMC3    C4 7411   4.161   0.317  14.905  0.0143 -0.4095 -0.4065
  495TMC3    C5 7412   4.033   0.350  14.933  0.1173  0.0366 -0.5838
  495TMC3    C6 7413   3.968   0.450  14.871  0.0296 -0.4592  0.0317
  495TMC3     C 7414   4.321   0.343  14.737 -0.3650 -0.0921 -0.2607
  495TMC3     O 7415   4.413   0.411  14.693 -0.4519 -0.2811  0.3004
  495TMC3     H 7416   4.220   0.573  14.692  2.9736 -0.5812  1.3766
  495TMC3    H1 7417   4.209   0.238  14.961  1.0664  0.3933 -0.1881
  495TMC3    H2 7418   3.864   0.477  14.886 -0.3819 -1.3832 -1.1016
  495TMC3    C7 7419   3.979   0.280  15.052  1.1135  0.0138 -0.0586
  495TMC3    C8 7420   3.952   0.519  14.655 -0.1920  0.5529 -0.4742
  495TMC3    O1 7421   4.051   0.250  15.144 -0.1242  0.3963 -0.1203
  495TMC3    O2 7422   3.833   0.484  14.666 -0.7468  0.5857  0.1468
  496MPD2     C 7423   0.898   4.587  14.905  0.1501 -0.6654  0.5145
  496MPD2    C1 7424   0.950   4.548  15.024  0.0849 -0.2591  0.5817
  496MPD2    C2 7425   0.866   4.525  15.130  0.1501  0.0971  0.2015
  496MPD2    C3 7426   0.733   4.551  15.117 -0.3131 -0.2611  0.0183
  496MPD2    C4 7427   0.682   4.612  15.001 -0.1761 -0.9235 -0.4619
  496MPD2    C5 7428   0.763   4.613  14.892  0.2531  0.1287  0.2981
  496MPD2     H 7429   0.901   4.468  15.215 -1.8400 -0.3769  0.6970
  496MPD2    H1 7430   0.575   4.629  15.000 -0.3297 -1.8980  1.3681
  496MPD2    H2 7431   0.966   4.604  14.822 -1.3840  1.8587 -0.1932
  496MPD2    H3 7432   0.726   4.655  14.799 -1.2082 -1.7261  0.0328
  496MPD2     N 7433   0.655   4.510  15.227  0.1172 -0.1124 -0.6590
  496MPD2    H5 7434   0.704   4.471  15.307  1.9854  0.0310 -1.7325
  496MPD2    N1 7435   1.088   4.501  15.021 -0.1200 -0.3021  1.2516
  496MPD2    H7 7436   1.138   4.511  14.933 -0.9138 -1.5441  0.6631
  497TMC3    C1 7437   0.473   4.440  15.348  0.1572  0.2128  0.0878
  497TMC3    C2 7438   0.351   4.372  15.342 -0.6552  0.3958  0.3330
  497TMC3    C3 7439   0.274   4.361  15.455 -0.8332 -0.1376 -0.2030
  497TMC3    C4 7440   0.524   4.493  15.460 -0.2997 -0.3923  0.2350
  497TMC3    C5 7441   0.434   4.474  15.567 -0.5248  0.1935 -0.2590
  497TMC3    C6 7442   0.314   4.417  15.566 -0.1267  0.6875 -0.3158
  497TMC3     C 7443   0.518   4.501  15.227  0.1619 -0.6516 -0.6450
  497TMC3     O 7444   0.450   4.491  15.128  0.1991  0.1234 -0.4490
  497TMC3     H 7445   0.311   4.342  15.246 -0.2253 -0.8592  0.5591
  497TMC3    H1 7446   0.615   4.552  15.471  0.9399 -2.2983  0.2885
  497TMC3    H2 7447   0.241   4.414  15.647 -0.0332  1.3653 -0.2043
  497TMC3    C7 7448   0.458   4.547  15.692 -0.3696 -0.5746 -0.3994
  497TMC3    C8 7449   0.205   4.234  15.464 -0.4816  0.6819  0.1909
  497TMC3    O1 7450   0.362   4.583  15.756 -0.6668  0.0898 -0.3665
  497TMC3    O2 7451   0.160   4.184  15.359 -0.0562  0.0958 -0.2961
  498MPD2     C 7452   2.009   1.199   9.488  0.6175  0.4157 -0.2961
  498MPD2    C1 7453   2.074   1.168   9.606  0.0534  0.1948  0.3776
  498MPD2    C2 7454   2.049   1.040   9.666 -0.2002 -0.0138  0.4225
  498MPD2    C3 7455   1.969   0.955   9.602  0.3068  0.7927 -0.0172
  498MPD2    C4 7456   1.900   0.988   9.489  0.7177 -0.4643  0.1400
  498MPD2    C5 7457   1.929   1.106   9.430  0.0682  0.3406 -0.7218
  498MPD2     H 7458   2.089   1.012   9.764 -2.6660 -0.4346  1.3082
  498MPD2    H1 7459   1.819   0.927   9.449 -0.7177  2.5787 -1.5507
  498MPD2    H2 7460   2.021   1.297   9.443 -0.6025  0.6843 -0.0304
  498MPD2    H3 7461   1.875   1.133   9.339 -2.9731 -0.1061  0.9554
  498MPD2     N 7462   1.946   0.828   9.660  0.4881 -0.2461 -0.4473
  498MPD2    H5 7463   1.988   0.806   9.750 -1.2483  1.2553  0.7262
  498MPD2    N1 7464   2.153   1.271   9.660  0.0973  0.1613  0.1842
  498MPD2    H7 7465   2.172   1.355   9.607 -2.6228  0.4555 -0.3456
  499TMC3    C1 7466   2.313   1.357   9.805 -0.0994 -0.4556  0.4036
  499TMC3    C2 7467   2.437   1.317   9.845  0.3658 -0.2517 -0.5013
  499TMC3    C3 7468   2.522   1.409   9.894  0.0768 -0.1205 -0.2362
  499TMC3    C4 7469   2.264   1.483   9.812 -0.2357 -0.1442  0.3446
  499TMC3    C5 7470   2.358   1.578   9.853 -0.4435  0.6106  0.4510
  499TMC3    C6 7471   2.485   1.541   9.893  0.4204  0.5514 -0.1633
  499TMC3     C 7472   2.232   1.242   9.770  0.9855 -0.3606  0.3010
  499TMC3     O 7473   2.253   1.139   9.833 -0.0336  0.3555  0.0336
  499TMC3     H 7474   2.464   1.212   9.840 -1.6202 -0.9705  3.3000
  499TMC3    H1 7475   2.171   1.503   9.760 -0.2700  0.8167  0.7775
  499TMC3    H2 7476   2.547   1.621   9.931 -0.7495  1.3045  0.1505
  499TMC3    C7 7477   2.339   1.716   9.808  0.3277 -0.3462  0.2660
  499TMC3    C8 7478   2.640   1.368   9.973  0.5254  0.4937 -0.0009
  499TMC3    O1 7479   2.429   1.775   9.746 -0.3975  0.5702  0.5088
  499TMC3    O2 7480   2.645   1.255  10.026  0.5440 -0.5148  0.1344
  500MPD2     C 7481   3.828   1.990  10.358  0.3831  0.2078  0.2869
  500MPD2    C1 7482   3.827   2.070  10.247 -0.1175 -0.4174  0.3921
  500MPD2    C2 7483   3.705   2.117  10.199  0.1037 -0.1900 -0.7154
  500MPD2    C3 7484   3.587   2.093  10.271  0.6887 -0.5985 -0.3227
  500MPD2    C4 7485   3.590   2.026  10.391 -0.2202  0.2092  0.4636
  500MPD2    C5 7486   3.717   1.974  10.433  0.3327 -0.8536 -0.1651
  500MPD2     H 7487   3.714   2.169  10.104  0.2229 -0.5862 -0.9223
  500MPD2    H1 7488   3.511   2.005  10.462 -0.5666 -0.6949 -0.1879
  500MPD2    H2 7489   3.912   1.942  10.407 -0.2021 -1.0756  0.0309
  500MPD2    H3 7490   3.729   1.914  10.523  0.6780  0.7777  0.8789
  500MPD2     N 7491   3.457   2.122  10.223  0.0058 -0.2598  0.3512
  500MPD2    H5 7492   3.386   2.113  10.295 -0.0577  1.1455  0.4635
  500MPD2    N1 7493   3.945   2.107  10.178  0.3835 -0.3221  0.4007
  500MPD2    H7 7494   3.931   2.150  10.087  0.1470  1.0500  1.0957
  501TMC3    C1 7495   4.177   2.122  10.119  0.1704  0.1073  0.3716
  501TMC3    C2 7496   4.169   2.248  10.070 -0.2359 -0.1042  0.1348
  501TMC3    C3 7497   4.287   2.306  10.031 -0.2410 -0.5512 -0.1328
  501TMC3    C4 7498   4.301   2.065  10.130  0.0039  0.6059 -0.0566
  501TMC3    C5 7499   4.418   2.134  10.101 -1.0435  0.4904  0.1738
  501TMC3    C6 7500   4.410   2.261  10.052  0.3342  0.1906 -0.5952
  501TMC3     C 7501   4.074   2.068  10.211 -0.2430  0.5866  1.6673
  501TMC3     O 7502   4.117   2.002  10.304 -0.4468  0.0956  0.4401
  501TMC3     H 7503   4.079   2.308  10.074  0.4028  0.8948 -0.4628
  501TMC3    H1 7504   4.293   1.970  10.183  2.1849  0.4412 -0.0533
  501TMC3    H2 7505   4.497   2.312  10.012 -0.6326  1.5001 -1.0212
  501TMC3    C7 7506   4.519   2.123  10.207 -0.6138 -0.4231  0.0981
  501TMC3    C8 7507   4.274   2.448  10.006  0.0773  0.2408 -0.1094
  501TMC3    O1 7508   4.481   2.059  10.304 -0.2073  0.2944  0.1836
  501TMC3    O2 7509   4.177   2.478   9.937 -0.6794 -0.3009 -0.4480
  502TMC3    C1 7510   3.688   1.507  14.820  0.0109  0.1120  0.5248
  502TMC3    C2 7511   3.620   1.601  14.893 -0.5580 -0.2709  0.0446
  502TMC3    C3 7512   3.483   1.614  14.881  0.5321  0.3525  0.0133
  502TMC3    C4 7513   3.624   1.417  14.739  0.3585 -0.7281 -0.0761
  502TMC3    C5 7514   3.485   1.430  14.730  0.1432  0.2404  0.0163
  502TMC3    C6 7515   3.414   1.529  14.801  0.1570 -0.2438  0.1108
  502TMC3     C 7516   3.799   1.445  14.883  0.1557 -0.1428  0.2495
  502TMC3     O 7517   3.902   1.506  14.884  0.7594  0.0959  0.4866
  502TMC3     H 7518   3.680   1.661  14.961  0.7562 -1.7272  0.1650
  502TMC3    H1 7519   3.677   1.351  14.672 -1.1313 -0.8313 -1.1628
  502TMC3    H2 7520   3.307   1.533  14.784  0.0581  2.6702  1.3986
  502TMC3    C7 7521   3.425   1.303  14.688  0.6222 -0.2214  0.7353
  502TMC3    C8 7522   3.409   1.722  14.936  0.7375 -0.0477  0.4034
  502TMC3    O1 7523   3.498   1.234  14.617  0.1091 -0.3258 -0.3418
  502TMC3    O2 7524   3.305   1.759  14.891 -0.5718  0.0836 -0.8839
  503MPD2     C 7525   0.710   1.781  16.873 -0.1173  0.1201  0.4674
  503MPD2    C1 7526   0.753   1.794  17.003  0.2693  0.1456  0.0710
  503MPD2    C2 7527   0.801   1.681  17.070  0.1059 -0.1216 -0.1800
  503MPD2    C3 7528   0.829   1.558  17.002 -0.7271 -0.3284 -0.7638
  503MPD2    C4 7529   0.802   1.547  16.868 -0.3128 -0.2756  0.5635
  503MPD2    C5 7530   0.732   1.661  16.807 -0.2535 -0.2534 -0.2211
  503MPD2     H 7531   0.813   1.684  17.177 -0.6227  0.1802 -0.1058
  503MPD2    H1 7532   0.822   1.464  16.801 -1.1624 -0.1284  0.1251
  503MPD2    H2 7533   0.670   1.865  16.817 -0.1161 -0.6229 -0.6499
  503MPD2    H3 7534   0.704   1.651  16.703 -0.9475 -1.0243  0.0444
  503MPD2     N 7535   0.883   1.459  17.081 -0.8063  0.1057 -0.0717
  503MPD2    H5 7536   0.905   1.478  17.178  1.7798 -0.2462 -0.5949
  503MPD2    N1 7537   0.726   1.913  17.076  0.3014  0.0121  0.1306
  503MPD2    H7 7538   0.747   1.911  17.176 -0.1075  1.5122  0.2486
  504TMC3    C1 7539   0.993   1.265  17.143 -0.2804 -0.0838  0.1055
  504TMC3    C2 7540   0.994   1.323  17.263  0.2614  0.8950  0.0350
  504TMC3    C3 7541   1.110   1.304  17.335  0.4016  0.4175  0.3085
  504TMC3    C4 7542   1.083   1.181  17.095  0.2172  0.0497 -0.3282
  504TMC3    C5 7543   1.195   1.157  17.167  0.4790  0.0638  0.2777
  504TMC3    C6 7544   1.209   1.221  17.287 -0.4233  0.2327  0.9178
  504TMC3     C 7545   0.910   1.331  17.040 -0.4725 -0.2195 -0.5537
  504TMC3     O 7546   0.908   1.287  16.925 -0.0496 -0.1625 -0.0189
  504TMC3     H 7547   0.908   1.380  17.296  0.8653  0.9849  1.4609
  504TMC3    H1 7548   1.067   1.140  16.996  1.0840  0.1634 -0.5177
  504TMC3    H2 7549   1.304   1.216  17.339 -0.1955 -1.9305  0.2696
  504TMC3    C7 7550   1.302   1.103  17.101 -0.3598 -0.2395 -0.5529
  504TMC3    C8 7551   1.104   1.346  17.472 -0.2702 -0.3851 -0.0578
  504TMC3    O1 7552   1.288   1.088  16.982 -0.0755  0.8547  0.1470
  504TMC3    O2 7553   1.014   1.426  17.500  0.0735  0.3319 -0.0546
  505MPD2     C 7554   1.399   0.554  10.699 -0.9346 -0.2135  0.6736
  505MPD2    C1 7555   1.440   0.422  10.715  0.0473 -0.4918  0.6514
  505MPD2    C2 7556   1.571   0.398  10.752 -0.1668 -0.0297 -0.4276
  505MPD2    C3 7557   1.657   0.494  10.797 -0.1042 -0.7214  0.5418
  505MPD2    C4 7558   1.604   0.617  10.796  0.3369  0.2359 -0.2356
  505MPD2    C5 7559   1.484   0.654  10.749 -0.4761  0.0618 -0.1234
  505MPD2     H 7560   1.617   0.300  10.760  0.6903  0.4533  0.5779
  505MPD2    H1 7561   1.664   0.701  10.830  3.0836 -1.9086  0.3106
  505MPD2    H2 7562   1.297   0.576  10.671 -0.5730 -0.0844 -0.5185
  505MPD2    H3 7563   1.466   0.760  10.740 -1.1047 -0.2778 -3.0633
  505MPD2     N 7564   1.788   0.448  10.837  0.1379  0.1300  0.4549
  505MPD2    H5 7565   1.802   0.348  10.844 -0.4746 -0.0558 -1.1217
  505MPD2    N1 7566   1.355   0.315  10.670  0.1834 -0.5455 -0.3378
  505MPD2    H7 7567   1.278   0.346  10.612 -1.2053 -0.0875  1.7167
  506TMC3    C1 7568   1.305   0.082  10.643 -0.5628 -0.2683 -0.1643
  506TMC3    C2 7569   1.282   0.097  10.510  0.8762  0.1282 -0.1797
  506TMC3    C3 7570   1.266   4.723  10.435  0.2076 -0.1921  0.4447
  506TMC3    C4 7571   1.319   4.696  10.694  0.1089  0.4298  0.2875
  506TMC3    C5 7572   1.311   4.580  10.619  0.1411  0.5166 -0.1207
  506TMC3    C6 7573   1.264   4.597  10.487 -0.1464 -0.4678  0.6480
  506TMC3     C 7574   1.376   0.185  10.706  0.2165 -0.0652  0.3072
  506TMC3     O 7575   1.447   0.135  10.794 -0.0295 -0.1760  0.1363
  506TMC3     H 7576   1.269   0.198  10.474  0.5756  0.8016  1.8138
  506TMC3    H1 7577   1.320   4.681  10.802  2.6751  0.9147  0.3087
  506TMC3    H2 7578   1.266   4.506  10.429  0.8195 -1.0172  1.5517
  506TMC3    C7 7579   1.426   4.501  10.622 -0.0962  0.5526  0.0641
  506TMC3    C8 7580   1.249   4.734  10.297 -0.3830 -0.2156 -0.6945
  506TMC3    O1 7581   1.435   4.403  10.545 -0.2010  0.5040  0.6719
  506TMC3    O2 7582   1.210   4.634  10.239 -0.4677 -0.2058  0.1436
  507TMC3    C1 7583   2.012   0.818  15.476  0.4317 -0.2606 -0.1635
  507TMC3    C2 7584   1.933   0.759  15.374 -0.4515 -0.6138  0.1892
  507TMC3    C3 7585   1.959   0.795  15.248  0.6543 -0.5440 -0.0361
  507TMC3    C4 7586   2.096   0.924  15.445  0.5376  0.0475 -0.1641
  507TMC3    C5 7587   2.123   0.956  15.314  0.4334 -0.8465  0.0261
  507TMC3    C6 7588   2.062   0.882  15.221 -0.7508  0.4510 -0.8075
  507TMC3     C 7589   1.976   0.777  15.609 -0.6399 -0.7971  0.4422
  507TMC3     O 7590   1.972   0.864  15.693  0.3113  0.1528 -0.3684
  507TMC3     H 7591   1.843   0.701  15.391  0.5315 -2.1954 -0.0206
  507TMC3    H1 7592   2.125   0.981  15.533  0.2693  0.2790 -0.2250
  507TMC3    H2 7593   2.091   0.895  15.118  0.4965 -3.5028 -0.9599
  507TMC3    C7 7594   2.122   1.097  15.280  0.3293  0.4156  0.4211
  507TMC3    C8 7595   1.840   0.810  15.169 -0.2759  0.0043  0.4110
  507TMC3    O1 7596   2.070   1.116  15.172  0.8619  0.4021 -0.0599
  507TMC3    O2 7597   1.738   0.743  15.182 -0.1110 -0.1601 -0.3543
  508MPD2     C 7598   2.248   3.447  16.246 -0.2085  0.2611 -0.8393
  508MPD2    C1 7599   2.362   3.389  16.206  0.0297 -0.8651 -0.0288
  508MPD2    C2 7600   2.395   3.407  16.072  0.1782 -0.0469 -0.0346
  508MPD2    C3 7601   2.314   3.469  15.982  0.8977 -0.0935  0.5155
  508MPD2    C4 7602   2.196   3.519  16.026  0.1011 -0.1424  0.0537
  508MPD2    C5 7603   2.160   3.506  16.155  0.8111  0.2571  0.8574
  508MPD2     H 7604   2.495   3.376  16.042  0.1063 -1.3035  1.0309
  508MPD2    H1 7605   2.131   3.579  15.963 -1.1987 -0.9879  0.5864
  508MPD2    H2 7606   2.222   3.438  16.351 -0.9654 -2.2702 -1.2382
  508MPD2    H3 7607   2.072   3.556  16.193  0.0665 -0.5659  0.1946
  508MPD2     N 7608   2.363   3.507  15.854  0.1212  0.5743 -0.2541
  508MPD2    H5 7609   2.462   3.490  15.839  0.2507  1.2697 -0.1874
  508MPD2    N1 7610   2.440   3.327  16.305  0.3867  0.5446  0.4414
  508MPD2    H7 7611   2.400   3.344  16.397  0.5681 -0.9856  0.8058
  509TMC3    C1 7612   2.401   3.776  15.471 -0.4229  0.1641 -0.3832
  509TMC3    C2 7613   2.531   3.747  15.453  0.0238  0.3259 -0.5223
  509TMC3    C3 7614   2.586   3.648  15.529 -0.2424 -0.0538  0.5740
  509TMC3    C4 7615   2.329   3.721  15.572  0.0687 -0.3851  0.1188
  509TMC3    C5 7616   2.381   3.627  15.652 -0.1501 -1.3308  0.1700
  509TMC3    C6 7617   2.516   3.585  15.627 -0.9327 -0.9585  0.1094
  509TMC3     C 7618   2.323   3.853  15.370 -0.0063 -0.0257  0.2457
  509TMC3     O 7619   2.204   3.836  15.364  0.3076 -1.0835  0.4393
  509TMC3     H 7620   2.584   3.798  15.373  1.5000 -0.3243  0.0323
  509TMC3    H1 7621   2.226   3.752  15.585  0.0837 -1.5172  2.9728
  509TMC3    H2 7622   2.564   3.502  15.677  1.8367  0.0266 -0.8969
  509TMC3    C7 7623   2.293   3.565  15.752  0.1281 -0.3065 -0.4929
  509TMC3    C8 7624   2.736   3.636  15.546  0.0630  0.2307  0.2307
  509TMC3    O1 7625   2.174   3.597  15.747  0.3254 -0.5155 -0.2285
  509TMC3    O2 7626   2.781   3.539  15.615 -0.3196  0.3830 -0.0540
  510MPD2     C 7627   0.729   0.497  14.774  0.4124 -0.1890 -0.9716
  510MPD2    C1 7628   0.718   0.358  14.786 -0.1457 -0.1582  0.0622
  510MPD2    C2 7629   0.828   0.280  14.755 -0.2831 -0.7733  0.2966
  510MPD2    C3 7630   0.942   0.340  14.694 -0.3227 -0.2526 -0.1450
  510MPD2    C4 7631   0.954   0.474  14.687 -0.0858  0.4371  0.3432
  510MPD2    C5 7632   0.843   0.552  14.724 -0.2506  0.3615 -0.3603
  510MPD2     H 7633   0.815   0.173  14.764 -1.1798 -0.6633  0.3632
  510MPD2    H1 7634   1.037   0.518  14.632  0.1714 -1.3092 -0.6572
  510MPD2    H2 7635   0.640   0.557  14.791 -0.0507 -0.4408 -2.5184
  510MPD2    H3 7636   0.844   0.658  14.702  0.3105  0.2114 -1.0468
  510MPD2     N 7637   1.055   0.256  14.661 -0.1594 -0.1540 -0.2484
  510MPD2    H5 7638   1.041   0.156  14.668 -0.2064 -0.0817  0.7165
  510MPD2    N1 7639   0.598   0.301  14.837  0.2309  0.4795  0.0555
  510MPD2    H7 7640   0.527   0.361  14.877  0.0238  1.3248 -1.5844
  511TMC3    C1 7641   0.447   0.114  14.865  0.1617 -0.1990  0.3412
  511TMC3    C2 7642   0.416   0.155  14.992 -0.7227 -0.1500 -0.4624
  511TMC3    C3 7643   0.318   0.078  15.053 -0.0173  0.0394 -0.2268
  511TMC3    C4 7644   0.389   0.013  14.801  0.2774 -0.6746 -0.5619
  511TMC3    C5 7645   0.302   4.674  14.871  0.0363  0.2852  0.2850
  511TMC3    C6 7646   0.252   4.705  14.998  0.1666 -0.0519  0.0732
  511TMC3     C 7647   0.557   0.182  14.789 -0.1163 -0.0854  0.1226
  511TMC3     O 7648   0.598   0.109  14.698 -0.8866  0.1477  0.0685
  511TMC3     H 7649   0.481   0.223  15.046 -0.6455 -1.0953  0.6343
  511TMC3    H1 7650   0.409   4.729  14.697 -2.0019 -2.1209 -0.6898
  511TMC3    H2 7651   0.175   4.648  15.049 -0.5465  1.4606  0.7196
  511TMC3    C7 7652   0.276   4.547  14.808 -0.1768 -0.4033 -0.2115
  511TMC3    C8 7653   0.280   0.119  15.189  0.1783  0.0313 -0.0475
  511TMC3    O1 7654   0.336   4.532  14.704  0.3572 -0.1146 -0.1045
  511TMC3    O2 7655   0.309   0.233  15.219 -0.0321 -0.4858  0.4334
  512TMC3    C1 7656   4.368   4.466  13.021 -0.3129 -0.4848 -0.3404
  512TMC3    C2 7657   4.411   4.424  13.143  0.1181  0.3349  1.1783
  512TMC3    C3 7658   4.511   4.335  13.144  0.4950 -0.3429  0.1093
  512TMC3    C4 7659   4.400   4.407  12.901 -0.0369 -0.3711 -0.2335
  512TMC3    C5 7660   4.491   4.309  12.909 -0.9908  0.2214 -0.1976
  512TMC3    C6 7661   4.554   4.281  13.025 -0.1313  0.0875  0.7425
  512TMC3     C 7662   4.271   4.583  13.025 -0.3273  0.2063  1.0748
  512TMC3     O 7663   4.265   4.643  13.131 -0.0034  0.1994  0.0142
  512TMC3     H 7664   4.368   4.467  13.233  1.5892  3.3405  0.4549
  512TMC3    H1 7665   4.343   4.417  12.809  2.0255  2.6383 -1.1711
  512TMC3    H2 7666   4.647   4.226  13.027  0.4069  0.9816  0.2432
  512TMC3    C7 7667   4.504   4.223  12.789 -0.6880 -0.4390 -0.0335
  512TMC3    C8 7668   4.576   4.312  13.272  0.3350  0.0281 -0.5188
  512TMC3    O1 7669   4.475   4.270  12.680 -0.4422  0.3819 -0.3167
  512TMC3    O2 7670   4.605   4.196  13.301 -0.0639  0.4100 -0.4771
  513MPD2     C 7671   1.537   4.173  13.369  0.0361  0.6649 -0.4907
  513MPD2    C1 7672   1.611   4.153  13.253  0.1739  0.3188  0.0170
  513MPD2    C2 7673   1.731   4.219  13.230 -0.9084 -0.5313  0.2653
  513MPD2    C3 7674   1.783   4.300  13.328  0.6363  0.5035  0.4864
  513MPD2    C4 7675   1.712   4.306  13.454  0.1495 -0.2112 -0.3603
  513MPD2    C5 7676   1.589   4.248  13.470  0.0638 -0.1054  0.1976
  513MPD2     H 7677   1.786   4.206  13.138  0.6177 -0.5719  1.1931
  513MPD2    H1 7678   1.760   4.345  13.543  0.4242  0.3734 -0.7619
  513MPD2    H2 7679   1.439   4.131  13.389 -0.6126  0.5030 -4.0225
  513MPD2    H3 7680   1.540   4.252  13.567 -1.4930 -1.2598 -0.5317
  513MPD2     N 7681   1.906   4.355  13.297  0.2097 -0.5950  0.6684
  513MPD2    H5 7682   1.937   4.332  13.203 -0.1129 -1.5262  0.7865
  513MPD2    N1 7683   1.573   4.069  13.145  0.2269  0.2440  0.1559
  513MPD2    H7 7684   1.642   4.066  13.070 -0.9565  0.5224 -0.9409
  514TMC3    C1 7685   1.465   3.910  13.021  0.3261 -0.0372  0.0860
  514TMC3    C2 7686   1.360   3.892  12.933 -0.0336 -0.1767 -0.7842
  514TMC3    C3 7687   1.377   3.810  12.826  0.0579 -0.0512  0.5423
  514TMC3    C4 7688   1.586   3.856  12.989  0.1492  0.8210  0.6460
  514TMC3    C5 7689   1.601   3.782  12.877  0.4964 -0.1396 -0.2906
  514TMC3    C6 7690   1.502   3.771  12.786 -0.2155  0.2886 -0.7638
  514TMC3     C 7691   1.454   4.007  13.125  0.5031  0.0298  0.5182
  514TMC3     O 7692   1.347   4.023  13.185  0.0753  0.0093 -0.5051
  514TMC3     H 7693   1.262   3.931  12.958  0.3834 -1.3805  2.7039
  514TMC3    H1 7694   1.669   3.856  13.058  0.3492  0.3370  0.4055
  514TMC3    H2 7695   1.535   3.731  12.691 -2.4233  0.9980 -1.8297
  514TMC3    C7 7696   1.740   3.767  12.828  0.1371  0.8617  0.1455
  514TMC3    C8 7697   1.278   3.838  12.726  0.4633 -0.4082  0.4342
  514TMC3    O1 7698   1.773   3.665  12.770 -0.1002  0.4927  0.2969
  514TMC3    O2 7699   1.162   3.845  12.761  0.1797 -0.4053  0.0710
  515MPD2     C 7700   4.406   1.292  14.855  0.1233  0.3196  0.5363
  515MPD2    C1 7701   4.302   1.373  14.829  0.0936 -0.9518  0.1052
  515MPD2    C2 7702   4.267   1.476  14.914 -0.3760 -0.0460 -0.5966
  515MPD2    C3 7703   4.348   1.500  15.027  0.2535 -0.1850 -0.7306
  515MPD2    C4 7704   4.459   1.419  15.048  0.0348 -0.4768 -1.0154
  515MPD2    C5 7705   4.488   1.318  14.961  0.3170  0.9757  0.4690
  515MPD2     H 7706   4.183   1.544  14.902  0.4049  1.3217  1.8215
  515MPD2    H1 7707   4.532   1.437  15.127 -0.6494 -0.5162 -0.3682
  515MPD2    H2 7708   4.429   1.198  14.806 -2.3251 -1.1492  2.2431
  515MPD2    H3 7709   4.572   1.254  14.984 -0.6560 -0.0038  1.2871
  515MPD2     N 7710   4.326   1.613  15.114  0.5635  0.1119 -0.7427
  515MPD2    H5 7711   4.372   1.614  15.205  0.7455  2.2476 -0.8598
  515MPD2    N1 7712   4.229   1.350  14.706  0.2835 -0.3096 -0.2342
  515MPD2    H7 7713   4.148   1.411  14.706  1.7082  1.5907  0.8323
  516TMC3    C1 7714   4.128   1.224  14.551 -0.2971 -0.6427  0.1657
  516TMC3    C2 7715   4.048   1.324  14.506  1.1986  0.2588 -0.6051
  516TMC3    C3 7716   3.912   1.307  14.496 -0.1492  0.2566  0.2175
  516TMC3    C4 7717   4.071   1.104  14.574  0.3419 -0.4411 -0.5121
  516TMC3    C5 7718   3.933   1.081  14.569  0.5836 -0.0505 -0.3801
  516TMC3    C6 7719   3.852   1.187  14.526  0.6101 -0.2134 -0.5295
  516TMC3     C 7720   4.247   1.251  14.616 -0.0972 -0.0783 -0.5283
  516TMC3     O 7721   4.337   1.166  14.603  0.5643  0.1056 -0.4947
  516TMC3     H 7722   4.097   1.417  14.476 -0.5257  0.7121 -1.9909
  516TMC3    H1 7723   4.138   1.034  14.622  1.1805  0.2500 -0.6878
  516TMC3    H2 7724   3.748   1.173  14.501 -0.2297  1.6888  1.9058
  516TMC3    C7 7725   3.892   0.972  14.650 -0.3702 -0.4684  0.4805
  516TMC3    C8 7726   3.826   1.409  14.422  0.6256 -0.2177  0.6788
  516TMC3    O1 7727   3.977   0.898  14.687  0.1013 -0.1478  0.9911
  516TMC3    O2 7728   3.715   1.374  14.393 -0.1386  0.2755 -0.5312
  517MPD2     C 7729   3.376   2.648   0.005  0.3014 -0.4721 -0.0203
  517MPD2    C1 7730   3.457   2.659  17.646  0.0068  0.8432  0.0926
  517MPD2    C2 7731   3.567   2.740  17.651 -0.6444  0.0426  0.4977
  517MPD2    C3 7732   3.605   2.813   0.009 -0.2099  0.2697 -0.4370
  517MPD2    C4 7733   3.535   2.788   0.123  0.3987  0.3302  0.4888
  517MPD2    C5 7734   3.419   2.713   0.122  0.8583  0.9470 -0.1643
  517MPD2     H 7735   3.626   2.746  17.560 -0.9521 -0.0883  0.2897
  517MPD2    H1 7736   3.563   2.835   0.217 -0.4394  0.1674  0.8184
  517MPD2    H2 7737   3.294   2.577   0.011 -0.4219  0.4831  1.4357
  517MPD2    H3 7738   3.367   2.684   0.212  0.6324 -0.4701 -0.7503
  517MPD2     N 7739   3.707   2.910   0.010 -0.2983 -0.8114  0.1755
  517MPD2    H5 7740   3.726   2.953   0.100 -4.6080 -3.0051  2.1489
  517MPD2    N1 7741   3.427   2.594  17.525  0.5945  0.1163  0.4199
  517MPD2    H7 7742   3.491   2.601  17.446  0.7562  0.5595  0.5977
  518TMC3    C1 7743   3.343   2.438  17.385 -0.1383  0.1666  0.4211
  518TMC3    C2 7744   3.391   2.314  17.400 -0.1690  0.2995 -0.4215
  518TMC3    C3 7745   3.483   2.272  17.311 -0.1680  0.3706  0.0956
  518TMC3    C4 7746   3.376   2.520  17.283  0.1136  0.8820 -1.1877
  518TMC3    C5 7747   3.457   2.465  17.181  0.5655  0.3904 -0.6882
  518TMC3    C6 7748   3.522   2.346  17.202  0.7981  0.5603 -0.0178
  518TMC3     C 7749   3.334   2.499  17.510 -0.2601  0.4203 -0.0921
  518TMC3     O 7750   3.250   2.443  17.581  0.0249  0.0866 -0.5964
  518TMC3     H 7751   3.379   2.257  17.492  2.2079 -1.6538 -1.3340
  518TMC3    H1 7752   3.333   2.619  17.276  0.4416  1.0308 -1.0823
  518TMC3    H2 7753   3.605   2.323  17.137  1.3196 -0.1328  0.9062
  518TMC3    C7 7754   3.488   2.560  17.072  0.5818 -0.3476  0.0438
  518TMC3    C8 7755   3.551   2.148  17.317  0.3209 -0.2678  0.4770
  518TMC3    O1 7756   3.403   2.648  17.059  0.6380  0.6786 -0.4046
  518TMC3    O2 7757   3.651   2.127  17.248 -0.4577  0.2467 -0.0220
  519MPD2     C 7758   1.030   1.384  14.315  0.1649 -0.2589  0.4600
  519MPD2    C1 7759   0.956   1.373  14.199 -0.6408 -0.2562 -0.1344
  519MPD2    C2 7760   0.961   1.258  14.123  0.9210  0.1781 -0.7410
  519MPD2    C3 7761   1.068   1.172  14.142 -0.3612  0.0170 -0.2668
  519MPD2    C4 7762   1.152   1.192  14.246 -0.2570  0.7353  0.6528
  519MPD2    C5 7763   1.126   1.291  14.342 -1.0557  0.2195 -0.3083
  519MPD2     H 7764   0.883   1.240  14.050  0.0358 -1.2389  0.5295
  519MPD2    H1 7765   1.240   1.130  14.248  0.7996  2.2471  0.6801
  519MPD2    H2 7766   1.021   1.470  14.381 -0.0706  1.6532 -2.0474
  519MPD2    H3 7767   1.186   1.291  14.432 -0.9271 -0.1494 -0.3941
  519MPD2     N 7768   1.099   1.068  14.048 -0.0861  0.6140 -0.2644
  519MPD2    H5 7769   1.184   1.013  14.054 -0.8874 -0.6549 -0.4979
  519MPD2    N1 7770   0.861   1.470  14.166  0.2760  0.4051  0.5702
  519MPD2    H7 7771   0.800   1.452  14.087  0.0395  0.3884  0.7585
  520TMC3    C1 7772   1.075   0.907  13.870 -0.0477 -0.6389  0.1849
  520TMC3    C2 7773   1.038   0.908  13.739  0.4700  0.6854 -0.0902
  520TMC3    C3 7774   1.110   0.841  13.643 -0.4850 -0.3922  0.6574
  520TMC3    C4 7775   1.188   0.836  13.906  1.1623 -0.1117  0.0775
  520TMC3    C5 7776   1.268   0.784  13.809  0.3983 -0.5500  0.2405
  520TMC3    C6 7777   1.229   0.787  13.675  0.5190 -0.2155  0.1816
  520TMC3     C 7778   1.029   1.034  13.935 -0.0810  0.6687  0.2292
  520TMC3     O 7779   0.914   1.071  13.904 -0.2143 -0.3634 -0.0228
  520TMC3     H 7780   0.940   0.952  13.726  1.0538  2.0716  0.1850
  520TMC3    H1 7781   1.209   0.824  14.012 -1.8931 -1.5003  0.5279
  520TMC3    H2 7782   1.276   0.725  13.599  1.6013 -0.1772  0.8199
  520TMC3    C7 7783   1.394   0.723  13.843  0.4164 -0.2767  0.4994
  520TMC3    C8 7784   1.090   0.878  13.500  0.3218  0.4420 -0.2291
  520TMC3    O1 7785   1.411   0.702  13.963 -1.0357  0.8687  0.3711
  520TMC3    O2 7786   1.186   0.859  13.425  0.3796 -0.0497  0.3559
  521MPD2     C 7787   1.674   3.948   0.093  0.0308 -0.1064 -0.9206
  521MPD2    C1 7788   1.654   3.980  17.717 -1.3357 -0.0953  0.5327
  521MPD2    C2 7789   1.754   3.949  17.624  0.0173 -0.0414 -0.7048
  521MPD2    C3 7790   1.858   3.866  17.653  0.4203  0.1228 -0.4782
  521MPD2    C4 7791   1.870   3.822   0.028  0.1773  0.2233  0.1943
  521MPD2    C5 7792   1.789   3.878   0.123  0.3352  0.5430  0.0900
  521MPD2     H 7793   1.751   3.987  17.523  0.4538 -3.4046 -1.9828
  521MPD2    H1 7794   1.955   3.760   0.054 -0.2094 -0.9282 -1.2271
  521MPD2    H2 7795   1.603   3.973   0.171  1.1842  1.3480 -0.3308
  521MPD2    H3 7796   1.797   3.841   0.224 -1.8997  1.5480  0.6299
  521MPD2     N 7797   1.930   3.817  17.547 -0.3041  0.1856  0.6329
  521MPD2    H5 7798   1.913   3.868  17.461  0.1124  0.6654  0.8373
  521MPD2    N1 7799   1.542   4.062  17.691  0.4086 -0.6315  0.7909
  521MPD2    H7 7800   1.471   4.062   0.011 -2.3863  0.2041 -1.8746
  522TMC3    C1 7801   2.078   3.678  17.427 -0.0371 -0.4202 -0.5693
  522TMC3    C2 7802   2.155   3.558  17.430 -0.1893 -0.0416  0.3010
  522TMC3    C3 7803   2.170   3.487  17.310  0.0499  0.1406 -0.0448
  522TMC3    C4 7804   2.014   3.718  17.309 -0.9442  0.2537  0.6987
  522TMC3    C5 7805   2.031   3.630  17.199 -0.4016 -0.4090  0.2931
  522TMC3    C6 7806   2.103   3.516  17.192 -0.8350 -0.2935  1.3164
  522TMC3     C 7807   2.011   3.704  17.554  0.1946  0.4886  0.7245
  522TMC3     O 7808   2.026   3.621  17.644 -0.9088  0.2901  0.5174
  522TMC3     H 7809   2.195   3.529  17.527 -1.4520  1.6732  1.3383
  522TMC3    H1 7810   1.961   3.813  17.299  1.2138  1.3794 -0.0276
  522TMC3    H2 7811   2.095   3.462  17.098  2.4785  0.9119  0.3695
  522TMC3    C7 7812   2.015   3.681  17.064 -0.2915 -0.6234 -0.1176
  522TMC3    C8 7813   2.269   3.383  17.311 -0.5307 -0.2055  0.4809
  522TMC3    O1 7814   2.085   3.636  16.979  0.0736 -0.6985 -0.4690
  522TMC3    O2 7815   2.323   3.356  17.419  0.6499 -0.3090 -0.1562
  523MPD2     C 7816   0.337   4.279  10.603 -0.1958  0.4631  0.6788
  523MPD2    C1 7817   0.249   4.220  10.521 -0.6346  0.3979 -0.4992
  523MPD2    C2 7818   0.221   4.281  10.397 -0.2490 -0.4981  1.1702
  523MPD2    C3 7819   0.285   4.393  10.363 -0.1554  0.7294  0.0966
  523MPD2    C4 7820   0.382   4.446  10.432 -0.2923  0.5066 -0.5169
  523MPD2    C5 7821   0.405   4.389  10.552 -0.1936  0.5061 -1.3783
  523MPD2     H 7822   0.147   4.249  10.325  1.2748 -0.5810 -0.3500
  523MPD2    H1 7823   0.437   4.536  10.409  3.1031 -0.6815  3.0179
  523MPD2    H2 7824   0.361   4.253  10.705 -2.1912  0.7777  1.2360
  523MPD2    H3 7825   0.480   4.436  10.616 -0.3825 -1.1917  0.0772
  523MPD2     N 7826   0.236   4.472  10.253  0.5242 -0.4401  0.0809
  523MPD2    H5 7827   0.291   4.557  10.238 -1.3104  0.6433 -0.5115
  523MPD2    N1 7828   0.183   4.099  10.557 -0.3470 -0.1758  0.1170
  523MPD2    H7 7829   0.211   4.062  10.647 -3.2412 -2.0976  0.2187
  524TMC3    C1 7830   0.099   4.564  10.098 -0.4014  0.5220  0.8472
  524TMC3    C2 7831   0.045   4.544   9.974  0.2583 -0.5048  0.0735
  524TMC3    C3 7832   0.004   4.665   9.919  0.2133 -0.0189  0.2789
  524TMC3    C4 7833   0.130   4.682  10.147  0.1453 -0.4054 -0.1216
  524TMC3    C5 7834   0.095   0.058  10.085 -0.7331  0.0319  0.9719
  524TMC3    C6 7835   0.021   0.050   9.972 -0.1934  0.2959 -0.0933
  524TMC3     C 7836   0.133   4.450  10.171  0.4641  0.0628 -0.0215
  524TMC3     O 7837   0.076   4.342  10.136 -0.2007  0.3950 -0.1416
  524TMC3     H 7838   4.738   4.450   9.947  0.5503 -0.0474 -2.0254
  524TMC3    H1 7839   0.156   4.690  10.251  0.0247  1.2633 -0.2215
  524TMC3    H2 7840   0.006   0.143   9.918 -2.2472  0.8934  1.4961
  524TMC3    C7 7841   0.153   0.185  10.133  0.2062  0.0687  0.0233
  524TMC3    C8 7842   4.708   4.660   9.783 -0.4204  0.3766 -0.3806
  524TMC3    O1 7843   0.226   0.170  10.226 -0.0834 -0.1059 -0.2965
  524TMC3    O2 7844   4.642   0.017   9.747  0.0438  0.6580  0.3042
  525MPD2     C 7845   2.385   0.866  14.264 -0.1854  0.3390 -0.0441
  525MPD2    C1 7846   2.475   0.897  14.357  0.0956  0.0996 -0.5005
  525MPD2    C2 7847   2.530   1.019  14.356  0.8091  0.6982  0.2530
  525MPD2    C3 7848   2.483   1.121  14.268  0.0932 -0.0062 -0.1653
  525MPD2    C4 7849   2.383   1.088  14.179  0.0950  0.3383 -0.2468
  525MPD2    C5 7850   2.324   0.959  14.188  0.0543  0.2820  0.5053
  525MPD2     H 7851   2.605   1.045  14.430  0.6480  1.4486  0.1507
  525MPD2    H1 7852   2.345   1.163  14.111 -0.5947  0.7282  0.5603
  525MPD2    H2 7853   2.346   0.765  14.259 -1.0961  0.6694  0.3903
  525MPD2    H3 7854   2.236   0.929  14.131 -0.4491  0.0853  1.3808
  525MPD2     N 7855   2.529   1.257  14.275 -0.6297  0.2545  0.4375
  525MPD2    H5 7856   2.469   1.324  14.229  0.1731 -0.3271 -1.4991
  525MPD2    N1 7857   2.538   0.794  14.435 -0.2913  0.2987 -0.1608
  525MPD2    H7 7858   2.625   0.825  14.477 -0.0367  1.3888 -1.4779
  526TMC3    C1 7859   2.572   0.578  14.528 -0.6357  0.6380 -0.3839
  526TMC3    C2 7860   2.525   0.496  14.630  0.1717 -0.4263  0.3656
  526TMC3    C3 7861   2.607   0.425  14.704  0.0795  0.4664  0.2196
  526TMC3    C4 7862   2.705   0.585  14.501 -0.3062  0.1740 -0.1566
  526TMC3    C5 7863   2.788   0.509  14.583  0.5756  0.2087  0.2694
  526TMC3    C6 7864   2.739   0.426  14.683  0.0303 -0.1383 -0.2470
  526TMC3     C 7865   2.484   0.672  14.462  0.1677  0.0402 -0.3229
  526TMC3     O 7866   2.364   0.642  14.469  0.4376  0.0222 -0.3996
  526TMC3     H 7867   2.421   0.495  14.659  0.1000  2.0765  0.1837
  526TMC3    H1 7868   2.744   0.642  14.417  1.5437 -1.9679 -0.7617
  526TMC3    H2 7869   2.806   0.384  14.757 -2.5420 -0.9451  1.6164
  526TMC3    C7 7870   2.933   0.531  14.567 -0.0373 -0.6127 -0.4146
  526TMC3    C8 7871   2.558   0.385  14.832 -0.5920  0.3614 -0.4078
  526TMC3    O1 7872   2.962   0.630  14.506 -0.1702 -0.3640  0.1096
  526TMC3    O2 7873   2.632   0.388  14.929  0.2953 -0.1170  0.1276
  527MPD2     C 7874   4.714   3.379   0.994  0.3108  0.9189  0.5645
  527MPD2    C1 7875   0.029   3.275   0.920 -0.5220  0.9453 -0.1024
  527MPD2    C2 7876   0.157   3.234   0.959 -0.1664 -0.7578 -0.3709
  527MPD2    C3 7877   0.229   3.287   1.065  0.8408  0.6981 -0.4806
  527MPD2    C4 7878   0.172   3.382   1.142  0.3636  0.4056  1.3737
  527MPD2    C5 7879   0.053   3.432   1.097 -0.2215 -0.0643  1.1680
  527MPD2     H 7880   0.198   3.149   0.906  0.3741  0.6864 -2.2777
  527MPD2    H1 7881   0.235   3.424   1.220  1.0395  0.4509  0.7963
  527MPD2    H2 7882   4.614   3.418   0.974 -0.4424 -0.4495  1.6712
  527MPD2    H3 7883   0.001   3.511   1.149 -0.2616  0.6958 -0.0187
  527MPD2     N 7884   0.347   3.217   1.095  0.2170 -0.7180  0.3919
  527MPD2    H5 7885   0.392   3.159   1.024 -1.3441 -0.4846 -0.7766
  527MPD2    N1 7886   4.703   3.206   0.814  0.3630  0.4462  0.2584
  527MPD2    H7 7887   0.010   3.118   0.794  0.6215  0.4014  1.0475
  528TMC3    C1 7888   4.562   3.153   0.633  0.0767  0.2287 -0.2794
  528TMC3    C2 7889   4.621   3.187   0.514 -0.0751 -0.5816 -0.5096
  528TMC3    C3 7890   4.646   3.082   0.427 -0.0622 -0.6073 -0.1590
  528TMC3    C4 7891   4.537   3.019   0.662  0.1777 -0.1777 -0.0056
  528TMC3    C5 7892   4.565   2.915   0.569  0.6463  0.4862 -0.0581
  528TMC3    C6 7893   4.626   2.946   0.452 -0.5173 -0.2513 -0.1834
  528TMC3     C 7894   4.590   3.240   0.745 -0.3684 -0.6617  0.2719
  528TMC3     O 7895   4.538   3.350   0.741  0.1270 -0.0887 -0.1092
  528TMC3     H 7896   4.664   3.285   0.496 -0.1960 -0.1502  1.5443
  528TMC3    H1 7897   4.514   2.989   0.763 -1.9385  0.3257 -0.3408
  528TMC3    H2 7898   4.664   2.872   0.383  0.2165 -0.7698  0.7671
  528TMC3    C7 7899   4.539   2.781   0.604 -1.3433 -0.0679 -0.5189
  528TMC3    C8 7900   0.016   3.115   0.342 -0.9810 -0.1707  0.1433
  528TMC3    O1 7901   4.519   2.748   0.722 -0.1875 -0.0385 -0.2061
  528TMC3    O2 7902   0.110   3.038   0.347  0.3878  0.4242 -0.4017
  529MPD2     C 7903   3.060   0.826   0.548  0.0126  0.2330  1.2722
  529MPD2    C1 7904   3.049   0.946   0.607  0.3134  0.3709  0.8164
  529MPD2    C2 7905   2.991   1.055   0.536 -0.0716 -0.3092 -0.1733
  529MPD2    C3 7906   2.952   1.040   0.403  0.3128  0.2325  1.6057
  529MPD2    C4 7907   2.954   0.915   0.356 -0.5239  0.0565 -0.3293
  529MPD2    C5 7908   3.004   0.811   0.423  0.8298  0.3748 -0.1376
  529MPD2     H 7909   2.993   1.146   0.595  0.6425 -0.1515 -0.4432
  529MPD2    H1 7910   2.926   0.888   0.255 -0.4058  2.0282 -0.8822
  529MPD2    H2 7911   3.105   0.739   0.594  0.6259 -1.2987 -2.1446
  529MPD2    H3 7912   3.026   0.716   0.375 -0.0121  0.1047  0.0119
  529MPD2     N 7913   2.912   1.140   0.315  0.2322 -0.4589 -0.1869
  529MPD2    H5 7914   2.865   1.128   0.226 -0.6298 -1.6158  0.4221
  529MPD2    N1 7915   3.102   0.965   0.739  0.0505 -0.0733  0.5030
  529MPD2    H7 7916   3.081   1.055   0.781  1.7180  0.7205 -0.3985
  530TMC3    C1 7917   3.158   0.929   0.957 -0.4650 -0.2272  0.4895
  530TMC3    C2 7918   3.258   0.899   1.033 -0.1975  0.1877 -0.9385
  530TMC3    C3 7919   3.264   0.953   1.166  0.4722  1.2920  0.4156
  530TMC3    C4 7920   3.054   1.007   0.998 -0.0976  0.9637  0.3089
  530TMC3    C5 7921   3.063   1.066   1.115  0.9062 -0.3348 -0.3998
  530TMC3    C6 7922   3.175   1.046   1.203 -0.0909 -0.4812  0.0568
  530TMC3     C 7923   3.164   0.878   0.819  0.6214 -0.0595 -0.2533
  530TMC3     O 7924   3.238   0.785   0.791  0.1858 -0.8356  0.3230
  530TMC3     H 7925   3.337   0.834   0.998 -0.3786  0.2183 -1.3973
  530TMC3    H1 7926   2.967   1.033   0.938 -0.5360 -2.5543 -0.6001
  530TMC3    H2 7927   3.175   1.085   1.304 -0.1459 -1.2588  0.3595
  530TMC3    C7 7928   2.957   1.158   1.161  0.0894 -0.9452  0.1107
  530TMC3    C8 7929   3.371   0.910   1.262 -0.5101 -0.6704 -0.1817
  530TMC3    O1 7930   2.978   1.225   1.260  0.3003 -0.5064 -0.4326
  530TMC3    O2 7931   3.342   0.932   1.379 -0.2152  0.6880 -0.4315
  531MPD2     C 7932   2.215   3.977  12.819 -0.5527 -0.1107  0.0644
  531MPD2    C1 7933   2.131   4.066  12.870 -0.2955  0.7871 -0.2021
  531MPD2    C2 7934   1.993   4.035  12.866  0.1097 -0.3737  0.0792
  531MPD2    C3 7935   1.943   3.907  12.831 -0.0200  0.0912 -0.5182
  531MPD2    C4 7936   2.040   3.817  12.786 -0.5926  0.0407 -0.4310
  531MPD2    C5 7937   2.176   3.850  12.782  0.6707 -0.0681 -0.1493
  531MPD2     H 7938   1.928   4.118  12.892  0.2407 -1.0626  2.6583
  531MPD2    H1 7939   2.004   3.720  12.755  0.7349 -0.3827 -0.6214
  531MPD2    H2 7940   2.320   4.002  12.822 -0.9326  1.6618 -0.9137
  531MPD2    H3 7941   2.247   3.772  12.756 -0.5525 -2.3429  3.3431
  531MPD2     N 7942   1.806   3.884  12.843  0.2327 -0.2155  0.0919
  531MPD2    H5 7943   1.753   3.963  12.877  0.8410 -1.2154  3.3253
  531MPD2    N1 7944   2.188   4.180  12.932 -0.2848  0.2557  0.4720
  531MPD2    H7 7945   2.282   4.212  12.911 -0.1906 -0.3715 -0.0819
  532TMC3    C1 7946   2.198   4.346  13.091  0.6384 -1.0987  0.1352
  532TMC3    C2 7947   2.113   4.418  13.171 -0.4759  0.8335 -0.4679
  532TMC3    C3 7948   2.121   4.418  13.306 -0.1926  0.5360  0.5736
  532TMC3    C4 7949   2.295   4.276  13.152  0.0666 -0.1967 -0.6778
  532TMC3    C5 7950   2.320   4.288  13.282  0.5839  0.0959 -0.2684
  532TMC3    C6 7951   2.235   4.364  13.356  0.2314  0.1481  0.7806
  532TMC3     C 7952   2.110   4.268  13.006 -0.1389 -0.0774  0.0352
  532TMC3     O 7953   1.991   4.270  13.038 -0.6331 -0.1810 -0.2221
  532TMC3     H 7954   2.032   4.483  13.141 -1.3241  0.9521  2.0914
  532TMC3    H1 7955   2.364   4.225  13.086  0.7801  1.5019 -1.2440
  532TMC3    H2 7956   2.254   4.380  13.462 -0.8521  0.0363  0.9995
  532TMC3    C7 7957   2.413   4.199  13.349  0.1585 -0.3932 -0.2992
  532TMC3    C8 7958   1.998   4.410  13.384 -0.1830  0.4093 -0.2244
  532TMC3    O1 7959   2.439   4.235  13.464 -0.4354 -0.1450  0.5437
  532TMC3    O2 7960   1.995   4.422  13.507  0.4165  0.4922 -0.1343
  533TMC3    C1 7961   2.633   1.444  14.369 -0.4855 -0.1213  0.2187
  533TMC3    C2 7962   2.748   1.509  14.378  0.1689  0.1885 -0.1882
  533TMC3    C3 7963   2.751   1.631  14.449 -0.5688 -0.4366  0.2850
  533TMC3    C4 7964   2.522   1.494  14.425  0.0471 -0.4945 -0.4286
  533TMC3    C5 7965   2.518   1.614  14.489 -0.0639 -0.0029 -0.9681
  533TMC3    C6 7966   2.634   1.682  14.503 -0.1899  0.1825  0.1316
  533TMC3     C 7967   2.636   1.300  14.347  1.1513 -0.1493 -1.3606
  533TMC3     O 7968   2.730   1.242  14.402  0.1122  0.0070  0.2808
  533TMC3     H 7969   2.831   1.458  14.332  1.3897  0.3696  1.7982
  533TMC3    H1 7970   2.426   1.445  14.414  0.4909 -1.5781  0.5952
  533TMC3    H2 7971   2.642   1.760  14.578  0.8285  1.8728 -1.7448
  533TMC3    C7 7972   2.458   1.607  14.613  0.5061 -0.0725 -0.4610
  533TMC3    C8 7973   2.877   1.705  14.477  0.6052  0.1826 -0.1991
  533TMC3    O1 7974   2.441   1.714  14.668  0.0959  0.5877  0.0764
  533TMC3    O2 7975   2.873   1.819  14.519 -0.6062  0.3062  0.1227
  534MPD2     C 7976   0.568   1.941   1.830  0.1440 -0.1635  0.6026
  534MPD2    C1 7977   0.498   2.039   1.764  0.3317 -0.9201  0.2053
  534MPD2    C2 7978   0.398   1.995   1.671 -0.5567 -0.1754  0.4502
  534MPD2    C3 7979   0.384   1.866   1.633 -0.0400  0.0877  0.2810
  534MPD2    C4 7980   0.451   1.769   1.704 -0.6654 -0.0272  0.4175
  534MPD2    C5 7981   0.539   1.801   1.806  1.2212  0.2006 -0.0760
  534MPD2     H 7982   0.338   2.073   1.625  3.6550  3.0460  0.4234
  534MPD2    H1 7983   0.425   1.666   1.682  0.9247 -0.6460  1.4446
  534MPD2    H2 7984   0.642   1.959   1.908 -0.2532  0.9551  0.7162
  534MPD2    H3 7985   0.594   1.727   1.864 -0.8412 -2.9247 -2.1127
  534MPD2     N 7986   0.292   1.823   1.528  0.2896  0.2662 -0.0584
  534MPD2    H5 7987   0.273   1.724   1.528  2.1414 -0.0888 -0.6619
  534MPD2    N1 7988   0.514   2.173   1.799  0.2697 -0.5891 -0.4322
  534MPD2    H7 7989   0.446   2.237   1.760 -1.1414 -0.2832  2.4941
  535TMC3    C1 7990   0.174   1.836   1.322 -0.8401  0.0000 -0.0117
  535TMC3    C2 7991   0.175   1.702   1.320 -0.3961 -0.1819  0.4969
  535TMC3    C3 7992   0.140   1.650   1.194  0.7033 -0.0143  0.0060
  535TMC3    C4 7993   0.150   1.914   1.213 -0.0741  0.4858  0.9948
  535TMC3    C5 7994   0.114   1.854   1.096 -0.3735  0.1500  0.0439
  535TMC3    C6 7995   0.105   1.723   1.082 -0.2305  0.2200 -0.2304
  535TMC3     C 7996   0.220   1.901   1.444  0.5845 -0.0194  0.7386
  535TMC3     O 7997   0.209   2.018   1.430 -0.0396 -0.4392 -0.1957
  535TMC3     H 7998   0.190   1.642   1.409 -1.2173 -0.0748  0.7099
  535TMC3    H1 7999   0.154   2.022   1.220  0.6442  0.5614 -0.5711
  535TMC3    H2 8000   0.070   1.671   0.993  1.9365  1.4128 -1.7826
  535TMC3    C7 8001   0.123   1.923   0.967  0.5019 -0.1516 -0.2568
  535TMC3    C8 8002   0.111   1.510   1.194 -0.6724  1.0580  0.0989
  535TMC3    O1 8003   0.056   1.873   0.878  0.7462 -0.6645  0.0900
  535TMC3    O2 8004   0.032   1.463   1.112  0.2920  0.1355 -0.0118
  536MPD2     C 8005   4.108   0.726  16.039  0.1284  0.4984  0.3537
  536MPD2    C1 8006   4.008   0.639  16.023 -0.1324 -0.4591 -0.2276
  536MPD2    C2 8007   3.928   0.642  15.913 -0.4812 -0.5860 -0.8106
  536MPD2    C3 8008   3.955   0.732  15.808  0.2735  0.1913 -0.3994
  536MPD2    C4 8009   4.060   0.824  15.830 -0.6793 -0.4390  0.4287
  536MPD2    C5 8010   4.127   0.827  15.943 -0.1416 -1.3841 -0.1006
  536MPD2     H 8011   3.841   0.578  15.912 -0.9945  0.1370 -1.8532
  536MPD2    H1 8012   4.075   0.909  15.764  0.2715 -0.5802  0.4709
  536MPD2    H2 8013   4.161   0.719  16.133 -1.0078 -0.4240  0.9313
  536MPD2    H3 8014   4.183   0.917  15.967 -1.2104 -0.9856  0.9134
  536MPD2     N 8015   3.875   0.745  15.696 -0.1235 -0.3133  0.3102
  536MPD2    H5 8016   3.890   0.817  15.627  0.0844 -0.0130  0.6720
  536MPD2    N1 8017   3.979   0.562  16.135 -0.9568  0.8585 -0.1333
  536MPD2    H7 8018   4.017   0.586  16.226 -0.1376 -0.5281 -0.1121
  537TMC3    C1 8019   3.859   0.405  16.268  0.5375 -0.4499 -1.4074
  537TMC3    C2 8020   3.916   0.458  16.380 -0.0660  0.5355  0.0018
  537TMC3    C3 8021   3.889   0.400  16.499 -0.4945 -0.1206  0.3323
  537TMC3    C4 8022   3.797   0.280  16.276 -0.3862  0.1327 -0.7784
  537TMC3    C5 8023   3.780   0.219  16.401  0.8962  0.1479 -0.1158
  537TMC3    C6 8024   3.826   0.281  16.515 -0.3834  0.6662  0.1678
  537TMC3     C 8025   3.902   0.449  16.137  0.2375  0.2840  0.5335
  537TMC3     O 8026   3.862   0.383  16.042 -0.0649 -0.0372  0.2370
  537TMC3     H 8027   3.971   0.552  16.380 -0.8236  0.9896 -2.1682
  537TMC3    H1 8028   3.756   0.239  16.184 -0.6149 -0.2648 -0.5029
  537TMC3    H2 8029   3.813   0.232  16.611 -3.8993 -0.6645 -0.9669
  537TMC3    C7 8030   3.662   0.124  16.404  0.0305 -0.0105 -0.0906
  537TMC3    C8 8031   3.904   0.475  16.621  0.1956 -0.0630  0.4418
  537TMC3    O1 8032   3.616   0.087  16.297 -0.2233 -0.0839 -0.4974
  537TMC3    O2 8033   3.936   0.407  16.715 -0.3966 -0.0880  0.1286
  538TMC3    C1 8034   0.537   4.008  11.187  0.0364 -0.5180 -0.7195
  538TMC3    C2 8035   0.555   3.935  11.076 -0.6401 -0.1622  0.0386
  538TMC3    C3 8036   0.546   3.991  10.951 -0.1009  0.5309  0.0122
  538TMC3    C4 8037   0.494   4.137  11.182 -0.5547 -0.2281  0.0294
  538TMC3    C5 8038   0.473   4.187  11.059  0.0809 -0.1149 -0.7553
  538TMC3    C6 8039   0.504   4.124  10.950 -0.0107 -0.3455  0.2428
  538TMC3     C 8040   0.599   3.969  11.313 -0.7885 -0.1540 -0.3674
  538TMC3     O 8041   0.528   3.996  11.410  0.4931  0.1342  0.2292
  538TMC3     H 8042   0.582   3.830  11.079  0.7783  0.1910 -0.2911
  538TMC3    H1 8043   0.478   4.194  11.272  1.8168 -0.2483  0.4765
  538TMC3    H2 8044   0.478   4.172  10.857 -2.0346  0.9571  1.4762
  538TMC3    C7 8045   0.365   4.280  11.043 -0.4847 -0.0349 -0.5671
  538TMC3    C8 8046   0.527   3.911  10.832  0.0001  0.2489  0.0418
  538TMC3    O1 8047   0.285   4.267  10.948 -0.1724  0.1668 -0.3386
  538TMC3    O2 8048   0.511   3.789  10.844  0.5615 -0.5153  0.3316
  539MPD2     C 8049   0.167   2.743  11.751  0.3021  0.0491 -0.0777
  539MPD2    C1 8050   0.187   2.775  11.623  0.2111 -0.3886  0.0999
  539MPD2    C2 8051   0.113   2.879  11.561  0.0923 -0.6641 -0.4989
  539MPD2    C3 8052   0.024   2.947  11.637 -0.0075 -0.7051 -0.0255
  539MPD2    C4 8053   0.013   2.922  11.775 -0.8335 -0.2943  0.0625
  539MPD2    C5 8054   0.089   2.821  11.830  0.4923  0.0708 -0.1680
  539MPD2     H 8055   0.126   2.900  11.455 -1.4739  0.1966 -0.5222
  539MPD2    H1 8056   4.695   2.992  11.836 -1.7889 -1.1327  0.1159
  539MPD2    H2 8057   0.223   2.659  11.791  0.5671  0.8003  1.1128
  539MPD2    H3 8058   0.068   2.780  11.929  1.8671  0.0200  0.1006
  539MPD2     N 8059   4.692   3.069  11.587  0.2798 -0.1528 -0.3254
  539MPD2    H5 8060   4.634   3.119  11.654  0.5175 -2.7639  1.8290
  539MPD2    N1 8061   0.294   2.712  11.561  0.3628 -0.1977  0.8354
  539MPD2    H7 8062   0.357   2.661  11.621  0.0874 -1.0166  0.4276
  540TMC3    C1 8063   4.592   3.223  11.439  0.2990  0.4765 -0.0716
  540TMC3    C2 8064   4.532   3.258  11.321 -0.1048  0.1471  0.3712
  540TMC3    C3 8065   4.489   3.379  11.289  0.5506 -0.1969  0.0630
  540TMC3    C4 8066   4.610   3.324  11.531  0.3157 -0.3468 -0.4334
  540TMC3    C5 8067   4.575   3.453  11.489 -0.3491 -0.5018 -0.1585
  540TMC3    C6 8068   4.505   3.475  11.382 -0.4467 -0.3386 -0.7259
  540TMC3     C 8069   4.653   3.087  11.456  0.0147  0.6917  0.7046
  540TMC3     O 8070   4.661   3.004  11.363 -0.2986 -0.4060  0.5593
  540TMC3     H 8071   4.528   3.184  11.242  0.6712  0.3266  0.1669
  540TMC3    H1 8072   4.684   3.302  11.607 -0.2047 -0.7486 -0.0435
  540TMC3    H2 8073   4.475   3.575  11.351  2.1731 -0.4012 -3.4785
  540TMC3    C7 8074   4.560   3.552  11.596 -0.3664 -0.5705 -0.5054
  540TMC3    C8 8075   4.435   3.406  11.157  0.0128  0.3291  0.2876
  540TMC3    O1 8076   4.476   3.639  11.584 -0.5013 -0.0913 -0.5296
  540TMC3    O2 8077   4.362   3.505  11.143 -0.0803 -0.3624 -0.1456
  541MPD2     C 8078   3.229   0.079  13.405  0.1470  0.5863  1.1089
  541MPD2    C1 8079   3.212   4.733  13.302 -0.5579 -0.5498 -0.6848
  541MPD2    C2 8080   3.199   0.050  13.176 -0.4757 -0.3208  0.0666
  541MPD2    C3 8081   3.210   0.182  13.152  0.0490 -0.0814  0.0897
  541MPD2    C4 8082   3.228   0.268  13.258 -0.0432  0.1866  0.1729
  541MPD2    C5 8083   3.243   0.212  13.383 -0.0756  0.0075 -0.0267
  541MPD2     H 8084   3.202   4.713  13.098  0.2430 -0.4005  0.1779
  541MPD2    H1 8085   3.255   0.372  13.248  0.7948 -0.0329  0.1995
  541MPD2    H2 8086   3.237   0.049  13.509  0.4363 -1.2612  0.5445
  541MPD2    H3 8087   3.260   0.278  13.467 -1.1466  0.7068 -0.3621
  541MPD2     N 8088   3.209   0.237  13.023 -0.2830  0.5606 -0.3926
  541MPD2    H5 8089   3.227   0.337  13.011 -0.9298  0.9212  1.5070
  541MPD2    N1 8090   3.194   4.591  13.309  0.7393 -0.0576 -0.5025
  541MPD2    H7 8091   3.165   4.538  13.227 -1.8180  1.8229 -0.8077
  542TMC3    C1 8092   3.232   0.254  12.786  0.7397  0.0890  1.2425
  542TMC3    C2 8093   3.265   0.190  12.671  0.0872  0.2146 -0.6768
  542TMC3    C3 8094   3.285   0.265  12.557 -0.1043  0.0743  0.3113
  542TMC3    C4 8095   3.209   0.393  12.796  0.0547 -0.1411  0.8214
  542TMC3    C5 8096   3.234   0.459  12.679 -0.3223  0.5085  0.0025
  542TMC3    C6 8097   3.270   0.404  12.560  0.3191  0.2616  0.7560
  542TMC3     C 8098   3.197   0.172  12.902 -0.0948 -0.3742  0.4623
  542TMC3     O 8099   3.188   0.052  12.880 -0.0806 -0.4927  0.5264
  542TMC3     H 8100   3.295   0.086  12.674 -1.3308 -0.2079 -1.3445
  542TMC3    H1 8101   3.168   0.434  12.888 -0.4167 -0.2101  0.6381
  542TMC3    H2 8102   3.295   0.455  12.468 -0.4006 -3.0257 -1.2660
  542TMC3    C7 8103   3.219   0.603  12.680 -0.5248 -0.1359  0.7456
  542TMC3    C8 8104   3.316   0.204  12.429 -0.2870 -0.1769 -0.4774
  542TMC3    O1 8105   3.170   0.658  12.777 -1.0823 -0.4929 -0.1674
  542TMC3    O2 8106   3.327   0.275  12.331  0.2467  0.0821  0.9332
  543TMC3    C1 8107   2.394   1.239  16.724  0.3126  0.0943  0.1429
  543TMC3    C2 8108   2.462   1.194  16.828  0.1394  0.0019 -0.1904
  543TMC3    C3 8109   2.410   1.217  16.953  0.3185 -0.1497  0.2198
  543TMC3    C4 8110   2.281   1.306  16.733 -0.0703  0.3141  0.1778
  543TMC3    C5 8111   2.231   1.330  16.862 -0.8020 -0.7782  0.0483
  543TMC3    C6 8112   2.289   1.284  16.970 -0.1375  0.3566 -0.0088
  543TMC3     C 8113   2.428   1.169  16.601 -0.1572 -0.6003 -0.1256
  543TMC3     O 8114   2.505   1.075  16.616  0.2168  0.1976 -0.2512
  543TMC3     H 8115   2.556   1.140  16.822  0.0106 -0.1320 -0.9913
  543TMC3    H1 8116   2.210   1.329  16.654  0.0200  3.1487  0.9091
  543TMC3    H2 8117   2.241   1.297  17.066 -1.9904 -1.4570 -0.6918
  543TMC3    C7 8118   2.120   1.422  16.883 -0.1155 -0.0489 -0.3352
  543TMC3    C8 8119   2.479   1.148  17.062 -0.6068 -0.1088 -0.6451
  543TMC3    O1 8120   2.052   1.405  16.985  0.1099  0.0286  0.1795
  543TMC3    O2 8121   2.556   1.058  17.031 -0.0209 -0.4417 -0.2893
  544MPD2     C 8122   2.458   0.911  17.512  0.0130 -0.0651 -0.2822
  544MPD2    C1 8123   2.500   0.863  17.390  0.7599 -0.3059  0.2988
  544MPD2    C2 8124   2.492   0.941  17.284  0.2687 -0.1684  0.1726
  544MPD2    C3 8125   2.451   1.079  17.299 -0.2624  0.7444  0.0453
  544MPD2    C4 8126   2.395   1.116  17.420  0.5063  0.2855  0.7977
  544MPD2    C5 8127   2.397   1.029  17.523  0.4456 -0.2208 -0.0120
  544MPD2     H 8128   2.507   0.905  17.183  0.0036  0.6351 -0.1601
  544MPD2    H1 8129   2.355   1.215  17.438  0.8169  0.5824 -0.1405
  544MPD2    H2 8130   2.465   0.853  17.602  1.6174  0.6331  0.0430
  544MPD2    H3 8131   2.348   1.050  17.618  3.3288 -2.8378  2.0547
  544MPD2     N 8132   2.433   1.173  17.192  0.2178 -0.2364 -0.0623
  544MPD2    H5 8133   2.389   1.262  17.213  1.6446  1.1221 -2.7574
  544MPD2    N1 8134   2.555   0.735  17.381  0.6501  0.5395  0.0086
  544MPD2    H7 8135   2.541   0.685  17.468 -1.5838 -0.6687 -1.0505
  545TMC3    C1 8136   2.607   0.548  17.264 -0.1523  0.0726 -1.3281
  545TMC3    C2 8137   2.607   0.508  17.133  0.0887 -0.4505  0.0588
  545TMC3    C3 8138   2.560   0.383  17.104  0.5115 -0.1732  0.0791
  545TMC3    C4 8139   2.546   0.472  17.363 -0.1239  0.5233 -0.3333
  545TMC3    C5 8140   2.499   0.347  17.326  1.0148 -0.2872  0.6992
  545TMC3    C6 8141   2.516   0.301  17.198 -0.1376 -0.3901 -0.6422
  545TMC3     C 8142   2.633   0.687  17.281  0.0285  1.1437  0.0812
  545TMC3     O 8143   2.683   0.756  17.192  0.3518 -0.0162 -0.3502
  545TMC3     H 8144   2.629   0.577  17.053 -2.0178 -2.1765 -2.0025
  545TMC3    H1 8145   2.551   0.506  17.466  0.5341  1.3526 -0.6359
  545TMC3    H2 8146   2.472   0.207  17.167  0.6756 -0.5772 -1.2227
  545TMC3    C7 8147   2.494   0.249  17.437 -0.2854  0.0749  0.0813
  545TMC3    C8 8148   2.609   0.319  16.981 -0.8210  0.3232 -0.2636
  545TMC3    O1 8149   2.509   0.289  17.552 -0.1678  0.8301  0.4820
  545TMC3    O2 8150   2.613   0.198  16.994  0.5481 -0.4256  0.0776
  546MPD2     C 8151   3.624   0.709  17.335  0.0405  0.9443  0.2310
  546MPD2    C1 8152   3.579   0.781  17.225  0.2356  0.7668  0.5528
  546MPD2    C2 8153   3.611   0.910  17.194  0.2674  0.6687 -0.2877
  546MPD2    C3 8154   3.719   0.957  17.272 -0.1252 -0.3153  0.3429
  546MPD2    C4 8155   3.769   0.887  17.384  0.5501 -0.3777  0.8555
  546MPD2    C5 8156   3.714   0.765  17.416 -0.6402  0.1343  0.3309
  546MPD2     H 8157   3.571   0.968  17.111  1.2138  0.1315 -1.1250
  546MPD2    H1 8158   3.837   0.927  17.458  2.1374 -0.7422 -0.4253
  546MPD2    H2 8159   3.585   0.608  17.341  1.1866  0.5176  0.4235
  546MPD2    H3 8160   3.741   0.704  17.502  1.1606  0.4637 -0.0010
  546MPD2     N 8161   3.773   1.078  17.234  0.4613 -0.3028 -0.1849
  546MPD2    H5 8162   3.721   1.129  17.163  2.3823 -1.5401 -2.4765
  546MPD2    N1 8163   3.499   0.695  17.142  1.0090 -0.8256 -0.1089
  546MPD2    H7 8164   3.487   0.596  17.159 -4.7229 -0.2118 -0.6653
  547TMC3    C1 8165   3.394   0.605  16.958 -0.5805  0.5196  0.5024
  547TMC3    C2 8166   3.389   0.606  16.817  0.0838  0.2705 -0.7106
  547TMC3    C3 8167   3.356   0.484  16.765 -0.0089  0.0111  0.1586
  547TMC3    C4 8168   3.352   0.504  17.039 -0.1846  0.4463  0.5846
  547TMC3    C5 8169   3.313   0.389  16.972  0.5374 -0.6321  0.7224
  547TMC3    C6 8170   3.330   0.370  16.840  0.3401 -0.9376 -0.6810
  547TMC3     C 8171   3.445   0.726  17.015  0.7701 -0.2547 -0.2475
  547TMC3     O 8172   3.452   0.831  16.951 -0.0159 -0.6712  0.3413
  547TMC3     H 8173   3.417   0.689  16.753 -3.9830  1.0072 -1.5603
  547TMC3    H1 8174   3.325   0.519  17.143  1.3009  2.5638  0.6824
  547TMC3    H2 8175   3.299   0.276  16.796 -0.8448 -0.7823 -0.1917
  547TMC3    C7 8176   3.250   0.285  17.052  0.0689 -1.0053 -0.5110
  547TMC3    C8 8177   3.372   0.464  16.628  0.6002  0.5585  0.4722
  547TMC3    O1 8178   3.278   0.280  17.172  0.1339  0.0919  0.5659
  547TMC3    O2 8179   3.464   0.396  16.597  0.1899  0.3534 -0.2315
  548MPD2     C 8180   3.636   1.957  12.538  0.0053 -0.0697 -0.3399
  548MPD2    C1 8181   3.596   1.861  12.634  0.3516 -0.6534  0.3617
  548MPD2    C2 8182   3.667   1.746  12.642  0.1560  0.3438  0.4196
  548MPD2    C3 8183   3.765   1.717  12.559  0.0506 -0.5619 -0.2267
  548MPD2    C4 8184   3.800   1.806  12.458  0.0585 -0.7193 -0.0044
  548MPD2    C5 8185   3.741   1.928  12.457  0.0239 -0.7000  0.6839
  548MPD2     H 8186   3.641   1.675  12.721 -0.0272 -4.1412 -3.6529
  548MPD2    H1 8187   3.875   1.787  12.382 -0.6012  0.4114 -0.9409
  548MPD2    H2 8188   3.586   2.054  12.528 -2.1212 -1.1897 -0.6423
  548MPD2    H3 8189   3.773   1.995  12.377 -1.0021 -1.7106 -0.5835
  548MPD2     N 8190   3.829   1.593  12.572 -0.4502  0.1087  0.1367
  548MPD2    H5 8191   3.805   1.545  12.658 -1.9727  2.6484  1.1352
  548MPD2    N1 8192   3.493   1.884  12.724 -0.3317  0.7404  0.4182
  548MPD2    H7 8193   3.433   1.963  12.704 -2.9959 -2.0276 -2.5939
  549TMC3    C1 8194   3.309   1.818  12.856  0.1904 -0.6293  0.7125
  549TMC3    C2 8195   3.238   1.921  12.799  0.0698  0.1687 -0.4695
  549TMC3    C3 8196   3.116   1.889  12.741  0.1586  0.1059 -0.1388
  549TMC3    C4 8197   3.252   1.696  12.881  0.5548  0.5468  0.2028
  549TMC3    C5 8198   3.131   1.665  12.820 -0.1271  0.6422 -0.1356
  549TMC3    C6 8199   3.061   1.762  12.750  0.1075 -0.5091  0.5737
  549TMC3     C 8200   3.450   1.803  12.828  0.0985 -0.3075 -0.5043
  549TMC3     O 8201   3.514   1.743  12.916  0.5314 -0.2350  0.0953
  549TMC3     H 8202   3.287   2.017  12.797 -1.0025  0.7045 -0.8410
  549TMC3    H1 8203   3.307   1.618  12.933  0.4523  0.6147  0.4129
  549TMC3    H2 8204   2.968   1.740  12.698 -0.6590  0.0398  1.7145
  549TMC3    C7 8205   3.076   1.532  12.804 -0.0428  0.7087  0.0875
  549TMC3    C8 8206   3.018   1.989  12.716 -0.8088 -0.0316 -0.2821
  549TMC3    O1 8207   2.960   1.528  12.769 -0.3638 -0.2979 -0.4454
  549TMC3    O2 8208   2.922   1.963  12.649 -0.8857 -0.4599 -0.1115
  550TMC3    C1 8209   2.440   3.980  12.445  0.5065 -0.6528  0.1965
  550TMC3    C2 8210   2.484   4.080  12.536  0.2477  0.7084 -0.3390
  550TMC3    C3 8211   2.389   4.161  12.593  0.2589 -0.2152  0.7565
  550TMC3    C4 8212   2.312   3.983  12.395  1.0597 -0.1716  0.0320
  550TMC3    C5 8213   2.226   4.073  12.455 -0.3722 -0.3455 -0.2057
  550TMC3    C6 8214   2.257   4.158  12.549  0.0401 -0.2627 -0.3585
  550TMC3     C 8215   2.537   3.911  12.369 -0.4399  0.1777  0.0119
  550TMC3     O 8216   2.649   3.888  12.422 -0.7119 -0.3722  0.0782
  550TMC3     H 8217   2.586   4.089  12.571  0.0416 -0.9066  0.7012
  550TMC3    H1 8218   2.275   3.918  12.316 -2.1933 -1.7064  2.7725
  550TMC3    H2 8219   2.180   4.216  12.598  0.0176 -0.7676  0.2039
  550TMC3    C7 8220   2.108   4.118  12.374  0.7195 -0.4563  0.0382
  550TMC3    C8 8221   2.430   4.276  12.667  0.4858  0.7452 -0.0116
  550TMC3    O1 8222   2.070   4.040  12.288 -0.0590  0.5684 -0.1809
  550TMC3    O2 8223   2.355   4.326  12.746  0.2605 -1.1730 -0.5929
  551TMC3    C1 8224   0.011   2.307  13.442 -0.1343 -0.1497  0.1681
  551TMC3    C2 8225   0.115   2.235  13.393 -0.0085  0.6200  0.3629
  551TMC3    C3 8226   0.237   2.284  13.418  0.4424  1.2634 -0.3891
  551TMC3    C4 8227   0.029   2.414  13.515  0.6942  0.0303 -0.1733
  551TMC3    C5 8228   0.153   2.449  13.555 -0.3917  0.5153 -0.0080
  551TMC3    C6 8229   0.260   2.381  13.512 -0.2211  0.2974 -0.1882
  551TMC3     C 8230   4.634   2.297  13.364  0.6634 -0.3803  0.0115
  551TMC3     O 8231   4.612   2.178  13.339  0.3560 -0.4110  0.3284
  551TMC3     H 8232   0.089   2.162  13.317 -3.2839  0.1166  1.9365
  551TMC3    H1 8233   4.686   2.458  13.570  0.7843 -0.6057  0.4671
  551TMC3    H2 8234   0.361   2.410  13.538  0.3317 -1.4049 -0.4382
  551TMC3    C7 8235   0.171   2.536  13.673  0.3994 -0.4544  0.4091
  551TMC3    C8 8236   0.321   2.282  13.303 -0.5831 -0.1459  0.3994
  551TMC3    O1 8237   0.255   2.505  13.756 -0.4607 -0.3804 -0.3131
  551TMC3    O2 8238   0.316   2.187  13.227  0.2860  0.3172 -0.2721
  552MPD2     C 8239   2.516   4.120  14.096  0.1840 -0.9189  0.0937
  552MPD2    C1 8240   2.421   4.062  14.172  0.0038  0.1057  0.0439
  552MPD2    C2 8241   2.445   4.072  14.309  0.4667  0.1465  0.3459
  552MPD2    C3 8242   2.547   4.148  14.361  0.1144  0.5026 -0.1678
  552MPD2    C4 8243   2.640   4.213  14.282 -0.0443  0.2308  0.1529
  552MPD2    C5 8244   2.616   4.199  14.149 -0.4714  0.0922  0.4339
  552MPD2     H 8245   2.380   4.009  14.366 -2.5683  1.4859 -1.6304
  552MPD2    H1 8246   2.724   4.274  14.312  1.9893 -1.9064 -1.2034
  552MPD2    H2 8247   2.505   4.110  13.989  2.2103 -0.1248 -0.1872
  552MPD2    H3 8248   2.671   4.254  14.074  0.4637  0.6769  1.5374
  552MPD2     N 8249   2.578   4.156  14.492 -0.4515  0.2468 -0.2209
  552MPD2    H5 8250   2.657   4.218  14.511 -1.6553  1.6379  0.2055
  552MPD2    N1 8251   2.304   3.992  14.130 -0.0802  0.6052  0.0657
  552MPD2    H7 8252   2.255   3.944  14.204  3.4617 -2.1790  0.6361
  553TMC3    C1 8253   2.136   3.915  13.979  0.0213  0.2906  0.6547
  553TMC3    C2 8254   2.076   3.938  13.854 -0.3965 -0.5952  0.0682
  553TMC3    C3 8255   1.972   3.848  13.833  0.1632  0.1235  0.3834
  553TMC3    C4 8256   2.118   3.805  14.060 -0.0641  0.3288 -0.1345
  553TMC3    C5 8257   2.019   3.728  14.021 -0.3681  0.0456 -0.6881
  553TMC3    C6 8258   1.939   3.751  13.915  0.8322  0.4704  0.3610
  553TMC3     C 8259   2.244   4.009  14.012  0.7443  0.4406  1.0626
  553TMC3     O 8260   2.279   4.089  13.926 -0.2028 -0.7216  0.1471
  553TMC3     H 8261   2.110   4.015  13.786  1.5757 -0.8086  0.8233
  553TMC3    H1 8262   2.169   3.789  14.155  0.8789 -1.7255 -0.9777
  553TMC3    H2 8263   1.876   3.665  13.899 -1.5381  1.7547  2.7643
  553TMC3    C7 8264   2.049   3.585  14.040  0.1798 -0.2026  0.2123
  553TMC3    C8 8265   1.956   3.804  13.695  0.7780 -0.5318  0.0991
  553TMC3    O1 8266   1.964   3.500  14.041 -0.1373 -0.4060 -0.0072
  553TMC3    O2 8267   1.903   3.693  13.678 -0.5554  0.1162  0.0260
  554TMC3    C1 8268   4.185   3.353  11.499 -0.1452 -0.2191 -0.2193
  554TMC3    C2 8269   4.149   3.272  11.400 -0.7120  0.6334  0.1259
  554TMC3    C3 8270   4.098   3.339  11.291  0.2824 -0.8764 -0.1199
  554TMC3    C4 8271   4.171   3.489  11.496 -0.1462 -0.2267  0.1717
  554TMC3    C5 8272   4.116   3.548  11.388  0.5541  0.0814 -0.4720
  554TMC3    C6 8273   4.078   3.474  11.280 -0.3015 -0.6946  0.2544
  554TMC3     C 8274   4.237   3.304  11.627 -0.3976  0.1073  0.4667
  554TMC3     O 8275   4.266   3.385  11.715 -0.1253  0.1962  0.7865
  554TMC3     H 8276   4.129   3.166  11.414 -0.7096  0.4890 -0.9977
  554TMC3    H1 8277   4.221   3.548  11.573 -1.6212  0.7232  0.3957
  554TMC3    H2 8278   4.033   3.521  11.194 -0.0675 -0.3907  0.2931
  554TMC3    C7 8279   4.134   3.692  11.367  0.7440  0.1100 -0.4936
  554TMC3    C8 8280   4.091   3.265  11.172 -0.5487  0.3185  0.8239
  554TMC3    O1 8281   4.105   3.730  11.256 -0.2218 -0.1151 -0.4334
  554TMC3    O2 8282   4.076   3.142  11.185  0.0161 -0.1651  0.3839
  555TMC3    C1 8283   2.815   2.831  15.586 -1.2432  0.6888  0.7155
  555TMC3    C2 8284   2.805   2.874  15.711  0.6253 -1.1818 -0.4644
  555TMC3    C3 8285   2.813   2.780  15.815  0.5769 -0.7623  0.2355
  555TMC3    C4 8286   2.831   2.698  15.557 -0.6079  0.9843  0.7181
  555TMC3    C5 8287   2.852   2.612  15.658  0.0951 -1.1481  0.4066
  555TMC3    C6 8288   2.834   2.644  15.793 -0.0994  0.5135  0.6091
  555TMC3     C 8289   2.849   2.933  15.486 -0.9065  0.5144  0.3188
  555TMC3     O 8290   2.907   3.035  15.523 -0.0882  0.4396 -0.5966
  555TMC3     H 8291   2.782   2.978  15.731  1.1738 -1.2190  0.3525
  555TMC3    H1 8292   2.851   2.665  15.456  1.0567  3.7248  0.1569
  555TMC3    H2 8293   2.837   2.571  15.873 -1.4963  0.4309  0.5865
  555TMC3    C7 8294   2.899   2.474  15.627  0.4507  0.1519 -1.4221
  555TMC3    C8 8295   2.805   2.831  15.953 -0.9780  0.0414 -0.1868
  555TMC3    O1 8296   2.896   2.401  15.721 -0.1968  0.0313  0.1062
  555TMC3    O2 8297   2.751   2.936  15.967 -0.2363 -0.8963 -0.1455
  556MPD2     C 8298   0.947   0.275  10.462 -0.1599 -0.4226  0.0295
  556MPD2    C1 8299   0.941   0.153  10.526 -0.8430 -1.1388  1.2208
  556MPD2    C2 8300   0.892   0.040  10.455  0.2226 -0.0443 -0.0947
  556MPD2    C3 8301   0.870   0.048  10.320 -0.3061  0.8637  0.3147
  556MPD2    C4 8302   0.880   0.168  10.258  0.4343 -0.0418 -0.3826
  556MPD2    C5 8303   0.921   0.278  10.323  0.0450 -0.8988 -0.0377
  556MPD2     H 8304   0.882   4.680  10.497 -0.3145 -0.5548 -1.4246
  556MPD2    H1 8305   0.863   0.181  10.152 -1.6836 -3.6134 -0.4784
  556MPD2    H2 8306   0.977   0.369  10.507  0.2562 -1.3662  1.7167
  556MPD2    H3 8307   0.917   0.372  10.269  1.0187 -0.4197  0.7219
  556MPD2     N 8308   0.834   4.668  10.252 -0.0335  0.2256  0.8039
  556MPD2    H5 8309   0.814   4.586  10.307  0.2475  1.0714  2.1600
  556MPD2    N1 8310   0.973   0.147  10.664 -0.4114 -0.1308 -0.3303
  556MPD2    H7 8311   0.948   0.053  10.694  0.7963 -0.3394  0.0309
  557TMC3    C1 8312   0.763   4.526  10.088 -0.7739  0.4801  0.3464
  557TMC3    C2 8313   0.751   4.487   9.962 -0.1594 -0.3923 -0.3546
  557TMC3    C3 8314   0.708   4.358   9.937 -0.1603 -0.3084  0.4640
  557TMC3    C4 8315   0.723   4.448  10.192  0.9880 -0.0549  0.3177
  557TMC3    C5 8316   0.676   4.324  10.164  0.0098  0.5403 -0.5959
  557TMC3    C6 8317   0.666   4.275  10.037 -0.2639  0.1588 -0.5082
  557TMC3     C 8318   0.823   4.648  10.113 -0.1160  0.2424 -0.0014
  557TMC3     O 8319   0.839   4.726  10.022  0.1391  1.1073 -0.0301
  557TMC3     H 8320   0.775   4.551   9.877 -0.5893 -0.5704 -0.6100
  557TMC3    H1 8321   0.736   4.471  10.297  0.5805  1.6026  0.0040
  557TMC3    H2 8322   0.671   4.167  10.022 -0.3113  0.0124  0.5270
  557TMC3    C7 8323   0.683   4.226  10.276 -0.2383 -0.1431  0.0589
  557TMC3    C8 8324   0.671   4.305   9.804 -0.1427 -0.5628 -0.1094
  557TMC3    O1 8325   0.745   4.261  10.377  0.3457 -0.1000 -0.5456
  557TMC3    O2 8326   0.728   4.364   9.712 -0.4379  0.0936  0.4196
  558TMC3    C1 8327   3.287   2.215  10.087 -0.0057 -0.0843 -0.5675
  558TMC3    C2 8328   3.197   2.207  10.189 -0.7984 -0.3669  0.2221
  558TMC3    C3 8329   3.070   2.243  10.165  0.3795  0.5236 -0.4176
  558TMC3    C4 8330   3.258   2.263   9.962  0.8707  0.7170  0.7911
  558TMC3    C5 8331   3.130   2.313   9.945 -0.4129 -0.2954 -0.2004
  558TMC3    C6 8332   3.040   2.311  10.045  0.1600 -0.1230  0.3522
  558TMC3     C 8333   3.418   2.148  10.094 -0.7499 -0.1708 -0.9394
  558TMC3     O 8334   3.482   2.139   9.987  0.2871  0.4007  0.3294
  558TMC3     H 8335   3.199   2.133  10.269 -1.5571  2.2989  2.7303
  558TMC3    H1 8336   3.334   2.275   9.886  2.2672  2.7068  2.5036
  558TMC3    H2 8337   2.940   2.354  10.042  0.9916  1.7543 -0.4251
  558TMC3    C7 8338   3.101   2.396   9.832  0.4879 -0.2889  0.0017
  558TMC3    C8 8339   2.975   2.247  10.270  0.5842  0.3788  0.7678
  558TMC3    O1 8340   3.192   2.464   9.794 -0.1779  0.0972 -0.1331
  558TMC3    O2 8341   2.856   2.248  10.242 -0.4899  0.2580  0.7077
  559MPD2     C 8342   3.367   2.558  10.062 -0.0879 -0.3211  0.0155
  559MPD2    C1 8343   3.358   2.564  10.204  0.4484 -0.2235 -0.5103
  559MPD2    C2 8344   3.469   2.522  10.274  0.5080  0.1775 -0.5639
  559MPD2    C3 8345   3.586   2.482  10.211  0.0239  0.1286 -0.4004
  559MPD2    C4 8346   3.594   2.480  10.076 -0.6828  0.6310 -0.0082
  559MPD2    C5 8347   3.485   2.519  10.002  0.4522  0.5057 -0.3079
  559MPD2     H 8348   3.475   2.526  10.382  1.1277 -2.6023 -0.4975
  559MPD2    H1 8349   3.680   2.444  10.020 -1.2329 -0.5777 -0.0762
  559MPD2    H2 8350   3.278   2.580  10.003  0.0800  2.2279  0.7359
  559MPD2    H3 8351   3.489   2.509   9.894 -0.7558 -1.7954 -0.1408
  559MPD2     N 8352   3.697   2.464  10.296 -0.1509 -0.1404 -0.0443
  559MPD2    H5 8353   3.679   2.466  10.396  1.7159  0.0389  0.2825
  559MPD2    N1 8354   3.233   2.603  10.261 -0.4175  0.6227 -0.4880
  559MPD2    H7 8355   3.163   2.642  10.199  0.7665  1.8767 -1.0214
  560TMC3    C1 8356   3.916   2.404  10.374  0.0784 -0.4846  0.3192
  560TMC3    C2 8357   3.867   2.324  10.474 -0.3612 -0.1488  0.5277
  560TMC3    C3 8358   3.954   2.309  10.582  0.0428 -0.6213 -0.0614
  560TMC3    C4 8359   4.044   2.450  10.373  0.2098  0.0062  0.0797
  560TMC3    C5 8360   4.121   2.434  10.488 -0.2374  0.7032 -0.3065
  560TMC3    C6 8361   4.083   2.357  10.594  0.1365 -0.1269 -0.5306
  560TMC3     C 8362   3.830   2.435  10.257 -0.7727  0.6284 -0.3266
  560TMC3     O 8363   3.895   2.463  10.155 -0.3718  0.2781 -0.2226
  560TMC3     H 8364   3.773   2.272  10.460  0.3689 -0.8123 -1.8008
  560TMC3    H1 8365   4.075   2.518  10.294 -0.8409  3.3666  2.5409
  560TMC3    H2 8366   4.143   2.350  10.684  1.6259  3.3068 -1.2533
  560TMC3    C7 8367   4.266   2.449  10.464  0.2270 -0.3715  0.2243
  560TMC3    C8 8368   3.901   2.232  10.691 -0.3769  0.5088 -0.0852
  560TMC3    O1 8369   4.306   2.427  10.350 -0.2830 -0.0376  0.1757
  560TMC3    O2 8370   3.779   2.220  10.675 -0.4505  0.2285  0.6154
  561TMC3    C1 8371   1.272   1.980  11.155 -0.2569  0.1208  0.1973
  561TMC3    C2 8372   1.161   1.910  11.198  0.1841 -0.3681  0.3483
  561TMC3    C3 8373   1.100   1.960  11.304  0.1376 -0.3415 -0.1566
  561TMC3    C4 8374   1.311   2.104  11.202  0.7243 -0.3510 -0.3218
  561TMC3    C5 8375   1.230   2.164  11.298 -0.5154  1.0097 -0.2233
  561TMC3    C6 8376   1.128   2.087  11.349 -0.3954 -0.9262 -0.1333
  561TMC3     C 8377   1.364   1.891  11.082  0.0766  0.2292 -0.2603
  561TMC3     O 8378   1.316   1.796  11.028  0.1231  0.1172  0.5312
  561TMC3     H 8379   1.140   1.807  11.169 -2.6705 -0.0070  1.1069
  561TMC3    H1 8380   1.398   2.152  11.158  1.1907 -0.1142  0.8646
  561TMC3    H2 8381   1.074   2.125  11.435  1.8895 -0.8280  1.2435
  561TMC3    C7 8382   1.279   2.283  11.373 -0.2770 -0.7089  0.4130
  561TMC3    C8 8383   1.036   1.861  11.394  0.1711 -0.4939  0.9166
  561TMC3    O1 8384   1.228   2.303  11.484 -0.5117 -0.1462 -0.6237
  561TMC3    O2 8385   1.061   1.743  11.371 -0.2460 -0.7853  0.0168
  562TMC3    C1 8386   2.381   2.844  16.496  0.5548 -0.6203  0.3055
  562TMC3    C2 8387   2.310   2.952  16.442 -0.1693  0.2057  0.1855
  562TMC3    C3 8388   2.298   2.954  16.308  0.7321  0.2066  0.3064
  562TMC3    C4 8389   2.449   2.753  16.417  0.2307 -0.1145 -0.3599
  562TMC3    C5 8390   2.427   2.767  16.281  0.2991  0.6422 -0.0995
  562TMC3    C6 8391   2.356   2.866  16.226  0.0934 -0.2944 -0.9601
  562TMC3     C 8392   2.405   2.836  16.643 -0.0730  1.2143  0.3881
  562TMC3     O 8393   2.404   2.947  16.697 -0.3606 -0.2155  0.0480
  562TMC3     H 8394   2.249   3.006  16.514  0.8393 -1.0299  1.9443
  562TMC3    H1 8395   2.543   2.710  16.449 -0.2293  0.2566  1.4659
  562TMC3    H2 8396   2.362   2.885  16.119  1.1359  1.3010 -0.6031
  562TMC3    C7 8397   2.511   2.690  16.194  0.5963  0.6456 -0.4378
  562TMC3    C8 8398   2.193   3.043  16.250  0.5065 -0.0286 -0.6850
  562TMC3    O1 8399   2.520   2.735  16.082  0.1787  0.4643 -0.0404
  562TMC3    O2 8400   2.100   3.070  16.328 -0.8066  0.7369 -0.7898
  563MPD2     C 8401   4.535   4.462  15.787  0.2292 -0.0031  0.1368
  563MPD2    C1 8402   4.573   4.548  15.880  0.0888  0.0991 -0.7079
  563MPD2    C2 8403   4.698   4.545  15.938  0.0497  0.1017  0.5462
  563MPD2    C3 8404   0.050   4.448  15.906 -0.3430  0.5553 -0.1131
  563MPD2    C4 8405   0.010   4.350  15.816  0.3689 -0.5575  0.2794
  563MPD2    C5 8406   4.623   4.359  15.755  0.2199 -0.3848  0.3038
  563MPD2     H 8407   4.718   4.612  16.021  0.2373 -0.3619  0.8740
  563MPD2    H1 8408   0.067   4.259  15.804 -1.9116 -1.4856 -3.3010
  563MPD2    H2 8409   4.438   4.465  15.738  0.1566  2.1687  0.4312
  563MPD2    H3 8410   4.595   4.274  15.693 -2.7388  0.4406  0.4864
  563MPD2     N 8411   0.168   4.445  15.988 -0.1127 -0.4481  0.0433
  563MPD2    H5 8412   0.182   4.520  16.055 -1.8483  0.4483 -0.5887
  563MPD2    N1 8413   4.467   4.640  15.921  0.1656 -0.4193 -0.8752
  563MPD2    H7 8414   4.371   4.612  15.906 -0.1555  0.7485 -0.9518
  564TMC3    C1 8415   4.457   4.696  16.137 -0.4560  0.2046  0.3080
  564TMC3    C2 8416   4.337   4.633  16.144 -0.3262  0.1458 -0.7004
  564TMC3    C3 8417   4.319   4.546  16.244  0.2405 -0.5236  0.5746
  564TMC3    C4 8418   4.563   4.659  16.215 -0.5758 -0.9675  1.1234
  564TMC3    C5 8419   4.548   4.561  16.310  0.3366 -0.2506 -0.0110
  564TMC3    C6 8420   4.425   4.514  16.331  0.0234  0.0989  0.6710
  564TMC3     C 8421   4.495   0.009  16.008  0.3935  0.4141 -0.5696
  564TMC3     O 8422   4.602   0.072  16.015  0.1318  0.5936  0.0737
  564TMC3     H 8423   4.259   4.662  16.075 -0.6065  0.8710 -0.0807
  564TMC3    H1 8424   4.661   4.704  16.206 -1.2212  0.5423  1.6056
  564TMC3    H2 8425   4.419   4.433  16.403 -0.3023 -1.1718 -0.7878
  564TMC3    C7 8426   4.657   4.477  16.313 -0.5376 -0.1081 -0.0799
  564TMC3    C8 8427   4.222   4.444  16.225 -0.0683  0.6804 -0.3315
  564TMC3    O1 8428   0.022   4.526  16.357 -0.4949  0.0567 -0.2382
  564TMC3    O2 8429   4.189   4.392  16.332  0.0715 -0.4127 -0.4515
  565TMC3    C1 8430   0.944   1.250   9.909  0.1965  0.0934 -0.4302
  565TMC3    C2 8431   0.868   1.144   9.957  0.0304 -0.4262 -0.0103
  565TMC3    C3 8432   0.751   1.110   9.894 -1.0189  0.4684  0.0495
  565TMC3    C4 8433   0.897   1.326   9.805 -0.5564  0.3919 -0.3636
  565TMC3    C5 8434   0.768   1.307   9.760 -0.3124 -0.1238  0.0001
  565TMC3    C6 8435   0.702   1.188   9.791 -0.0951  0.0950  0.2257
  565TMC3     C 8436   1.046   1.305   9.995 -0.0974 -0.2258  0.4152
  565TMC3     O 8437   1.095   1.409   9.955 -0.1255  0.0554 -0.1788
  565TMC3     H 8438   0.904   1.068  10.026  1.7121  1.0190  0.7301
  565TMC3    H1 8439   0.964   1.400   9.764  0.4080 -1.3062 -1.8482
  565TMC3    H2 8440   0.594   1.183   9.782  0.0357  0.2456 -1.4679
  565TMC3    C7 8441   0.713   1.397   9.658 -0.4426  0.1436  0.0935
  565TMC3    C8 8442   0.685   0.987   9.921  0.7889 -0.5765  0.0253
  565TMC3    O1 8443   0.613   1.350   9.601  0.0462 -0.0033  0.0567
  565TMC3    O2 8444   0.699   0.947  10.035 -0.8034  0.3457  0.6252
  566MPD2     C 8445   2.413   2.529  14.466 -0.0862 -0.1546 -0.9974
  566MPD2    C1 8446   2.370   2.617  14.374 -0.3518 -0.3108 -0.4352
  566MPD2    C2 8447   2.263   2.587  14.290 -0.6509 -0.9867  0.7406
  566MPD2    C3 8448   2.185   2.474  14.309 -0.6381 -0.0521  0.2637
  566MPD2    C4 8449   2.225   2.398  14.420  0.0027  0.3988  0.0512
  566MPD2    C5 8450   2.333   2.423  14.492 -0.1253  0.2628 -0.5963
  566MPD2     H 8451   2.230   2.649  14.208  0.4913 -1.1952  0.1206
  566MPD2    H1 8452   2.175   2.304  14.441 -1.2809  1.1746  0.4812
  566MPD2    H2 8453   2.492   2.553  14.536  0.9833 -0.3953 -2.1270
  566MPD2    H3 8454   2.368   2.358  14.571  0.7507 -1.2789 -2.2562
  566MPD2     N 8455   2.075   2.440  14.220 -0.7036 -0.0554 -0.4938
  566MPD2    H5 8456   2.060   2.340  14.212 -1.3140  0.1065 -1.3150
  566MPD2    N1 8457   2.455   2.738  14.348 -0.9080 -0.0964 -0.1462
  566MPD2    H7 8458   2.551   2.735  14.382 -0.9854  0.4927  0.1218
  567TMC3    C1 8459   2.556   2.904  14.219 -0.3606 -0.1477 -0.1701
  567TMC3    C2 8460   2.578   2.905  14.087 -0.1183 -0.3424 -0.0717
  567TMC3    C3 8461   2.701   2.909  14.025 -0.2043 -0.2363 -0.1825
  567TMC3    C4 8462   2.669   2.909  14.301  0.5680 -0.2260 -0.3267
  567TMC3    C5 8463   2.790   2.907  14.240  0.2631 -0.4146 -0.3509
  567TMC3    C6 8464   2.818   2.901  14.101 -0.1104  0.2519 -1.1180
  567TMC3     C 8465   2.428   2.841  14.255  0.3312  0.1932 -0.2047
  567TMC3     O 8466   2.322   2.867  14.205 -0.4677  0.1684  0.0550
  567TMC3     H 8467   2.489   2.879  14.031  0.3784 -1.7793 -0.1995
  567TMC3    H1 8468   2.660   2.916  14.409 -2.8368  2.7797 -0.8262
  567TMC3    H2 8469   2.919   2.874  14.071  0.6632 -0.2602  2.0143
  567TMC3    C7 8470   2.898   2.890  14.330  0.1134 -0.6985  0.0865
  567TMC3    C8 8471   2.699   2.927  13.881 -0.5704 -0.7161  0.9585
  567TMC3    O1 8472   2.987   2.975  14.322  0.4308  0.5103  0.2969
  567TMC3    O2 8473   2.593   2.918  13.822 -0.0915  0.4489  0.0385
  568MPD2     C 8474   0.476   3.489  16.303 -0.2732 -0.4332  0.7106
  568MPD2    C1 8475   0.430   3.502  16.435  0.0550  0.5482  0.0800
  568MPD2    C2 8476   0.312   3.576  16.468  0.2128 -0.7872  0.4147
  568MPD2    C3 8477   0.252   3.643  16.364  0.4715  0.5960 -0.0051
  568MPD2    C4 8478   0.312   3.646  16.235 -0.5512 -0.4312 -0.0992
  568MPD2    C5 8479   0.419   3.563  16.202 -0.2914  0.0972  0.8828
  568MPD2     H 8480   0.275   3.587  16.569 -2.6684 -0.7691 -0.6310
  568MPD2    H1 8481   0.258   3.695  16.155 -0.3669 -2.2913 -1.3474
  568MPD2    H2 8482   0.559   3.429  16.269  2.2134  2.1255  2.2562
  568MPD2    H3 8483   0.448   3.547  16.098 -0.4536 -0.3037  0.8989
  568MPD2     N 8484   0.137   3.713  16.397  0.1488 -0.6075  0.4961
  568MPD2    H5 8485   0.108   3.714  16.494  0.8464  1.0219  0.6853
  568MPD2    N1 8486   0.502   3.427  16.531 -0.5242 -0.1836  0.1425
  568MPD2    H7 8487   0.586   3.377  16.503 -1.0264 -1.8790  1.7092
  569TMC3    C1 8488   4.662   3.793  16.357 -0.6836  0.4747  0.1342
  569TMC3    C2 8489   4.646   3.881  16.461 -0.5367  0.5336  0.7281
  569TMC3    C3 8490   4.523   3.910  16.508  0.2354  0.0812  0.7317
  569TMC3    C4 8491   4.554   3.737  16.294  0.8141  0.7540  0.1334
  569TMC3    C5 8492   4.433   3.768  16.343  1.3646 -0.4030 -0.0821
  569TMC3    C6 8493   4.414   3.850  16.449  0.3634  0.3400 -0.4515
  569TMC3     C 8494   0.046   3.753  16.304 -0.2037  0.0985  0.7263
  569TMC3     O 8495   0.025   3.711  16.188 -0.3296 -0.0433 -0.0423
  569TMC3     H 8496   4.733   3.941  16.482 -0.0447 -0.5857  1.8884
  569TMC3    H1 8497   4.558   3.659  16.219  1.2840 -1.4735  2.4620
  569TMC3    H2 8498   4.314   3.870  16.488  0.1548 -0.1417 -0.7356
  569TMC3    C7 8499   4.336   3.811  16.247 -0.6100 -0.9792  0.8290
  569TMC3    C8 8500   4.494   4.046  16.537  0.0173 -0.3147 -0.4812
  569TMC3    O1 8501   4.275   3.739  16.172 -0.1250 -0.1788  0.2844
  569TMC3    O2 8502   4.396   4.099  16.485 -0.1357 -0.8039  0.3230
  570TMC3    C1 8503   3.625   1.876  16.267 -0.5149 -0.4156  0.1082
  570TMC3    C2 8504   3.742   1.868  16.189 -0.1281  0.2294 -0.4174
  570TMC3    C3 8505   3.792   1.986  16.132  0.3967 -0.5484  0.1922
  570TMC3    C4 8506   3.566   1.999  16.293 -0.1281 -0.3236  0.5627
  570TMC3    C5 8507   3.611   2.110  16.233 -0.2098 -0.5546  0.3231
  570TMC3    C6 8508   3.726   2.109  16.152 -0.1811 -0.7544 -0.0233
  570TMC3     C 8509   3.594   1.757  16.341  0.7679  0.1302  0.0258
  570TMC3     O 8510   3.615   1.653  16.278  0.8222 -0.3359 -0.0192
  570TMC3     H 8511   3.797   1.775  16.189  1.0753  0.9359  0.7627
  570TMC3    H1 8512   3.474   2.010  16.349 -0.1114 -0.4379  0.6138
  570TMC3    H2 8513   3.780   2.198  16.119 -1.7042  0.2095  0.0830
  570TMC3    C7 8514   3.537   2.234  16.240 -0.1550  0.3193 -0.3403
  570TMC3    C8 8515   3.917   1.985  16.059 -0.6248  0.7315 -0.3300
  570TMC3    O1 8516   3.450   2.241  16.325 -0.4048  0.1369 -0.0999
  570TMC3    O2 8517   3.954   2.089  16.010  0.4078  0.3091 -0.6683
  571MPD2     C 8518   1.424   3.444   0.055  0.4792 -0.1213 -0.3268
  571MPD2    C1 8519   1.431   3.565  17.733  0.4458 -0.0844 -0.5485
  571MPD2    C2 8520   1.406   3.684   0.044  0.0350 -0.2786  0.2029
  571MPD2    C3 8521   1.381   3.687   0.186  0.1991  0.7153 -0.0976
  571MPD2    C4 8522   1.379   3.573   0.258 -0.0715 -0.1176  0.2855
  571MPD2    C5 8523   1.403   3.452   0.187  0.0319  0.0251  0.3549
  571MPD2     H 8524   1.409   3.777  17.743  1.9797  0.2977  1.2745
  571MPD2    H1 8525   1.373   3.561   0.366  1.1938  0.5105  0.4276
  571MPD2    H2 8526   1.442   3.352   0.002  0.1917  0.4335 -1.3920
  571MPD2    H3 8527   1.388   3.360   0.241  0.0779 -0.6834 -0.8530
  571MPD2     N 8528   1.360   3.805   0.264  0.2958 -0.3584 -0.3931
  571MPD2    H5 8529   1.358   3.789   0.365 -1.1580  3.1371  0.1065
  571MPD2    N1 8530   1.472   3.557  17.596 -0.6679 -0.7857 -0.1540
  571MPD2    H7 8531   1.509   3.467  17.566  0.1826 -0.8982  1.2440
  572TMC3    C1 8532   1.366   4.036   0.321  0.0948 -0.0391  0.0143
  572TMC3    C2 8533   1.423   3.999   0.435  0.9865  0.4676 -0.5977
  572TMC3    C3 8534   1.479   4.098   0.514 -0.3562 -0.3999 -0.5655
  572TMC3    C4 8535   1.377   4.163   0.266  0.0747 -0.6097  0.4816
  572TMC3    C5 8536   1.451   4.251   0.333  0.3646 -0.1366  0.0688
  572TMC3    C6 8537   1.501   4.228   0.464 -0.2877  0.4997  0.4494
  572TMC3     C 8538   1.344   3.935   0.225 -0.3446  0.1534  0.5148
  572TMC3     O 8539   1.327   3.974   0.110 -0.2351 -0.3244  0.2398
  572TMC3     H 8540   1.389   3.913   0.493  1.2439  1.0209  0.3680
  572TMC3    H1 8541   1.337   4.190   0.169 -0.0966  0.4679  0.8490
  572TMC3    H2 8542   1.552   4.307   0.518  1.3350 -0.2631  0.0350
  572TMC3    C7 8543   1.539   4.326   0.242  0.2304  0.7110 -0.2636
  572TMC3    C8 8544   1.518   4.072   0.651 -0.8494  0.7865 -0.9056
  572TMC3    O1 8545   1.490   4.350   0.131  0.1948 -0.2437  0.2220
  572TMC3    O2 8546   1.524   3.953   0.680  0.2531 -0.0428  0.0310
  573MPD2     C 8547   3.227   3.844  17.535 -0.2310 -0.4421 -0.2426
  573MPD2    C1 8548   3.134   3.900  17.610 -0.4882  1.2443  0.5719
  573MPD2    C2 8549   3.010   3.918  17.550 -0.0888 -0.0196  0.3732
  573MPD2    C3 8550   2.976   3.867  17.432  0.1889  0.0005 -0.6613
  573MPD2    C4 8551   3.079   3.818  17.352  0.0627 -0.0316  0.1299
  573MPD2    C5 8552   3.199   3.807  17.406 -0.1034  0.7587 -0.1614
  573MPD2     H 8553   2.933   3.961  17.614  2.2391  1.6001  2.0689
  573MPD2    H1 8554   3.071   3.801  17.246 -1.4766 -2.2082  0.6097
  573MPD2    H2 8555   3.330   3.838  17.569  0.0229 -2.2323 -1.3146
  573MPD2    H3 8556   3.280   3.762  17.348  0.9738  2.1013  0.3119
  573MPD2     N 8557   2.855   3.893  17.362  0.6202 -0.3454  0.3511
  573MPD2    H5 8558   2.850   3.869  17.263 -0.1916  1.0962  0.0429
  573MPD2    N1 8559   3.158   3.950  17.743  0.1608 -0.3949  0.5510
  573MPD2    H7 8560   3.081   3.990   0.042 -0.9371 -1.7583  0.0224
  574TMC3    C1 8561   2.656   4.013  17.324  0.6581 -0.2803 -0.1396
  574TMC3    C2 8562   2.541   4.057  17.389  0.1064  0.0794 -0.2267
  574TMC3    C3 8563   2.469   4.155  17.321 -0.3937 -0.7826  0.1351
  574TMC3    C4 8564   2.698   4.058  17.201 -0.4465  0.4758 -0.0424
  574TMC3    C5 8565   2.628   4.159  17.138  0.0702  0.0866 -0.1600
  574TMC3    C6 8566   2.507   4.198  17.197  0.4536 -0.7862  0.1185
  574TMC3     C 8567   2.754   3.958  17.421 -0.4518  0.0409  0.3391
  574TMC3     O 8568   2.733   3.974  17.543 -0.8045 -0.2245  0.1164
  574TMC3     H 8569   2.508   4.030  17.489  1.0056  1.0135  0.3212
  574TMC3    H1 8570   2.795   4.026  17.164 -0.7030  1.1192 -1.2793
  574TMC3    H2 8571   2.439   4.258  17.137 -0.4625 -0.7986  1.1442
  574TMC3    C7 8572   2.665   4.208  17.009 -0.4874  0.7264  0.4238
  574TMC3    C8 8573   2.413   4.259  17.413 -0.3723  0.1244  0.3146
  574TMC3    O1 8574   2.580   4.262  16.945  0.0414 -0.0673 -0.3046
  574TMC3    O2 8575   2.384   4.215  17.522 -0.6070  0.8325 -0.4443
  575TMC3    C1 8576   0.566   0.234  10.377  0.7624  0.2925  0.0790
  575TMC3    C2 8577   0.528   0.121  10.307 -0.2680  0.7327 -0.5918
  575TMC3    C3 8578   0.522   0.142  10.174  0.2324 -0.3692 -0.0188
  575TMC3    C4 8579   0.600   0.352  10.308 -0.0478 -0.4438  0.4814
  575TMC3    C5 8580   0.581   0.359  10.175  0.3230 -0.3917 -0.6619
  575TMC3    C6 8581   0.552   0.250  10.100  0.3854 -0.3186 -0.2624
  575TMC3     C 8582   0.595   0.228  10.520 -0.4040  0.3695 -0.4555
  575TMC3     O 8583   0.583   0.340  10.558 -0.2390  0.1099 -0.0439
  575TMC3     H 8584   0.536   0.020  10.347  2.3995  0.7681 -1.0754
  575TMC3    H1 8585   0.628   0.442  10.363 -0.4197 -0.5284  0.8176
  575TMC3    H2 8586   0.544   0.260   9.993 -0.9860  0.6051 -0.0760
  575TMC3    C7 8587   0.583   0.487  10.112  0.4998 -0.4685 -0.0235
  575TMC3    C8 8588   0.484   0.019  10.102  0.0256 -0.3710  0.4990
  575TMC3    O1 8589   0.660   0.573  10.148 -0.4892  0.1274 -0.1309
  575TMC3    O2 8590   0.491   4.654  10.168  0.2955  0.1312 -0.1832
  576MPD2     C 8591   0.147   2.178  12.518 -0.3476  0.3070 -0.4311
  576MPD2    C1 8592   0.260   2.261  12.516  0.1146 -0.2592 -0.2589
  576MPD2    C2 8593   0.280   2.350  12.618  0.7074 -0.2694 -0.4115
  576MPD2    C3 8594   0.200   2.354  12.732 -0.1723 -0.1832 -0.3518
  576MPD2    C4 8595   0.082   2.280  12.729 -0.5893 -0.3430  0.0380
  576MPD2    C5 8596   0.061   2.193  12.626 -0.2583  0.2537  0.2853
  576MPD2     H 8597   0.359   2.424  12.611  0.6855 -0.3588 -1.5751
  576MPD2    H1 8598   0.021   2.278  12.818 -1.7785 -1.7853 -0.8214
  576MPD2    H2 8599   0.127   2.099  12.447 -0.2241 -1.4172  1.4436
  576MPD2    H3 8600   4.709   2.135  12.616 -0.9178  1.2580  0.4659
  576MPD2     N 8601   0.226   2.444  12.835  0.3950 -0.1676  0.1486
  576MPD2    H5 8602   0.281   2.527  12.817 -1.5324  1.3418  1.2441
  576MPD2    N1 8603   0.356   2.251  12.415 -0.4340  0.0803 -0.4636
  576MPD2    H7 8604   0.440   2.305  12.433  0.2795 -1.0477 -0.3941
  577TMC3    C1 8605   0.476   2.176  12.224 -0.1486 -0.0245  0.1284
  577TMC3    C2 8606   0.509   2.062  12.156  0.3844 -0.1736 -0.0632
  577TMC3    C3 8607   0.601   2.077  12.054  1.3881 -0.3387  0.0872
  577TMC3    C4 8608   0.518   2.301  12.182 -0.5284 -0.3450  0.5987
  577TMC3    C5 8609   0.617   2.303  12.091 -0.1637  0.9958  0.6089
  577TMC3    C6 8610   0.669   2.195  12.028  0.1180  0.0218 -0.2288
  577TMC3     C 8611   0.360   2.165  12.304  0.2044  0.2467  0.7750
  577TMC3     O 8612   0.274   2.092  12.264  0.5033  0.2225  0.1472
  577TMC3     H 8613   0.468   1.970  12.194  0.5628 -0.6388 -0.9965
  577TMC3    H1 8614   0.481   2.389  12.232 -0.7372  0.2008 -0.5169
  577TMC3    H2 8615   0.755   2.188  11.962 -0.6367 -1.6262 -1.0596
  577TMC3    C7 8616   0.689   2.432  12.075  0.5061  0.4231  0.4088
  577TMC3    C8 8617   0.628   1.962  11.976 -0.0984  0.5210 -0.5904
  577TMC3    O1 8618   0.697   2.505  12.173  0.0081 -0.3733  0.7167
  577TMC3    O2 8619   0.602   1.856  12.031  0.0434 -0.5980  0.1019
  578MPD2     C 8620   3.580   1.128   1.442  0.0363 -0.4909 -0.3887
  578MPD2    C1 8621   3.628   1.144   1.311 -0.0806  0.2987  0.5927
  578MPD2    C2 8622   3.753   1.088   1.277  0.2842 -0.0203  0.0774
  578MPD2    C3 8623   3.822   1.010   1.370  0.5336  0.0105 -0.4004
  578MPD2    C4 8624   3.771   0.997   1.501  0.1036  0.1673 -0.4288
  578MPD2    C5 8625   3.653   1.056   1.530 -0.1903 -0.3246  0.2146
  578MPD2     H 8626   3.795   1.119   1.181  0.4224  1.5945  0.6559
  578MPD2    H1 8627   3.822   0.929   1.569 -0.9027  0.5842  0.7363
  578MPD2    H2 8628   3.488   1.176   1.474  0.5885 -0.4829  1.1365
  578MPD2    H3 8629   3.614   1.036   1.629 -0.5855 -0.6535 -0.0082
  578MPD2     N 8630   3.949   0.964   1.331  0.4195 -0.0117 -0.2380
  578MPD2    H5 8631   3.970   0.980   1.233 -1.6405 -0.8170 -0.8043
  578MPD2    N1 8632   3.564   1.240   1.231 -0.9160 -0.1630 -0.2751
  578MPD2    H7 8633   3.486   1.297   1.262 -0.3137  1.4377 -1.7265
  579TMC3    C1 8634   4.172   0.886   1.340  0.2518 -0.7962 -0.3430
  579TMC3    C2 8635   4.291   0.909   1.409  0.7230 -0.1354 -0.4165
  579TMC3    C3 8636   4.406   0.917   1.335  0.6066 -1.1659 -0.9398
  579TMC3    C4 8637   4.172   0.867   1.202 -0.9489 -0.2595  0.1892
  579TMC3    C5 8638   4.290   0.875   1.134 -0.0456 -0.4268  0.4326
  579TMC3    C6 8639   4.407   0.903   1.201  0.1135 -0.3280 -0.4604
  579TMC3     C 8640   4.047   0.911   1.407  0.9767  0.0609 -0.6596
  579TMC3     O 8641   4.045   0.915   1.529 -0.0157 -0.3185 -0.0145
  579TMC3     H 8642   4.294   0.926   1.516  0.6226  0.3302 -0.4878
  579TMC3    H1 8643   4.075   0.845   1.158 -0.9674 -0.6306  0.4156
  579TMC3    H2 8644   4.499   0.908   1.143  0.2249 -2.7447 -0.5310
  579TMC3    C7 8645   4.292   0.800   1.008  0.1703 -0.1606  0.4884
  579TMC3    C8 8646   4.518   0.986   1.400  0.5558  0.4107 -0.1990
  579TMC3    O1 8647   4.396   0.745   0.976  0.2361  0.3846  0.3076
  579TMC3    O2 8648   4.517   0.977   1.526 -0.3161  0.4023  0.0423
  580TMC3    C1 8649   3.265   1.710  12.409  0.0610 -0.3260  0.7989
  580TMC3    C2 8650   3.338   1.811  12.344  0.0932  0.2039 -0.3854
  580TMC3    C3 8651   3.459   1.783  12.281  0.3473 -0.0841  0.5755
  580TMC3    C4 8652   3.335   1.594  12.447 -0.0990  0.1528  0.0144
  580TMC3    C5 8653   3.452   1.571  12.376  0.2593 -0.0495  0.3995
  580TMC3    C6 8654   3.510   1.662  12.292  0.9261 -0.2580  0.3549
  580TMC3     C 8655   3.123   1.693  12.375  0.1476 -0.9892  0.1317
  580TMC3     O 8656   3.069   1.592  12.414  0.4690  0.8321 -0.3091
  580TMC3     H 8657   3.307   1.914  12.327  0.1978  0.2204 -0.4812
  580TMC3    H1 8658   3.284   1.508  12.489 -0.7561  0.5409  0.0087
  580TMC3    H2 8659   3.603   1.629  12.246 -0.1257  2.0497 -3.3580
  580TMC3    C7 8660   3.527   1.452  12.410 -0.4041 -0.3423  0.5265
  580TMC3    C8 8661   3.532   1.891  12.214  0.5549  0.1911  0.5742
  580TMC3    O1 8662   3.502   1.404  12.519 -0.7359  0.2443 -0.2616
  580TMC3    O2 8663   3.484   2.002  12.224 -0.0076  0.3391  0.7090
  581MPD2     C 8664   1.199   1.141  14.949 -0.9188  0.2060 -0.5977
  581MPD2    C1 8665   1.127   1.038  14.898 -0.5847 -0.0190  0.0052
  581MPD2    C2 8666   1.025   1.054  14.808  0.1798  0.0917  0.0565
  581MPD2    C3 8667   0.982   1.183  14.781  0.4495 -0.3872 -0.2994
  581MPD2    C4 8668   1.052   1.286  14.836  0.7058  0.3837 -0.4565
  581MPD2    C5 8669   1.157   1.271  14.919 -0.5368  0.3685  0.0814
  581MPD2     H 8670   0.968   0.970  14.772 -1.4259  1.1342  0.1704
  581MPD2    H1 8671   1.029   1.387  14.802 -0.7841  0.3865  0.5391
  581MPD2    H2 8672   1.276   1.120  15.022 -0.8100 -0.4285 -0.8872
  581MPD2    H3 8673   1.198   1.362  14.960  0.0286 -0.5364  1.5295
  581MPD2     N 8674   0.867   1.190  14.704  0.4333  0.2039  0.6824
  581MPD2    H5 8675   0.823   1.106  14.669  0.2992  0.6838 -0.3267
  581MPD2    N1 8676   1.149   0.901  14.944  0.4711 -0.1736 -0.9905
  581MPD2    H7 8677   1.106   0.832  14.883  0.0920  0.2423 -1.1961
  582TMC3    C1 8678   1.181   0.710  15.084  0.4377  0.1537 -0.1877
  582TMC3    C2 8679   1.227   0.667  15.208 -0.2927 -0.0574  0.2225
  582TMC3    C3 8680   1.168   0.558  15.251 -0.0390 -0.3294 -0.2444
  582TMC3    C4 8681   1.073   0.654  15.024  0.1617  0.5709 -0.4410
  582TMC3    C5 8682   1.020   0.539  15.071  0.0572 -0.6828 -0.3937
  582TMC3    C6 8683   1.075   0.484  15.182  0.0871 -0.3638 -0.5709
  582TMC3     C 8684   1.217   0.852  15.055  0.0967 -0.2680  0.0187
  582TMC3     O 8685   1.301   0.901  15.131 -0.2020 -0.1257 -0.7673
  582TMC3     H 8686   1.305   0.722  15.260  0.2767  1.2545 -2.0075
  582TMC3    H1 8687   1.023   0.695  14.937 -0.4699 -1.0257 -0.8197
  582TMC3    H2 8688   1.025   0.410  15.243 -1.1985  1.9438  1.1740
  582TMC3    C7 8689   0.871   0.530  15.080 -0.3452  0.5589  1.3112
  582TMC3    C8 8690   1.185   0.544  15.392  0.8872  0.1497  0.0580
  582TMC3    O1 8691   0.826   0.419  15.109  0.4030 -0.3595  0.0075
  582TMC3    O2 8692   1.104   0.477  15.452  0.0501 -0.3179 -0.2775
  583MPD2     C 8693   1.254   2.347  17.143  0.7588 -0.1281  0.6694
  583MPD2    C1 8694   1.211   2.459  17.068 -0.3282  0.0840  0.5400
  583MPD2    C2 8695   1.172   2.568  17.142  0.2599  0.1376  0.4538
  583MPD2    C3 8696   1.178   2.578  17.277 -0.2714 -0.0245 -0.0578
  583MPD2    C4 8697   1.219   2.460  17.347 -0.0474 -0.4751 -0.5102
  583MPD2    C5 8698   1.252   2.346  17.278 -1.1020  0.2569  0.1053
  583MPD2     H 8699   1.138   2.654  17.085 -0.7442 -1.0489 -0.7317
  583MPD2    H1 8700   1.254   2.456  17.450  0.1216  1.1374 -0.5043
  583MPD2    H2 8701   1.289   2.254  17.099 -1.1099  0.4298 -1.9759
  583MPD2    H3 8702   1.289   2.255  17.323  1.7706  2.0084  1.3225
  583MPD2     N 8703   1.140   2.702  17.336 -0.2336 -0.4764  0.0919
  583MPD2    H5 8704   1.096   2.771  17.276  0.4017 -0.3531 -0.2332
  583MPD2    N1 8705   1.207   2.462  16.926 -0.3920 -0.4784  0.4050
  583MPD2    H7 8706   1.193   2.556  16.889  1.7344 -0.5500 -0.6243
  584TMC3    C1 8707   1.067   2.849  17.503  0.9600 -0.0395 -0.4196
  584TMC3    C2 8708   1.077   2.958  17.429  0.4238  0.3859 -0.2612
  584TMC3    C3 8709   1.009   3.072  17.463  0.5709  0.0599  0.1241
  584TMC3    C4 8710   1.011   2.851  17.628  0.6439 -0.6789  0.5033
  584TMC3    C5 8711   0.936   2.962  17.653 -0.3652 -0.5616 -0.1270
  584TMC3    C6 8712   0.936   3.078  17.577 -0.4708  1.1847 -0.5594
  584TMC3     C 8713   1.131   2.727  17.470 -0.5128 -0.1820 -0.0688
  584TMC3     O 8714   1.177   2.662  17.565 -0.3275 -0.1652  0.1875
  584TMC3     H 8715   1.129   2.956  17.334  1.5598  1.0705  0.3568
  584TMC3    H1 8716   0.999   2.752  17.672 -0.5070 -1.3891 -1.4051
  584TMC3    H2 8717   0.868   3.162  17.588 -0.7826  0.8669 -0.0520
  584TMC3    C7 8718   0.830   2.961  17.752  0.6155 -0.0459  0.3551
  584TMC3    C8 8719   1.001   3.176  17.361 -0.0302  0.2150  0.0898
  584TMC3    O1 8720   0.851   2.889   0.096 -0.3562  0.6343 -1.2285
  584TMC3    O2 8721   1.009   3.139  17.247  0.1472  0.1190 -0.2664
  585MPD2     C 8722   4.413   1.761   0.285  1.0019 -0.0434  0.3528
  585MPD2    C1 8723   4.549   1.772   0.278  0.3087  0.2985  0.0761
  585MPD2    C2 8724   4.627   1.662   0.291  0.3101  0.5859 -0.0266
  585MPD2    C3 8725   4.575   1.541   0.328 -0.3070  0.4813  0.0464
  585MPD2    C4 8726   4.436   1.528   0.314 -0.7083 -0.4964 -0.6311
  585MPD2    C5 8727   4.356   1.635   0.299  0.0314 -0.0520 -0.2982
  585MPD2     H 8728   4.735   1.670   0.279  0.4030 -0.4825  0.1210
  585MPD2    H1 8729   4.381   1.436   0.329  1.5431 -1.4868  1.5133
  585MPD2    H2 8730   4.354   1.852   0.278 -0.1072 -0.8289 -0.5632
  585MPD2    H3 8731   4.249   1.619   0.286 -0.0122  0.4699 -0.5632
  585MPD2     N 8732   4.649   1.430   0.344 -0.3654  0.3610 -0.6622
  585MPD2    H5 8733   4.598   1.344   0.331  0.3689 -0.4139  1.6167
  585MPD2    N1 8734   4.607   1.899   0.255 -0.3212  0.2568 -0.6367
  585MPD2    H7 8735   4.541   1.976   0.252  0.4748  1.0105  1.0173
  586TMC3    C1 8736   0.092   1.290   0.316 -0.3028  0.2363 -0.2052
  586TMC3    C2 8737   0.198   1.234   0.384  0.0252 -0.0400 -0.2362
  586TMC3    C3 8738   0.244   1.113   0.342  0.4619  0.4595  0.1914
  586TMC3    C4 8739   0.032   1.224   0.218  0.0681  1.0727  0.5497
  586TMC3    C5 8740   0.073   1.099   0.185 -0.0319  0.0804  0.2842
  586TMC3    C6 8741   0.190   1.052   0.235  0.6563  0.0627 -0.3447
  586TMC3     C 8742   0.049   1.420   0.360  0.2526 -0.2733 -0.5516
  586TMC3     O 8743   0.126   1.496   0.411 -0.8988 -0.1501 -0.3841
  586TMC3     H 8744   0.232   1.293   0.469  0.8204 -0.9749  0.1003
  586TMC3    H1 8745   4.672   1.259   0.190  0.2993  1.0559 -0.2738
  586TMC3    H2 8746   0.221   0.951   0.210 -0.0743 -0.2738  0.0881
  586TMC3    C7 8747   0.022   1.044   0.063  1.2629  0.3575 -0.5181
  586TMC3    C8 8748   0.347   1.031   0.409 -0.4909  0.7732 -0.5041
  586TMC3    O1 8749   4.735   0.925   0.044 -0.4928  0.3267  0.4575
  586TMC3    O2 8750   0.359   0.913   0.379  0.1546  0.4749  0.0874
  587TMC3    C1 8751   2.333   4.739  15.792 -0.3661  0.9507  0.3813
  587TMC3    C2 8752   2.313   0.061  15.918  0.1476 -0.3928  1.1816
  587TMC3    C3 8753   2.422   0.125  15.969 -0.1804 -0.4675 -0.1257
  587TMC3    C4 8754   2.452   4.724  15.730  0.2600  0.2604 -0.2793
  587TMC3    C5 8755   2.560   0.054  15.787 -0.2035  0.5865 -0.0664
  587TMC3    C6 8756   2.547   0.119  15.908  0.2267 -0.0411 -0.5571
  587TMC3     C 8757   2.221   4.685  15.715 -0.0887  0.1068  0.3009
  587TMC3     O 8758   2.237   4.667  15.595 -0.3587  0.2649 -0.0603
  587TMC3     H 8759   2.218   0.068  15.970  0.8114  1.6329  2.1660
  587TMC3    H1 8760   2.462   4.673  15.635 -3.6083 -0.5739 -0.2308
  587TMC3    H2 8761   2.626   0.178  15.953 -1.3680  0.7610  1.2439
  587TMC3    C7 8762   2.694   0.012  15.771  0.4947 -0.8967  0.2267
  587TMC3    C8 8763   2.419   0.164  16.111  0.3571 -0.4203  0.8591
  587TMC3    O1 8764   2.777   0.096  15.808  0.3381  0.6620  0.6371
  587TMC3    O2 8765   2.525   0.171  16.166 -0.7147  0.3154 -0.7003
  588TMC3    C1 8766   0.723   2.159   9.663 -0.2949  0.4552  0.1264
  588TMC3    C2 8767   0.654   2.042   9.684  0.1786  0.2858 -0.4966
  588TMC3    C3 8768   0.691   1.958   9.786 -0.0355  0.1647  0.4361
  588TMC3    C4 8769   0.829   2.196   9.742 -0.0140  0.9256  0.3356
  588TMC3    C5 8770   0.866   2.112   9.843 -0.5566  0.0193 -0.4903
  588TMC3    C6 8771   0.793   1.993   9.869 -0.2337  0.1746 -0.1343
  588TMC3     C 8772   0.674   2.260   9.576 -0.3262 -0.4897 -0.4781
  588TMC3     O 8773   0.602   2.216   9.487 -0.0568 -0.2161 -0.2762
  588TMC3     H 8774   0.571   2.013   9.619 -0.8893  0.0019  0.9918
  588TMC3    H1 8775   0.894   2.274   9.705  0.8600 -0.0608 -0.2274
  588TMC3    H2 8776   0.843   1.921   9.933  0.1504 -0.2175 -0.8773
  588TMC3    C7 8777   0.919   2.170   9.968  0.4880 -0.0243 -0.0483
  588TMC3    C8 8778   0.601   1.851   9.824 -0.1053  0.4485  0.6458
  588TMC3    O1 8779   0.910   2.096  10.065 -0.4153 -0.7786 -0.0396
  588TMC3    O2 8780   0.508   1.830   9.745  0.4446  0.2910 -0.1531
  589TMC3    C1 8781   4.111   4.506   0.766 -0.5817  0.3656  0.6159
  589TMC3    C2 8782   4.205   4.555   0.857  0.1421  0.2009 -0.3620
  589TMC3    C3 8783   4.324   4.497   0.861  0.3187 -0.3136 -0.1507
  589TMC3    C4 8784   4.139   4.415   0.672 -0.6130 -0.3529  0.3903
  589TMC3    C5 8785   4.269   4.374   0.667  0.3782 -0.1997 -0.5145
  589TMC3    C6 8786   4.366   4.408   0.766  0.1847  0.4548 -0.3850
  589TMC3     C 8787   3.995   4.588   0.742  0.7712 -0.0324 -0.2176
  589TMC3     O 8788   3.941   4.578   0.633 -0.7411  0.2963  0.1240
  589TMC3     H 8789   4.176   4.627   0.932 -1.1696  1.2260 -1.8489
  589TMC3    H1 8790   4.073   4.410   0.586  0.1524 -0.4600 -0.1943
  589TMC3    H2 8791   4.464   4.362   0.765 -0.4857 -0.9885 -0.1003
  589TMC3    C7 8792   4.292   4.254   0.586 -0.4514 -0.0963 -0.1654
  589TMC3    C8 8793   4.419   4.542   0.962  0.0360 -0.0724 -0.3505
  589TMC3    O1 8794   4.191   4.210   0.535 -0.3449  0.3147  0.1801
  589TMC3    O2 8795   4.398   4.657   1.003 -0.8802 -0.0619  0.1810
  590MPD2     C 8796   3.257   3.104  16.683  0.7765  0.0757  0.2754
  590MPD2    C1 8797   3.192   3.197  16.609 -0.1808  0.2568  0.2872
  590MPD2    C2 8798   3.268   3.301  16.560 -0.2363  0.1111  0.5627
  590MPD2    C3 8799   3.407   3.306  16.562 -0.2809 -0.6355  0.3314
  590MPD2    C4 8800   3.468   3.202  16.626  0.2673 -0.2774 -0.2621
  590MPD2    C5 8801   3.395   3.112  16.693 -0.0631 -0.3745  0.1835
  590MPD2     H 8802   3.220   3.384  16.509 -1.0192 -0.2050  0.7884
  590MPD2    H1 8803   3.576   3.192  16.627  0.4981  2.2349 -1.5751
  590MPD2    H2 8804   3.216   3.020  16.738  2.8072 -1.9413 -1.2777
  590MPD2    H3 8805   3.446   3.039  16.755 -0.6308 -2.9670 -2.3613
  590MPD2     N 8806   3.481   3.413  16.500  0.0491 -0.0760  0.4324
  590MPD2    H5 8807   3.430   3.498  16.479 -2.6699 -1.8369  0.0175
  590MPD2    N1 8808   3.049   3.185  16.599 -0.0625  1.0683 -0.1800
  590MPD2    H7 8809   3.009   3.112  16.657 -0.0874  2.3339  1.3752
  591TMC3    C1 8810   3.663   3.518  16.379 -0.2536  0.1461  0.3507
  591TMC3    C2 8811   3.764   3.489  16.293  0.1470  0.0815  0.2429
  591TMC3    C3 8812   3.785   3.564  16.185  0.4933 -0.0071 -0.4916
  591TMC3    C4 8813   3.582   3.625  16.354  0.1581  0.2306 -0.6163
  591TMC3    C5 8814   3.612   3.708  16.255  0.3382 -0.1440  0.1629
  591TMC3    C6 8815   3.708   3.678  16.159  0.6432  0.1184  0.2201
  591TMC3     C 8816   3.616   3.405  16.463 -1.0885  0.4490 -0.2110
  591TMC3     O 8817   3.693   3.314  16.480 -0.3670 -0.3611  0.8861
  591TMC3     H 8818   3.825   3.400  16.303 -1.0416 -0.7778 -0.0753
  591TMC3    H1 8819   3.514   3.657  16.433  0.1538  0.9539 -0.9149
  591TMC3    H2 8820   3.723   3.741  16.073  1.1970 -0.7112 -0.2891
  591TMC3    C7 8821   3.516   3.825  16.234  0.9774 -0.0802  0.1199
  591TMC3    C8 8822   3.889   3.532  16.085 -0.9573  0.5225  0.3809
  591TMC3    O1 8823   3.404   3.811  16.281  0.3156  0.0674 -0.0958
  591TMC3    O2 8824   3.946   3.428  16.100  0.0816  0.1411 -0.2044
  592MPD2     C 8825   4.095   0.956  11.354 -1.2300  0.0791  0.6141
  592MPD2    C1 8826   4.122   0.987  11.490  0.2207  0.4982  0.1813
  592MPD2    C2 8827   4.102   0.892  11.592 -0.2041 -0.5504 -0.2862
  592MPD2    C3 8828   4.043   0.767  11.555 -0.7238  0.6805 -0.3830
  592MPD2    C4 8829   4.021   0.730  11.420  0.1554 -0.5351 -0.4509
  592MPD2    C5 8830   4.049   0.828  11.326 -0.4293 -0.2308  0.1363
  592MPD2     H 8831   4.113   0.919  11.697  0.5932 -2.5116  0.1360
  592MPD2    H1 8832   3.982   0.637  11.378  0.4323  0.4097 -2.7584
  592MPD2    H2 8833   4.128   1.016  11.270 -3.4582  1.8448  0.9936
  592MPD2    H3 8834   4.045   0.802  11.221  0.5266 -0.7113  0.2266
  592MPD2     N 8835   4.014   0.683  11.662 -0.1633 -0.0253  0.3727
  592MPD2    H5 8836   4.053   0.710  11.752  1.9773  1.7970 -1.0992
  592MPD2    N1 8837   4.175   1.114  11.511 -0.3102 -0.4992  0.3686
  592MPD2    H7 8838   4.199   1.163  11.425 -1.5951 -0.3166  0.1125
  593TMC3    C1 8839   4.276   1.300  11.626 -0.6098  0.3177  0.2354
  593TMC3    C2 8840   4.244   1.382  11.732  0.2566 -0.5846  0.6883
  593TMC3    C3 8841   4.259   1.515  11.703 -0.1754  0.5802 -0.9069
  593TMC3    C4 8842   4.306   1.350  11.499  0.2682 -0.3032  0.1993
  593TMC3    C5 8843   4.303   1.488  11.480  0.2864  0.0694  0.3773
  593TMC3    C6 8844   4.274   1.576  11.583  0.0531  0.1938 -0.3085
  593TMC3     C 8845   4.221   1.165  11.630  0.4440 -0.8139 -0.1529
  593TMC3     O 8846   4.195   1.127  11.744 -0.2892  0.4997  0.8218
  593TMC3     H 8847   4.224   1.336  11.828 -2.1212  0.5840  0.7422
  593TMC3    H1 8848   4.348   1.288  11.421 -0.4680 -2.0067  1.1491
  593TMC3    H2 8849   4.313   1.677  11.571 -0.7834  0.6869  1.2252
  593TMC3    C7 8850   4.379   1.533  11.368  0.1151  0.3566 -0.4533
  593TMC3    C8 8851   4.305   1.612  11.801 -0.1255 -0.2944  0.3329
  593TMC3    O1 8852   4.431   1.643  11.373  0.5620 -0.2478 -0.9074
  593TMC3    O2 8853   4.259   1.725  11.793 -0.0639  0.5571 -0.6485
  594MPD2     C 8854   3.275   4.045  14.869 -0.1044 -0.5327  0.7048
  594MPD2    C1 8855   3.183   4.134  14.835 -0.0313 -0.1148 -0.4488
  594MPD2    C2 8856   3.230   4.257  14.771 -0.2708 -0.1399  0.6412
  594MPD2    C3 8857   3.366   4.267  14.743 -0.9628  0.4039  0.7072
  594MPD2    C4 8858   3.460   4.175  14.789  0.7321 -0.6176 -0.2848
  594MPD2    C5 8859   3.407   4.058  14.841 -0.1435 -0.5095  0.0851
  594MPD2     H 8860   3.167   4.335  14.731  1.4841  0.5248 -0.8594
  594MPD2    H1 8861   3.568   4.177  14.773  0.8362  0.6962  0.6189
  594MPD2    H2 8862   3.244   3.947  14.902 -0.6780 -0.9616 -1.0837
  594MPD2    H3 8863   3.466   3.969  14.859 -1.7133 -1.6810 -0.5182
  594MPD2     N 8864   3.405   4.378  14.665 -0.6871  0.1132  0.4570
  594MPD2    H5 8865   3.334   4.447  14.641 -0.4146  0.6723  1.2555
  594MPD2    N1 8866   3.043   4.106  14.851  0.4033  0.1730  0.1938
  594MPD2    H7 8867   3.021   4.017  14.895 -1.6508  0.7331  0.2940
  595TMC3    C1 8868   3.671   4.684  14.436 -0.3923 -0.3524  0.2213
  595TMC3    C2 8869   3.663   4.583  14.527 -0.4737 -0.2886 -0.5961
  595TMC3    C3 8870   3.537   4.526  14.540 -0.6759  0.3066  0.4212
  595TMC3    C4 8871   3.558   0.004  14.375 -0.2157  0.0531 -0.2501
  595TMC3    C5 8872   3.439   4.688  14.400 -0.0270  0.1447  0.8923
  595TMC3    C6 8873   3.430   4.568  14.476  0.2553  0.1899 -0.1073
  595TMC3     C 8874   3.757   0.049  14.476  0.2521  0.0500  1.2506
  595TMC3     O 8875   3.735   0.108  14.581 -0.0889 -0.7151 -0.0988
  595TMC3     H 8876   3.747   4.563  14.594  0.7690  0.6740 -1.8578
  595TMC3    H1 8877   3.568   0.086  14.305 -1.9282  0.4297 -0.0508
  595TMC3    H2 8878   3.334   4.530  14.511  0.3404 -1.3947 -1.6004
  595TMC3    C7 8879   3.338   0.043  14.437 -0.0176 -0.4425  0.0310
  595TMC3    C8 8880   3.532   4.412  14.636 -0.5054 -0.1715  1.0376
  595TMC3    O1 8881   3.223   0.004  14.443 -0.0197 -0.4838  0.2906
  595TMC3    O2 8882   3.632   4.349  14.653  0.1298 -0.0390  0.3522
  596MPD2     C 8883   1.943   2.288  17.023 -0.3151 -0.1056 -0.0279
  596MPD2    C1 8884   1.955   2.395  16.935 -0.5719 -0.0729 -0.2838
  596MPD2    C2 8885   1.969   2.365  16.801  0.5614  0.3270 -0.0802
  596MPD2    C3 8886   1.972   2.240  16.750 -0.3488 -0.1800 -0.2195
  596MPD2    C4 8887   1.969   2.130  16.837  0.1560  0.0585  0.0791
  596MPD2    C5 8888   1.962   2.157  16.974  0.1394 -0.2717  0.3482
  596MPD2     H 8889   1.970   2.454  16.740  0.0338  0.6439  0.3703
  596MPD2    H1 8890   1.986   2.033  16.793 -0.5626  0.1463 -0.3734
  596MPD2    H2 8891   1.946   2.303  17.130 -1.5106 -0.6541  0.0875
  596MPD2    H3 8892   1.967   2.076  17.047 -0.2406 -1.4316 -0.9106
  596MPD2     N 8893   1.965   2.213  16.612  0.1863  0.6024  0.3478
  596MPD2    H5 8894   1.989   2.117  16.592  2.3066  0.5586  2.9236
  596MPD2    N1 8895   1.949   2.533  16.977 -0.1433  0.3902 -0.2569
  596MPD2    H7 8896   1.946   2.602  16.902 -2.1937  0.0193 -0.5112
  597TMC3    C1 8897   1.926   2.719  17.125  0.0400  0.2724  0.0164
  597TMC3    C2 8898   1.951   2.800  17.016  0.5481  1.1413  0.0899
  597TMC3    C3 8899   1.901   2.928  17.019 -0.4162  0.2649 -0.3291
  597TMC3    C4 8900   1.840   2.758  17.230 -0.7694  0.3136 -0.2465
  597TMC3    C5 8901   1.776   2.876  17.213 -0.2431 -0.6885 -0.1856
  597TMC3    C6 8902   1.804   2.966  17.108  0.1177 -0.6988 -0.3598
  597TMC3     C 8903   1.944   2.571  17.109  0.0026  0.3733  0.7944
  597TMC3     O 8904   1.945   2.515  17.218 -0.3959  0.2531  0.9141
  597TMC3     H 8905   2.015   2.771  16.934 -0.9601  0.2770 -0.7911
  597TMC3    H1 8906   1.820   2.694  17.315 -4.8023  1.2980 -0.4721
  597TMC3    H2 8907   1.766   3.067  17.114  0.0669 -0.7233 -0.2581
  597TMC3    C7 8908   1.669   2.900  17.301  0.4043 -0.0444 -0.1156
  597TMC3    C8 8909   1.918   3.012  16.896  0.1580 -0.1472 -0.0423
  597TMC3    O1 8910   1.635   2.800  17.366 -0.2935  0.2709  0.0540
  597TMC3    O2 8911   1.970   2.960  16.801 -0.0583  0.4915 -0.3540
  598TMC3    C1 8912   4.507   3.875  15.284  0.4999 -0.4454  0.4687
  598TMC3    C2 8913   4.407   3.792  15.262  0.1625 -0.6461 -0.1120
  598TMC3    C3 8914   4.342   3.786  15.142 -0.3292  0.4168 -0.1420
  598TMC3    C4 8915   4.559   3.955  15.180 -0.4807 -0.3252  0.1528
  598TMC3    C5 8916   4.500   3.939  15.056 -0.0846  0.7873  0.0243
  598TMC3    C6 8917   4.405   3.843  15.037 -0.4850 -0.6741 -0.8527
  598TMC3     C 8918   4.543   3.918  15.416 -0.3365 -0.4240 -0.6364
  598TMC3     O 8919   4.584   4.036  15.414 -0.5299 -0.1727 -0.2320
  598TMC3     H 8920   4.368   3.741  15.350  1.3198  1.1489  1.4405
  598TMC3    H1 8921   4.646   4.018  15.190 -1.2484  0.7241  0.2605
  598TMC3    H2 8922   4.366   3.830  14.936 -1.8363 -0.1057 -0.4093
  598TMC3    C7 8923   4.566   3.991  14.937 -0.3212 -0.2549  0.3570
  598TMC3    C8 8924   4.248   3.678  15.122 -0.5170 -0.5193 -0.3847
  598TMC3    O1 8925   4.562   3.918  14.841  0.3342  0.0925 -0.3736
  598TMC3    O2 8926   4.219   3.635  15.011  0.1717 -0.3874 -0.3484
  599MPD2     C 8927   0.084   1.792  16.050 -0.7919  0.0467 -0.4431
  599MPD2    C1 8928   0.037   1.670  16.090  0.1259 -0.2451 -0.2131
  599MPD2    C2 8929   4.650   1.660  16.144 -0.0834 -0.1247 -0.5261
  599MPD2    C3 8930   4.566   1.768  16.164 -0.2366 -0.1361  0.2083
  599MPD2    C4 8931   4.617   1.890  16.124 -0.0940 -0.3864  0.5253
  599MPD2    C5 8932   0.000   1.907  16.064 -0.0380  0.5534  0.2657
  599MPD2     H 8933   4.617   1.559  16.169 -1.3261  0.8085  1.5435
  599MPD2    H1 8934   4.556   1.980  16.127  0.1358 -0.2655  1.4231
  599MPD2    H2 8935   0.180   1.806  16.001 -0.9770  0.2181 -0.7579
  599MPD2    H3 8936   0.028   2.002  16.020 -0.5529  0.7392  0.3437
  599MPD2     N 8937   4.438   1.762  16.222 -0.6714 -0.1891  0.5380
  599MPD2    H5 8938   4.401   1.853  16.247  0.2108  0.1826  0.4957
  599MPD2    N1 8939   0.123   1.557  16.084  0.4185  0.6757 -0.0033
  599MPD2    H7 8940   0.218   1.588  16.071  0.7862 -0.4518 -0.0026
  600TMC3    C1 8941   4.239   1.675  16.304  0.0908  0.1345  0.6501
  600TMC3    C2 8942   4.184   1.567  16.369 -0.5788 -0.0456  0.8693
  600TMC3    C3 8943   4.084   1.592  16.454  0.5527 -0.3930 -0.2086
  600TMC3    C4 8944   4.196   1.806  16.317  0.0622 -0.1223  0.6427
  600TMC3    C5 8945   4.091   1.825  16.407 -0.0472 -0.2575  0.6805
  600TMC3    C6 8946   4.045   1.718  16.478 -0.5809  0.2969  0.8678
  600TMC3     C 8947   4.371   1.647  16.257  0.2222 -0.6140  0.1318
  600TMC3     O 8948   4.398   1.535  16.232  0.2581 -0.2092 -0.0374
  600TMC3     H 8949   4.223   1.468  16.349  0.8418  1.2860 -2.9279
  600TMC3    H1 8950   4.223   1.885  16.249  0.7342 -0.7766  0.1426
  600TMC3    H2 8951   3.972   1.739  16.555 -2.9287 -1.3013 -0.9405
  600TMC3    C7 8952   4.024   1.955  16.426 -0.4566  0.2950 -0.7361
  600TMC3    C8 8953   3.999   1.489  16.521 -0.4541 -0.2783 -0.7096
  600TMC3    O1 8954   3.923   1.957  16.498  0.3333  0.5063 -0.5561
  600TMC3    O2 8955   3.920   1.511  16.613  0.5776 -0.4983 -0.1525
  601MPD2     C 8956   2.012   4.379   0.077 -0.5586 -0.0420 -0.1342
  601MPD2    C1 8957   1.897   4.381   0.002  0.1870  0.0002  0.5717
  601MPD2    C2 8958   1.776   4.369   0.072 -0.2579  0.4495  0.0136
  601MPD2    C3 8959   1.779   4.336   0.211 -0.2392 -0.5094  0.0226
  601MPD2    C4 8960   1.903   4.318   0.279 -0.2228 -0.4943 -0.0461
  601MPD2    C5 8961   2.014   4.351   0.206  0.2800  0.6084  0.0493
  601MPD2     H 8962   1.679   4.383   0.026  0.0417  2.2201 -0.0866
  601MPD2    H1 8963   1.914   4.285   0.382  0.4909  2.8285  0.9476
  601MPD2    H2 8964   2.108   4.395   0.031 -0.7218  1.0838 -0.0646
  601MPD2    H3 8965   2.103   4.341   0.268 -0.2909  0.5481  0.8679
  601MPD2     N 8966   1.665   4.317   0.288  0.0787 -0.1909 -0.5426
  601MPD2    H5 8967   1.687   4.273   0.377  1.7660  2.0177  0.1472
  601MPD2    N1 8968   1.905   4.416  17.621  0.0232 -0.1567 -0.1159
  601MPD2    H7 8969   1.817   4.424  17.571 -0.3395 -0.9720  0.3926
  602TMC3    C1 8970   1.981   4.447  17.415  0.0212  0.0387  0.2602
  602TMC3    C2 8971   1.896   4.549  17.391 -0.2383  0.6322 -0.4286
  602TMC3    C3 8972   1.876   4.587  17.261 -0.2660 -0.0246 -0.2549
  602TMC3    C4 8973   2.061   4.399  17.310  0.0755 -0.3200 -0.7854
  602TMC3    C5 8974   2.039   4.450  17.182  0.2293 -1.0192 -0.3397
  602TMC3    C6 8975   1.934   4.536  17.148 -0.0637  0.6098  0.4738
  602TMC3     C 8976   2.013   4.395  17.542 -0.6127  1.2547  0.0924
  602TMC3     O 8977   2.113   4.333  17.570 -0.3640 -0.8600 -0.0765
  602TMC3     H 8978   1.848   4.605  17.470  2.0010 -0.5286  1.7608
  602TMC3    H1 8979   2.129   4.319  17.335 -0.0655 -0.2556 -0.1977
  602TMC3    H2 8980   1.894   4.556  17.049 -0.9266 -2.1937  0.2592
  602TMC3    C7 8981   2.150   4.440  17.084 -0.1633  0.4455 -0.5714
  602TMC3    C8 8982   1.824   4.724  17.246  0.2842  1.0480  0.0581
  602TMC3    O1 8983   2.265   4.426  17.125  0.1388 -0.5382  0.6134
  602TMC3    O2 8984   1.748   0.040  17.320  0.6270 -0.2662 -0.2375
  603TMC3    C1 8985   0.228   0.498  10.883  1.0829  0.0654  0.1047
  603TMC3    C2 8986   0.255   0.459  11.006  0.0954 -0.0774 -0.1069
  603TMC3    C3 8987   0.245   0.551  11.107  0.3657  0.1455  0.2861
  603TMC3    C4 8988   0.192   0.631  10.865  0.0177  0.3738  0.6010
  603TMC3    C5 8989   0.167   0.711  10.970 -1.2796 -0.4176 -0.5494
  603TMC3    C6 8990   0.213   0.674  11.092  0.7401 -0.6318 -0.5789
  603TMC3     C 8991   0.225   0.403  10.767  0.0528  0.2937 -0.5452
  603TMC3     O 8992   0.213   0.447  10.656  0.4456  0.9384  0.1977
  603TMC3     H 8993   0.287   0.358  11.030  3.1501  0.6865 -0.9837
  603TMC3    H1 8994   0.172   0.668  10.765  2.0981 -1.1914 -0.3898
  603TMC3    H2 8995   0.178   0.733  11.175  2.5305 -1.0867  0.5108
  603TMC3    C7 8996   0.158   0.858  10.941  0.4521  0.0324  0.0850
  603TMC3    C8 8997   0.244   0.504  11.250  0.0937  0.0326 -0.9575
  603TMC3    O1 8998   0.252   0.924  10.984  0.0152  0.3255  0.1053
  603TMC3    O2 8999   0.259   0.383  11.265 -0.0741 -0.3527  0.3605
  604MPD2     C 9000   1.001   3.667  16.558  0.0367  0.3283  0.1333
  604MPD2    C1 9001   0.920   3.724  16.457 -0.6303 -0.8331 -0.4201
  604MPD2    C2 9002   0.937   3.690  16.325 -0.8557 -0.2142  0.3845
  604MPD2    C3 9003   1.024   3.589  16.293  0.0205 -0.3241  0.2771
  604MPD2    C4 9004   1.088   3.523  16.392  0.0485 -1.1241 -0.1826
  604MPD2    C5 9005   1.073   3.560  16.523 -0.0722 -0.1819 -0.7952
  604MPD2     H 9006   0.881   3.739  16.247 -1.9594 -1.6994  0.2317
  604MPD2    H1 9007   1.159   3.442  16.384  0.5059 -0.6034 -1.4234
  604MPD2    H2 9008   1.006   3.698  16.662 -1.5473 -0.2631  0.3851
  604MPD2    H3 9009   1.134   3.503  16.592  0.3346  1.8076  0.4744
  604MPD2     N 9010   1.028   3.554  16.153 -0.1550 -0.4294  0.0707
  604MPD2    H5 9011   0.956   3.587  16.089  1.7530  3.3993 -0.0786
  604MPD2    N1 9012   0.822   3.820  16.502 -0.4205 -0.4505  0.7558
  604MPD2    H7 9013   0.821   3.841  16.601 -1.1732 -0.9657  0.8617
  605TMC3    C1 9014   0.653   3.979  16.492  0.3435  0.0396  0.4505
  605TMC3    C2 9015   0.734   4.062  16.557  0.7749 -0.4401 -0.5256
  605TMC3    C3 9016   0.673   4.169  16.618 -0.7348 -0.1547  0.5069
  605TMC3    C4 9017   0.515   3.995  16.471 -0.0697  0.3086 -0.2338
  605TMC3    C5 9018   0.463   4.106  16.527 -0.8849  0.6800 -0.1244
  605TMC3    C6 9019   0.540   4.195  16.601  0.1811 -0.2844 -0.4863
  605TMC3     C 9020   0.717   3.873  16.427  0.3063 -0.7170 -0.2952
  605TMC3     O 9021   0.675   3.837  16.319 -0.5010 -0.0896  0.1614
  605TMC3     H 9022   0.842   4.048  16.557  0.9718  1.0790 -1.1928
  605TMC3    H1 9023   0.465   3.913  16.421  1.5202  0.9196 -2.7857
  605TMC3    H2 9024   0.497   4.287  16.636 -0.7201 -1.3546  1.2015
  605TMC3    C7 9025   0.326   4.153  16.501  0.0888  0.6688  0.7410
  605TMC3    C8 9026   0.765   4.272  16.663 -0.1575  0.8003 -0.4277
  605TMC3    O1 9027   0.269   4.234  16.575 -0.5773 -0.2763  0.2391
  605TMC3    O2 9028   0.883   4.242  16.673  0.6237 -0.1133 -0.3484
  606TMC3    C1 9029   2.443   2.498   0.060 -0.3707  0.2912  0.1483
  606TMC3    C2 9030   2.498   2.399   0.130  0.1873  0.3895 -0.7199
  606TMC3    C3 9031   2.425   2.284   0.151 -0.2450 -0.1945  0.0711
  606TMC3    C4 9032   2.307   2.487   0.017 -0.1874  0.3409 -0.1144
  606TMC3    C5 9033   2.242   2.361   0.022 -0.1148  0.0319  0.8302
  606TMC3    C6 9034   2.305   2.258   0.094  0.3828 -0.0683  0.4006
  606TMC3     C 9035   2.521   2.622   0.037  0.6448  0.0934 -0.2399
  606TMC3     O 9036   2.643   2.618   0.057 -0.1439 -0.5864  0.0480
  606TMC3     H 9037   2.601   2.398   0.164 -0.1397 -1.2439  0.2525
  606TMC3    H1 9038   2.265   2.566  17.709 -0.7594  1.1291  1.2933
  606TMC3    H2 9039   2.257   2.162   0.109  2.8873 -1.3122  0.3709
  606TMC3    C7 9040   2.140   2.326  17.679 -0.0240 -0.1895  0.1283
  606TMC3    C8 9041   2.494   2.174   0.208  0.3687 -0.6685 -0.0656
  606TMC3    O1 9042   2.110   2.405  17.590  0.2668  0.3432 -0.0211
  606TMC3    O2 9043   2.439   2.066   0.186  0.0381  0.4940 -0.3459
  607MPD2     C 9044   4.242   0.238  12.095  0.1021 -0.2862 -0.4347
  607MPD2    C1 9045   4.280   0.289  12.217  0.3064  0.1908 -0.3958
  607MPD2    C2 9046   4.288   0.212  12.328 -0.4352  0.2620 -0.0888
  607MPD2    C3 9047   4.263   0.072  12.319  0.2041 -0.6539  0.1387
  607MPD2    C4 9048   4.221   0.026  12.201  0.0632  0.0739 -0.0739
  607MPD2    C5 9049   4.207   0.104  12.085 -0.3146 -0.4876 -0.0204
  607MPD2     H 9050   4.325   0.265  12.415  0.1457 -1.3623  0.6594
  607MPD2    H1 9051   4.199   4.661  12.177 -0.9928 -0.0874  1.6180
  607MPD2    H2 9052   4.235   0.290  12.001  0.7747 -0.0326 -0.3463
  607MPD2    H3 9053   4.173   0.072  11.988  0.5559  0.8465 -0.7562
  607MPD2     N 9054   4.281   4.728  12.427  0.2157 -0.6915  0.1406
  607MPD2    H5 9055   4.279   4.630  12.402  0.4799 -1.2131  2.1660
  607MPD2    N1 9056   4.328   0.414  12.235  0.0142  0.0893  0.6074
  607MPD2    H7 9057   4.371   0.427  12.325  0.3626  1.0178  0.2998
  608TMC3    C1 9058   4.406   0.623  12.202 -0.0510  0.2068 -0.8697
  608TMC3    C2 9059   4.484   0.609  12.317 -0.8420 -0.0278  0.1472
  608TMC3    C3 9060   4.566   0.720  12.343  0.0924  0.2427 -0.3550
  608TMC3    C4 9061   4.409   0.739  12.117 -0.6486  0.0748 -0.1287
  608TMC3    C5 9062   4.495   0.844  12.154  0.5383  0.4985  0.5186
  608TMC3    C6 9063   4.574   0.836  12.267  0.0032  0.2898  0.1697
  608TMC3     C 9064   4.339   0.506  12.141  0.1886  0.2174  0.0848
  608TMC3     O 9065   4.304   0.514  12.026  0.0626  0.7570  0.7136
  608TMC3     H 9066   4.498   0.518  12.375 -0.5747 -0.8530 -1.2200
  608TMC3    H1 9067   4.368   0.738  12.017  0.5638  1.5672 -0.6519
  608TMC3    H2 9068   4.639   0.917  12.299 -0.2116  0.8810 -0.8733
  608TMC3    C7 9069   4.545   0.913  12.037 -0.3729 -0.5163  0.6733
  608TMC3    C8 9070   4.574   0.734  12.491 -0.2241  0.6995 -0.0550
  608TMC3    O1 9071   4.465   0.940  11.949  0.5827 -0.0473  0.1268
  608TMC3    O2 9072   4.538   0.841  12.541  0.5798  0.4979 -0.0867
  609TMC3    C1 9073   3.927   4.156   9.519  0.3416  0.2272 -0.0518
  609TMC3    C2 9074   3.967   4.093   9.406  0.0665  0.1236 -0.4439
  609TMC3    C3 9075   4.031   3.976   9.425  0.1571  0.2215 -0.3521
  609TMC3    C4 9076   3.957   4.115   9.647 -0.1411 -0.3926 -0.0822
  609TMC3    C5 9077   4.028   4.004   9.657 -0.8066  0.0404  0.1403
  609TMC3    C6 9078   4.050   3.924   9.551 -0.5946  0.2733  0.3522
  609TMC3     C 9079   3.817   4.244   9.520 -0.6258 -0.9974 -0.0370
  609TMC3     O 9080   3.760   4.254   9.629  1.1675  0.3574 -0.4220
  609TMC3     H 9081   3.927   4.127   9.311 -1.8506  1.4412  0.8449
  609TMC3    H1 9082   3.941   4.179   9.733  1.1044  0.1395 -0.2281
  609TMC3    H2 9083   4.104   3.830   9.560 -0.8073  0.0531 -0.7763
  609TMC3    C7 9084   4.083   3.976   9.789  0.7380 -0.2138  0.6376
  609TMC3    C8 9085   4.043   3.899   9.303  0.1664 -0.0732  0.0176
  609TMC3    O1 9086   4.081   4.065   9.870 -0.2235  0.2487 -0.3185
  609TMC3    O2 9087   4.068   3.958   9.194  0.2099  0.5627  0.1740
  610TMC3    C1 9088   0.039   0.532  13.082 -0.7727 -0.7751  0.0866
  610TMC3    C2 9089   0.093   0.548  12.958 -0.1616  0.1334  0.0408
  610TMC3    C3 9090   0.134   0.436  12.886  0.7558 -0.0281 -0.4414
  610TMC3    C4 9091   0.062   0.407  13.146 -0.1460 -0.4478 -0.1182
  610TMC3    C5 9092   0.115   0.303  13.081  0.6201 -0.4955  0.0604
  610TMC3    C6 9093   0.147   0.319  12.952 -0.4067  0.3907 -0.2823
  610TMC3     C 9094   4.717   0.637  13.166  0.2423  0.0662 -0.0002
  610TMC3     O 9095   4.686   0.608  13.284  0.6186  0.4318 -0.1023
  610TMC3     H 9096   0.076   0.637  12.899  2.1721  0.6586  0.1571
  610TMC3    H1 9097   0.046   0.400  13.253 -0.7923 -1.2212 -0.2666
  610TMC3    H2 9098   0.180   0.228  12.904 -0.3850 -0.1801  0.8331
  610TMC3    C7 9099   0.130   0.177  13.148 -0.5026 -0.5964  0.6453
  610TMC3    C8 9100   0.205   0.450  12.759 -0.8537 -0.1579  0.3823
  610TMC3    O1 9101   0.134   0.076  13.078  0.5686  0.0294 -0.0757
  610TMC3    O2 9102   0.261   0.560  12.741 -0.5453  0.0415 -0.3867
  611MPD2     C 9103   3.971   0.538  10.495  0.1522 -0.4089 -0.7200
  611MPD2    C1 9104   3.914   0.619  10.399  0.2273  0.2149 -0.2796
  611MPD2    C2 9105   3.981   0.737  10.366  0.0857  0.3842 -0.0170
  611MPD2    C3 9106   4.091   0.779  10.435 -0.4540 -0.6475  0.3272
  611MPD2    C4 9107   4.144   0.698  10.531  0.2062 -0.4686  0.4518
  611MPD2    C5 9108   4.086   0.575  10.552 -0.2213  0.1956  0.5950
  611MPD2     H 9109   3.945   0.797  10.284 -0.5878 -0.0692 -0.0514
  611MPD2    H1 9110   4.237   0.717  10.583  1.4314  0.4465 -2.0494
  611MPD2    H2 9111   3.915   0.451  10.528 -1.2762 -0.1971 -2.5549
  611MPD2    H3 9112   4.138   0.513  10.623 -1.4138 -2.2751 -0.6783
  611MPD2     N 9113   4.154   0.899  10.411  0.4105  0.0662 -0.5908
  611MPD2    H5 9114   4.235   0.924  10.467  0.9376 -0.3692 -1.1557
  611MPD2    N1 9115   3.792   0.578  10.334 -0.6388 -0.2598  0.0513
  611MPD2    H7 9116   3.749   0.497  10.378 -2.7015  0.0319 -1.4333
  612TMC3    C1 9117   4.216   1.111  10.327  0.9991 -0.4599  0.0449
  612TMC3    C2 9118   4.297   1.139  10.435  0.0405 -0.0227  0.8710
  612TMC3    C3 9119   4.376   1.256  10.423  0.0100  0.8294  0.1439
  612TMC3    C4 9120   4.227   1.182  10.209  0.4699 -0.2640  0.2546
  612TMC3    C5 9121   4.326   1.279  10.193 -0.8062  0.4269  0.6685
  612TMC3    C6 9122   4.390   1.331  10.303 -0.3698 -0.2781  0.1321
  612TMC3     C 9123   4.125   0.991  10.314  0.4476  0.8732 -0.2806
  612TMC3     O 9124   4.048   0.993  10.221  0.0020  0.4884 -0.5314
  612TMC3     H 9125   4.300   1.091  10.532  2.7934 -1.1883  0.2264
  612TMC3    H1 9126   4.199   1.132  10.117 -1.1939 -1.5885  1.4958
  612TMC3    H2 9127   4.458   1.416  10.300  0.8030 -1.1506  1.8355
  612TMC3    C7 9128   4.337   1.352  10.069 -0.2082 -0.0076 -0.3452
  612TMC3    C8 9129   4.474   1.290  10.523 -0.3146  0.4170 -1.7246
  612TMC3    O1 9130   4.437   1.418  10.058  0.5693  0.2231  0.4853
  612TMC3    O2 9131   4.530   1.398  10.504 -0.3745 -0.2025  0.5250
  613MPD2     C 9132   2.842   1.977  17.179  0.7953  0.8093  0.7623
  613MPD2    C1 9133   2.799   2.072  17.093  0.1864 -0.5209  0.1219
  613MPD2    C2 9134   2.758   2.012  16.976  0.1320  0.6569 -0.1058
  613MPD2    C3 9135   2.779   1.880  16.934  0.3817 -0.3864  0.1719
  613MPD2    C4 9136   2.819   1.792  17.028  0.0832  0.1697 -0.4196
  613MPD2    C5 9137   2.859   1.846  17.150 -0.0475 -0.2346  1.0788
  613MPD2     H 9138   2.709   2.083  16.910  0.0071 -0.4990 -1.2553
  613MPD2    H1 9139   2.839   1.686  17.023 -0.2324  0.1530 -1.2461
  613MPD2    H2 9140   2.879   2.001  17.278  1.7467 -1.1642  0.8797
  613MPD2    H3 9141   2.909   1.781  17.221 -0.1545 -0.9942  0.4609
  613MPD2     N 9142   2.761   1.828  16.803 -0.4960  0.1634  0.2788
  613MPD2    H5 9143   2.789   1.733  16.780 -0.1305  0.4549 -0.4824
  613MPD2    N1 9144   2.799   2.212  17.122  0.1652  0.4568 -0.0889
  613MPD2    H7 9145   2.811   2.233  17.220  3.5816  0.3811 -0.4779
  614TMC3    C1 9146   2.827   2.299  16.887 -0.9860 -0.4013  0.6297
  614TMC3    C2 9147   2.936   2.230  16.857  0.3391 -0.0881  0.4300
  614TMC3    C3 9148   2.994   2.231  16.733 -0.7612 -0.1099  0.3688
  614TMC3    C4 9149   2.795   2.401  16.804  0.5240 -0.5336 -0.0319
  614TMC3    C5 9150   2.859   2.414  16.682  0.2005  0.1496 -0.6784
  614TMC3    C6 9151   2.950   2.322  16.643 -0.4167 -0.0460  0.7251
  614TMC3     C 9152   2.784   2.318  17.029  0.0904 -0.4647 -0.3227
  614TMC3     O 9153   2.781   2.439  17.060 -0.3417  0.6181  0.0097
  614TMC3     H 9154   2.980   2.163  16.931 -0.1933  0.6424  1.4090
  614TMC3    H1 9155   2.716   2.462  16.845 -0.4937 -0.0115 -2.7737
  614TMC3    H2 9156   3.009   2.345  16.555 -0.4804 -0.1813  0.6478
  614TMC3    C7 9157   2.829   2.537  16.608  0.0595 -0.0868 -0.0219
  614TMC3    C8 9158   3.041   2.104  16.681 -0.8522 -0.1284 -0.0776
  614TMC3    O1 9159   2.724   2.600  16.639  0.2446 -0.6920  0.8276
  614TMC3    O2 9160   3.024   2.080  16.562 -0.5902  0.2485  0.9386
  615MPD2     C 9161   2.295   3.710  16.495 -0.1089  0.1975  0.3733
  615MPD2    C1 9162   2.386   3.724  16.396  0.5661 -0.6968  0.2080
  615MPD2    C2 9163   2.345   3.784  16.277 -0.6668 -0.3007 -0.5405
  615MPD2    C3 9164   2.216   3.809  16.251 -0.0058 -0.2221 -0.9342
  615MPD2    C4 9165   2.123   3.787  16.351 -0.7218  0.0275  0.1196
  615MPD2    C5 9166   2.166   3.752  16.472 -0.0600  0.0711 -0.4299
  615MPD2     H 9167   2.425   3.802  16.206  0.6952  1.3717  1.3673
  615MPD2    H1 9168   2.021   3.818  16.336 -1.0312 -1.5881 -1.0983
  615MPD2    H2 9169   2.317   3.671  16.593  0.1075  0.1416  0.3022
  615MPD2    H3 9170   2.096   3.734  16.552  0.2429 -1.9877 -0.6183
  615MPD2     N 9171   2.171   3.863  16.132 -0.3290 -0.4263 -0.4810
  615MPD2    H5 9172   2.073   3.889  16.122 -0.0387  1.1231  0.7671
  615MPD2    N1 9173   2.515   3.685  16.407 -0.2314 -0.1552  0.7501
  615MPD2    H7 9174   2.570   3.702  16.323 -0.4039 -3.1890  0.0293
  616TMC3    C1 9175   2.723   3.667  16.526  0.1392  0.2608 -0.6293
  616TMC3    C2 9176   2.775   3.782  16.472 -0.0597  0.0761 -0.1529
  616TMC3    C3 9177   2.901   3.818  16.495 -0.2759  0.4586  0.0710
  616TMC3    C4 9178   2.796   3.590  16.612 -0.6848 -0.2684 -0.1906
  616TMC3    C5 9179   2.920   3.629  16.636 -0.1360 -0.0529  0.2289
  616TMC3    C6 9180   2.976   3.746  16.578  0.2885 -0.2027  0.2768
  616TMC3     C 9181   2.576   3.644  16.525 -0.3193 -0.2692 -0.2518
  616TMC3     O 9182   2.538   3.592  16.631  0.5691 -0.2651 -0.3139
  616TMC3     H 9183   2.707   3.843  16.414 -0.0628  0.3337  0.1221
  616TMC3    H1 9184   2.758   3.496  16.650 -1.4435  0.1005 -0.0405
  616TMC3    H2 9185   3.078   3.768  16.605  0.0675 -1.2119  1.9482
  616TMC3    C7 9186   3.006   3.575  16.741 -1.1928 -0.0707 -0.0228
  616TMC3    C8 9187   2.959   3.919  16.412 -0.3274  0.1847  0.5616
  616TMC3    O1 9188   3.125   3.588  16.740  0.1415  0.4563  0.0357
  616TMC3    O2 9189   2.892   3.960  16.317  0.0027  0.2034  0.9033
  617MPD2     C 9190   0.929   2.433  14.599 -0.1380 -0.4394 -0.0635
  617MPD2    C1 9191   0.936   2.323  14.521 -0.0822  0.4553 -0.4754
  617MPD2    C2 9192   0.827   2.283  14.441  0.4479 -0.1753  0.4338
  617MPD2    C3 9193   0.710   2.354  14.437  0.0649  0.1432 -0.1177
  617MPD2    C4 9194   0.700   2.447  14.531 -1.6393  0.8252  0.7672
  617MPD2    C5 9195   0.808   2.495  14.603 -0.6226  0.1393  0.0516
  617MPD2     H 9196   0.830   2.191  14.383 -1.0160 -0.3504  0.6153
  617MPD2    H1 9197   0.605   2.499  14.536 -1.5544  0.9891  0.6679
  617MPD2    H2 9198   1.012   2.465  14.661  0.0754 -2.3359  0.6251
  617MPD2    H3 9199   0.811   2.590  14.655  0.9123  0.2333 -0.1848
  617MPD2     N 9200   0.602   2.321  14.353 -0.3161  0.0729 -0.1953
  617MPD2    H5 9201   0.519   2.363  14.394  0.5257 -0.4535  2.0298
  617MPD2    N1 9202   1.061   2.257  14.510 -0.2257 -0.0465  0.2980
  617MPD2    H7 9203   1.141   2.297  14.556  1.4318 -0.7714 -1.9268
  618TMC3    C1 9204   1.230   2.113  14.430 -0.6122 -0.2660  0.2486
  618TMC3    C2 9205   1.273   1.979  14.423 -0.6990  1.0058 -0.3376
  618TMC3    C3 9206   1.409   1.961  14.408  0.4654  0.1600  0.2877
  618TMC3    C4 9207   1.326   2.210  14.424  0.0941  0.0447  0.2627
  618TMC3    C5 9208   1.459   2.182  14.428 -0.5429  0.2460 -0.3780
  618TMC3    C6 9209   1.504   2.058  14.408  0.2471  0.1265 -0.5431
  618TMC3     C 9210   1.093   2.149  14.436 -0.7324  0.4022  0.2247
  618TMC3     O 9211   1.017   2.066  14.386 -0.2448  0.0774  0.0020
  618TMC3     H 9212   1.197   1.900  14.422 -0.5299  0.8267  1.4735
  618TMC3    H1 9213   1.289   2.309  14.403 -1.7052 -1.0609 -1.8264
  618TMC3    H2 9214   1.609   2.029  14.416  0.0526 -0.4781 -0.1708
  618TMC3    C7 9215   1.531   2.294  14.486 -0.3401  0.0793 -0.7441
  618TMC3    C8 9216   1.444   1.824  14.372 -0.2549  0.1412  0.0757
  618TMC3    O1 9217   1.470   2.372  14.558  0.2273  0.0803 -0.1536
  618TMC3    O2 9218   1.365   1.736  14.406  0.3557 -0.2053  0.6282
  619MPD2     C 9219   2.296   3.085  13.730 -0.3534 -0.3462 -0.1074
  619MPD2    C1 9220   2.209   3.154  13.645 -0.1393 -0.7894  1.1786
  619MPD2    C2 9221   2.081   3.167  13.691 -0.2101 -0.4073  1.0055
  619MPD2    C3 9222   2.036   3.139  13.819 -0.3842 -0.8707 -0.2255
  619MPD2    C4 9223   2.125   3.084  13.907  0.1508 -0.3124 -1.1613
  619MPD2    C5 9224   2.257   3.064  13.862 -0.2865  0.3352 -0.0861
  619MPD2     H 9225   2.017   3.206  13.613 -1.1494  0.6396  2.3057
  619MPD2    H1 9226   2.105   3.058  14.011  1.1680 -0.7544 -1.0854
  619MPD2    H2 9227   2.397   3.062  13.698  0.3166 -0.7415  2.2720
  619MPD2    H3 9228   2.333   3.025  13.928 -0.6245  0.9586  0.6812
  619MPD2     N 9229   1.905   3.164  13.861 -0.0956  0.0704 -0.2733
  619MPD2    H5 9230   1.874   3.136  13.954  2.0783  0.1001  0.4569
  619MPD2    N1 9231   2.239   3.215  13.521 -0.6264  0.6887 -0.2477
  619MPD2    H7 9232   2.171   3.279  13.482 -1.1897 -0.7213 -1.6101
  620TMC3    C1 9233   2.368   3.289  13.341  0.4954  0.2700  0.2661
  620TMC3    C2 9234   2.254   3.336  13.275 -0.0584 -0.0178  0.1770
  620TMC3    C3 9235   2.277   3.409  13.162 -0.3977 -0.1447  0.7281
  620TMC3    C4 9236   2.494   3.313  13.294 -0.4674  0.1141 -0.0687
  620TMC3    C5 9237   2.506   3.388  13.184 -0.0582 -0.3982 -0.2847
  620TMC3    C6 9238   2.404   3.426  13.106 -0.2033 -0.5674  0.1085
  620TMC3     C 9239   2.360   3.209  13.457 -0.1604 -0.7460 -0.3167
  620TMC3     O 9240   2.462   3.146  13.487  0.3581  0.4324  0.5771
  620TMC3     H 9241   2.153   3.303  13.300  0.6548 -0.7241  2.1065
  620TMC3    H1 9242   2.585   3.289  13.348 -0.6595 -2.7232 -1.0000
  620TMC3    H2 9243   2.417   3.473  13.009 -0.2475  0.0186  0.3810
  620TMC3    C7 9244   2.587   3.502  13.219  0.9782 -0.1156  0.2399
  620TMC3    C8 9245   2.210   3.535  13.145 -0.1266 -0.2274 -0.4912
  620TMC3    O1 9246   2.689   3.477  13.288  0.0432  0.1288 -0.3864
  620TMC3    O2 9247   2.239   3.597  13.044  0.9689 -0.0812  0.6014
  621MPD2     C 9248   2.954   3.573   9.995 -0.1308  0.3869 -0.5842
  621MPD2    C1 9249   3.031   3.580  10.112 -0.4024 -0.5481 -0.0386
  621MPD2    C2 9250   3.119   3.677  10.139  0.0153  0.4553  0.0003
  621MPD2    C3 9251   3.151   3.772  10.044  0.1375  0.5401  0.1955
  621MPD2    C4 9252   3.069   3.774   9.931  0.0865 -0.4151 -0.0554
  621MPD2    C5 9253   2.968   3.684   9.907 -0.5885  0.7263 -0.4758
  621MPD2     H 9254   3.170   3.669  10.235  0.4385  3.7788  0.0382
  621MPD2    H1 9255   3.086   3.850   9.855  1.4925 -2.1381 -1.4490
  621MPD2    H2 9256   2.879   3.498   9.975 -0.3624  0.3381  0.4660
  621MPD2    H3 9257   2.919   3.691   9.811 -0.7743 -0.1750 -0.4448
  621MPD2     N 9258   3.256   3.864  10.077  0.5162 -0.3907 -0.8462
  621MPD2    H5 9259   3.303   3.845  10.166  1.3553 -0.4132 -1.2959
  621MPD2    N1 9260   3.002   3.492  10.221  0.0950 -0.1190  0.7488
  621MPD2    H7 9261   3.054   3.497  10.308  3.3009 -1.7993 -1.0642
  622TMC3    C1 9262   2.908   3.298  10.337 -0.4731  0.2146  0.0568
  622TMC3    C2 9263   2.877   3.356  10.456 -0.2397  0.4511 -0.7896
  622TMC3    C3 9264   2.789   3.288  10.540  0.0628  0.1259  0.0158
  622TMC3    C4 9265   2.858   3.180  10.301  0.9109  0.0142 -0.4994
  622TMC3    C5 9266   2.771   3.113  10.385  0.3923  0.0525  0.1502
  622TMC3    C6 9267   2.746   3.160  10.514 -0.0123  0.4580  0.1814
  622TMC3     C 9268   2.910   3.391  10.224 -0.7402  0.8516  0.4233
  622TMC3     O 9269   2.819   3.367  10.143  0.0475  0.5368 -0.6448
  622TMC3     H 9270   2.894   3.463  10.463 -0.7105  0.6379 -2.5420
  622TMC3    H1 9271   2.866   3.138  10.202  4.3930  1.8583 -0.9875
  622TMC3    H2 9272   2.675   3.108  10.578 -1.5518  0.7975 -1.2453
  622TMC3    C7 9273   2.685   3.011  10.331 -0.4269  0.8924 -0.1500
  622TMC3    C8 9274   2.762   3.350  10.667 -0.5925 -0.6615 -0.3220
  622TMC3    O1 9275   2.619   2.951  10.414  0.2401 -0.0271 -0.4761
  622TMC3    O2 9276   2.784   3.289  10.775 -0.3981  0.6576  0.1802
  623MPD2     C 9277   0.943   4.084  16.195 -0.2538 -0.2248  0.1541
  623MPD2    C1 9278   0.925   4.216  16.227  0.1735  0.2919  0.0310
  623MPD2    C2 9279   1.018   4.288  16.303  0.3572  0.4160 -0.2665
  623MPD2    C3 9280   1.123   4.224  16.367  0.4407  0.7868  0.4118
  623MPD2    C4 9281   1.152   4.098  16.316  0.3929 -0.5499 -0.6445
  623MPD2    C5 9282   1.065   4.030  16.231 -0.5831  0.6714  0.2636
  623MPD2     H 9283   1.001   4.394  16.317 -0.3451  0.2488  0.1608
  623MPD2    H1 9284   1.236   4.042  16.354  0.9406  1.2634  0.8192
  623MPD2    H2 9285   0.875   4.024  16.135 -2.3951  1.7643  0.5742
  623MPD2    H3 9286   1.078   3.924  16.215  1.3573  1.0252 -0.4593
  623MPD2     N 9287   1.200   4.292  16.460  0.1195 -0.7954 -0.1121
  623MPD2    H5 9288   1.163   4.377  16.502 -0.4488 -0.7237 -0.7657
  623MPD2    N1 9289   0.802   4.281  16.199  0.4947 -0.0548 -0.5730
  623MPD2    H7 9290   0.803   4.376  16.234 -0.3500 -0.0451 -0.5668
  624TMC3    C1 9291   1.433   4.195  16.824  0.2369 -0.2693  0.1871
  624TMC3    C2 9292   1.364   4.281  16.904  0.3607  0.1529 -0.0116
  624TMC3    C3 9293   1.294   4.380  16.838 -0.7846  0.3660  0.4811
  624TMC3    C4 9294   1.433   4.195  16.690 -0.6513  0.0190 -0.8432
  624TMC3    C5 9295   1.363   4.290  16.630  0.2042  0.2198  0.0482
  624TMC3    C6 9296   1.297   4.387  16.698  0.4221  0.2606 -0.4048
  624TMC3     C 9297   1.524   4.110  16.883  0.6325 -0.0680  0.2990
  624TMC3     O 9298   1.512   4.077  17.000  0.4795 -0.0789  0.2918
  624TMC3     H 9299   1.363   4.273  17.012  0.3061 -1.4249 -0.1248
  624TMC3    H1 9300   1.467   4.109  16.634  0.2242 -0.5713  0.6007
  624TMC3    H2 9301   1.243   4.463  16.642 -2.1131  0.0235  1.6788
  624TMC3    C7 9302   1.328   4.254  16.494  0.0251 -0.0489  0.2131
  624TMC3    C8 9303   1.185   4.435  16.908  0.0731 -0.1258  0.6492
  624TMC3    O1 9304   1.402   4.182  16.425  0.6177  0.1204 -0.2636
  624TMC3    O2 9305   1.118   4.361  16.979 -0.3041  0.4069 -0.5139
  625MPD2     C 9306   1.786   0.543   0.285 -0.9248 -0.0784 -0.3711
  625MPD2    C1 9307   1.832   0.632   0.373  0.1229  0.1594 -0.2308
  625MPD2    C2 9308   1.945   0.601   0.448  0.9309  0.2738 -0.2427
  625MPD2    C3 9309   2.005   0.477   0.441 -0.3617  0.3023  0.2691
  625MPD2    C4 9310   1.957   0.390   0.345  0.5305 -0.4006  0.0235
  625MPD2    C5 9311   1.852   0.421   0.270 -0.4639 -0.1093  0.1878
  625MPD2     H 9312   1.973   0.680   0.517  0.2682  0.2195  0.0884
  625MPD2    H1 9313   1.994   0.289   0.331 -1.5740 -1.3181  1.1088
  625MPD2    H2 9314   1.701   0.554   0.219 -1.1992  1.0226  0.1497
  625MPD2    H3 9315   1.812   0.354   0.195 -0.4243 -1.3249  1.2384
  625MPD2     N 9316   2.110   0.456   0.530 -0.0756  0.1703  1.0306
  625MPD2    H5 9317   2.145   0.533   0.586  0.4492  0.6050  0.1095
  625MPD2    N1 9318   1.771   0.765   0.400  0.0614  0.3538 -0.6358
  625MPD2    H7 9319   1.818   0.836   0.456 -0.5290 -0.5213  0.9947
  626TMC3    C1 9320   1.596   0.913   0.430  0.3558  0.4403  0.4104
  626TMC3    C2 9321   1.478   0.963   0.382 -0.0445 -0.1604  0.4869
  626TMC3    C3 9322   1.418   1.069   0.454 -0.1301 -1.1675  0.1360
  626TMC3    C4 9323   1.652   0.956   0.550 -0.3664  0.6689 -0.0525
  626TMC3    C5 9324   1.589   1.058   0.611 -0.2358 -0.1964  0.0800
  626TMC3    C6 9325   1.469   1.112   0.573  0.0718 -0.2566 -0.7145
  626TMC3     C 9326   1.648   0.802   0.361  0.3654 -0.0764  0.1412
  626TMC3     O 9327   1.585   0.763   0.265  0.5240  0.1287  0.2507
  626TMC3     H 9328   1.427   0.913   0.300  1.5913 -0.1952 -0.5005
  626TMC3    H1 9329   1.739   0.907   0.593  0.3521  0.3004 -1.9303
  626TMC3    H2 9330   1.429   1.194   0.632 -2.4772 -0.8839 -1.5724
  626TMC3    C7 9331   1.654   1.111   0.729  0.0703  0.6344  0.4237
  626TMC3    C8 9332   1.329   1.163   0.391  0.4940  0.9184 -0.4685
  626TMC3    O1 9333   1.770   1.145   0.718 -0.7044  0.0339 -0.1503
  626TMC3    O2 9334   1.281   1.238   0.468  0.2556  0.0341  0.3698
  627MPD2     C 9335   0.840   0.837  14.147 -0.7167 -0.2570  0.0404
  627MPD2    C1 9336   0.728   0.902  14.180  0.3695  0.2182  0.0765
  627MPD2    C2 9337   0.606   0.840  14.164  0.4753 -0.0158  0.0160
  627MPD2    C3 9338   0.595   0.709  14.127 -0.3983  0.0440 -0.6469
  627MPD2    C4 9339   0.711   0.644  14.087  0.5494  0.4379 -0.4107
  627MPD2    C5 9340   0.827   0.710  14.097  0.2465  0.1837  0.1125
  627MPD2     H 9341   0.517   0.894  14.193  0.5536  0.5698 -0.8421
  627MPD2    H1 9342   0.707   0.539  14.060 -2.7840  0.5277 -0.3207
  627MPD2    H2 9343   0.939   0.880  14.160  0.5628 -2.7117 -1.4631
  627MPD2    H3 9344   0.911   0.648  14.067  0.3143 -0.3112  1.3384
  627MPD2     N 9345   0.469   0.643  14.148  0.8019 -0.1468  0.0206
  627MPD2    H5 9346   0.401   0.703  14.193 -1.5293 -1.1004 -2.2664
  627MPD2    N1 9347   0.734   1.028  14.252  0.1809  0.5986 -0.1802
  627MPD2    H7 9348   0.824   1.044  14.295 -1.3969  3.5958  2.0279
  628TMC3    C1 9349   0.628   1.208  14.369  0.1173 -0.0541  0.0862
  628TMC3    C2 9350   0.722   1.211  14.469  0.6482 -0.3516 -0.5697
  628TMC3    C3 9351   0.700   1.292  14.574 -0.2154 -0.0332  0.3397
  628TMC3    C4 9352   0.545   1.317  14.357  0.9544 -0.6697 -0.0213
  628TMC3    C5 9353   0.517   1.388  14.469 -0.2733 -0.2344  0.3667
  628TMC3    C6 9354   0.591   1.378  14.582  0.0130  0.5334 -0.1272
  628TMC3     C 9355   0.632   1.114  14.258  0.2585  0.1990  0.4466
  628TMC3     O 9356   0.535   1.121  14.182 -0.6281  0.7052 -0.1639
  628TMC3     H 9357   0.796   1.132  14.477  0.9335 -0.1485 -1.2617
  628TMC3    H1 9358   0.503   1.341  14.261  0.9240  0.8263  0.3701
  628TMC3    H2 9359   0.594   1.454  14.659 -0.4462 -1.6763  2.0589
  628TMC3    C7 9360   0.417   1.489  14.449  0.2298 -0.6118 -0.2719
  628TMC3    C8 9361   0.805   1.310  14.673 -0.0593  0.0837 -0.1140
  628TMC3    O1 9362   0.379   1.524  14.336  0.1453 -0.7428 -0.1175
  628TMC3    O2 9363   0.816   1.420  14.727  0.0832  0.1066 -0.1901
  629MPD2     C 9364   3.280   4.309  16.396  0.0676  0.3451 -0.1858
  629MPD2    C1 9365   3.335   4.210  16.478 -0.1486  0.3424  0.1551
  629MPD2    C2 9366   3.258   4.097  16.508  0.5118 -0.4699 -1.0714
  629MPD2    C3 9367   3.134   4.090  16.450 -0.3722 -0.2102 -0.0820
  629MPD2    C4 9368   3.075   4.193  16.371 -0.8393 -0.8198  0.4775
  629MPD2    C5 9369   3.154   4.302  16.349 -0.6996 -0.4458 -0.6295
  629MPD2     H 9370   3.292   4.017  16.572  1.8115  0.4720 -0.6029
  629MPD2    H1 9371   2.978   4.185  16.324 -0.1523 -3.4327 -0.4967
  629MPD2    H2 9372   3.333   4.401  16.375  1.5927 -0.2753  0.9925
  629MPD2    H3 9373   3.114   4.370  16.274  2.4427  1.7133 -0.3217
  629MPD2     N 9374   3.069   3.967  16.478 -0.0664 -0.5586 -0.3097
  629MPD2    H5 9375   3.117   3.906  16.542  1.5907 -0.5928 -1.5908
  629MPD2    N1 9376   3.458   4.249  16.535  0.1007  0.8002 -0.1686
  629MPD2    H7 9377   3.512   4.319  16.485  0.9240 -2.0396 -3.2214
  630TMC3    C1 9378   3.640   4.236  16.665 -0.5255  0.0652  0.4768
  630TMC3    C2 9379   3.697   4.317  16.569  0.8492  0.4601  0.7627
  630TMC3    C3 9380   3.765   4.429  16.612  0.1389  0.3194 -0.7124
  630TMC3    C4 9381   3.652   4.265  16.802  0.6366  0.2054  0.2864
  630TMC3    C5 9382   3.704   4.390  16.834 -0.6898 -0.1832  0.1299
  630TMC3    C6 9383   3.759   4.467  16.739 -0.4039  0.0996  0.0214
  630TMC3     C 9384   3.517   4.180  16.635 -0.1457 -0.4686 -0.3870
  630TMC3     O 9385   3.481   4.080  16.701 -0.5539 -0.1644  0.2535
  630TMC3     H 9386   3.708   4.272  16.471 -0.6361 -0.1032  0.8568
  630TMC3    H1 9387   3.585   4.211  16.868  1.0945  0.4946  0.9900
  630TMC3    H2 9388   3.793   4.568  16.756 -2.4343  0.3633  2.6429
  630TMC3    C7 9389   3.735   4.419  16.974  0.3966  0.0442 -0.8184
  630TMC3    C8 9390   3.861   4.491  16.529 -0.1272 -0.2652 -0.1657
  630TMC3    O1 9391   3.759   4.539  17.000 -0.2125  0.3404  0.4514
  630TMC3    O2 9392   3.957   4.537  16.590 -0.1709 -0.6558 -0.2383
  631MPD2     C 9393   1.408   3.997  15.551  0.6667  0.4422 -0.2900
  631MPD2    C1 9394   1.504   4.055  15.477 -0.4195 -0.1933  0.0958
  631MPD2    C2 9395   1.642   4.035  15.510 -0.4366  0.6357 -0.5442
  631MPD2    C3 9396   1.679   3.961  15.625  0.3706 -0.1465  0.8214
  631MPD2    C4 9397   1.572   3.911  15.709 -0.6003 -0.3231  0.1848
  631MPD2    C5 9398   1.440   3.930  15.664  1.0772  0.1790  0.3146
  631MPD2     H 9399   1.724   4.079  15.454  2.2193 -1.2253  1.8684
  631MPD2    H1 9400   1.581   3.857  15.803 -0.2255  1.3458  1.0943
  631MPD2    H2 9401   1.307   4.006  15.514 -0.1228 -1.9036  1.2945
  631MPD2    H3 9402   1.358   3.896  15.726  1.7132 -2.6372 -0.3790
  631MPD2     N 9403   1.819   3.948  15.647  0.1858  0.4194  0.7931
  631MPD2    H5 9404   1.883   3.981  15.576 -0.9265 -1.5992 -1.1474
  631MPD2    N1 9405   1.467   4.121  15.357 -0.2047  0.1664 -0.1758
  631MPD2    H7 9406   1.372   4.111  15.325 -0.1584  0.8818 -0.5423
  632TMC3    C1 9407   1.475   4.284  15.176  0.5244  0.3849  0.6003
  632TMC3    C2 9408   1.344   4.313  15.185  0.3477 -0.2112  0.2703
  632TMC3    C3 9409   1.295   4.408  15.104  0.5903  0.0947  0.6921
  632TMC3    C4 9410   1.562   4.350  15.092 -0.3367 -0.3485 -0.4131
  632TMC3    C5 9411   1.514   4.449  15.016  0.8291 -0.0881 -0.9781
  632TMC3    C6 9412   1.384   4.489  15.026 -0.2606  0.2273 -0.3024
  632TMC3     C 9413   1.543   4.203  15.278  0.1423 -0.4163  0.5577
  632TMC3     O 9414   1.664   4.230  15.278 -0.0864 -0.3338 -0.3647
  632TMC3     H 9415   1.273   4.264  15.251  0.1525  1.0618  0.9961
  632TMC3    H1 9416   1.657   4.303  15.072  0.6974  0.2274  3.1068
  632TMC3    H2 9417   1.353   4.579  14.973  1.3182  0.1071 -1.4333
  632TMC3    C7 9418   1.618   4.518  14.933 -0.5196  0.3110 -0.4709
  632TMC3    C8 9419   1.159   4.456  15.132  0.4756 -0.1316  0.3793
  632TMC3    O1 9420   1.726   4.467  14.928 -0.1125  0.3408 -0.3358
  632TMC3    O2 9421   1.125   4.431  15.245  0.1279 -0.4137 -0.1090
  633MPD2     C 9422   1.541   2.321  17.623  0.1790 -0.0249 -0.4617
  633MPD2    C1 9423   1.530   2.224  17.529 -0.4265  0.7549 -0.5814
  633MPD2    C2 9424   1.497   2.096  17.566 -0.7179  0.5119  0.3395
  633MPD2    C3 9425   1.471   2.071  17.698 -0.9217 -0.5815  0.0236
  633MPD2    C4 9426   1.494   2.165   0.043 -0.1298 -0.3488  0.1058
  633MPD2    C5 9427   1.524   2.294  17.753  0.2621 -0.2437 -0.3346
  633MPD2     H 9428   1.488   2.019  17.490  0.1535  0.0883  0.6716
  633MPD2    H1 9429   1.484   2.140   0.148 -2.0397  0.4671  0.1181
  633MPD2    H2 9430   1.555   2.425  17.594  0.7059  0.0851  0.2031
  633MPD2    H3 9431   1.533   2.374   0.072 -1.3403  1.7124 -2.2759
  633MPD2     N 9432   1.453   1.937  17.744  0.3751 -0.4754 -0.1504
  633MPD2    H5 9433   1.448   1.922   0.090 -0.6447  0.8244 -0.0028
  633MPD2    N1 9434   1.563   2.247  17.398 -0.8650  0.1543  0.0576
  633MPD2    H7 9435   1.541   2.175  17.329 -0.6793 -1.7349  1.9522
  634TMC3    C1 9436   1.609   2.386  17.201  0.1846  0.9259  0.0812
  634TMC3    C2 9437   1.604   2.268  17.124  0.0238  0.5789  0.0966
  634TMC3    C3 9438   1.590   2.287  16.987  0.3346 -0.8752 -0.4051
  634TMC3    C4 9439   1.597   2.506  17.154  0.8040  0.7946 -0.4943
  634TMC3    C5 9440   1.591   2.526  17.020  0.3569 -0.0763 -0.6438
  634TMC3    C6 9441   1.582   2.418  16.935  0.4975  0.1568  0.2504
  634TMC3     C 9442   1.608   2.370  17.343 -0.5609  0.7746  0.5037
  634TMC3     O 9443   1.645   2.471  17.403  0.1126 -0.4126 -0.0323
  634TMC3     H 9444   1.606   2.168  17.166  3.7521  0.2924 -0.6943
  634TMC3    H1 9445   1.610   2.593  17.217 -1.4145 -0.2399  1.3958
  634TMC3    H2 9446   1.558   2.442  16.832 -2.3023 -0.5506  0.7314
  634TMC3    C7 9447   1.536   2.643  16.969 -0.5073  0.1307  0.6151
  634TMC3    C8 9448   1.592   2.177  16.898 -0.6458 -0.9755  0.5311
  634TMC3    O1 9449   1.543   2.670  16.852 -0.4436 -0.5144  0.2616
  634TMC3    O2 9450   1.578   2.063  16.949  0.3012 -0.5315  0.5155
  635TMC3    C1 9451   1.539   3.618  17.383  0.4570  0.3016 -0.0339
  635TMC3    C2 9452   1.657   3.542  17.385 -0.7426 -0.1081 -0.1108
  635TMC3    C3 9453   1.712   3.509  17.259  0.3518  0.1248  1.0070
  635TMC3    C4 9454   1.481   3.664  17.266  0.6203  0.1016 -0.7165
  635TMC3    C5 9455   1.542   3.630  17.148  0.2068  0.3143  0.1372
  635TMC3    C6 9456   1.650   3.550  17.139  0.3308  0.2640 -0.0758
  635TMC3     C 9457   1.471   3.662  17.507 -0.8412 -0.0862 -0.6976
  635TMC3     O 9458   1.409   3.768  17.507 -0.5101 -0.6101  0.1217
  635TMC3     H 9459   1.700   3.521  17.482 -0.5988  0.8520  0.0378
  635TMC3    H1 9460   1.384   3.712  17.265  0.4177 -0.2368  3.2336
  635TMC3    H2 9461   1.698   3.523  17.046  1.2997  0.1601  0.4611
  635TMC3    C7 9462   1.486   3.681  17.015  1.1415 -0.1818  0.0837
  635TMC3    C8 9463   1.786   3.383  17.251  0.2919 -0.2769  0.1126
  635TMC3    O1 9464   1.532   3.621  16.924 -0.0860 -0.4067 -0.6450
  635TMC3    O2 9465   1.825   3.344  17.142 -0.1743 -0.1633 -0.4545
  636MPD2     C 9466   2.655   2.467  16.054  0.0093  0.3453  0.4067
  636MPD2    C1 9467   2.620   2.460  16.183  0.0313 -0.5188 -0.1211
  636MPD2    C2 9468   2.652   2.350  16.260 -0.0012 -0.8157  0.1813
  636MPD2    C3 9469   2.728   2.243  16.208  0.0292 -0.1210 -0.4782
  636MPD2    C4 9470   2.766   2.252  16.076  0.0355  0.0046 -0.0859
  636MPD2    C5 9471   2.725   2.359  15.996 -0.3443  0.3692  0.4028
  636MPD2     H 9472   2.625   2.343  16.365  3.6808 -0.6076  1.1335
  636MPD2    H1 9473   2.828   2.174  16.034  0.5491 -0.3591  1.3221
  636MPD2    H2 9474   2.621   2.546  15.988 -0.0598 -0.7059 -0.8222
  636MPD2    H3 9475   2.749   2.377  15.891  2.3378 -2.6283  0.4911
  636MPD2     N 9476   2.755   2.133  16.292 -0.1636 -0.2251 -0.3766
  636MPD2    H5 9477   2.719   2.138  16.387  0.5662 -0.2069 -0.1005
  636MPD2    N1 9478   2.549   2.565  16.247  0.1586 -0.1877  0.0015
  636MPD2    H7 9479   2.516   2.552  16.342 -1.1705  1.6632 -0.2093
  637TMC3    C1 9480   2.812   1.906  16.350  0.3547 -0.2182 -0.2633
  637TMC3    C2 9481   2.736   1.922  16.463 -0.0951  0.4149  0.2702
  637TMC3    C3 9482   2.746   1.841  16.569  0.4331  0.4419  0.5015
  637TMC3    C4 9483   2.907   1.814  16.336 -0.0533 -0.6681 -0.4516
  637TMC3    C5 9484   2.907   1.725  16.441 -0.1259  0.8736 -0.1192
  637TMC3    C6 9485   2.839   1.738  16.561 -0.5448  0.0740 -0.2099
  637TMC3     C 9486   2.802   2.007  16.247  0.2555  0.3218 -0.6799
  637TMC3     O 9487   2.859   1.978  16.139  0.7854 -0.4761 -0.4535
  637TMC3     H 9488   2.661   2.000  16.476 -1.2016 -0.2215 -2.4581
  637TMC3    H1 9489   2.969   1.797  16.248  1.1502  0.3994  0.1922
  637TMC3    H2 9490   2.865   1.675  16.645 -2.3513  1.7010  1.5562
  637TMC3    C7 9491   3.021   1.634  16.425  0.1555  0.2674 -0.4606
  637TMC3    C8 9492   2.712   1.899  16.695 -1.6597  0.4325  0.2029
  637TMC3    O1 9493   3.003   1.566  16.326 -1.1373 -0.1478  0.1412
  637TMC3    O2 9494   2.659   2.011  16.702 -0.3528 -0.1674 -0.2197
  638MPD2     C 9495   2.367   1.525  14.890 -0.3568  0.2787 -0.3928
  638MPD2    C1 9496   2.447   1.455  14.804 -0.3529 -0.1020 -0.0542
  638MPD2    C2 9497   2.506   1.338  14.855 -0.2731 -1.0282  0.8547
  638MPD2    C3 9498   2.484   1.284  14.979 -0.3053  0.2197  0.7088
  638MPD2    C4 9499   2.411   1.364  15.067 -0.1960  0.0577  0.2475
  638MPD2    C5 9500   2.363   1.488  15.022 -0.1710  0.4592  0.1462
  638MPD2     H 9501   2.575   1.290  14.787 -0.7694 -1.0154  0.3438
  638MPD2    H1 9502   2.393   1.351  15.173 -0.4508 -0.9151  0.0823
  638MPD2    H2 9503   2.332   1.625  14.868 -2.4178  0.4736  3.5843
  638MPD2    H3 9504   2.298   1.542  15.089  0.5390  0.7431  0.6061
  638MPD2     N 9505   2.547   1.159  15.004  0.0838  0.3808 -0.1415
  638MPD2    H5 9506   2.591   1.102  14.933  0.6651  2.7191 -1.6558
  638MPD2    N1 9507   2.479   1.487  14.670  0.1251  0.0948  0.6769
  638MPD2    H7 9508   2.548   1.429  14.624  1.3725  1.0957  1.2823
  639TMC3    C1 9509   2.607   0.966  15.119  0.1946 -0.9880  0.9533
  639TMC3    C2 9510   2.515   0.865  15.094 -0.5284 -0.5850 -0.6494
  639TMC3    C3 9511   2.548   0.763  15.007  0.3087  0.3367 -0.2058
  639TMC3    C4 9512   2.732   0.962  15.063 -0.2277 -0.0614  0.5269
  639TMC3    C5 9513   2.765   0.857  14.981  0.1106  0.7364  0.6577
  639TMC3    C6 9514   2.681   0.754  14.958  0.7182  0.4863  0.1695
  639TMC3     C 9515   2.541   1.093  15.124 -0.0399 -0.3429  0.8466
  639TMC3     O 9516   2.472   1.121  15.223  0.4196 -0.1151 -1.0205
  639TMC3     H 9517   2.414   0.883  15.128 -0.2302  0.0297 -0.0861
  639TMC3    H1 9518   2.805   1.041  15.077 -0.6403  0.3137  0.5937
  639TMC3    H2 9519   2.711   0.666  14.903 -0.3476  0.2355  0.0039
  639TMC3    C7 9520   2.879   0.861  14.897 -0.6097  0.1069 -0.0156
  639TMC3    C8 9521   2.443   0.749  14.909 -0.0668 -0.1303 -0.5520
  639TMC3    O1 9522   2.887   0.760  14.826 -0.8019  0.1322 -0.2043
  639TMC3    O2 9523   2.476   0.783  14.795  0.5449 -0.1158  0.3673
  640MPD2     C 9524   4.111   0.536  10.005  0.3082  0.0870  0.5021
  640MPD2    C1 9525   4.041   0.467   9.914 -0.5271  0.2264  0.1501
  640MPD2    C2 9526   3.925   0.523   9.866 -0.5942  0.6929  0.1372
  640MPD2    C3 9527   3.891   0.653   9.896 -0.5848 -0.6216  0.4921
  640MPD2    C4 9528   3.976   0.730   9.966  0.4424 -0.0147  0.4544
  640MPD2    C5 9529   4.084   0.668  10.028  0.2101 -0.8045 -0.6518
  640MPD2     H 9530   3.859   0.472   9.797 -0.4702 -0.5587  0.9461
  640MPD2    H1 9531   3.947   0.832   9.992  0.4432  0.0337  0.2655
  640MPD2    H2 9532   4.194   0.487  10.054 -2.2964 -2.7020  2.0949
  640MPD2    H3 9533   4.143   0.724  10.099  0.2085 -0.6871 -0.7429
  640MPD2     N 9534   3.774   0.710   9.862  0.9687  0.4650  0.2300
  640MPD2    H5 9535   3.760   0.803   9.900 -2.6155  0.6426 -1.4778
  640MPD2    N1 9536   4.093   0.339   9.890 -0.4031 -0.0641  0.2822
  640MPD2    H7 9537   4.185   0.322   9.928 -0.0121  0.6374 -0.3545
  641TMC3    C1 9538   4.089   0.111   9.813 -0.0536  0.2048  0.4417
  641TMC3    C2 9539   4.203   0.095   9.885 -0.1089  0.1887  0.4411
  641TMC3    C3 9540   4.285   4.737   9.841 -0.4164 -1.0500 -0.5621
  641TMC3    C4 9541   4.051   0.028   9.717 -0.4955  0.0659  0.1581
  641TMC3    C5 9542   4.133   4.664   9.669  0.1513  0.4355  0.2072
  641TMC3    C6 9543   4.251   4.657   9.735  0.6483 -0.8887 -0.3004
  641TMC3     C 9544   4.029   0.247   9.809  0.2420  0.2126 -0.2991
  641TMC3     O 9545   3.924   0.261   9.742 -0.1128 -0.0418  0.2712
  641TMC3     H 9546   4.224   0.150   9.976 -1.1300  2.1908 -0.5452
  641TMC3    H1 9547   3.958   0.049   9.664  0.5957 -1.9172 -2.5158
  641TMC3    H2 9548   4.309   4.569   9.711  1.4437 -0.1859 -0.9253
  641TMC3    C7 9549   4.090   4.598   9.549  0.0273  0.8679  0.1651
  641TMC3    C8 9550   4.365   4.682   9.946 -0.2520  0.6990  0.2793
  641TMC3    O1 9551   3.999   4.642   9.478 -0.9113 -0.4572  0.0853
  641TMC3    O2 9552   4.388   4.565   9.918  0.2816 -0.3319 -0.3152
  642TMC3    C1 9553   3.980   1.413  12.542 -0.4247 -0.0122 -0.3526
  642TMC3    C2 9554   4.007   1.417  12.674  0.0266 -0.4185 -0.3725
  642TMC3    C3 9555   4.075   1.311  12.729  0.3754  0.9367  0.6700
  642TMC3    C4 9556   4.045   1.331  12.455  0.2385 -0.5349  0.1363
  642TMC3    C5 9557   4.120   1.224  12.513 -0.1530 -0.3278 -0.6993
  642TMC3    C6 9558   4.131   1.211  12.652  0.1914 -0.3309  0.1089
  642TMC3     C 9559   3.930   1.536  12.489 -0.1352  1.1326 -0.3831
  642TMC3     O 9560   3.944   1.552  12.370  0.4944 -0.3503 -0.3976
  642TMC3     H 9561   3.954   1.490  12.734  0.8696 -0.9332  0.9961
  642TMC3    H1 9562   4.030   1.349  12.349  1.5340 -2.4150 -0.3679
  642TMC3    H2 9563   4.183   1.131  12.703  2.2038  1.6438  1.1459
  642TMC3    C7 9564   4.148   1.106  12.432 -0.5695  0.7165 -0.1089
  642TMC3    C8 9565   4.061   1.276  12.870  0.3718  0.0422  0.0087
  642TMC3    O1 9566   4.125   1.116  12.313  0.4676  0.7257  0.0940
  642TMC3    O2 9567   4.075   1.154  12.895  0.2355  0.5285  0.0252
  643TMC3    C1 9568   3.202   0.209  17.568 -0.2260  0.5145 -0.1723
  643TMC3    C2 9569   3.119   0.303  17.513  0.9199  0.1352  0.1365
  643TMC3    C3 9570   3.010   0.250  17.444 -0.7060  0.6295  0.9327
  643TMC3    C4 9571   3.198   0.070  17.555  0.4114  0.5504  0.3413
  643TMC3    C5 9572   3.094   0.031  17.471 -0.0424 -0.0433 -0.0781
  643TMC3    C6 9573   2.994   0.108  17.435  0.0249  0.7232 -0.1151
  643TMC3     C 9574   3.280   0.256  17.690  0.2304  0.7403  0.1639
  643TMC3     O 9575   3.240   0.351   0.002  0.4155  0.2746 -0.1106
  643TMC3     H 9576   3.133   0.408  17.537 -2.4259  1.0592 -1.9745
  643TMC3    H1 9577   3.261   4.735  17.603 -1.9029  0.1733  2.8064
  643TMC3    H2 9578   2.901   0.070  17.393  0.2706  0.2664 -0.2427
  643TMC3    C7 9579   3.076   4.632  17.442 -0.1238 -0.4736 -0.6491
  643TMC3    C8 9580   2.948   0.325  17.339  0.1754 -0.0455  0.0305
  643TMC3    O1 9581   3.094   4.560  17.539 -0.1581  0.6019 -0.3127
  643TMC3    O2 9582   2.861   0.265  17.277 -0.1923 -0.3221  0.3277
  644MPD2     C 9583   4.094   0.722   9.631  0.2553  0.5489 -0.3079
  644MPD2    C1 9584   4.094   0.842   9.702 -0.5863  0.3721 -0.5120
  644MPD2    C2 9585   3.991   0.927   9.676  0.2172 -0.0800 -0.3718
  644MPD2    C3 9586   3.881   0.898   9.594  0.1422 -0.4590  0.3809
  644MPD2    C4 9587   3.890   0.774   9.525 -0.3339  0.3296  0.5240
  644MPD2    C5 9588   4.001   0.691   9.540  0.3669  0.3770 -0.2571
  644MPD2     H 9589   3.990   1.030   9.710  0.0700 -0.0472 -0.4732
  644MPD2    H1 9590   3.810   0.756   9.454 -0.5348  3.0433  0.0533
  644MPD2    H2 9591   4.184   0.661   9.626 -0.6416 -0.7477 -0.4552
  644MPD2    H3 9592   4.014   0.597   9.489 -1.4868  0.5563 -1.0525
  644MPD2     N 9593   3.779   0.987   9.575 -0.5588 -0.6329 -0.2662
  644MPD2    H5 9594   3.782   1.071   9.631  0.1863 -1.5746  1.0961
  644MPD2    N1 9595   4.217   0.880   9.771  0.0907  0.2378  1.0123
  644MPD2    H7 9596   4.293   0.814   9.776 -1.0888 -1.3657 -2.1196
  645TMC3    C1 9597   3.564   1.079   9.526 -0.2232  0.4336 -0.3406
  645TMC3    C2 9598   3.432   1.039   9.525  0.6244 -0.1572  0.3844
  645TMC3    C3 9599   3.345   1.117   9.600 -0.1350  0.3226  0.1518
  645TMC3    C4 9600   3.609   1.190   9.588  0.4566 -0.5818 -0.1760
  645TMC3    C5 9601   3.514   1.273   9.650 -0.6681  0.8252 -0.0216
  645TMC3    C6 9602   3.383   1.236   9.661 -0.6936  0.9792 -0.8576
  645TMC3     C 9603   3.660   0.970   9.501 -0.0165  0.0595  0.0364
  645TMC3     O 9604   3.628   0.873   9.433 -0.5299 -0.0324  0.1429
  645TMC3     H 9605   3.412   0.936   9.496 -1.2862  0.5167 -0.6859
  645TMC3    H1 9606   3.712   1.217   9.568  0.5928 -1.3393 -0.4926
  645TMC3    H2 9607   3.312   1.297   9.716 -0.7527  1.5377 -1.5579
  645TMC3    C7 9608   3.560   1.383   9.731  0.1569 -0.1829  0.1064
  645TMC3    C8 9609   3.230   1.051   9.659 -0.9304 -0.6448  0.0221
  645TMC3    O1 9610   3.670   1.432   9.702  0.4075  0.3024  0.9403
  645TMC3    O2 9611   3.196   1.084   9.774 -0.2541  0.4162 -0.4620
  646MPD2     C 9612   2.816   0.146  14.424  0.4061  0.1261  0.5822
  646MPD2    C1 9613   2.704   0.096  14.496  0.4581  0.4682  0.2915
  646MPD2    C2 9614   2.579   0.142  14.462  0.2836  0.8420 -0.3140
  646MPD2    C3 9615   2.563   0.228  14.357 -0.5005 -0.1797 -0.4170
  646MPD2    C4 9616   2.669   0.280  14.287 -0.3135  0.3158 -0.4874
  646MPD2    C5 9617   2.796   0.236  14.325 -0.4162 -0.2472  0.5703
  646MPD2     H 9618   2.495   0.104  14.518 -0.8175  0.2400 -2.4018
  646MPD2    H1 9619   2.656   0.360  14.215 -2.7959  1.1509  0.8765
  646MPD2    H2 9620   2.918   0.113  14.445  1.5234  3.8375  1.0360
  646MPD2    H3 9621   2.870   0.294  14.272  0.0484 -0.2123  1.2627
  646MPD2     N 9622   2.430   0.267  14.321  0.0294  0.6104 -0.8827
  646MPD2    H5 9623   2.356   0.250  14.389 -3.0165 -0.4331 -4.4332
  646MPD2    N1 9624   2.728   0.008  14.607  0.5132 -0.3365  0.0423
  646MPD2    H7 9625   2.825   4.717  14.604  0.9897  1.1370  1.0717
  647TMC3    C1 9626   2.702   4.626  14.808 -1.0368 -1.1923 -0.2502
  647TMC3    C2 9627   2.638   4.528  14.876  0.1782 -0.1516  0.7836
  647TMC3    C3 9628   2.711   4.446  14.960 -0.3507  0.1181  0.3159
  647TMC3    C4 9629   2.836   4.650  14.829  0.7490  0.3802  0.1206
  647TMC3    C5 9630   2.897   4.568  14.923 -0.5276 -0.1886 -0.9557
  647TMC3    C6 9631   2.838   4.463  14.990  0.1628  0.2366 -0.7037
  647TMC3     C 9632   2.635   4.687  14.693  0.8470  0.7706 -0.3904
  647TMC3     O 9633   2.513   4.696  14.684  0.3756 -0.3172 -0.9113
  647TMC3     H 9634   2.539   4.503  14.839  0.4233  0.2038 -0.1092
  647TMC3    H1 9635   2.877   0.007  14.799  1.0829  0.7493  1.7307
  647TMC3    H2 9636   2.887   4.408  15.069 -0.3344 -0.8824 -1.1702
  647TMC3    C7 9637   3.039   4.573  14.950  0.1330 -0.3382 -0.0474
  647TMC3    C8 9638   2.645   4.348  15.037  0.1624  0.1599  0.2923
  647TMC3    O1 9639   3.097   4.508  15.038 -0.5528  0.3289 -0.6421
  647TMC3    O2 9640   2.716   4.290  15.118  0.1588  1.0039  0.5408
  648TMC3    C1 9641   1.913   2.248  16.384  0.4224 -0.3073  0.1289
  648TMC3    C2 9642   1.944   2.121  16.349  0.1003  0.6263  0.1749
  648TMC3    C3 9643   1.934   2.091  16.220 -1.1889  0.3193 -0.9980
  648TMC3    C4 9644   1.853   2.331  16.289  0.0005  0.8140  0.7368
  648TMC3    C5 9645   1.833   2.285  16.162 -0.2010  0.2838  0.8699
  648TMC3    C6 9646   1.875   2.162  16.120 -0.2783 -0.3321 -0.3803
  648TMC3     C 9647   1.926   2.305  16.514  1.2122 -0.0216 -0.6231
  648TMC3     O 9648   1.888   2.423  16.525 -0.4387  0.2302  0.2460
  648TMC3     H 9649   2.012   2.064  16.410 -0.5501 -0.3215  0.0134
  648TMC3    H1 9650   1.841   2.437  16.311  0.0113  0.8026  0.7989
  648TMC3    H2 9651   1.849   2.126  16.021  0.4211 -0.3683 -0.5476
  648TMC3    C7 9652   1.754   2.365  16.070  0.1766  0.0755 -0.0606
  648TMC3    C8 9653   1.989   1.963  16.196  0.0562 -0.7653 -0.6684
  648TMC3    O1 9654   1.760   2.341  15.952 -0.1804 -0.0821 -0.0881
  648TMC3    O2 9655   1.953   1.874  16.275  0.6006 -0.0211  0.0056
  649TMC3    C1 9656   0.898   3.251  13.231 -0.4728  0.1512 -0.6721
  649TMC3    C2 9657   1.030   3.234  13.239 -0.6251 -0.3315 -0.1004
  649TMC3    C3 9658   1.079   3.172  13.354 -0.4667 -0.6680 -0.1977
  649TMC3    C4 9659   0.820   3.235  13.344 -0.8298  0.0274 -0.6570
  649TMC3    C5 9660   0.868   3.155  13.444  0.1015 -0.1840  0.3847
  649TMC3    C6 9661   1.002   3.126  13.455 -0.1033 -0.1448 -0.2562
  649TMC3     C 9662   0.837   3.308  13.111 -0.2050  0.7680  0.5069
  649TMC3     O 9663   0.727   3.344  13.127 -0.0012  0.0108  0.3461
  649TMC3     H 9664   1.086   3.291  13.166 -3.2255 -0.4082 -2.1762
  649TMC3    H1 9665   0.713   3.251  13.337 -0.9276 -0.3618 -0.0288
  649TMC3    H2 9666   1.053   3.103  13.547 -0.2117 -1.5312 -0.5368
  649TMC3    C7 9667   0.794   3.165  13.561 -0.0137  0.0965  0.1777
  649TMC3    C8 9668   1.223   3.174  13.379  0.2626 -0.7232  0.2609
  649TMC3    O1 9669   0.729   3.268  13.579 -0.5217 -0.3492  0.6804
  649TMC3    O2 9670   1.266   3.155  13.493  0.4250 -0.0717  0.3743
  650TMC3    C1 9671   3.537   0.677  12.826  0.7771  0.2950  0.5875
  650TMC3    C2 9672   3.471   0.774  12.895 -0.3981  0.0834 -0.2561
  650TMC3    C3 9673   3.522   0.902  12.892 -0.0765 -0.0346 -0.2037
  650TMC3    C4 9674   3.626   0.713  12.732 -0.1516  0.0384  0.3112
  650TMC3    C5 9675   3.676   0.842  12.729  0.6856 -0.3093 -0.5095
  650TMC3    C6 9676   3.625   0.938  12.812 -0.0214 -0.1533 -0.7376
  650TMC3     C 9677   3.541   0.542  12.888  0.6449  0.2445 -0.2411
  650TMC3     O 9678   3.475   0.528  12.991 -0.7696  0.8495  0.4379
  650TMC3     H 9679   3.392   0.749  12.964  1.2287  1.1718  2.0365
  650TMC3    H1 9680   3.673   0.652  12.656 -0.7490  0.0770 -0.0861
  650TMC3    H2 9681   3.662   1.039  12.817 -0.8225  0.0677  0.7502
  650TMC3    C7 9682   3.741   0.877  12.610 -0.6186  0.8002  0.3474
  650TMC3    C8 9683   3.439   1.012  12.931  0.5353  0.2281  0.3519
  650TMC3    O1 9684   3.774   0.790  12.535 -0.1216  0.1318 -0.1555
  650TMC3    O2 9685   3.498   1.118  12.943 -0.4536  0.0446  0.3617
  651MPD2     C 9686   2.239   2.462  10.511  0.8892 -0.0220  0.0860
  651MPD2    C1 9687   2.273   2.575  10.587  0.1259  0.0186 -0.2109
  651MPD2    C2 9688   2.390   2.635  10.547  0.0281 -0.3778  0.8892
  651MPD2    C3 9689   2.483   2.580  10.461 -0.1562  0.0313  0.2982
  651MPD2    C4 9690   2.435   2.472  10.383  0.0501 -0.2493 -0.7990
  651MPD2    C5 9691   2.320   2.411  10.418  0.2003 -0.7638  0.2430
  651MPD2     H 9692   2.410   2.730  10.596 -0.9542 -0.2043  0.9569
  651MPD2    H1 9693   2.497   2.439  10.300  2.2975  1.1552  0.3160
  651MPD2    H2 9694   2.144   2.410  10.523  0.2235  0.9209 -1.0186
  651MPD2    H3 9695   2.301   2.317  10.367  1.6954  0.4237 -2.4559
  651MPD2     N 9696   2.603   2.645  10.459 -0.3694 -0.1407  0.1130
  651MPD2    H5 9697   2.624   2.725  10.517  0.8503 -1.0049  0.8806
  651MPD2    N1 9698   2.182   2.639  10.679 -0.6692 -0.3124 -0.2632
  651MPD2    H7 9699   2.218   2.722  10.725 -0.5991 -0.0050 -0.8710
  652TMC3    C1 9700   3.068   2.659  10.424 -0.1184 -0.4778  0.2002
  652TMC3    C2 9701   2.949   2.642  10.353 -0.0845  0.2247  0.0700
  652TMC3    C3 9702   2.834   2.699  10.404 -0.2376 -1.0522  0.4093
  652TMC3    C4 9703   3.072   2.736  10.532  0.0061  0.2635 -0.5230
  652TMC3    C5 9704   2.958   2.799  10.574 -0.3987  0.0085  0.2927
  652TMC3    C6 9705   2.835   2.784  10.512  0.0918 -0.4971 -0.1928
  652TMC3     C 9706   3.197   2.596  10.394  0.0120 -0.2747  0.1802
  652TMC3     O 9707   3.257   2.556  10.496  0.0651  0.4368  0.0662
  652TMC3     H 9708   2.938   2.555  10.289  1.1896  2.4596 -3.2018
  652TMC3    H1 9709   3.158   2.742  10.597  1.1521 -0.1812 -2.0117
  652TMC3    H2 9710   2.747   2.817  10.565  1.3295 -0.1344  1.6506
  652TMC3    C7 9711   2.964   2.890  10.687 -0.8122  0.1994 -0.3569
  652TMC3    C8 9712   2.708   2.613  10.381  0.7785  0.6587 -0.0676
  652TMC3    O1 9713   2.869   2.906  10.759 -0.3599 -0.6604  0.1481
  652TMC3    O2 9714   2.725   2.520  10.306 -0.3167 -0.2767 -0.4929
  653MPD2     C 9715   1.174   2.268   0.073 -0.7816 -0.4401 -0.1652
  653MPD2    C1 9716   1.138   2.383   0.012 -0.0723 -0.3514 -0.0180
  653MPD2    C2 9717   1.053   2.381  17.660  0.6870  0.5079  0.1261
  653MPD2    C3 9718   1.010   2.266  17.608  0.0223  0.2584  0.4884
  653MPD2    C4 9719   1.033   2.143  17.674 -1.0285  0.1408  0.4267
  653MPD2    C5 9720   1.117   2.144   0.028  0.2562 -0.0911  0.0566
  653MPD2     H 9721   1.024   2.473  17.611 -0.4380  0.1929  0.1976
  653MPD2    H1 9722   1.000   2.045  17.642  0.6016  0.9304 -3.7089
  653MPD2    H2 9723   1.245   2.265   0.155  0.3864 -1.9126 -1.2569
  653MPD2    H3 9724   1.149   2.052   0.074 -1.1139  0.9790  3.1351
  653MPD2     N 9725   0.930   2.278  17.492  0.4197 -0.2352  0.0207
  653MPD2    H5 9726   0.913   2.371  17.454  0.8885 -0.7224 -1.3688
  653MPD2    N1 9727   1.181   2.510   0.054 -0.5034 -0.0088 -0.9799
  653MPD2    H7 9728   1.149   2.582  17.744 -3.1420 -0.2856 -0.0103
  654TMC3    C1 9729   0.830   2.215  17.286  0.2731 -0.3927  0.5510
  654TMC3    C2 9730   0.874   2.324  17.213  0.1965  0.3775  0.4468
  654TMC3    C3 9731   0.819   2.351  17.095 -0.0941  0.5684  0.4266
  654TMC3    C4 9732   0.756   2.118  17.226 -0.5916 -0.7226  0.0355
  654TMC3    C5 9733   0.700   2.145  17.105  0.0717  0.1856  1.0736
  654TMC3    C6 9734   0.729   2.265  17.041  0.4625 -0.3271 -0.4507
  654TMC3     C 9735   0.889   2.180  17.410  0.7182 -0.0904  0.0932
  654TMC3     O 9736   0.908   2.061  17.427 -0.1482 -0.0184 -0.0916
  654TMC3     H 9737   0.947   2.395  17.252 -0.3471  1.5451 -0.6821
  654TMC3    H1 9738   0.747   2.024  17.278  0.2971 -0.3389  0.8814
  654TMC3    H2 9739   0.684   2.277  16.944 -0.7829  1.6964  0.3808
  654TMC3    C7 9740   0.670   2.028  17.022  0.1957 -0.5823  0.2045
  654TMC3    C8 9741   0.829   2.481  17.038  0.9900  0.2317 -0.1463
  654TMC3    O1 9742   0.626   2.069  16.915 -0.6571  0.0944  0.1816
  654TMC3    O2 9743   0.824   2.579  17.109  0.0581  0.2433 -0.1535
  655MPD2     C 9744   2.425   2.416  15.786  1.1279 -0.2396  0.0819
  655MPD2    C1 9745   2.400   2.533  15.713  0.2473  0.1099 -0.4346
  655MPD2    C2 9746   2.474   2.565  15.603  0.2814  0.2871 -0.0198
  655MPD2    C3 9747   2.556   2.472  15.547 -0.2900  0.1254  0.7719
  655MPD2    C4 9748   2.578   2.357  15.615 -0.5456  1.0364 -0.3543
  655MPD2    C5 9749   2.512   2.326  15.734 -0.4692  0.3398 -0.5260
  655MPD2     H 9750   2.448   2.655  15.548  1.2461 -0.3881 -1.5626
  655MPD2    H1 9751   2.654   2.290  15.576 -2.0777 -0.3072 -1.0060
  655MPD2    H2 9752   2.377   2.397  15.881  0.9885  0.6634  0.1875
  655MPD2    H3 9753   2.539   2.232  15.780  1.3770 -0.7207 -3.7836
  655MPD2     N 9754   2.618   2.486  15.420  0.7814 -0.3021 -0.5931
  655MPD2    H5 9755   2.662   2.402  15.384 -1.5082 -0.2996 -3.4042
  655MPD2    N1 9756   2.315   2.629  15.768 -0.0520 -0.0338 -0.3062
  655MPD2    H7 9757   2.345   2.724  15.747 -0.2345 -0.1399 -1.0670
  656TMC3    C1 9758   2.161   2.720  15.914  0.2097 -0.6207  0.3106
  656TMC3    C2 9759   2.103   2.693  16.036 -0.3154  0.4279 -0.7871
  656TMC3    C3 9760   1.992   2.770  16.069  0.2073  0.5275  0.2031
  656TMC3    C4 9761   2.101   2.811  15.825 -0.9864 -0.6560  0.0081
  656TMC3    C5 9762   1.985   2.877  15.863 -0.3497  0.8940 -0.0958
  656TMC3    C6 9763   1.926   2.855  15.984 -0.1501  0.1334  0.2438
  656TMC3     C 9764   2.224   2.605  15.867  0.3319 -0.1509 -0.0944
  656TMC3     O 9765   2.178   2.497  15.907  0.0272 -0.1143 -0.1628
  656TMC3     H 9766   2.157   2.624  16.100  0.5678 -0.9497 -2.9953
  656TMC3    H1 9767   2.135   2.821  15.722  1.2936 -0.0752  0.8158
  656TMC3    H2 9768   1.829   2.893  16.014 -0.5503 -0.3023 -0.5061
  656TMC3    C7 9769   1.885   2.896  15.755 -0.0977 -0.1434  0.2583
  656TMC3    C8 9770   1.937   2.746  16.201  0.6886  0.2082  0.0016
  656TMC3    O1 9771   1.913   2.843  15.649 -0.5921  0.3236  0.4696
  656TMC3    O2 9772   1.957   2.633  16.252 -0.3500 -0.3303  0.2432
  657TMC3    C1 9773   1.094   1.814  15.234  0.1412  0.4066 -0.2668
  657TMC3    C2 9774   1.169   1.847  15.343  0.3585  0.4503  0.7379
  657TMC3    C3 9775   1.180   1.984  15.369  0.4159  0.4435 -0.7913
  657TMC3    C4 9776   1.046   1.912  15.151 -0.1880 -0.3833  0.4094
  657TMC3    C5 9777   1.064   2.048  15.177  0.4064 -0.4776  0.0954
  657TMC3    C6 9778   1.131   2.082  15.293  0.5286  0.4768 -0.3536
  657TMC3     C 9779   1.083   1.678  15.202 -0.1468  0.8392  0.7062
  657TMC3     O 9780   0.988   1.647  15.132 -0.2166  0.3480  0.0048
  657TMC3     H 9781   1.201   1.774  15.417  0.2527 -0.2780  0.0648
  657TMC3    H1 9782   0.995   1.886  15.059 -1.3492  0.1005  0.9168
  657TMC3    H2 9783   1.139   2.186  15.322  0.7920  0.3132  0.1681
  657TMC3    C7 9784   0.998   2.157  15.101 -0.1426 -0.2708 -0.5793
  657TMC3    C8 9785   1.222   2.029  15.501  0.1563  0.1913 -0.3473
  657TMC3    O1 9786   0.899   2.120  15.032 -0.0254  0.4771 -0.1175
  657TMC3    O2 9787   1.149   2.117  15.549 -0.0452 -0.4250  0.3315
  658MPD2     C 9788   2.968   2.851  14.830  0.6329 -0.4715 -0.4979
  658MPD2    C1 9789   2.888   2.746  14.791 -0.6722 -0.4088 -0.0006
  658MPD2    C2 9790   2.858   2.739  14.656 -0.0081 -0.2617  0.3438
  658MPD2    C3 9791   2.916   2.827  14.566 -0.4220 -0.0085  0.4784
  658MPD2    C4 9792   3.003   2.925  14.605  0.3202  0.3144  0.4312
  658MPD2    C5 9793   3.029   2.941  14.745  0.4280 -0.5171  0.5753
  658MPD2     H 9794   2.783   2.672  14.615  0.4947 -0.2170 -0.6555
  658MPD2    H1 9795   3.035   3.003  14.537 -0.6443 -0.3446 -0.7647
  658MPD2    H2 9796   2.995   2.861  14.935 -0.9780 -2.2843  0.0776
  658MPD2    H3 9797   3.097   3.020  14.774 -1.9630  1.5478  0.6524
  658MPD2     N 9798   2.870   2.810  14.430  0.5392 -0.2304  0.0504
  658MPD2    H5 9799   2.799   2.738  14.422  0.7646 -0.4187 -0.2742
  658MPD2    N1 9800   2.826   2.672  14.889  0.4293 -0.1046  0.0633
  658MPD2    H7 9801   2.858   2.685  14.984  1.5674 -1.0024 -0.1967
  659TMC3    C1 9802   2.651   2.533  14.981 -0.1858  0.2472  0.1776
  659TMC3    C2 9803   2.674   2.572  15.110  0.0040  0.1615 -0.1210
  659TMC3    C3 9804   2.581   2.532  15.202 -0.2262  0.1017  0.1214
  659TMC3    C4 9805   2.533   2.462  14.943  0.1970  0.3963  0.4870
  659TMC3    C5 9806   2.447   2.430  15.050 -0.2858  0.1757 -0.6791
  659TMC3    C6 9807   2.467   2.461  15.176 -0.1557 -0.1045  0.4840
  659TMC3     C 9808   2.727   2.578  14.860 -0.2534  0.1146 -0.0303
  659TMC3     O 9809   2.697   2.526  14.754 -0.1170 -0.0385  0.0945
  659TMC3     H 9810   2.749   2.642  15.145  0.0405 -0.2199  0.5649
  659TMC3    H1 9811   2.520   2.430  14.840 -0.2430 -3.4086  1.7081
  659TMC3    H2 9812   2.397   2.433  15.254 -0.3383 -1.1105 -0.0366
  659TMC3    C7 9813   2.313   2.394  15.019  0.2251 -0.4846  0.1503
  659TMC3    C8 9814   2.596   2.585  15.333 -0.5186 -0.3183  0.4618
  659TMC3    O1 9815   2.236   2.412  15.114  0.4542 -0.2984  0.0464
  659TMC3    O2 9816   2.592   2.704  15.355 -0.1508 -0.3802 -0.8093
  660MPD2     C 9817   0.608   1.165  12.804 -0.6098 -0.6281 -0.7537
  660MPD2    C1 9818   0.483   1.221  12.784  0.4454  0.0193 -0.2304
  660MPD2    C2 9819   0.399   1.215  12.897  0.0768  0.5623 -0.7014
  660MPD2    C3 9820   0.440   1.159  13.015  0.3225  0.3108 -0.0538
  660MPD2    C4 9821   0.560   1.091  13.017  0.0042  0.0043 -0.3015
  660MPD2    C5 9822   0.642   1.092  12.910 -0.0998 -0.3727 -0.6545
  660MPD2     H 9823   0.298   1.253  12.888 -0.4180 -1.0610 -1.9447
  660MPD2    H1 9824   0.593   1.035  13.104 -0.7091 -0.1530 -0.1316
  660MPD2    H2 9825   0.683   1.159  12.726 -0.7706  0.3080 -0.9806
  660MPD2    H3 9826   0.739   1.044  12.912 -0.1064 -0.4362 -1.7416
  660MPD2     N 9827   0.372   1.166  13.136 -0.3889  0.1581 -0.0017
  660MPD2    H5 9828   0.411   1.114  13.213  0.3419 -0.0491 -0.5128
  660MPD2    N1 9829   0.449   1.274  12.661 -0.3482  0.0242  0.2382
  660MPD2    H7 9830   0.522   1.266  12.592 -0.1743 -2.4024  0.7026
  661TMC3    C1 9831   0.332   1.385  12.474 -0.1422  0.3534 -0.0169
  661TMC3    C2 9832   0.407   1.322  12.382  0.0558  0.5151 -0.5205
  661TMC3    C3 9833   0.370   1.350  12.250  0.3133  0.1253 -0.9987
  661TMC3    C4 9834   0.233   1.474  12.447 -0.1541 -0.0521 -0.0758
  661TMC3    C5 9835   0.202   1.490  12.317 -0.5069  0.2806  0.6433
  661TMC3    C6 9836   0.266   1.431  12.215 -0.1815  0.1078  0.2709
  661TMC3     C 9837   0.332   1.336  12.616 -0.7038  0.8648  0.2054
  661TMC3     O 9838   0.241   1.366  12.691  0.0095  0.4670 -0.4973
  661TMC3     H 9839   0.490   1.256  12.403 -0.8120 -1.2177 -2.4997
  661TMC3    H1 9840   0.166   1.513  12.523  0.8106  0.2509  0.6169
  661TMC3    H2 9841   0.237   1.442  12.111 -1.6929  1.5664  0.8475
  661TMC3    C7 9842   0.106   1.596  12.285 -0.2499 -0.3343 -0.6088
  661TMC3    C8 9843   0.458   1.309  12.139 -0.1627  0.7929  0.3220
  661TMC3    O1 9844   0.095   1.687  12.367  0.2749 -0.9246 -0.1366
  661TMC3    O2 9845   0.530   1.211  12.153 -0.2841 -0.4775  0.0150
  662MPD2     C 9846   0.764   1.030   0.703  0.6539 -0.5572  0.0854
  662MPD2    C1 9847   0.712   0.936   0.618 -0.3395  0.1511 -0.4934
  662MPD2    C2 9848   0.599   0.966   0.544 -1.7563  0.3412  0.3115
  662MPD2    C3 9849   0.535   1.083   0.564 -0.1969 -0.2906 -0.6519
  662MPD2    C4 9850   0.580   1.172   0.653 -0.3374 -1.3895  0.2194
  662MPD2    C5 9851   0.696   1.150   0.718  0.1460  0.5174  0.0911
  662MPD2     H 9852   0.567   0.897   0.467  0.2707  0.8230 -0.9582
  662MPD2    H1 9853   0.526   1.264   0.676  1.4367 -0.9815  2.6363
  662MPD2    H2 9854   0.850   1.015   0.767  0.3369 -1.6340  0.2470
  662MPD2    H3 9855   0.741   1.226   0.781  0.4367  2.1549 -2.1423
  662MPD2     N 9856   0.419   1.118   0.487  0.3161  0.0059  0.0337
  662MPD2    H5 9857   0.392   1.215   0.492  0.2177  0.0690 -1.8680
  662MPD2    N1 9858   0.765   0.809   0.599 -0.0356 -0.7465 -0.1729
  662MPD2    H7 9859   0.733   0.748   0.525  1.6276 -2.3599  0.4502
  663TMC3    C1 9860   0.925   0.642   0.605 -0.6128  0.0150 -0.3431
  663TMC3    C2 9861   0.970   0.542   0.680 -1.0954 -0.1014 -0.2551
  663TMC3    C3 9862   1.062   0.458   0.629  0.3060  0.4523  0.8649
  663TMC3    C4 9863   0.928   0.647   0.468 -0.3292  0.1834  0.0676
  663TMC3    C5 9864   0.983   0.532   0.412 -0.5425 -0.4136 -0.2147
  663TMC3    C6 9865   1.035   0.432   0.490  0.3148 -0.1812 -0.1958
  663TMC3     C 9866   0.869   0.759   0.674  0.2700  0.2264 -0.0067
  663TMC3     O 9867   0.907   0.795   0.786 -0.5170  0.4738 -0.1567
  663TMC3     H 9868   0.994   0.564   0.784  1.8763 -1.7288 -0.5925
  663TMC3    H1 9869   0.893   0.734   0.414  0.4942 -0.2575 -1.1690
  663TMC3    H2 9870   1.100   0.361   0.440  0.5130  0.4007 -0.7633
  663TMC3    C7 9871   0.980   0.541   0.266 -0.2092 -0.1975 -0.1337
  663TMC3    C8 9872   1.079   0.346   0.718  0.1906  0.1892  0.0217
  663TMC3    O1 9873   0.961   0.645   0.206 -0.9854  0.3517 -0.1131
  663TMC3    O2 9874   1.101   0.372   0.832 -0.0297  0.3834  0.1790
  664MPD2     C 9875   3.414   3.967  17.116  0.4645  0.3971  0.0625
  664MPD2    C1 9876   3.447   4.046  17.226  0.9658 -0.5775 -0.3482
  664MPD2    C2 9877   3.517   3.989  17.323 -0.3029  0.9646 -0.4538
  664MPD2    C3 9878   3.554   3.854  17.328  0.2873 -0.3557  0.1603
  664MPD2    C4 9879   3.517   3.770  17.217  0.5860  0.4391 -0.0108
  664MPD2    C5 9880   3.450   3.834  17.115 -0.0202 -0.8721  0.1025
  664MPD2     H 9881   3.552   4.053  17.403 -0.8043 -0.7818  1.1700
  664MPD2    H1 9882   3.538   3.665  17.203  0.3572  0.4603 -0.5216
  664MPD2    H2 9883   3.370   4.006  17.025 -1.4918  1.0670  1.3008
  664MPD2    H3 9884   3.449   3.769  17.028  2.1471 -0.2979 -0.3578
  664MPD2     N 9885   3.614   3.813  17.443 -0.0899 -0.0997  0.0340
  664MPD2    H5 9886   3.621   3.881  17.517  3.7496 -0.6233  0.1384
  664MPD2    N1 9887   3.419   4.180  17.243  0.2272  0.8812  0.6068
  664MPD2    H7 9888   3.450   4.217  17.332  1.0085  0.5898  0.4546
  665TMC3    C1 9889   3.677   3.666  17.614  0.9379  0.6208  0.2438
  665TMC3    C2 9890   3.569   3.628  17.692  0.6198 -0.0228  0.1410
  665TMC3    C3 9891   3.571   3.668   0.070  0.1100 -0.1765 -0.9726
  665TMC3    C4 9892   3.754   3.766  17.650 -0.0731 -0.1676 -0.1277
  665TMC3    C5 9893   3.730   3.829   0.018 -0.2400  0.5819 -0.4237
  665TMC3    C6 9894   3.658   3.760   0.114 -0.4123 -0.1804  0.0381
  665TMC3     C 9895   3.630   3.676  17.481  0.4743 -0.9626 -0.3679
  665TMC3     O 9896   3.591   3.577  17.417  0.1860 -0.3720 -0.6300
  665TMC3     H 9897   3.503   3.549  17.657  0.8456 -0.8653  1.6111
  665TMC3    H1 9898   3.832   3.808  17.587 -0.8791 -0.1049 -1.0815
  665TMC3    H2 9899   3.651   3.807   0.212  2.4885 -0.2894  0.3045
  665TMC3    C7 9900   3.689   3.969  17.749  0.2674  0.0880 -0.4915
  665TMC3    C8 9901   3.459   3.645   0.153 -0.1750 -0.8081 -0.8085
  665TMC3    O1 9902   3.653   4.008  17.637 -0.6690  0.2133  0.2625
  665TMC3    O2 9903   3.485   3.678   0.267  0.3463  0.1080  0.2456
  666TMC3    C1 9904   3.417   4.037  10.045 -0.9207 -0.8056 -0.0227
  666TMC3    C2 9905   3.499   3.966  10.126 -0.0753 -0.1450  0.1346
  666TMC3    C3 9906   3.554   4.028  10.230 -0.1947 -0.0537 -0.3591
  666TMC3    C4 9907   3.383   4.166  10.065  0.0643 -0.3023  0.4307
  666TMC3    C5 9908   3.450   4.226  10.166 -0.2788 -0.4853  0.4463
  666TMC3    C6 9909   3.541   4.166  10.246 -0.6616  0.1371 -0.6908
  666TMC3     C 9910   3.299   3.959   9.989 -0.7307  1.0401  0.2347
  666TMC3     O 9911   3.254   3.982   9.878  0.6649 -0.0107  0.1537
  666TMC3     H 9912   3.520   3.863  10.101  1.5837  0.4623 -1.0355
  666TMC3    H1 9913   3.294   4.201  10.015  0.3403  0.3875  0.4167
  666TMC3    H2 9914   3.572   4.218  10.337  0.6767 -1.4571 -0.2276
  666TMC3    C7 9915   3.393   4.349  10.219 -0.1192 -0.0713  0.1412
  666TMC3    C8 9916   3.634   3.943  10.317 -0.8937  0.1672 -0.4394
  666TMC3    O1 9917   3.368   4.345  10.336  0.4029  0.5287  0.4369
  666TMC3    O2 9918   3.630   3.824  10.303 -0.2125 -0.3040 -0.4633
  667MPD2     C 9919   4.404   4.249  14.354  0.6493 -0.1633 -0.4334
  667MPD2    C1 9920   4.334   4.240  14.476 -0.1799  0.4137  0.0058
  667MPD2    C2 9921   4.233   4.146  14.479 -0.5128 -0.2629  0.3830
  667MPD2    C3 9922   4.192   4.081  14.367 -0.6447 -0.2379 -0.0735
  667MPD2    C4 9923   4.257   4.104  14.248 -0.8987  0.4556  0.7587
  667MPD2    C5 9924   4.362   4.190  14.234  0.0133  0.6391 -1.0707
  667MPD2     H 9925   4.177   4.134  14.571 -0.5166  1.2516  0.5840
  667MPD2    H1 9926   4.222   4.054  14.158 -0.8533  0.1574  0.9066
  667MPD2    H2 9927   4.495   4.308  14.354  0.2375  0.4997  1.2559
  667MPD2    H3 9928   4.421   4.194  14.144  1.6425 -1.0081 -0.0759
  667MPD2     N 9929   4.092   3.985  14.364 -0.1077  0.3504 -0.4114
  667MPD2    H5 9930   4.078   3.944  14.272  0.1955 -0.5302 -0.0567
  667MPD2    N1 9931   4.368   4.307  14.593  0.1219 -0.3564  0.2549
  667MPD2    H7 9932   4.300   4.302  14.668 -1.5090 -0.9635 -1.2658
  668TMC3    C1 9933   4.477   4.471  14.733  0.4840  0.9032  0.1257
  668TMC3    C2 9934   4.543   4.592  14.727  0.3818  0.6351  0.0419
  668TMC3    C3 9935   4.572   4.654  14.846 -0.1536  0.9774  0.0107
  668TMC3    C4 9936   4.432   4.412  14.846 -0.4936 -0.2098 -0.0309
  668TMC3    C5 9937   4.463   4.476  14.961 -0.5359 -0.7972  0.4400
  668TMC3    C6 9938   4.535   4.598  14.967  0.2935  0.5187  0.1021
  668TMC3     C 9939   4.467   4.400  14.606  0.4006 -0.4178 -0.2833
  668TMC3     O 9940   4.566   4.415  14.539 -0.7373 -0.1741 -0.3106
  668TMC3     H 9941   4.574   4.642  14.636  1.1460  2.0422  1.0658
  668TMC3    H1 9942   4.382   4.316  14.840  0.1146 -0.6360  1.5610
  668TMC3    H2 9943   4.565   4.649  15.058  0.3437  0.5937  0.0435
  668TMC3    C7 9944   4.439   4.424  15.091  0.2006  0.3087 -0.0336
  668TMC3    C8 9945   4.633   0.039  14.833  0.5978 -0.2751 -0.0663
  668TMC3    O1 9946   4.500   4.479  15.184 -0.6371  0.2815  0.3195
  668TMC3    O2 9947   4.610   0.115  14.922 -0.6013  0.5203  0.7322
  669TMC3    C1 9948   2.649   3.974  14.916  0.6209 -0.7306  0.1786
  669TMC3    C2 9949   2.561   3.993  14.807 -0.2003  0.2169 -0.2819
  669TMC3    C3 9950   2.605   4.074  14.708  1.2615 -0.3922 -0.2699
  669TMC3    C4 9951   2.771   4.031  14.922  1.0319  0.1105 -0.0105
  669TMC3    C5 9952   2.804   4.122  14.824  0.3032 -0.4980  0.2027
  669TMC3    C6 9953   2.719   4.150  14.720 -0.0426 -0.3637 -0.2544
  669TMC3     C 9954   2.618   3.862  15.002  0.2303  0.7946  0.1556
  669TMC3     O 9955   2.507   3.825  15.004  0.4880  0.2734  0.2444
  669TMC3     H 9956   2.467   3.939  14.802 -0.8612  1.3951 -0.5424
  669TMC3    H1 9957   2.830   4.019  15.011  0.7795 -0.8375  0.0321
  669TMC3    H2 9958   2.751   4.220  14.644 -2.7755 -0.6086 -1.6164
  669TMC3    C7 9959   2.938   4.187  14.816  0.3963 -0.2258 -0.3612
  669TMC3    C8 9960   2.531   4.073  14.586  0.1984  0.6534  0.6766
  669TMC3    O1 9961   2.941   4.288  14.751 -0.1499  0.2906  0.0593
  669TMC3    O2 9962   2.445   3.981  14.584 -0.3176 -0.3792  0.1780
  670MPD2     C 9963   1.032   2.010  13.534 -0.4081 -0.6744  0.4002
  670MPD2    C1 9964   1.084   2.039  13.658 -0.4891 -0.6281  0.3292
  670MPD2    C2 9965   1.008   2.021  13.768  0.1865  0.0692 -0.1239
  670MPD2    C3 9966   0.878   1.991  13.759  0.1800  0.1159 -0.0075
  670MPD2    C4 9967   0.827   1.957  13.639  0.0039 -0.1735  0.5726
  670MPD2    C5 9968   0.898   1.977  13.528 -0.1659  0.4302 -0.0710
  670MPD2     H 9969   1.046   2.034  13.869 -0.2750  0.4806 -0.0028
  670MPD2    H1 9970   0.722   1.928  13.637  0.0748 -0.3767 -0.6455
  670MPD2    H2 9971   1.091   2.013  13.443 -0.7458  0.6373  0.2277
  670MPD2    H3 9972   0.853   1.956  13.432 -0.7273 -1.5811  0.6212
  670MPD2     N 9973   0.811   1.973  13.880 -0.2669  0.2240 -0.4437
  670MPD2    H5 9974   0.848   2.019  13.963  2.5009 -0.0635 -1.5334
  670MPD2    N1 9975   1.217   2.061  13.689 -0.5141 -0.2776 -0.4150
  670MPD2    H7 9976   1.230   2.089  13.785 -2.2864 -0.6805 -0.0460
  671TMC3    C1 9977   0.668   1.860  14.033 -0.0066 -0.2867 -0.5939
  671TMC3    C2 9978   0.777   1.805  14.099  0.8175 -0.2171 -0.3377
  671TMC3    C3 9979   0.762   1.680  14.149  0.0688 -0.6890  0.3977
  671TMC3    C4 9980   0.549   1.803  14.046  0.0404  0.4218  0.2197
  671TMC3    C5 9981   0.532   1.682  14.100  0.6253 -0.2020  0.1304
  671TMC3    C6 9982   0.645   1.626  14.153  0.3023  0.6602  0.3422
  671TMC3     C 9983   0.693   1.908  13.899  0.7403 -0.1885  0.7985
  671TMC3     O 9984   0.623   1.839  13.827  0.3370 -0.2426 -0.5154
  671TMC3     H 9985   0.877   1.837  14.071  0.0066 -0.9631 -4.0660
  671TMC3    H1 9986   0.465   1.852  13.999  2.1124  0.6394 -3.2932
  671TMC3    H2 9987   0.627   1.532  14.204  1.2007  0.0896 -0.4033
  671TMC3    C7 9988   0.437   1.603  14.022 -0.0656 -0.3296  0.3443
  671TMC3    C8 9989   0.872   1.604  14.201 -0.3355 -0.0616  0.5002
  671TMC3    O1 9990   0.477   1.500  13.970 -0.1326 -0.1533  0.2870
  671TMC3    O2 9991   0.964   1.672  14.246  0.2607  0.5402 -0.2421
  672MPD2     C 9992   0.443   2.302   1.408 -0.2427  0.9405 -0.1842
  672MPD2    C1 9993   0.559   2.230   1.403  1.0407 -1.0012  0.1805
  672MPD2    C2 9994   0.668   2.267   1.486 -0.1677 -0.3127  0.2977
  672MPD2    C3 9995   0.666   2.388   1.557  0.9910  0.1264  0.4130
  672MPD2    C4 9996   0.556   2.469   1.551 -0.2387 -0.1210  0.5083
  672MPD2    C5 9997   0.449   2.413   1.488  0.0361  0.4542  0.2883
  672MPD2     H 9998   0.749   2.195   1.487  1.0522  1.0662  0.2134
  672MPD2    H1 9999   0.542   2.566   1.598  0.7698 -0.6991  2.0136
  672MPD2    H210000   0.357   2.284   1.344 -0.5776  1.1722  0.1994
  672MPD2    H310001   0.360   2.474   1.476 -0.8327 -0.7286  0.7601
  672MPD2     N10002   0.785   2.443   1.613  0.0451 -0.7745 -0.1081
  672MPD2    H510003   0.777   2.541   1.638 -1.9677 -0.4271 -2.2177
  672MPD2    N110004   0.574   2.111   1.332 -0.3495 -0.2275  0.4785
  672MPD2    H710005   0.664   2.065   1.329  0.3185  1.1455  0.0824
  673TMC3    C110006   0.520   1.939   1.192  0.0285  0.1920  0.2708
  673TMC3    C210007   0.525   1.843   1.285 -0.2986 -0.0496  0.1681
  673TMC3    C310008   0.500   1.718   1.239 -0.2651 -0.5982 -0.3352
  673TMC3    C410009   0.487   1.919   1.061 -0.1086 -0.7827 -0.2447
  673TMC3    C510010   0.469   1.788   1.022 -0.3521 -0.3174  0.1562
  673TMC3    C610011   0.459   1.690   1.110 -0.2227 -0.6953  0.2815
  673TMC3     C10012   0.483   2.065   1.248 -0.0500  0.7422 -0.6129
  673TMC3     O10013   0.391   2.117   1.197 -0.3410  0.2049  0.0064
  673TMC3     H10014   0.521   1.875   1.388 -0.4962 -2.0278  0.7648
  673TMC3    H110015   0.465   2.002   0.996  0.6304 -0.7861 -0.4996
  673TMC3    H210016   0.444   1.586   1.087  0.5086 -0.4197 -1.4135
  673TMC3    C710017   0.426   1.762   0.885  0.5727  0.2939 -0.0770
  673TMC3    C810018   0.500   1.621   1.335 -0.2440  0.1694  0.5207
  673TMC3    O110019   0.357   1.662   0.869 -0.3785  0.1662  0.3475
  673TMC3    O210020   0.421   1.530   1.316 -0.1994  0.6510  0.2405
  674MPD2     C10021   0.750   2.165   0.130  0.2580 -0.1083 -0.2415
  674MPD2    C110022   0.683   2.061   0.187  0.2046 -0.1532  0.1146
  674MPD2    C210023   0.548   2.057   0.158  0.1764  0.1207 -0.4598
  674MPD2    C310024   0.489   2.162   0.080  0.1617 -0.3535 -0.2783
  674MPD2    C410025   0.564   2.265   0.033  0.8320 -0.4181 -0.8752
  674MPD2    C510026   0.695   2.254   0.044  0.2684  0.1216 -0.2663
  674MPD2     H10027   0.484   1.977   0.193  0.0434  1.1726  1.7118
  674MPD2    H110028   0.524   2.350  17.732 -2.3294 -1.2842  0.0638
  674MPD2    H210029   0.858   2.168   0.142  0.4659  0.3621 -2.3090
  674MPD2    H310030   0.761   2.331   0.007  0.8775 -0.8683 -1.2563
  674MPD2     N10031   0.350   2.168   0.063  0.2342 -0.1548  0.2870
  674MPD2    H510032   0.303   2.080   0.082  3.0629 -1.7498 -0.0957
  674MPD2    N110033   0.744   1.974   0.276  0.3404 -0.3614 -0.3472
  674MPD2    H710034   0.839   1.999   0.305 -0.5896  0.8402  1.6438
  675TMC3    C110035   0.759   1.813   0.433  0.1350 -0.2870 -0.0422
  675TMC3    C210036   0.687   1.747   0.525 -0.5355  0.0905  0.1480
  675TMC3    C310037   0.753   1.694   0.631  0.5007 -0.0063 -0.2959
  675TMC3    C410038   0.894   1.813   0.426 -0.5730 -0.1956 -0.4798
  675TMC3    C510039   0.959   1.751   0.534 -0.0492 -0.8724 -0.7724
  675TMC3    C610040   0.888   1.698   0.640  0.3549  0.6630 -0.5360
  675TMC3     C10041   0.685   1.862   0.326 -0.3351  0.6693 -1.1701
  675TMC3     O10042   0.581   1.804   0.299  0.2376  0.3748  0.2080
  675TMC3     H10043   0.581   1.730   0.510 -0.2801 -1.7530  0.3742
  675TMC3    H110044   0.943   1.840   0.333  0.2777  0.4025  0.1383
  675TMC3    H210045   0.935   1.638   0.716  1.6109  1.0166 -1.0278
  675TMC3    C710046   1.095   1.704   0.500  0.1576  0.0819 -0.4583
  675TMC3    C810047   0.676   1.598   0.704 -0.3813  0.2053  0.0565
  675TMC3    O110048   1.131   1.729   0.382  0.1719 -0.4760  0.0154
  675TMC3    O210049   0.572   1.566   0.652 -0.1180  0.3101  0.4521
  676MPD2     C10050   3.498   0.554  11.040  0.5154  1.0098  0.8696
  676MPD2    C110051   3.498   0.473  11.153  0.0878  0.3808  0.6499
  676MPD2    C210052   3.495   0.337  11.130  0.3481  0.2582  0.5905
  676MPD2    C310053   3.492   0.281  11.007  0.6003 -0.1895  0.4777
  676MPD2    C410054   3.495   0.369  10.889 -0.1336  0.2279  0.0680
  676MPD2    C510055   3.495   0.502  10.919 -0.4384  0.2766 -0.3628
  676MPD2     H10056   3.467   0.272  11.212 -2.4443  2.6942  1.5372
  676MPD2    H110057   3.487   0.336  10.786 -0.8933 -1.8585  0.8029
  676MPD2    H210058   3.502   0.662  11.041 -1.3160  1.0803  1.0920
  676MPD2    H310059   3.492   0.575  10.839  1.8907  0.6036 -0.1601
  676MPD2     N10060   3.520   0.139  10.999  0.2114  0.3033  0.1470
  676MPD2    H510061   3.550   0.115  10.905 -0.7329 -0.0145 -0.0685
  676MPD2    N110062   3.495   0.516  11.286 -0.0492 -0.0826 -0.0195
  676MPD2    H710063   3.473   0.448  11.358  0.9816  2.4252  2.6609
  677TMC3    C110064   3.501   0.679  11.455  0.8467  0.1550 -0.1804
  677TMC3    C210065   3.372   0.653  11.501  0.2750 -0.3802  0.3458
  677TMC3    C310066   3.333   0.722  11.616 -0.7365  0.2445  0.4653
  677TMC3    C410067   3.596   0.759  11.520  0.1680  0.0877  0.1530
  677TMC3    C510068   3.548   0.825  11.627  0.5313  0.1720  0.5947
  677TMC3    C610069   3.421   0.811  11.674  0.5206 -0.0576 -0.6096
  677TMC3     C10070   3.534   0.643  11.320  0.0625 -0.7371  0.1309
  677TMC3     O10071   3.583   0.731  11.251 -0.4523  0.9369  0.3195
  677TMC3     H10072   3.296   0.592  11.453  1.1182  0.5989 -2.2405
  677TMC3    H110073   3.697   0.760  11.483  0.0218 -0.1538 -0.2503
  677TMC3    H210074   3.395   0.862  11.766 -0.3836  1.3832 -1.6615
  677TMC3    C710075   3.638   0.905  11.701 -0.3753 -0.6907 -0.1411
  677TMC3    C810076   3.190   0.716  11.660  0.6591  0.3541  0.4963
  677TMC3    O110077   3.615   0.918  11.820  0.0960  0.1570  0.1719
  677TMC3    O210078   3.118   0.731  11.563 -0.2081 -0.3110  0.1392
  678MPD2     C10079   4.725   4.502   1.371 -0.0135 -0.7479 -0.5789
  678MPD2    C110080   4.737   4.391   1.292  0.4139 -0.4668 -0.2515
  678MPD2    C210081   4.655   4.377   1.182 -0.2645 -0.7366 -0.2896
  678MPD2    C310082   4.574   4.476   1.138 -0.0860 -0.4671 -0.1642
  678MPD2    C410083   4.570   4.590   1.218  0.3581 -1.1340  0.6471
  678MPD2    C510084   4.644   4.608   1.329  0.2475  0.3289  0.0885
  678MPD2     H10085   4.669   4.291   1.118 -2.0767 -1.3295  0.0933
  678MPD2    H110086   4.506   4.675   1.196 -1.7662 -2.7292  0.7080
  678MPD2    H210087   0.024   4.510   1.472  1.3768 -0.6672 -1.1166
  678MPD2    H310088   4.630   4.700   1.385  1.6415  1.5060 -1.5184
  678MPD2     N10089   4.509   4.451   1.015 -0.0412  0.0812 -0.3728
  678MPD2    H510090   4.522   4.362   0.969 -0.2883 -0.7619  1.2118
  678MPD2    N110091   0.080   4.281   1.328 -0.2913 -0.1132 -0.3888
  678MPD2    H710092   0.072   4.204   1.263  0.4860  0.1899 -0.8494
  679TMC3    C110093   0.426   4.033   1.485  0.5585 -0.2492  0.1248
  679TMC3    C210094   0.349   4.145   1.501 -0.2778  0.3197 -0.0348
  679TMC3    C310095   0.222   4.144   1.446 -0.3647  0.3515 -0.2080
  679TMC3    C410096   0.381   3.925   1.423  0.1181  0.1407 -0.7812
  679TMC3    C510097   0.272   3.933   1.342 -0.4983  0.4588  0.0840
  679TMC3    C610098   0.180   4.036   1.366 -0.1381  0.6565  0.0204
  679TMC3     C10099   0.565   4.058   1.475 -0.6866  0.1811 -0.1129
  679TMC3     O10100   0.638   3.959   1.476  0.4430  0.4492  0.1345
  679TMC3     H10101   0.385   4.233   1.553 -0.8975  1.0810 -0.8982
  679TMC3    H110102   0.451   3.843   1.409  0.0155 -0.0107 -0.4235
  679TMC3    H210103   0.083   4.046   1.319  0.5169  0.6703 -1.3219
  679TMC3    C710104   0.315   3.950   1.198  0.6005  0.4630  0.4139
  679TMC3    C810105   0.163   4.277   1.435  0.2516 -0.0406 -0.0661
  679TMC3    O110106   0.243   4.029   1.140  0.8895  0.6433  0.0353
  679TMC3    O210107   0.198   4.366   1.505 -0.0330 -0.4268  0.0136
  680MPD2     C10108   0.190   3.830  13.785  0.7239 -0.4962  0.7454
  680MPD2    C110109   0.235   3.788  13.913 -0.7616  0.7580 -0.3999
  680MPD2    C210110   0.318   3.875  13.991  0.4659 -0.8802 -0.4810
  680MPD2    C310111   0.345   3.999  13.950  0.2797  0.0465 -0.6381
  680MPD2    C410112   0.288   4.041  13.830 -0.8234  0.7964  0.0907
  680MPD2    C510113   0.222   3.956  13.751 -0.0934 -0.4966  0.0801
  680MPD2     H10114   0.351   3.843  14.089 -2.0217 -2.8334 -0.2797
  680MPD2    H110115   0.313   4.135  13.781  2.1781  0.1165  0.2682
  680MPD2    H210116   0.150   3.761  13.711  0.5279  0.3664  0.0427
  680MPD2    H310117   0.207   3.988  13.649 -0.4868 -1.7328 -0.2519
  680MPD2     N10118   0.432   4.086  14.018  0.0281  0.0389  0.4807
  680MPD2    H510119   0.449   4.174  13.969 -1.0291  1.2607  2.3197
  680MPD2    N110120   0.232   3.649  13.963  0.0616  0.3314 -0.1589
  680MPD2    H710121   0.273   3.630  14.054  1.2668 -0.1711 -0.8055
  681TMC3    C110122   0.157   3.429  13.989 -0.3070  0.7299  0.9214
  681TMC3    C210123   0.106   3.460  14.118  0.0188 -0.2726  0.0035
  681TMC3    C310124   0.153   3.389  14.224  0.5040 -0.1299  0.3661
  681TMC3    C410125   0.266   3.347  13.973  0.0735 -0.5479 -0.1086
  681TMC3    C510126   0.313   3.274  14.083  0.1507 -0.0729  0.8551
  681TMC3    C610127   0.247   3.291  14.204  0.2722  0.0291 -0.2639
  681TMC3     C10128   0.155   3.549  13.906  0.3113 -0.6443 -0.3587
  681TMC3     O10129   0.104   3.536  13.798 -0.1985  0.2017 -0.2640
  681TMC3     H10130   0.037   3.540  14.144 -0.1514 -0.8037  1.2027
  681TMC3    H110131   0.324   3.347  13.881  2.1800  0.8334  1.2052
  681TMC3    H210132   0.284   3.227  14.283  0.1788  0.7149  0.3273
  681TMC3    C710133   0.401   3.164  14.070  0.6011 -0.6722 -0.5180
  681TMC3    C810134   0.143   3.451  14.357  0.4264 -0.4946 -0.0547
  681TMC3    O110135   0.402   3.076  14.158  0.3060  0.7181  0.2489
  681TMC3    O210136   0.052   3.533  14.375  0.1161 -0.0403  0.3021
  682MPD2     C10137   2.534   0.590  10.730 -0.8967 -0.6929  0.7775
  682MPD2    C110138   2.551   0.468  10.787 -0.3525  0.3105 -0.2809
  682MPD2    C210139   2.486   0.448  10.910  0.4676 -0.4145  0.2579
  682MPD2    C310140   2.401   0.548  10.963  0.1390 -0.2292 -0.1179
  682MPD2    C410141   2.387   0.676  10.905  0.3311  0.1980  0.6814
  682MPD2    C510142   2.453   0.690  10.785  0.5116  0.0507 -0.3565
  682MPD2     H10143   2.496   0.348  10.950  1.6512 -0.3416  0.1535
  682MPD2    H110144   2.322   0.757  10.936  2.9394  2.4778  0.2431
  682MPD2    H210145   2.568   0.617  10.631 -1.3651  1.6921  1.2762
  682MPD2    H310146   2.440   0.781  10.727  2.3696  0.1576 -0.6231
  682MPD2     N10147   2.345   0.521  11.089 -0.0779  0.5645  0.0348
  682MPD2    H510148   2.304   0.597  11.143 -3.4363  0.0500 -1.8041
  682MPD2    N110149   2.654   0.379  10.742  0.5708  0.0734  0.2981
  682MPD2    H710150   2.665   0.300  10.804 -0.8003 -1.4794 -1.4472
  683TMC3    C110151   2.266   0.442  11.497 -0.0314  0.3179 -0.9627
  683TMC3    C210152   2.181   0.342  11.524  0.1117 -0.1665  0.6280
  683TMC3    C310153   2.122   0.274  11.418  0.2644 -0.5794  0.0509
  683TMC3    C410154   2.312   0.469  11.366  0.3531  0.3907 -1.0290
  683TMC3    C510155   2.253   0.392  11.264  0.1379 -0.1150 -0.1588
  683TMC3    C610156   2.162   0.289  11.288  0.3840  0.4817 -0.0215
  683TMC3     C10157   2.357   0.474  11.610  0.5217  0.3535  0.0105
  683TMC3     O10158   2.320   0.437  11.720  0.4604  0.0041  0.3304
  683TMC3     H10159   2.140   0.319  11.621 -0.3308 -1.7354  0.0616
  683TMC3    H110160   2.375   0.553  11.339  0.6852  0.2102 -0.8209
  683TMC3    H210161   2.132   0.218  11.212  0.7446 -0.5409  0.7918
  683TMC3    C710162   2.309   0.394  11.133  0.0957 -0.1597 -0.0063
  683TMC3    C810163   2.042   0.158  11.454  0.3654 -0.2862  0.7474
  683TMC3    O110164   2.321   0.284  11.085 -0.1558 -0.8693  0.7634
  683TMC3    O210165   1.974   0.177  11.551  0.0854  0.6185 -0.5904
  684MPD2     C10166   0.201   0.014  16.529 -0.0930 -0.2796  0.4274
  684MPD2    C110167   0.314   4.691  16.472 -0.3818  0.3195  0.2865
  684MPD2    C210168   0.435   0.018  16.467 -0.6137 -0.1671  0.4567
  684MPD2    C310169   0.441   0.147  16.513 -0.0527 -0.0796 -0.2490
  684MPD2    C410170   0.330   0.213  16.571  0.1141 -0.2121 -0.3903
  684MPD2    C510171   0.209   0.143  16.578 -0.2295 -0.4405 -0.5116
  684MPD2     H10172   0.523   4.711  16.423 -1.7222  0.4509 -2.3449
  684MPD2    H110173   0.333   0.315  16.608 -0.9282  0.0803 -1.1157
  684MPD2    H210174   0.107   4.700  16.520  0.2816 -1.2490  2.1041
  684MPD2    H310175   0.125   0.185  16.634  1.1857  1.5170  0.1685
  684MPD2     N10176   0.556   0.230  16.484  0.5702 -0.5064 -0.3212
  684MPD2    H510177   0.542   0.330  16.496  3.3290 -0.0816 -0.5477
  684MPD2    N110178   0.298   4.569  16.412  0.6695  0.0715  0.2411
  684MPD2    H710179   0.211   4.531  16.375  0.5863 -2.1503  2.7797
  685TMC3    C110180   0.425   4.409  16.284 -0.8511 -1.2602  0.1024
  685TMC3    C210181   0.333   4.410  16.190  0.6127 -0.0829  0.1507
  685TMC3    C310182   0.369   4.371  16.069  0.3859  0.0548  0.9234
  685TMC3    C410183   0.558   4.367  16.269 -0.4254 -0.2385  0.1127
  685TMC3    C510184   0.590   4.329  16.139 -0.5976  0.0745  0.2866
  685TMC3    C610185   0.493   4.315  16.047  0.1939  1.2773 -0.4752
  685TMC3     C10186   0.406   4.486  16.406 -0.1497  0.1603 -0.1627
  685TMC3     O10187   0.502   4.486  16.484  0.4396  0.3904 -0.0938
  685TMC3     H10188   0.230   4.437  16.214  0.2873 -1.1880 -0.0085
  685TMC3    H110189   0.630   4.364  16.349 -0.3362  1.4538  0.1065
  685TMC3    H210190   0.527   4.286  15.948  1.3874 -0.8689  0.5755
  685TMC3    C710191   0.696   4.237  16.123 -0.1212  0.3008 -0.3489
  685TMC3    C810192   0.271   4.356  15.968  0.3914  0.7412  0.4994
  685TMC3    O110193   0.683   4.143  16.046  0.3192  0.5801 -0.3915
  685TMC3    O210194   0.279   4.268  15.886 -0.5533  0.1279  0.0141
  686MPD2     C10195   1.776   4.354  15.530 -0.0097 -0.3815  0.2324
  686MPD2    C110196   1.816   4.311  15.651  0.4404 -0.0320  0.3054
  686MPD2    C210197   1.955   4.286  15.671  0.2402  0.7614 -0.4340
  686MPD2    C310198   2.047   4.293  15.566 -0.2341  0.8261 -0.0359
  686MPD2    C410199   1.997   4.354  15.448 -0.5553  0.6694 -0.0085
  686MPD2    C510200   1.868   4.387  15.431  0.8466  0.6194  0.3180
  686MPD2     H10201   1.992   4.249  15.766  1.9960 -0.1377 -1.4925
  686MPD2    H110202   2.065   4.366  15.364 -0.6525 -1.8434 -0.4705
  686MPD2    H210203   1.670   4.361  15.507  0.2462  0.4105 -0.7121
  686MPD2    H310204   1.833   4.419  15.333 -0.8510 -0.6284  0.5230
  686MPD2     N10205   2.181   4.258  15.563  0.2903 -0.2998 -0.1014
  686MPD2    H510206   2.242   4.300  15.494  0.6867 -1.6594 -0.5911
  686MPD2    N110207   1.722   4.290  15.752 -0.0831  0.1655 -0.0119
  686MPD2    H710208   1.626   4.309  15.724 -0.6099 -3.3016 -0.6194
  687TMC3    C110209   2.182   4.066  15.728 -0.0846 -0.0011  0.0965
  687TMC3    C210210   2.063   4.016  15.693 -0.2393 -0.0322 -0.1856
  687TMC3    C310211   2.005   3.926  15.776 -0.9403  0.2373 -0.3121
  687TMC3    C410212   2.247   4.034  15.845  0.1115  0.0542 -0.5301
  687TMC3    C510213   2.174   3.954  15.928 -0.4844  0.6380 -1.5995
  687TMC3    C610214   2.058   3.890  15.892 -0.2118 -0.9197  0.5407
  687TMC3     C10215   2.250   4.175  15.656 -0.4338  1.1339 -0.5959
  687TMC3     O10216   2.373   4.177  15.670  0.1774 -1.2652 -0.4785
  687TMC3     H10217   2.019   4.041  15.597 -0.3560  0.9013  0.1197
  687TMC3    H110218   2.330   4.096  15.878 -0.2981  0.9829 -1.2221
  687TMC3    H210219   2.014   3.822  15.964  1.5281 -2.2539  0.3535
  687TMC3    C710220   2.252   3.907  16.036 -0.6466  0.6453 -1.5364
  687TMC3    C810221   1.870   3.878  15.753 -0.5167  0.5832  0.2288
  687TMC3    O110222   2.372   3.917  16.027  0.4137  0.4196 -0.4393
  687TMC3    O210223   1.810   3.806  15.831  0.2578 -0.4513 -0.0227
  688MPD2     C10224   1.330   3.192  17.579  0.0449 -0.1380 -0.1777
  688MPD2    C110225   1.368   3.058  17.587 -0.6385  0.1563  0.4745
  688MPD2    C210226   1.466   2.999  17.503  0.0332  0.0898 -0.0671
  688MPD2    C310227   1.520   3.073  17.402  0.1981  0.6354  0.0663
  688MPD2    C410228   1.468   3.199  17.386 -0.9296  0.0450 -0.4026
  688MPD2    C510229   1.379   3.256  17.472 -0.2035  0.4086 -0.0028
  688MPD2     H10230   1.494   2.896  17.517 -0.6203 -0.3018 -1.7299
  688MPD2    H110231   1.487   3.259  17.297 -1.0322 -0.2020 -0.5917
  688MPD2    H210232   1.255   3.237  17.643 -1.1701  1.3835 -2.6647
  688MPD2    H310233   1.341   3.356  17.453  0.6422  0.3509 -2.0057
  688MPD2     N10234   1.618   3.029  17.306 -0.4555  0.4217 -0.0976
  688MPD2    H510235   1.649   3.099  17.239 -1.7970  0.2102 -0.9401
  688MPD2    N110236   1.324   2.978  17.696 -0.9627  0.2033 -0.4184
  688MPD2    H710237   1.355   2.881  17.698 -1.3712  0.0810  0.1527
  689TMC3    C110238   1.203   2.897   0.129  0.3055 -0.0414 -0.5834
  689TMC3    C210239   1.125   2.911   0.235  1.0246  1.2162 -0.0101
  689TMC3    C310240   1.106   2.811   0.328  0.6183  0.2633  0.1276
  689TMC3    C410241   1.256   2.776   0.103 -0.1655  0.2431 -0.0113
  689TMC3    C510242   1.243   2.682   0.199 -0.7829  0.3937 -0.4600
  689TMC3    C610243   1.180   2.699   0.318  0.1708 -0.4987  0.6146
  689TMC3     C10244   1.232   3.012   0.043  0.6865  0.1469 -0.5108
  689TMC3     O10245   1.165   3.113   0.065  0.4688 -0.2333 -0.0308
  689TMC3     H10246   1.083   3.010   0.248  0.3431  1.0148 -0.6936
  689TMC3    H110247   1.312   2.745   0.015 -0.9317 -0.1122 -0.3709
  689TMC3    H210248   1.154   2.617   0.385  1.9306 -1.1190  0.5322
  689TMC3    C710249   1.255   2.538   0.168  0.4393 -0.0855 -0.4929
  689TMC3    C810250   1.006   2.823   0.424  0.4965  0.1150 -0.2582
  689TMC3    O110251   1.288   2.462   0.261  0.1926 -0.0628 -0.5990
  689TMC3    O210252   1.013   2.759   0.528  0.0606  0.8115 -0.3097
  690MPD2     C10253   3.563   0.054  15.817  0.5761  0.4791 -0.2179
  690MPD2    C110254   3.531   0.050  15.686  0.0686 -0.1578  0.0645
  690MPD2    C210255   3.593   0.141  15.601  0.1321 -0.3653  0.1136
  690MPD2    C310256   3.704   0.209  15.636 -1.0875 -0.1301 -0.3414
  690MPD2    C410257   3.744   0.196  15.762  0.0397 -0.1718  0.6781
  690MPD2    C510258   3.672   0.126  15.851 -0.1094 -0.3988 -0.2702
  690MPD2     H10259   3.542   0.149  15.506 -0.2236 -0.2120  0.3173
  690MPD2    H110260   3.831   0.245  15.806 -1.5825  1.0469  2.5684
  690MPD2    H210261   3.528   4.724  15.893  0.3035  0.7131 -0.1335
  690MPD2    H310262   3.713   0.122  15.951 -1.0551  0.5023  0.1540
  690MPD2     N10263   3.787   0.284  15.539  0.2388  0.0905 -0.1153
  690MPD2    H510264   3.761   0.286  15.441 -0.3117  3.0324  0.1212
  690MPD2    N110265   3.422   4.715  15.636  0.4372  0.2246 -0.4833
  690MPD2    H710266   3.372   4.737  15.551  1.5715 -1.5250 -1.6090
  691TMC3    C110267   3.297   4.515  15.615 -0.2196 -1.1789 -0.1677
  691TMC3    C210268   3.192   4.577  15.557 -0.2361  0.0782 -0.2323
  691TMC3    C310269   3.115   4.488  15.484 -0.3490  0.4559 -0.3436
  691TMC3    C410270   3.326   4.383  15.619  0.6396 -0.8023 -0.4229
  691TMC3    C510271   3.234   4.308  15.555  0.0772 -0.3463  0.3927
  691TMC3    C610272   3.137   4.358  15.476 -0.7024 -0.3562  0.2401
  691TMC3     C10273   3.380   4.593  15.695 -0.0422  0.0060  0.7821
  691TMC3     O10274   3.435   4.541  15.788 -0.1563 -0.2813  0.6169
  691TMC3     H10275   3.161   4.680  15.571 -1.4402 -0.3195  0.0483
  691TMC3    H110276   3.408   4.341  15.676  0.1603  0.0798  0.9135
  691TMC3    H210277   3.084   4.298  15.403  0.0388 -1.1289  0.3405
  691TMC3    C710278   3.238   4.165  15.567  0.5543 -0.2021 -0.2720
  691TMC3    C810279   3.000   4.528  15.406 -0.5628 -0.0598  0.1567
  691TMC3    O110280   3.333   4.122  15.630 -0.1974 -0.0532 -0.6906
  691TMC3    O210281   2.965   4.445  15.319  0.0534 -0.5312  0.5588
  692TMC3    C110282   0.230   1.360  16.072  0.5563 -0.2881 -0.5135
  692TMC3    C210283   0.320   1.382  16.166  0.0135  0.3046 -0.3812
  692TMC3    C310284   0.444   1.310  16.155  0.7636  0.2534  0.0334
  692TMC3    C410285   0.229   1.263  15.983 -1.0554  0.2931  0.0242
  692TMC3    C510286   0.348   1.185  15.982 -0.4792  0.2168  0.0455
  692TMC3    C610287   0.452   1.209  16.060  0.1445  0.6141  0.5132
  692TMC3     C10288   0.103   1.422  16.091 -0.6647 -0.5122 -0.0818
  692TMC3     O10289   0.001   1.356  16.083  0.3064 -0.5018 -0.7063
  692TMC3     H10290   0.297   1.452  16.245 -0.0824 -0.0004 -0.1393
  692TMC3    H110291   0.156   1.251  15.903  1.2544 -0.0552 -2.0273
  692TMC3    H210292   0.553   1.174  16.041 -1.5511 -2.7024 -2.2249
  692TMC3    C710293   0.358   1.068  15.895 -0.7142 -0.0564 -0.3867
  692TMC3    C810294   0.512   1.271  16.278 -0.2124 -0.4463 -0.3065
  692TMC3    O110295   0.289   1.072  15.797 -0.7182 -0.2029 -0.6606
  692TMC3    O210296   0.552   1.161  16.291  0.4786  0.2721  0.5067
  693MPD2     C10297   0.085   4.650  11.266 -0.6440 -0.4999  0.8088
  693MPD2    C110298   0.051   4.551  11.172  0.3483 -0.1538 -0.6394
  693MPD2    C210299   0.146   4.457  11.127  0.1586  0.6238  0.2096
  693MPD2    C310300   0.276   4.467  11.175  0.0878  0.6996  0.1852
  693MPD2    C410301   0.306   4.573  11.255  0.1270 -0.0970 -0.5556
  693MPD2    C510302   0.215   4.665  11.299  0.1752 -0.3601  0.4645
  693MPD2     H10303   0.110   4.370  11.074  0.6738  0.5234  0.0251
  693MPD2    H110304   0.411   4.590  11.276 -0.1110  0.2764  0.3121
  693MPD2    H210305   0.013   4.726  11.295 -0.9797 -1.1259  1.6231
  693MPD2    H310306   0.247   0.010  11.359 -0.4014  0.6137 -0.6041
  693MPD2     N10307   0.384   4.379  11.137  0.1513  0.1583 -0.0002
  693MPD2    H510308   0.472   4.371  11.186 -0.0319  1.2444  0.4975
  693MPD2    N110309   4.658   4.539  11.128  0.0170  0.2076 -0.2190
  693MPD2    H710310   4.589   4.603  11.167 -1.3235 -1.2290 -0.2005
  694TMC3    C110311   4.465   4.466  11.022 -0.2138 -0.3383 -0.3802
  694TMC3    C210312   4.402   4.412  10.913  0.0002 -0.2407  1.2085
  694TMC3    C310313   4.282   4.349  10.920  0.0927 -0.0071  0.3267
  694TMC3    C410314   4.399   4.461  11.138  0.0487 -0.1300  0.5173
  694TMC3    C510315   4.280   4.393  11.147  0.8712 -0.4608  0.3365
  694TMC3    C610316   4.219   4.339  11.035 -0.7133 -0.0223  0.5462
  694TMC3     C10317   4.610   4.454  11.029 -0.5089 -0.2847 -0.2711
  694TMC3     O10318   4.663   4.367  10.962  0.3096 -0.2738  0.5697
  694TMC3     H10319   4.466   4.412  10.825 -1.1138  2.2581  0.3676
  694TMC3    H110320   4.446   4.501  11.228 -0.5216 -0.6843  1.0625
  694TMC3    H210321   4.123   4.288  11.038  0.3328 -2.0852 -1.2026
  694TMC3    C710322   4.254   4.342  11.285  0.6062  0.1774  0.3005
  694TMC3    C810323   4.249   4.275  10.800  0.2298 -0.8469  0.2084
  694TMC3    O110324   4.308   4.399  11.381 -0.3846 -0.3776  0.4003
  694TMC3    O210325   4.207   4.163  10.822  0.2785  0.1049 -0.4779
  695MPD2     C10326   1.019   1.020  13.239 -0.0728  0.2117  0.6197
  695MPD2    C110327   0.960   1.037  13.364  0.7624  0.1631 -1.0328
  695MPD2    C210328   0.854   1.124  13.372 -0.2072  0.5832 -0.6728
  695MPD2    C310329   0.822   1.207  13.269 -0.1313  0.4466 -0.2896
  695MPD2    C410330   0.882   1.186  13.142  0.0114  0.4843  0.4465
  695MPD2    C510331   0.987   1.097  13.136 -0.4557  0.4199  0.1365
  695MPD2     H10332   0.824   1.150  13.473  0.0384 -0.4354 -0.3316
  695MPD2    H110333   0.873   1.252  13.057 -1.5768 -0.5988 -0.2357
  695MPD2    H210334   1.076   0.928  13.230  0.9918  0.9525 -0.1500
  695MPD2    H310335   1.035   1.077  13.040  1.0280  0.1888  0.9327
  695MPD2     N10336   0.720   1.311  13.288  0.5321  0.1962 -0.1536
  695MPD2    H510337   0.689   1.325  13.383  1.1342 -2.3277  0.4132
  695MPD2    N110338   0.987   0.967  13.482 -0.7751 -0.2140 -0.0686
  695MPD2    H710339   0.911   0.962  13.549 -1.6996 -0.8845 -1.1633
  696TMC3    C110340   0.562   1.480  13.237 -0.4257  0.1754  0.7799
  696TMC3    C210341   0.471   1.429  13.327 -0.0500 -0.2034 -0.0161
  696TMC3    C310342   0.374   1.528  13.369 -0.4645 -0.0725 -0.0590
  696TMC3    C410343   0.563   1.609  13.192  0.3025 -0.1210  0.0410
  696TMC3    C510344   0.486   1.700  13.260  0.0303  0.0942  0.0129
  696TMC3    C610345   0.383   1.659  13.340 -0.0034  0.7525  0.3363
  696TMC3     C10346   0.683   1.399  13.191 -0.2493  0.1951 -0.3243
  696TMC3     O10347   0.704   1.406  13.070  0.0540  0.1822  0.4343
  696TMC3     H10348   0.472   1.333  13.378  1.7323  0.2075  0.7292
  696TMC3    H110349   0.641   1.644  13.126 -0.3988 -2.0276 -1.8069
  696TMC3    H210350   0.317   1.730  13.387 -2.1267 -0.1026 -1.2986
  696TMC3    C710351   0.552   1.823  13.285 -0.0511  0.5378  0.0350
  696TMC3    C810352   0.324   1.496  13.506 -0.3638  0.0003 -0.1958
  696TMC3    O110353   0.636   1.860  13.205  0.3289 -0.6336  0.4846
  696TMC3    O210354   0.407   1.436  13.571  0.7233 -0.2886 -0.1206
  697MPD2     C10355   4.562   2.892  15.764 -0.3368 -0.1488 -0.6969
  697MPD2    C110356   4.573   2.829  15.644  0.4572  0.0525 -0.3481
  697MPD2    C210357   4.604   2.902  15.531  0.1877 -0.1344  0.6811
  697MPD2    C310358   4.617   3.036  15.529 -0.0464 -0.6148 -0.1338
  697MPD2    C410359   4.603   3.106  15.645  0.0150  0.0289  0.1912
  697MPD2    C510360   4.579   3.031  15.760  0.8002 -0.4586  0.3746
  697MPD2     H10361   4.628   2.839  15.447  0.9235  1.4892 -0.3214
  697MPD2    H110362   4.603   3.214  15.649  1.0324  0.0022  0.8639
  697MPD2    H210363   4.532   2.860  15.862  0.9146  1.5857  0.2679
  697MPD2    H310364   4.568   3.087  15.852  0.4520 -0.5978  0.4150
  697MPD2     N10365   4.636   3.105  15.402  0.2377  0.1234  0.3899
  697MPD2    H510366   4.634   3.043  15.322 -2.5951 -0.8178  1.2202
  697MPD2    N110367   4.543   2.688  15.632  0.4579  0.4839 -0.6459
  697MPD2    H710368   4.549   2.640  15.542 -0.6496 -1.3851  0.2887
  698TMC3    C110369   4.658   3.292  15.259  0.2887 -0.0678 -0.3761
  698TMC3    C210370   4.713   3.417  15.247 -0.2924 -0.2659 -0.1147
  698TMC3    C310371   4.680   3.496  15.145 -0.0141 -0.4033  0.5472
  698TMC3    C410372   4.583   3.238  15.160 -0.4596  0.7889  0.8605
  698TMC3    C510373   4.540   3.317  15.057  0.2943  0.9336 -0.0245
  698TMC3    C610374   4.586   3.448  15.057 -0.0117 -0.1216 -0.2942
  698TMC3     C10375   4.658   3.239  15.391  0.1246  0.9816  1.4017
  698TMC3     O10376   4.654   3.326  15.469  0.8098 -0.3915 -0.3022
  698TMC3     H10377   0.036   3.441  15.333 -0.8460 -1.1722  0.5424
  698TMC3    H110378   4.542   3.139  15.177 -3.7513  2.1261  0.6599
  698TMC3    H210379   4.570   3.513  14.973  0.9698  0.5721  0.0505
  698TMC3    C710380   4.505   3.260  14.926 -0.2042  0.2278  0.1988
  698TMC3    C810381   4.734   3.633  15.138  1.0127 -0.4668 -0.8144
  698TMC3    O110382   4.517   3.331  14.829  0.1292  0.5122 -0.0102
  698TMC3    O210383   4.681   3.702  15.049 -0.3783 -0.2964  0.1962
  699TMC3    C110384   0.180   1.211  13.284  0.0961 -0.3776 -0.0744
  699TMC3    C210385   0.219   1.123  13.372 -0.0028  0.1215 -0.4583
  699TMC3    C310386   0.161   1.122  13.495  0.1847 -0.9624  0.3873
  699TMC3    C410387   0.081   1.297  13.305  0.0045 -0.1723 -0.4214
  699TMC3    C510388   0.019   1.294  13.429  0.0959  0.0773 -0.9219
  699TMC3    C610389   0.063   1.205  13.527 -0.7714  1.2488  0.1662
  699TMC3     C10390   0.243   1.222  13.148  0.1841 -0.1296  0.2791
  699TMC3     O10391   0.187   1.302  13.072  0.1712 -0.0183  0.1890
  699TMC3     H10392   0.269   1.034  13.335  0.1842 -0.3550  0.9116
  699TMC3    H110393   0.061   1.381  13.241 -1.7493  0.9719  1.6382
  699TMC3    H210394   0.017   1.199  13.625  0.3757  1.6782  0.7191
  699TMC3    C710395   4.651   1.383  13.475  0.2425  0.4235 -0.0429
  699TMC3    C810396   0.161   1.000  13.575 -0.4649 -0.2549 -0.5301
  699TMC3    O110397   4.623   1.387  13.595  0.0326  0.8221  0.0879
  699TMC3    O210398   0.060   0.972  13.638 -0.2497 -0.6736  0.0005
  700TMC3    C110399   4.310   3.515  17.162  0.2610 -0.5194  0.0879
  700TMC3    C210400   4.408   3.423  17.162 -0.4927 -0.6960  0.5033
  700TMC3    C310401   4.511   3.434  17.255  0.7248 -0.4231  0.7898
  700TMC3    C410402   4.309   3.613  17.257 -0.0806  0.6876  0.1653
  700TMC3    C510403   4.409   3.623  17.352 -0.6386  0.0468  0.2462
  700TMC3    C610404   4.502   3.528  17.358 -0.6187  0.7338 -0.5910
  700TMC3     C10405   4.298   3.581  17.034 -0.2415  0.1448 -0.0405
  700TMC3     O10406   4.203   3.565  16.961 -0.0384 -0.0969  0.6135
  700TMC3     H10407   4.412   3.351  17.082  0.8594 -0.1465  0.0809
  700TMC3    H110408   4.229   3.687  17.257  0.7391  1.5754  1.1576
  700TMC3    H210409   4.583   3.552  17.425  1.8603 -1.0702 -2.9609
  700TMC3    C710410   4.463   3.760  17.381  0.0030  0.1489 -0.4028
  700TMC3    C810411   4.635   3.370  17.227 -0.0141 -0.4973  1.4747
  700TMC3    O110412   4.554   3.771  17.461 -0.8300 -0.4965  0.0654
  700TMC3    O210413   4.653   3.320  17.117  0.0230 -0.4511 -0.4824
  701TMC3    C110414   3.938   1.897  15.635  0.2110  0.7527  0.0926
  701TMC3    C210415   3.898   1.869  15.513  0.7148  0.5006 -0.0940
  701TMC3    C310416   3.952   1.943  15.406  0.4349  0.1449  0.5202
  701TMC3    C410417   4.015   2.007  15.656 -0.2034 -0.2857 -0.0831
  701TMC3    C510418   4.064   2.081  15.558 -1.2106  0.3796  0.1017
  701TMC3    C610419   4.036   2.054  15.424  0.0210 -0.0348 -0.6778
  701TMC3     C10420   3.815   1.908  15.714  0.4016  0.4505  0.2447
  701TMC3     O10421   3.807   2.022  15.768  0.3777  0.2339 -0.2320
  701TMC3     H10422   3.830   1.788  15.488  0.6530 -0.3049  2.7558
  701TMC3    H110423   4.050   2.020  15.758 -1.4427  0.6885  0.2209
  701TMC3    H210424   4.073   2.107  15.337  0.1294 -0.4242 -0.8679
  701TMC3    C710425   4.107   2.218  15.594  0.1978  0.5376 -0.1945
  701TMC3    C810426   3.928   1.886  15.272 -0.3840  0.2077 -0.2156
  701TMC3    O110427   4.172   2.276  15.510 -0.2365  0.3786  0.3840
  701TMC3    O210428   3.909   1.764  15.268  0.6042  0.4135  0.2110
  702MPD2     C10429   3.659   4.539  10.409  0.0659  0.5565  0.1307
  702MPD2    C110430   3.579   4.615  10.489  0.3123  0.6876  0.3784
  702MPD2    C210431   3.531   4.732  10.438 -0.8060  0.1541 -0.1328
  702MPD2    C310432   3.564   0.043  10.312 -0.1383  0.2760 -0.3281
  702MPD2    C410433   3.624   4.691  10.230 -0.0944 -1.1016 -0.4498
  702MPD2    C510434   3.661   4.566  10.277 -0.1431  0.5564 -0.1830
  702MPD2     H10435   3.469   0.050  10.506 -0.0068  0.2760  0.4867
  702MPD2    H110436   3.632   4.710  10.124 -1.1606  1.0245 -0.1555
  702MPD2    H210437   3.699   4.445  10.444 -1.1706 -0.7877 -2.1357
  702MPD2    H310438   3.699   4.495  10.204  1.2806  1.0297  0.0975
  702MPD2     N10439   3.517   0.170  10.264  0.6324  0.1974 -0.2787
  702MPD2    H510440   3.531   0.181  10.165  0.6266  0.3970 -0.2567
  702MPD2    N110441   3.555   4.591  10.627  0.4273  0.5304  0.1671
  702MPD2    H710442   3.480   4.648  10.663 -0.4469 -1.7638  2.0120
  703TMC3    C110443   3.460   0.396  10.273 -0.2070  0.0699  0.5076
  703TMC3    C210444   3.350   0.474  10.286 -0.5999  0.2584  0.0837
  703TMC3    C310445   3.368   0.608  10.265 -0.5014 -0.5257 -0.7027
  703TMC3    C410446   3.584   0.445  10.242 -0.2962 -0.4939 -0.1056
  703TMC3    C510447   3.589   0.577  10.212 -0.8960  0.4476  0.1916
  703TMC3    C610448   3.484   0.662  10.223 -0.5004 -0.1948 -0.4949
  703TMC3     C10449   3.455   0.267  10.338 -0.2695 -0.8628 -0.1209
  703TMC3     O10450   3.424   0.273  10.458  0.1837 -0.2920 -0.0863
  703TMC3     H10451   3.258   0.431  10.326 -1.2906  1.4791 -0.1931
  703TMC3    H110452   3.673   0.384  10.241 -0.9514 -1.4457 -0.6760
  703TMC3    H210453   3.501   0.766  10.199 -0.4137  0.0555  0.6526
  703TMC3    C710454   3.718   0.642  10.241 -0.1925  0.1206 -0.1001
  703TMC3    C810455   3.264   0.700  10.295 -0.4397  0.5443 -0.5573
  703TMC3    O110456   3.737   0.749  10.185 -0.3322  0.0918  0.4777
  703TMC3    O210457   3.252   0.806  10.227  0.0011 -0.5022  0.7503
  704TMC3    C110458   1.134   2.665  12.253 -0.0248 -0.2942 -0.1805
  704TMC3    C210459   1.116   2.580  12.148 -0.0380  0.6172  0.0097
  704TMC3    C310460   1.126   2.447  12.171  0.4381 -0.3559 -0.4528
  704TMC3    C410461   1.178   2.618  12.377  0.2863 -0.3003 -0.0074
  704TMC3    C510462   1.184   2.481  12.397 -0.0718  0.2986  0.0497
  704TMC3    C610463   1.150   2.390  12.295  0.2528  0.5454  0.9666
  704TMC3     C10464   1.097   2.796  12.235 -0.1445  0.4381  0.0118
  704TMC3     O10465   1.046   2.853  12.331 -0.5038  0.2384 -0.1797
  704TMC3     H10466   1.102   2.611  12.045 -1.1148 -2.6628 -0.8410
  704TMC3    H110467   1.184   2.686  12.461  2.0370  0.6886 -0.9237
  704TMC3    H210468   1.172   2.286  12.316 -0.7132 -0.2754 -2.1234
  704TMC3    C710469   1.246   2.433  12.516  0.1277  0.1001 -0.1393
  704TMC3    C810470   1.122   2.350  12.062 -0.2855  0.5739  0.0191
  704TMC3    O110471   1.210   2.318  12.534  0.0922 -0.1176 -1.4996
  704TMC3    O210472   1.122   2.403  11.946 -0.9117 -0.2417  0.1653
  705MPD2     C10473   0.792   0.492  16.656  0.1502  0.2705  0.6978
  705MPD2    C110474   0.751   0.609  16.593  0.2794 -0.3598 -0.2774
  705MPD2    C210475   0.624   0.657  16.619 -0.3656  0.1786  0.5378
  705MPD2    C310476   0.542   0.608  16.718 -0.0763 -0.4398  0.5133
  705MPD2    C410477   0.580   0.493  16.779  0.3728 -0.1607  0.4788
  705MPD2    C510478   0.700   0.440  16.750  0.8466 -0.4756 -0.2110
  705MPD2     H10479   0.590   0.743  16.563  0.8041 -1.2607 -2.4147
  705MPD2    H110480   0.529   0.454  16.867  1.5405 -1.6842  0.4791
  705MPD2    H210481   0.888   0.444  16.644 -0.5336 -0.8472 -0.2738
  705MPD2    H310482   0.727   0.348  16.801 -1.9454 -0.0403  2.0589
  705MPD2     N10483   0.421   0.669  16.748  0.0972 -0.3151  0.2385
  705MPD2    H510484   0.347   0.608  16.781 -0.1071 -0.2402 -0.0762
  705MPD2    N110485   0.819   0.670  16.488  0.0166 -0.7134  0.5561
  705MPD2    H710486   0.775   0.746  16.437 -2.0589 -2.1168  0.2426
  706TMC3    C110487   1.097   0.695  16.115 -0.0451  0.0264 -0.5858
  706TMC3    C210488   1.019   0.788  16.053 -0.2746  0.6330 -0.1341
  706TMC3    C310489   0.919   0.830  16.133 -0.3032  0.1044  0.0639
  706TMC3    C410490   1.084   0.656  16.243 -0.0878 -0.6922 -0.1924
  706TMC3    C510491   0.976   0.699  16.319  0.3673 -0.1950  0.8130
  706TMC3    C610492   0.892   0.787  16.261 -0.1879  0.9884  0.0343
  706TMC3     C10493   1.212   0.645  16.043 -0.4880  0.1213  0.0205
  706TMC3     O10494   1.301   0.593  16.110 -0.4057 -0.6185  0.3505
  706TMC3     H10495   1.043   0.848  15.966  1.3961 -1.2118 -0.9404
  706TMC3    H110496   1.145   0.575  16.280 -0.3067 -1.5261 -1.6504
  706TMC3    H210497   0.795   0.810  16.304 -0.3134  0.8897 -0.1965
  706TMC3    C710498   0.936   0.624  16.441  0.4951 -0.5564 -0.6344
  706TMC3    C810499   0.883   0.965  16.096 -0.5152  0.4474 -0.4229
  706TMC3    O110500   1.016   0.548  16.489  0.0766  0.6629  0.1658
  706TMC3    O210501   0.855   0.984  15.975  0.0938  0.4609 -0.1156
  707TMC3    C110502   2.474   4.540   0.530  0.0839  0.5027  0.1201
  707TMC3    C210503   2.472   4.512   0.661 -0.4029  0.0823 -0.3103
  707TMC3    C310504   2.347   4.508   0.724  0.0044  0.1475 -0.0433
  707TMC3    C410505   2.363   4.556   0.455 -0.4968 -0.1153  0.1087
  707TMC3    C510506   2.242   4.546   0.510 -0.0968  0.1126  0.9395
  707TMC3    C610507   2.230   4.524   0.649  0.4877 -0.1993 -0.4115
  707TMC3     C10508   2.598   4.509   0.459 -0.2119  0.5660  0.2907
  707TMC3     O10509   2.681   4.451   0.523 -0.0678 -0.3661  0.3679
  707TMC3     H10510   2.561   4.485   0.716 -1.0007 -2.9243 -0.8078
  707TMC3    H110511   2.358   4.564   0.347  0.2700  1.6005  0.2138
  707TMC3    H210512   2.136   4.537   0.702  1.0511  1.4303  0.1760
  707TMC3    C710513   2.121   4.592   0.443  0.2416  0.2227 -0.3365
  707TMC3    C810514   2.335   4.429   0.845 -0.3524 -0.9439 -0.5064
  707TMC3    O110515   2.010   4.557   0.491  0.0506  0.9214 -0.2740
  707TMC3    O210516   2.258   4.463   0.930 -0.4113 -0.3060  0.0113
  708MPD2     C10517   4.124   4.526  13.470 -0.4699 -0.2420 -0.1347
  708MPD2    C110518   4.003   4.529  13.541 -0.4780 -1.6293 -0.3230
  708MPD2    C210519   4.010   4.495  13.679 -0.6144  0.1834  0.0414
  708MPD2    C310520   4.127   4.487  13.747 -0.2689  0.0627  0.3383
  708MPD2    C410521   4.244   4.509  13.677  0.0055  0.4005  0.1879
  708MPD2    C510522   4.237   4.534  13.536 -0.3996  0.9355 -0.4449
  708MPD2     H10523   3.923   4.457  13.731 -0.5141  1.0219  0.8279
  708MPD2    H110524   4.342   4.496  13.720  0.7159 -0.1249 -1.5957
  708MPD2    H210525   4.129   4.562  13.367 -0.8052 -1.1577 -0.4708
  708MPD2    H310526   4.323   4.561  13.476  0.6718  3.1647  2.0783
  708MPD2     N10527   4.139   4.435  13.879 -0.5300 -0.1017  0.1861
  708MPD2    H510528   4.236   4.429  13.909  0.0078  0.7017 -1.3879
  708MPD2    N110529   3.881   4.516  13.468 -0.7046 -0.0075  0.0616
  708MPD2    H710530   3.884   4.527  13.367  1.4987 -0.3876  0.1003
  709TMC3    C110531   3.663   4.433  13.418  0.1253  0.2569 -1.0255
  709TMC3    C210532   3.709   4.341  13.329 -0.9864 -0.2117 -0.1498
  709TMC3    C310533   3.660   4.215  13.334  0.4674  0.3775  0.6693
  709TMC3    C410534   3.544   4.398  13.476  0.1826  0.0478  0.4660
  709TMC3    C510535   3.490   4.270  13.464 -0.5354  0.6630 -0.1535
  709TMC3    C610536   3.553   4.170  13.401 -0.7394 -0.5219  0.0986
  709TMC3     C10537   3.762   4.474  13.517 -0.1776 -0.4341 -0.7106
  709TMC3     O10538   3.720   4.468  13.634 -0.1282 -0.1783 -0.0214
  709TMC3     H10539   3.799   4.361  13.272 -2.1777  2.8407 -1.0040
  709TMC3    H110540   3.496   4.470  13.541  1.6091  2.5449 -1.2576
  709TMC3    H210541   3.516   4.069  13.411 -2.3408  0.0982  0.4490
  709TMC3    C710542   3.441   4.220  13.594 -0.7022 -0.3206 -0.3535
  709TMC3    C810543   3.688   4.126  13.221 -0.4757  0.5060  0.0984
  709TMC3    O110544   3.369   4.123  13.603 -0.2233 -0.0715 -0.4794
  709TMC3    O210545   3.667   4.008  13.237  0.4263 -0.1295  0.1226
  710TMC3    C110546   0.338   4.461   0.513 -0.1099  0.7309  0.4338
  710TMC3    C210547   0.452   4.539   0.487  0.2849  0.0918  0.1678
  710TMC3    C310548   0.572   4.499   0.553  0.4642 -0.0274 -0.6760
  710TMC3    C410549   0.345   4.349   0.581  0.0717  0.4264 -0.1269
  710TMC3    C510550   0.474   4.307   0.625  0.4947  0.1799  0.2681
  710TMC3    C610551   0.586   4.382   0.623  0.7111 -0.6943  0.0308
  710TMC3     C10552   0.221   4.488   0.428  0.1070  0.2172  0.3377
  710TMC3     O10553   0.143   4.392   0.423  0.3103  0.3459  0.3076
  710TMC3     H10554   0.457   4.631   0.429 -0.0295  1.3339  2.1000
  710TMC3    H110555   0.256   4.289   0.593 -0.3320  0.7358 -1.5470
  710TMC3    H210556   0.681   4.343   0.656  0.5958 -1.4200 -0.4956
  710TMC3    C710557   0.459   4.211   0.740  0.4288  1.0109 -0.3595
  710TMC3    C810558   0.683   4.593   0.567 -0.2644  0.4040 -0.1331
  710TMC3    O110559   0.351   4.200   0.787  0.3934 -0.4230  0.2953
  710TMC3    O210560   0.687   4.677   0.478 -0.2423 -0.7841  0.0798
  711TMC3    C110561   4.261   1.821  15.197  0.1212 -0.3921 -0.0704
  711TMC3    C210562   4.258   1.765  15.320  0.0376 -0.1757 -0.3641
  711TMC3    C310563   4.333   1.834  15.414  0.8210 -1.3684 -0.0255
  711TMC3    C410564   4.338   1.926  15.168  0.1229  0.1878  0.5045
  711TMC3    C510565   4.435   1.971  15.251 -0.3937  0.4644 -0.0252
  711TMC3    C610566   4.421   1.932  15.377  0.3988  0.1092  0.2264
  711TMC3     C10567   4.254   1.727  15.083  0.8312 -0.0954 -0.1083
  711TMC3     O10568   4.231   1.777  14.974 -0.0904  0.9462 -0.2474
  711TMC3     H10569   4.192   1.683  15.345 -0.4142 -0.1601 -1.5242
  711TMC3    H110570   4.327   1.964  15.067  0.4714  0.2076  0.4757
  711TMC3    H210571   4.492   1.979  15.444 -0.3031  2.3934 -0.6229
  711TMC3    C710572   4.566   1.936  15.209  0.1664  0.0543  0.2497
  711TMC3    C810573   4.376   1.744  15.519 -0.2466 -0.4448  0.1783
  711TMC3    O110574   4.637   1.880  15.297  0.0309  0.7690  0.1346
  711TMC3    O210575   4.293   1.669  15.574  0.4832  0.0265 -0.0836
  712MPD2     C10576   1.401   2.475  13.980 -0.1310 -0.4139 -0.8816
  712MPD2    C110577   1.329   2.559  13.898  0.6184 -0.8497  0.1330
  712MPD2    C210578   1.367   2.691  13.900  0.5567  0.7949 -0.5827
  712MPD2    C310579   1.480   2.736  13.977 -0.4732  0.0438  0.1280
  712MPD2    C410580   1.549   2.645  14.053  0.8160 -0.0195 -0.5757
  712MPD2    C510581   1.513   2.517  14.044  0.3530  0.2577  0.2525
  712MPD2     H10582   1.316   2.761  13.835 -0.3935  2.2840  1.7710
  712MPD2    H110583   1.642   2.669  14.103  0.3760  0.9817 -0.2540
  712MPD2    H210584   1.381   2.371  14.003 -1.2986  0.3562  1.5995
  712MPD2    H310585   1.566   2.438  14.097 -1.4627 -0.7821  0.5053
  712MPD2     N10586   1.516   2.871  13.985 -0.1448  0.2779  0.3945
  712MPD2    H510587   1.604   2.888  14.034 -1.8668 -0.7473  3.8217
  712MPD2    N110588   1.219   2.518  13.817  0.4876 -0.2720  0.3564
  712MPD2    H710589   1.179   2.595  13.764  0.8875 -0.1839  0.1813
  713TMC3    C110590   1.507   3.105  13.963  0.6719  0.1818 -0.0203
  713TMC3    C210591   1.634   3.113  13.907 -0.0797 -0.0721 -0.1369
  713TMC3    C310592   1.685   3.236  13.871  0.8698  0.0709  0.0243
  713TMC3    C410593   1.427   3.222  13.961  0.5544  0.2648  0.0893
  713TMC3    C510594   1.480   3.344  13.923  0.8037 -1.0106  0.0230
  713TMC3    C610595   1.613   3.348  13.880 -0.0826 -0.5325 -0.5340
  713TMC3     C10596   1.441   2.975  13.947  0.6545 -0.0400 -0.5699
  713TMC3     O10597   1.323   2.978  13.928  0.2184 -0.3158 -0.0213
  713TMC3     H10598   1.704   3.031  13.914 -0.5593 -0.3716  1.1372
  713TMC3    H110599   1.327   3.226  14.005  0.9530  0.1805  1.0058
  713TMC3    H210600   1.657   3.443  13.852  1.1825 -1.5883 -2.0949
  713TMC3    C710601   1.442   3.466  13.984 -0.2792 -0.4109 -0.1874
  713TMC3    C810602   1.810   3.245  13.803  0.9548  0.2034  0.3984
  713TMC3    O110603   1.536   3.537  14.024  0.6860  0.4829  0.0001
  713TMC3    O210604   1.833   3.317  13.704  0.6393 -0.0205 -0.6565
  714MPD2     C10605   3.766   0.625   1.392  0.2745 -0.3933 -0.0185
  714MPD2    C110606   3.759   0.638   1.260  0.5661 -0.2629 -0.4172
  714MPD2    C210607   3.647   0.693   1.200 -0.2847 -0.0324  0.0617
  714MPD2    C310608   3.555   0.756   1.272 -0.8959  0.2299  0.1684
  714MPD2    C410609   3.559   0.737   1.411  0.0271  0.0012 -0.3588
  714MPD2    C510610   3.667   0.681   1.465  0.3700 -0.7825 -0.1292
  714MPD2     H10611   3.635   0.701   1.092  2.7608 -0.7636 -0.3273
  714MPD2    H110612   3.502   0.795   1.483  0.6382  0.1466  0.0054
  714MPD2    H210613   3.850   0.587   1.449 -0.5760 -0.4458  1.1881
  714MPD2    H310614   3.669   0.670   1.573  2.5931  0.1034 -0.0800
  714MPD2     N10615   3.463   0.836   1.205 -0.2867 -0.8102 -0.6758
  714MPD2    H510616   3.483   0.853   1.107 -1.4021  2.7049 -0.2656
  714MPD2    N110617   3.858   0.571   1.190 -0.7389  0.5037  0.2045
  714MPD2    H710618   3.930   0.526   1.247 -1.5321  2.3191  2.6448
  715TMC3    C110619   3.986   0.486   1.025  0.6287  0.1277  0.1690
  715TMC3    C210620   3.988   0.388   0.927  0.1100 -1.2952 -0.2672
  715TMC3    C310621   4.106   0.324   0.906 -0.3156 -0.2404 -0.1604
  715TMC3    C410622   4.094   0.508   1.111 -0.2745 -0.0429  0.2070
  715TMC3    C510623   4.199   0.427   1.096  0.2702  0.2399 -0.2384
  715TMC3    C610624   4.210   0.339   0.995  0.8412  0.2062 -0.4306
  715TMC3     C10625   3.865   0.559   1.051  0.0447 -0.4035 -0.2878
  715TMC3     O10626   3.778   0.577   0.966  0.3268  0.3148  0.5443
  715TMC3     H10627   3.902   0.387   0.861 -0.4304 -0.8934  0.4294
  715TMC3    H110628   4.098   0.582   1.190  1.6664  0.7332 -0.6195
  715TMC3    H210629   4.298   0.276   1.000  1.3014  0.9154  0.4704
  715TMC3    C710630   4.325   0.449   1.171 -0.5955  0.3269  0.1678
  715TMC3    C810631   4.118   0.255   0.779  0.1386 -0.0915 -0.2775
  715TMC3    O110632   4.422   0.404   1.109  0.0063 -0.2259  0.0090
  715TMC3    O210633   4.014   0.225   0.717  0.7758  0.0340  0.5506
  716MPD2     C10634   4.524   0.083  10.236  0.7407 -0.6034  0.2372
  716MPD2    C110635   4.473   4.719  10.160 -0.1642 -0.6859  0.9022
  716MPD2    C210636   4.489   4.594  10.205  0.3706  0.1578 -0.1862
  716MPD2    C310637   4.559   4.563  10.318  0.0954  0.4315  0.6773
  716MPD2    C410638   4.610   4.665  10.399  0.0119 -0.5459 -0.5937
  716MPD2    C510639   4.594   0.056  10.354 -0.1357 -0.2391  0.0186
  716MPD2     H10640   4.453   4.506  10.153 -0.4054  0.5098 -0.2474
  716MPD2    H110641   4.678   4.641  10.480  2.8443  0.4419 -2.6689
  716MPD2    H210642   4.509   0.188  10.213  1.8422 -0.5420 -0.2206
  716MPD2    H310643   4.633   0.131  10.422 -0.2573 -0.4579  0.3321
  716MPD2     N10644   4.570   4.426  10.353  0.2688 -0.0509 -0.2204
  716MPD2    H510645   4.533   4.356  10.290 -2.0364 -0.5319  1.6429
  716MPD2    N110646   4.416   0.020  10.044 -0.9347 -0.2934 -0.4765
  716MPD2    H710647   4.407   0.122  10.044  0.7591 -0.1408  0.3296
  717TMC3    C110648   4.574   4.225  10.474 -0.2887  0.2543  0.0551
  717TMC3    C210649   4.550   4.162  10.352 -0.5592  0.7338  0.5868
  717TMC3    C310650   4.478   4.044  10.351  0.3079  0.2105 -0.4494
  717TMC3    C410651   4.538   4.167  10.597  1.0211 -0.6874  0.3776
  717TMC3    C510652   4.464   4.053  10.591  0.3477 -0.1579 -0.4048
  717TMC3    C610653   4.438   3.992  10.470  0.0877 -0.7590  0.1121
  717TMC3     C10654   4.608   4.369  10.471  0.4562  0.4597  0.3544
  717TMC3     O10655   4.652   4.421  10.574 -0.2717 -0.2504 -0.0997
  717TMC3     H10656   4.592   4.206  10.262  1.3181 -0.3312  0.9373
  717TMC3    H110657   4.584   4.206  10.687 -0.7220  0.7497  0.6465
  717TMC3    H210658   4.377   3.904  10.477 -0.5605 -0.4363 -1.4130
  717TMC3    C710659   4.475   3.961  10.701 -0.0635  0.0795 -0.1216
  717TMC3    C810660   4.421   4.011  10.227  1.3192 -0.5313 -0.2619
  717TMC3    O110661   4.481   3.844  10.670 -0.1765  0.3554  0.2573
  717TMC3    O210662   4.426   4.085  10.129  0.2661  0.0433 -0.4003
  718MPD2     C10663   3.182   3.036  12.956 -0.0587  0.2657  0.2946
  718MPD2    C110664   3.130   3.050  12.833 -0.1097 -0.4523  0.5093
  718MPD2    C210665   3.029   2.959  12.808 -0.2390 -0.1430 -0.3783
  718MPD2    C310666   2.975   2.867  12.896  0.3215 -0.0105 -0.1471
  718MPD2    C410667   3.025   2.868  13.028 -0.8398 -0.4188 -0.2092
  718MPD2    C510668   3.130   2.946  13.048 -0.0421  0.1961 -0.3748
  718MPD2     H10669   2.984   2.958  12.709 -0.4245  2.1170 -0.3106
  718MPD2    H110670   2.975   2.830  13.116 -1.3199  1.3188  0.2633
  718MPD2    H210671   3.263   3.100  12.989 -0.1190 -0.7320  2.4076
  718MPD2    H310672   3.169   2.954  13.149  0.2943 -1.3779 -0.3759
  718MPD2     N10673   2.863   2.798  12.850 -0.2842 -0.1140  0.8095
  718MPD2    H510674   2.840   2.811  12.752 -0.0781  0.2311  0.8070
  718MPD2    N110675   3.175   3.145  12.730 -0.0765  0.1131  0.5153
  718MPD2    H710676   3.255   3.205  12.747 -0.4481  0.1446  2.1050
  719TMC3    C110677   3.170   3.245  12.513  0.0076  0.1840 -0.8296
  719TMC3    C210678   3.080   3.267  12.414  0.1279  0.5350  0.2674
  719TMC3    C310679   3.114   3.234  12.282 -0.0325  0.9635 -0.2441
  719TMC3    C410680   3.300   3.212  12.487  0.2469 -0.2745  0.4599
  719TMC3    C510681   3.335   3.202  12.361 -0.3569 -0.2618  0.3156
  719TMC3    C610682   3.243   3.206  12.253  0.0575 -0.4122  0.2969
  719TMC3     C10683   3.108   3.168  12.614  0.7381 -0.3139 -0.0320
  719TMC3     O10684   2.996   3.136  12.583  0.2500  0.1459 -0.3462
  719TMC3     H10685   2.989   3.323  12.428 -0.3013 -0.0794 -0.0313
  719TMC3    H110686   3.366   3.197  12.572  1.1997  0.8339 -0.0792
  719TMC3    H210687   3.273   3.189  12.150  0.1013  2.1417 -0.1030
  719TMC3    C710688   3.477   3.230  12.325  0.4059 -0.0732  0.6999
  719TMC3    C810689   3.019   3.149  12.223  0.2473 -0.2559 -0.8219
  719TMC3    O110690   3.496   3.278  12.212 -0.3604 -0.1602  0.4879
  719TMC3    O210691   3.041   3.107  12.112  0.4436  0.2620  0.5166
  720MPD2     C10692   1.409   4.304  13.904 -0.7261  0.2530 -0.4479
  720MPD2    C110693   1.453   4.423  13.847  0.5748  0.1646  0.1474
  720MPD2    C210694   1.566   4.492  13.891  0.2009 -0.5457 -0.8155
  720MPD2    C310695   1.647   4.431  13.982  0.3251  0.1973 -1.2402
  720MPD2    C410696   1.619   4.302  14.026  0.0076 -0.2432 -0.2588
  720MPD2    C510697   1.503   4.240  13.984 -0.3458 -0.1902 -0.5958
  720MPD2     H10698   1.597   4.590  13.856 -1.1519  1.0734  2.4754
  720MPD2    H110699   1.677   4.254  14.104  0.2179  1.1744  0.4520
  720MPD2    H210700   1.314   4.256  13.882 -1.0316  0.6510 -0.0111
  720MPD2    H310701   1.472   4.146  14.026  0.5966 -0.4328 -0.4288
  720MPD2     N10702   1.757   4.507  14.039  0.0168 -0.0232  0.3226
  720MPD2    H510703   1.793   4.587  13.987  0.0857  0.7043  1.5003
  720MPD2    N110704   1.376   4.487  13.748  0.4823 -0.5123 -0.0293
  720MPD2    H710705   1.411   4.574  13.709 -0.0757 -0.2733  0.0112
  721TMC3    C110706   1.922   4.571  14.190 -1.3096  0.3428  1.6102
  721TMC3    C210707   1.945   4.589  14.324 -0.1388 -0.0800 -0.0468
  721TMC3    C310708   2.043   4.676  14.360 -0.3129  0.0329 -0.4279
  721TMC3    C410709   1.999   4.627  14.099 -0.3025  0.1145 -1.3161
  721TMC3    C510710   2.099   4.707  14.135 -0.3087  0.0546 -0.1890
  721TMC3    C610711   2.122   4.733  14.264  0.1438 -0.5385  0.6169
  721TMC3     C10712   1.818   4.476  14.160 -0.1695  0.2617  0.1001
  721TMC3     O10713   1.795   4.389  14.241 -0.0282 -0.1577 -0.1076
  721TMC3     H10714   1.868   4.562  14.394 -1.6519  0.9351 -1.3294
  721TMC3    H110715   1.986   4.588  13.999  0.3961  1.0095 -1.7617
  721TMC3    H210716   2.198   0.070  14.281 -0.5409 -0.1122  1.7926
  721TMC3    C710717   2.192   0.023  14.036 -0.0616 -0.5175  0.8303
  721TMC3    C810718   1.999   0.028  14.465  0.5726 -0.2162  0.1414
  721TMC3    O110719   2.311   0.036  14.063  0.3173 -0.1805  0.4957
  721TMC3    O210720   2.033   0.147  14.463  0.4724  0.2006  0.3588
  722MPD2     C10721   0.351   3.277  13.622 -0.0278  0.1972 -0.0621
  722MPD2    C110722   0.335   3.409  13.575 -0.0365  0.0546 -0.2184
  722MPD2    C210723   0.239   3.432  13.478  0.4258 -0.1754  0.1737
  722MPD2    C310724   0.177   3.331  13.411  0.9503 -0.4847 -0.6091
  722MPD2    C410725   0.202   3.195  13.455  0.1050 -0.3214  0.0017
  722MPD2    C510726   0.288   3.176  13.560 -0.4655 -0.3360  1.4139
  722MPD2     H10727   0.219   3.534  13.447 -0.2375 -0.9119 -1.8441
  722MPD2    H110728   0.153   3.108  13.412 -0.1964  0.8453 -2.0464
  722MPD2    H210729   0.419   3.248  13.701  0.3618  0.6484 -0.2331
  722MPD2    H310730   0.300   3.075  13.598  0.8883 -1.3757 -1.7617
  722MPD2     N10731   0.087   3.365  13.311  0.0900  0.0286 -0.0422
  722MPD2    H510732   0.066   3.462  13.290 -2.1272  0.1893  2.8718
  722MPD2    N110733   0.416   3.520  13.624 -0.2402  0.5443 -0.2401
  722MPD2    H710734   0.391   3.609  13.580 -1.2755  0.3107 -0.1298
  723TMC3    C110735   4.691   3.336  13.120  0.5084  0.2832  0.7468
  723TMC3    C210736   4.624   3.251  13.038  0.0086 -0.6508  0.2561
  723TMC3    C310737   4.585   3.303  12.915 -0.1744  0.1593 -0.4346
  723TMC3    C410738   4.725   3.464  13.086 -0.5683 -0.1429  0.7608
  723TMC3    C510739   4.683   3.508  12.966 -0.0699 -1.1121  0.0010
  723TMC3    C610740   4.616   3.430  12.881  0.0852 -0.2775 -0.3977
  723TMC3     C10741   0.026   3.272  13.229 -0.4968 -0.3088  1.1472
  723TMC3     O10742   0.026   3.147  13.241  0.5639  0.3097 -0.2302
  723TMC3     H10743   4.585   3.161  13.084 -1.9939 -0.0759 -0.3223
  723TMC3    H110744   0.041   3.529  13.154 -1.8668  2.3950 -0.6350
  723TMC3    H210745   4.577   3.472  12.789  0.2137 -1.4588 -0.9858
  723TMC3    C710746   4.723   3.637  12.916  0.0237 -0.0557 -0.0218
  723TMC3    C810747   4.478   3.241  12.836  0.0275  0.4532  0.7131
  723TMC3    O110748   4.733   3.718  13.006  0.3765 -0.3403 -0.0908
  723TMC3    O210749   4.431   3.297  12.741 -0.3286 -0.2660 -0.1900
  724TMC3    C110750   1.150   1.750  10.506 -0.5399  0.0891  0.0322
  724TMC3    C210751   1.166   1.710  10.372 -0.0755  0.8463  0.6310
  724TMC3    C310752   1.254   1.787  10.299  0.1019 -0.6691  0.5912
  724TMC3    C410753   1.226   1.845  10.559 -0.2332  0.4939  0.4735
  724TMC3    C510754   1.312   1.918  10.487  0.4682 -0.6637  0.2377
  724TMC3    C610755   1.336   1.883  10.354  0.3354 -0.1728 -0.5478
  724TMC3     C10756   1.067   1.683  10.597  0.1480  0.1365  0.1183
  724TMC3     O10757   1.033   1.746  10.698 -0.2275 -0.4968  0.3177
  724TMC3     H10758   1.091   1.648  10.325  0.0549 -0.3304  1.9651
  724TMC3    H110759   1.207   1.889  10.656  2.2037 -1.5466  1.8600
  724TMC3    H210760   1.425   1.921  10.304  0.6237  0.3126  0.3182
  724TMC3    C710761   1.364   2.050  10.516  0.5517 -0.7115 -0.7026
  724TMC3    C810762   1.231   1.804  10.155 -0.3678  0.2895  0.3558
  724TMC3    O110763   1.471   2.079  10.465  0.0284  1.1091 -0.0008
  724TMC3    O210764   1.168   1.714  10.099  0.4217  0.1999  0.4800
  725TMC3    C110765   2.449   0.273  13.148  1.0237 -0.2500 -0.0130
  725TMC3    C210766   2.321   0.272  13.188  0.9902  0.3756 -0.4667
  725TMC3    C310767   2.251   0.155  13.186 -0.3200  0.0052 -0.4476
  725TMC3    C410768   2.514   0.153  13.108  0.1280 -0.3593  0.4192
  725TMC3    C510769   2.433   0.042  13.112 -0.2581 -0.2804  0.4812
  725TMC3    C610770   2.305   0.035  13.147 -0.4791  0.1912 -0.3994
  725TMC3     C10771   2.527   0.394  13.135  0.0348  0.5915  0.0892
  725TMC3     O10772   2.487   0.483  13.207  0.1162 -0.6442  0.5180
  725TMC3     H10773   2.283   0.363  13.232  0.5979  0.2419 -0.5272
  725TMC3    H110774   2.622   0.144  13.103  0.0964 -0.5470  0.1032
  725TMC3    H210775   2.241   4.687  13.136  1.1742 -1.0388 -0.4154
  725TMC3    C710776   2.480   4.671  13.027  0.2791  0.2350 -0.0534
  725TMC3    C810777   2.103   0.164  13.170  0.3871  0.4776  0.1018
  725TMC3    O110778   2.441   4.556  13.050  0.2229  0.4665 -0.2281
  725TMC3    O210779   2.051   0.049  13.165 -0.0397  0.6684 -0.3666
  726MPD2     C10780   0.415   1.923  10.318 -0.8308  0.3219  0.1505
  726MPD2    C110781   0.327   1.931  10.217  0.2591 -0.2972 -0.6910
  726MPD2    C210782   0.191   1.897  10.238  0.1103  0.1709  0.2954
  726MPD2    C310783   0.148   1.835  10.349  0.9325  0.9452 -0.2004
  726MPD2    C410784   0.242   1.810  10.450 -0.0328 -0.4518 -0.6679
  726MPD2    C510785   0.371   1.860  10.438 -0.4011 -0.0122 -0.1514
  726MPD2     H10786   0.127   1.932  10.158 -1.6012  1.6361  2.3084
  726MPD2    H110787   0.210   1.772  10.546  1.2366  3.4491  1.3372
  726MPD2    H210788   0.514   1.965  10.306 -0.4912 -0.8459 -1.0420
  726MPD2    H310789   0.437   1.848  10.523  1.0488  1.7767 -1.0185
  726MPD2     N10790   0.019   1.793  10.382 -0.0909  0.1384  0.6488
  726MPD2    H510791   0.003   1.746  10.470  4.2336  1.0695  1.9208
  726MPD2    N110792   0.365   2.000  10.101 -0.1046 -0.1326 -0.2626
  726MPD2    H710793   0.460   2.037  10.104  0.2052 -1.0588  1.0993
  727TMC3    C110794   0.371   2.103   9.896 -0.8058 -0.1185 -0.0366
  727TMC3    C210795   0.428   2.215   9.954  0.1718  1.0687 -0.6863
  727TMC3    C310796   0.436   2.321   9.871  0.7974 -0.0084  0.6577
  727TMC3    C410797   0.319   2.102   9.769  0.1975  0.6597  0.1747
  727TMC3    C510798   0.317   2.224   9.697 -0.0435  0.0457 -0.3710
  727TMC3    C610799   0.386   2.336   9.746  0.7875 -0.5784  0.1166
  727TMC3     C10800   0.299   2.010   9.986 -0.6184  0.4751 -0.9999
  727TMC3     O10801   0.195   1.967   9.948 -0.4352  0.2513 -1.0988
  727TMC3     H10802   0.450   2.228  10.060 -2.9909  0.2548  0.0763
  727TMC3    H110803   0.271   2.014   9.728 -0.7332  1.1974  0.1093
  727TMC3    H210804   0.395   2.427   9.688 -0.8313 -0.2780  0.3534
  727TMC3    C710805   0.236   2.245   9.582  0.2497  0.0097 -0.0166
  727TMC3    C810806   0.531   2.424   9.913 -0.4531  0.0013  0.1169
  727TMC3    O110807   0.226   2.363   9.552 -0.4933 -0.1850  0.1207
  727TMC3    O210808   0.616   2.385   9.989 -0.0040  0.2177  0.0891
  728TMC3    C110809   3.948   0.430  15.460 -0.2880 -0.5436  0.1565
  728TMC3    C210810   4.055   0.510  15.485  0.3156  0.2879 -0.2503
  728TMC3    C310811   4.073   0.616  15.395  0.2501 -0.1380  0.3257
  728TMC3    C410812   3.861   0.447  15.354 -0.2168 -0.1061  0.0020
  728TMC3    C510813   3.888   0.551  15.269  0.3855 -0.0384  0.1905
  728TMC3    C610814   4.000   0.636  15.286  0.9333 -0.9524  0.1735
  728TMC3     C10815   3.910   0.343  15.567 -0.4611 -0.4822  0.1551
  728TMC3     O10816   3.983   0.324  15.664 -0.4461  0.6690 -0.1747
  728TMC3     H10817   4.116   0.498  15.574  1.1204  0.8452 -0.7354
  728TMC3    H110818   3.781   0.382  15.320 -1.7331  1.2625  0.9975
  728TMC3    H210819   4.003   0.733  15.238 -0.6367 -1.1883 -0.3981
  728TMC3    C710820   3.784   0.585  15.174  0.7809  0.0294 -0.3181
  728TMC3    C810821   4.165   0.734  15.427  0.2050 -0.4974  0.1964
  728TMC3    O110822   3.680   0.528  15.193  0.0277 -0.3705  0.3751
  728TMC3    O210823   4.166   0.829  15.345  0.8829  0.3890  0.5009
  729MPD2     C10824   1.161   1.625  17.047  0.2392 -0.0067  0.3816
  729MPD2    C110825   1.265   1.539  17.046 -0.6295 -0.3188 -0.5989
  729MPD2    C210826   1.330   1.507  17.169 -0.0274  0.7072  0.1726
  729MPD2    C310827   1.291   1.577  17.277  0.2020 -0.8482  0.2651
  729MPD2    C410828   1.178   1.649  17.276  0.6101  0.0059 -0.1407
  729MPD2    C510829   1.110   1.677  17.159  0.1042 -0.0801 -0.2179
  729MPD2     H10830   1.409   1.435  17.184 -0.2394  0.2882 -0.7605
  729MPD2    H110831   1.153   1.706  17.364 -0.8895  1.0889 -1.2946
  729MPD2    H210832   1.103   1.636  16.957  1.6899  0.6871 -0.4783
  729MPD2    H310833   1.021   1.739  17.165 -0.6271 -1.0623 -0.8733
  729MPD2     N10834   1.352   1.577  17.402 -0.3175  0.3786 -0.2481
  729MPD2    H510835   1.326   1.652  17.465 -0.8908  0.5982 -0.7431
  729MPD2    N110836   1.311   1.488  16.925  0.4661 -0.3966  0.2538
  729MPD2    H710837   1.262   1.516  16.841  1.3445  1.6414  0.4175
  730TMC3    C110838   1.490   1.508  17.587 -0.1793  0.3406  0.4805
  730TMC3    C210839   1.629   1.524  17.594  0.7505  0.7367  0.2003
  730TMC3    C310840   1.682   1.630  17.667 -0.1076 -0.4586  0.4297
  730TMC3    C410841   1.414   1.607  17.646  0.1510  0.1672  0.3665
  730TMC3    C510842   1.464   1.711  17.715  0.3168 -0.3024 -0.2530
  730TMC3    C610843   1.598   1.709  17.744  0.2230 -0.0416 -0.5396
  730TMC3     C10844   1.454   1.494  17.449 -0.1185  0.1630  0.3533
  730TMC3     O10845   1.520   1.411  17.384 -0.4728  0.2382  0.5344
  730TMC3     H10846   1.703   1.468  17.538 -1.1541 -1.5939  0.0266
  730TMC3    H110847   1.307   1.596  17.631  0.1619 -1.2143  1.3209
  730TMC3    H210848   1.632   1.802   0.036  1.9445 -0.0227 -1.8429
  730TMC3    C710849   1.416   1.838  17.659 -0.6808 -0.5536  0.1082
  730TMC3    C810850   1.746   1.716  17.581  0.5134  0.1400 -0.1627
  730TMC3    O110851   1.357   1.840  17.551  0.5646 -0.4320  0.0375
  730TMC3    O210852   1.712   1.711  17.464  0.2389  0.3550  0.4588
  731MPD2     C10853   1.107   3.953  12.270 -0.0082 -0.4870 -0.5626
  731MPD2    C110854   1.239   3.983  12.262 -0.5183 -0.1531 -0.3934
  731MPD2    C210855   1.314   3.954  12.376 -0.8559  0.7906  0.5484
  731MPD2    C310856   1.255   3.900  12.490  0.3864  0.6435 -0.0439
  731MPD2    C410857   1.122   3.879  12.493  0.9022  0.4070  0.6813
  731MPD2    C510858   1.050   3.897  12.381  0.1189  0.9655 -0.2776
  731MPD2     H10859   1.421   3.973  12.375 -0.3027 -2.6359 -2.9723
  731MPD2    H110860   1.064   3.838  12.574 -0.4722 -0.0206 -0.5275
  731MPD2    H210861   1.043   3.968  12.183 -0.4260 -0.6480 -0.2828
  731MPD2    H310862   0.945   3.870  12.383  0.7310 -1.3070  1.6428
  731MPD2     N10863   1.330   3.869  12.602  0.5257 -0.3213 -0.0307
  731MPD2    H510864   1.431   3.882  12.595  0.6014 -1.6450 -1.3495
  731MPD2    N110865   1.287   4.049  12.141  0.5233  0.3228  0.4093
  731MPD2    H710866   1.225   4.061  12.062  1.6066 -0.9319 -0.6398
  732TMC3    C110867   1.429   4.135  11.978 -0.2604 -0.2019  0.7041
  732TMC3    C210868   1.329   4.208  11.931  0.0993 -0.1537 -0.4579
  732TMC3    C310869   1.364   4.303  11.838 -0.0901 -0.2374 -0.2001
  732TMC3    C410870   1.556   4.157  11.943 -0.5629  0.0466  0.5129
  732TMC3    C510871   1.585   4.250  11.849 -0.6349  0.0646  0.4257
  732TMC3    C610872   1.489   4.320  11.784  0.0939 -0.0946  0.0969
  732TMC3     C10873   1.422   4.074  12.109 -0.6468  0.4236  0.4530
  732TMC3     O10874   1.527   4.051  12.179 -0.0034  0.0385 -0.1123
  732TMC3     H10875   1.226   4.178  11.950 -0.6921  2.8098 -0.0939
  732TMC3    H110876   1.631   4.094  11.990  0.9515  1.0136 -0.6000
  732TMC3    H210877   1.525   4.400  11.721  0.3783  0.7648  1.3417
  732TMC3    C710878   1.693   4.342  11.902 -0.4337 -0.1766  0.0873
  732TMC3    C810879   1.263   4.381  11.776 -0.0048  0.1063 -0.2775
  732TMC3    O110880   1.675   4.461  11.876  0.2778  0.6921  0.1039
  732TMC3    O210881   1.279   4.451  11.675  0.0844 -0.6083  0.5545
  733TMC3    C110882   2.417   2.646  12.868 -0.2456  0.3554  0.1452
  733TMC3    C210883   2.526   2.671  12.939 -0.6310  0.1963 -0.3065
  733TMC3    C310884   2.642   2.698  12.863  0.3338 -0.3890  0.0521
  733TMC3    C410885   2.412   2.647  12.729  0.0635  0.3811  0.8367
  733TMC3    C510886   2.525   2.668  12.661  0.5833  0.5847 -0.0325
  733TMC3    C610887   2.646   2.687  12.725  0.1817 -0.5750  0.5292
  733TMC3     C10888   2.289   2.647  12.927  0.1336  0.0747  0.0181
  733TMC3     O10889   2.196   2.664  12.852  0.1795 -0.5645 -0.2108
  733TMC3     H10890   2.514   2.678  13.047  1.2538 -0.8256 -0.0403
  733TMC3    H110891   2.321   2.623  12.675 -0.4930 -1.0487  2.4012
  733TMC3    H210892   2.738   2.696  12.669 -1.0530 -0.9714 -1.5593
  733TMC3    C710893   2.510   2.718  12.528 -0.1722  0.2682  0.3538
  733TMC3    C810894   2.765   2.743  12.933 -0.5101 -0.0616  0.3619
  733TMC3    O110895   2.421   2.667  12.463  0.3337  0.4147  0.1711
  733TMC3    O210896   2.757   2.730  13.054  0.3216  0.4892  0.3937
  734MPD2     C10897   4.493   0.461  12.920  0.0993  0.4896  0.4743
  734MPD2    C110898   4.545   0.372  12.826 -0.7313 -0.0157 -0.4049
  734MPD2    C210899   4.584   0.429  12.701 -0.0119  0.3124 -0.4116
  734MPD2    C310900   4.570   0.569  12.671  0.0344  0.2641 -0.9725
  734MPD2    C410901   4.503   0.646  12.764 -0.4762  0.2290  0.1564
  734MPD2    C510902   4.468   0.595  12.886  0.1830  0.3536  0.0233
  734MPD2     H10903   4.636   0.362  12.633 -0.8331 -0.6093 -0.1407
  734MPD2    H110904   4.474   0.749  12.749 -2.4630 -0.6001 -1.6615
  734MPD2    H210905   4.447   0.427  13.012 -0.3499  0.9668  0.4289
  734MPD2    H310906   4.423   0.660  12.960  0.1289  1.4093 -0.9366
  734MPD2     N10907   4.611   0.623  12.549 -0.1698 -0.3980  0.4085
  734MPD2    H510908   4.645   0.559  12.479 -0.3449  0.9713 -0.9357
  734MPD2    N110909   4.558   0.232  12.853 -0.4246 -0.8344  0.2483
  734MPD2    H710910   4.501   0.197  12.929  2.6164 -0.5379  2.6665
  735TMC3    C110911   4.562   0.008  12.781 -0.6573 -1.1031  0.1849
  735TMC3    C210912   4.426   0.017  12.753  1.2153 -0.2631 -0.7802
  735TMC3    C310913   4.379   4.682  12.645  0.0963  0.4931  0.0947
  735TMC3    C410914   4.648   4.661  12.715 -0.8231 -0.6439 -0.2809
  735TMC3    C510915   4.590   4.573  12.627 -0.1532 -0.5142 -0.1872
  735TMC3    C610916   4.460   4.589  12.587  0.2234  0.1583 -0.0740
  735TMC3     C10917   4.622   0.140  12.775  0.2976 -0.6059  0.5081
  735TMC3     O10918   4.722   0.153  12.709  0.9248 -0.4429 -0.0898
  735TMC3     H10919   4.361   0.081  12.811  0.7672 -1.5610  0.1442
  735TMC3    H110920   0.016   4.649  12.730 -0.4066  0.3003 -2.5369
  735TMC3    H210921   4.424   4.532  12.502 -1.0451  1.2840 -0.2767
  735TMC3    C710922   4.687   4.514  12.531 -0.3258  0.1183 -0.0762
  735TMC3    C810923   4.316   0.035  12.556 -0.5426 -0.1703  0.5356
  735TMC3    O110924   0.059   4.563  12.516 -0.6967  0.0919  0.5842
  735TMC3    O210925   4.303   0.145  12.600 -0.7065  0.1762 -0.4766
  736MPD2     C10926   4.612   4.239  12.298  0.3791 -0.1434 -0.6253
  736MPD2    C110927   4.662   4.362  12.342 -0.0841 -0.4206  0.5180
  736MPD2    C210928   4.730   4.445  12.256 -0.2753 -0.5483 -0.2491
  736MPD2    C310929   0.011   4.406  12.122 -0.0491 -0.0310  0.7063
  736MPD2    C410930   4.711   4.282  12.081 -0.2030  0.4104  0.2161
  736MPD2    C510931   4.635   4.204  12.169  0.0924 -0.9263  0.2671
  736MPD2     H10932   0.017   4.546  12.285  3.2871 -1.3855 -0.4548
  736MPD2    H110933   4.712   4.259  11.976  2.5867  2.1792 -0.1490
  736MPD2    H210934   4.541   4.180  12.354 -0.1762 -0.4359 -1.6239
  736MPD2    H310935   4.594   4.110  12.135 -0.1600 -0.1766 -1.5483
  736MPD2     N10936   0.062   4.497  12.022  0.4855 -0.2873 -0.0800
  736MPD2    H510937   0.074   4.478  11.923  1.0348  0.0950 -0.0880
  736MPD2    N110938   4.638   4.403  12.473 -0.2359 -0.0540  0.0282
  736MPD2    H710939   4.575   4.351  12.533  0.6075 -0.0156  0.9347
  737TMC3    C110940   0.192   4.682  11.941  0.6556  0.1987  0.6989
  737TMC3    C210941   0.215   0.071  11.953 -0.3063 -0.1643 -0.4292
  737TMC3    C310942   0.292   0.128  11.862  0.2847 -0.4779 -0.5280
  737TMC3    C410943   0.234   4.617  11.830 -0.7377  0.4930  0.1472
  737TMC3    C510944   0.322   4.675  11.748 -0.0420 -0.3718 -0.1022
  737TMC3    C610945   0.358   0.071  11.762  0.1769 -0.5058 -0.1549
  737TMC3     C10946   0.118   4.620  12.050 -0.4284  0.2809 -0.3383
  737TMC3     O10947   0.120   4.680  12.155 -0.2176  0.4557  0.2218
  737TMC3     H10948   0.182   0.125  12.042 -1.5728 -0.9777 -0.4149
  737TMC3    H110949   0.221   4.509  11.821  0.7054  0.1924  1.5950
  737TMC3    H210950   0.430   0.131  11.707  0.2861  0.9226  1.5035
  737TMC3    C710951   0.403   4.595  11.650  0.3456 -0.2659  0.1203
  737TMC3    C810952   0.264   0.269  11.857  0.2336  0.5618  0.2303
  737TMC3    O110953   0.357   4.483  11.626  1.2562  0.1954  0.6764
  737TMC3    O210954   0.251   0.321  11.965  0.6501  0.1602 -0.2376
  738MPD2     C10955   0.155   3.883  15.101  0.1240 -0.2617  0.7123
  738MPD2    C110956   0.196   3.767  15.171 -0.3233  0.3045 -0.3110
  738MPD2    C210957   0.328   3.762  15.207  0.6445  0.1568  0.4139
  738MPD2    C310958   0.415   3.860  15.179  1.0173 -0.4308 -0.9831
  738MPD2    C410959   0.370   3.972  15.110 -0.0612  0.3413 -0.0552
  738MPD2    C510960   0.243   3.988  15.076 -0.0459  0.5265  0.9209
  738MPD2     H10961   0.371   3.680  15.264 -0.0400  0.0023  0.7149
  738MPD2    H110962   0.443   4.048  15.081  0.9604 -0.2486  0.9696
  738MPD2    H210963   0.058   3.887  15.052 -0.2076  0.3796  1.4131
  738MPD2    H310964   0.218   4.079  15.022  1.9244 -0.4018 -1.5658
  738MPD2     N10965   0.555   3.839  15.181 -0.6514 -0.2676 -0.1575
  738MPD2    H510966   0.608   3.914  15.139 -1.0420  0.7866  1.2136
  738MPD2    N110967   0.119   3.648  15.196  0.0164 -0.3568 -0.7284
  738MPD2    H710968   0.159   3.570  15.248  1.4818  1.7487  1.3342
  739TMC3    C110969   0.770   3.750  15.192 -0.3011  0.0842 -0.3087
  739TMC3    C210970   0.783   3.793  15.063 -0.2178  1.3637 -0.2270
  739TMC3    C310971   0.913   3.776  15.009  0.5339 -0.0198 -0.1069
  739TMC3    C410972   0.868   3.689  15.263 -0.0377 -0.1311  0.1836
  739TMC3    C510973   0.994   3.680  15.209 -0.3187  0.2739  0.1733
  739TMC3    C610974   1.021   3.729  15.082 -0.0228  0.7940  0.7355
  739TMC3     C10975   0.633   3.733  15.231 -0.6360  0.1020  0.3128
  739TMC3     O10976   0.603   3.634  15.297  0.0501 -0.5180 -0.2040
  739TMC3     H10977   0.711   3.859  15.016 -0.2175  3.0379  2.1701
  739TMC3    H110978   0.855   3.654  15.365 -1.1712 -1.5923 -0.4595
  739TMC3    H210979   1.121   3.722  15.040 -0.1654  1.0188  0.3589
  739TMC3    C710980   1.104   3.647  15.291  0.1949  0.0581 -0.4904
  739TMC3    C810981   0.931   3.831  14.874 -0.1162 -0.2235 -0.2129
  739TMC3    O110982   1.084   3.641  15.412  0.3554 -0.0607 -0.5026
  739TMC3    O210983   0.831   3.882  14.822  0.4041  0.7797 -0.2730
  740TMC3    C110984   1.262   0.172  14.580 -0.0197  0.9759  0.7213
  740TMC3    C210985   1.236   0.060  14.654 -0.6081  0.0289 -0.3818
  740TMC3    C310986   1.306   4.683  14.620  0.6666 -0.0519 -0.5658
  740TMC3    C410987   1.344   0.172  14.471 -0.6448  0.9668  0.1150
  740TMC3    C510988   1.411   0.058  14.439 -0.3755 -0.1865  0.1993
  740TMC3    C610989   1.386   4.678  14.504 -0.4827 -0.0597 -0.6216
  740TMC3     C10990   1.181   0.295  14.600 -0.4850 -0.5816  0.5478
  740TMC3     O10991   1.228   0.400  14.556 -0.1338  0.0863 -0.3968
  740TMC3     H10992   1.177   0.057  14.745  1.4314 -1.2458  0.9028
  740TMC3    H110993   1.363   0.266  14.420 -1.4412  0.2362 -1.5342
  740TMC3    H210994   1.432   4.585  14.474 -0.6414 -1.2342  2.7489
  740TMC3    C710995   1.520   0.055  14.341 -0.9089 -0.1945 -0.1358
  740TMC3    C810996   1.269   4.562  14.689  0.8511 -0.1824 -0.3051
  740TMC3    O110997   1.609   4.714  14.355  0.2381 -0.1774 -0.3863
  740TMC3    O210998   1.181   4.567  14.775 -0.4992 -0.1051 -0.0279
  741TMC3    C110999   0.803   4.404  14.568  0.0247 -0.8266  0.6541
  741TMC3    C211000   0.670   4.394  14.542 -0.4443  0.6567  0.1976
  741TMC3    C311001   0.597   4.311  14.620  0.1980  0.4876 -0.8949
  741TMC3    C411002   0.862   4.344  14.674 -0.1714  0.6433 -0.2366
  741TMC3    C511003   0.779   4.275  14.762  0.2312  0.1875  0.1230
  741TMC3    C611004   0.650   4.252  14.734  0.3099  1.1132 -0.8630
  741TMC3     C11005   0.885   4.465  14.466 -0.0247  0.5205 -0.0884
  741TMC3     O11006   0.826   4.547  14.397 -0.4805 -0.5082 -0.3971
  741TMC3     H11007   0.633   4.428  14.446  1.4735  2.4737  0.0874
  741TMC3    H111008   0.966   4.364  14.696 -0.8105  1.6773  1.8378
  741TMC3    H211009   0.585   4.190  14.795  0.6735  1.5655 -0.0098
  741TMC3    C711010   0.839   4.225  14.889 -0.0392 -0.2463 -0.8154
  741TMC3    C811011   0.489   4.248  14.553 -0.4935  0.5928 -0.1224
  741TMC3    O111012   0.962   4.234  14.889  0.6435 -0.2623  0.0864
  741TMC3    O211013   0.437   4.311  14.464  0.3314  0.0591  0.5227
  742TMC3    C111014   0.676   2.750  15.484  0.4217 -0.0415  0.6038
  742TMC3    C211015   0.628   2.803  15.366  0.2022  0.4563  0.3292
  742TMC3    C311016   0.719   2.839  15.274  0.0760 -0.2736  0.4752
  742TMC3    C411017   0.809   2.723  15.510  0.8457  0.5798 -0.0412
  742TMC3    C511018   0.889   2.743  15.400 -0.3644 -0.3622  0.1777
  742TMC3    C611019   0.850   2.808  15.285  0.1788 -0.0383 -0.0141
  742TMC3     C11020   0.582   2.736  15.601  0.8570 -0.1729 -0.0111
  742TMC3     O11021   0.630   2.666  15.689  0.2714 -0.4895  0.0296
  742TMC3     H11022   0.522   2.816  15.347 -0.0953 -2.4120  0.0055
  742TMC3    H111023   0.848   2.691  15.605  0.9606 -1.4401 -0.7829
  742TMC3    H211024   0.919   2.826  15.203  1.4764  0.3217  1.1477
  742TMC3    C711025   1.014   2.669  15.393  0.2862  0.3024 -0.2021
  742TMC3    C811026   0.676   2.916  15.158  0.5816  0.6450  0.3157
  742TMC3    O111027   1.091   2.692  15.302  0.1696  0.3534 -0.5890
  742TMC3    O211028   0.749   2.915  15.063 -0.0799  0.7589  0.1580
  743MPD2     C11029   3.261   4.230   1.212 -0.5199 -0.6433  0.1203
  743MPD2    C111030   3.313   4.118   1.148  0.7584  0.0396  0.2621
  743MPD2    C211031   3.446   4.076   1.161  0.0781 -0.0403 -0.0374
  743MPD2    C311032   3.523   4.157   1.238  0.3148 -0.0827 -0.1412
  743MPD2    C411033   3.474   4.272   1.292 -1.1972 -0.6986  0.2898
  743MPD2    C511034   3.342   4.303   1.287  1.0100 -0.5334 -0.6733
  743MPD2     H11035   3.485   3.986   1.115 -1.2048 -0.2411 -0.7487
  743MPD2    H111036   3.544   4.334   1.347 -2.8213  0.8875  0.5640
  743MPD2    H211037   3.162   4.271   1.198 -0.5500 -0.3902  1.0737
  743MPD2    H311038   3.300   4.393   1.331  0.6659 -1.4716  0.9449
  743MPD2     N11039   3.654   4.112   1.239 -0.3866  0.2520  0.0364
  743MPD2    H511040   3.672   4.026   1.188  0.8568 -0.0499  0.9612
  743MPD2    N111041   3.219   4.042   1.073 -0.4788 -0.2070  0.4678
  743MPD2    H711042   3.122   4.062   1.095 -0.5398  1.1304 -1.0080
  744TMC3    C111043   3.138   3.895   0.895 -0.7115  0.1032  0.6914
  744TMC3    C211044   3.007   3.923   0.923 -0.1647  0.7226  0.5113
  744TMC3    C311045   2.907   3.880   0.836 -0.0018 -0.4599  0.0783
  744TMC3    C411046   3.177   3.824   0.785  0.5768  1.0238 -0.6678
  744TMC3    C511047   3.081   3.784   0.700 -0.1745 -0.3090  0.1496
  744TMC3    C611048   2.950   3.820   0.722 -0.2334  0.3905 -0.4196
  744TMC3     C11049   3.249   3.940   0.990  0.0405  0.2348 -0.0751
  744TMC3     O11050   3.365   3.901   0.957  0.3503  0.0476  0.1684
  744TMC3     H11051   2.967   3.977   1.007 -2.6408  1.3807 -1.0750
  744TMC3    H111052   3.279   3.790   0.779 -0.0845 -0.8221 -1.4014
  744TMC3    H211053   2.877   3.780   0.653 -1.1416  1.0776  0.1547
  744TMC3    C711054   3.128   3.730   0.566  0.1276 -0.0173  0.1588
  744TMC3    C811055   2.777   3.944   0.834 -0.3543 -0.4934 -0.8188
  744TMC3    O111056   3.247   3.692   0.569 -0.1581 -0.4381  0.1919
  744TMC3    O211057   2.728   3.950   0.722  0.3124 -0.2195  0.2086
  745TMC3    C111058   1.035   2.396  13.741 -0.1433  0.0128 -0.1607
  745TMC3    C211059   0.935   2.346  13.824 -0.5099  0.7604  0.3264
  745TMC3    C311060   0.810   2.400  13.807  0.4727  0.0691  0.4271
  745TMC3    C411061   1.012   2.490  13.640 -0.1014  0.4745  0.5042
  745TMC3    C511062   0.886   2.529  13.625 -0.3492  0.9703 -0.0277
  745TMC3    C611063   0.786   2.493  13.706  0.0135  0.0493 -0.3827
  745TMC3     C11064   1.165   2.389  13.808  0.3852 -0.1206 -0.3869
  745TMC3     O11065   1.182   2.296  13.883  0.8636  0.1252  0.4848
  745TMC3     H11066   0.960   2.283  13.908 -2.0973 -1.6382 -1.0111
  745TMC3    H111067   1.090   2.516  13.569 -2.4599 -0.2308 -2.3417
  745TMC3    H211068   0.690   2.543  13.702  0.7090  1.5312  1.7822
  745TMC3    C711069   0.856   2.634  13.530  0.4918  0.0219  0.2817
  745TMC3    C811070   0.738   2.426  13.930  1.1165 -0.2762 -0.3125
  745TMC3    O111071   0.739   2.670  13.520  0.3884  0.2785 -0.3624
  745TMC3    O211072   0.623   2.459  13.921  0.8877  0.1437  0.2947
  746TMC3    C111073   3.520   4.644  11.026  0.5635 -0.2527 -0.2615
  746TMC3    C211074   3.533   4.629  10.893 -0.4843  0.0968 -0.3023
  746TMC3    C311075   3.553   4.505  10.846 -0.4604 -0.0111  0.2032
  746TMC3    C411076   3.533   4.546  11.121  0.4454  0.7882  0.0577
  746TMC3    C511077   3.555   4.424  11.069  0.0194 -0.0919 -0.2374
  746TMC3    C611078   3.572   4.400  10.940 -0.3465 -0.1066 -0.7420
  746TMC3     C11079   3.492   0.039  11.088 -0.7098 -0.1004 -0.1168
  746TMC3     O11080   3.452   0.045  11.203  0.1458 -0.9552 -0.2313
  746TMC3     H11081   3.518   4.712  10.825 -0.1609  0.4895  0.1089
  746TMC3    H111082   3.511   4.556  11.227  1.1892  0.9238  0.2022
  746TMC3    H211083   3.592   4.299  10.905 -2.3982 -0.3993 -1.0307
  746TMC3    C711084   3.521   4.305  11.141  0.0124  0.7525 -0.1639
  746TMC3    C811085   3.612   4.496  10.710  0.0901 -0.5105  0.0731
  746TMC3    O111086   3.553   4.298  11.260 -0.2208  0.3739 -0.2420
  746TMC3    O211087   3.687   4.404  10.680  0.0662  0.6953  0.3589
  747TMC3    C111088   1.000   0.224  10.884 -0.4714 -0.4539 -1.0032
  747TMC3    C211089   0.938   0.113  10.938 -0.8528  0.0722 -0.6165
  747TMC3    C311090   0.927   0.097  11.072  0.3492  0.0556 -0.5126
  747TMC3    C411091   1.061   0.312  10.970  0.2470  0.1649 -0.2048
  747TMC3    C511092   1.035   0.292  11.101 -1.3235  0.0708 -0.1061
  747TMC3    C611093   0.960   0.198  11.160 -0.0028  0.2594 -0.0428
  747TMC3     C11094   1.010   0.253  10.742 -0.2576  0.2270 -0.2016
  747TMC3     O11095   1.051   0.362  10.706  0.3029 -0.0031 -0.2393
  747TMC3     H11096   0.892   0.038  10.876 -1.1035  0.9909 -1.5507
  747TMC3    H111097   1.121   0.392  10.929  1.3768 -0.1627  0.8025
  747TMC3    H211098   0.965   0.191  11.268 -0.5844 -1.6974 -0.1369
  747TMC3    C711099   1.112   0.371  11.200 -0.6790 -0.0269 -0.2562
  747TMC3    C811100   0.853   4.722  11.118  0.0252 -0.0922  1.4445
  747TMC3    O111101   1.085   0.374  11.322 -0.3932  0.2092  0.2077
  747TMC3    O211102   0.851   4.624  11.043 -0.2739  0.0455  0.3297
  748MPD2     C11103   2.102   0.471   0.959  0.5728  0.0797 -0.5277
  748MPD2    C111104   2.124   0.347   0.903  0.0941  0.0867 -0.4708
  748MPD2    C211105   2.252   0.293   0.910  0.0614  0.4338 -0.0273
  748MPD2    C311106   2.350   0.355   0.985  0.1005 -0.6442 -0.1259
  748MPD2    C411107   2.324   0.473   1.051  0.1193 -0.3138  0.5960
  748MPD2    C511108   2.196   0.532   1.039  0.1676 -0.6017  0.2451
  748MPD2     H11109   2.265   0.197   0.862 -1.9585  0.3186 -0.3287
  748MPD2    H111110   2.387   0.524   1.124 -1.0250 -2.4124  3.0586
  748MPD2    H211111   2.004   0.517   0.954  0.0608 -0.4013  5.4190
  748MPD2    H311112   2.172   0.627   1.084  1.6041 -0.4054  0.5970
  748MPD2     N11113   2.476   0.294   0.986  0.0175 -0.4177  0.0415
  748MPD2    H511114   2.492   0.210   0.930  1.5892 -0.9346  1.2678
  748MPD2    N111115   2.016   0.278   0.847  0.0133 -0.4122 -0.0231
  748MPD2    H711116   1.923   0.316   0.863  1.2297  1.0759  3.6016
  749TMC3    C111117   2.714   0.266   1.007  0.5498  1.2965 -0.6032
  749TMC3    C211118   2.723   0.129   1.006  0.0266  0.7667  0.0443
  749TMC3    C311119   2.835   0.063   0.961  0.0508 -0.4820 -0.8216
  749TMC3    C411120   2.819   0.344   0.959  0.2072 -0.4956 -0.0376
  749TMC3    C511121   2.928   0.276   0.908 -0.1782 -0.2647  1.2639
  749TMC3    C611122   2.937   0.141   0.906 -0.2021 -0.2077  0.7140
  749TMC3     C11123   2.594   0.348   1.035 -0.3868 -0.9405  0.0115
  749TMC3     O11124   2.605   0.454   1.093  0.0916 -0.2085 -0.0368
  749TMC3     H11125   2.635   0.078   1.043  1.3581 -2.1282 -0.7957
  749TMC3    H111126   2.806   0.450   0.946 -0.7972 -0.6908 -0.5849
  749TMC3    H211127   3.031   0.099   0.870 -1.2848 -1.2562 -0.8941
  749TMC3    C711128   3.016   0.367   0.829  0.4114 -0.4822 -0.0813
  749TMC3    C811129   2.835   4.656   0.944 -0.6770  0.7832 -0.1846
  749TMC3    O111130   3.028   0.485   0.859 -0.1319  0.3552  0.4312
  749TMC3    O211131   2.729   4.604   0.924 -0.6007  0.2338  0.3505
  750MPD2     C11132   3.631   1.824  11.357  0.3520  0.3436 -0.5986
  750MPD2    C111133   3.559   1.781  11.464 -0.0883 -0.5331 -0.0813
  750MPD2    C211134   3.535   1.646  11.477  0.2990 -1.0123  0.5506
  750MPD2    C311135   3.584   1.558  11.385  0.6653  0.3834  0.1276
  750MPD2    C411136   3.649   1.607  11.275  0.1862 -0.2067  0.3012
  750MPD2    C511137   3.677   1.738  11.260  0.0998 -0.4062 -0.5170
  750MPD2     H11138   3.471   1.615  11.559  0.8807 -0.1251  1.3385
  750MPD2    H111139   3.679   1.538  11.198  0.5208  0.5271 -0.2209
  750MPD2    H211140   3.677   1.922  11.358 -0.4763  0.6883  2.5053
  750MPD2    H311141   3.749   1.773  11.187  0.6395  2.7665  1.5413
  750MPD2     N11142   3.557   1.423  11.397 -0.0025 -0.4455 -0.1243
  750MPD2    H511143   3.585   1.367  11.317 -0.4187 -1.1819  0.2374
  750MPD2    N111144   3.516   1.876  11.562  0.4843 -0.1259 -0.3760
  750MPD2    H711145   3.534   1.975  11.547  0.8900  0.1225  1.7520
  751TMC3    C111146   3.453   1.239  11.485 -0.3587  0.3706 -0.5294
  751TMC3    C211147   3.367   1.187  11.571 -0.3231 -0.3929 -0.0123
  751TMC3    C311148   3.299   1.074  11.530 -0.1876 -0.2993 -0.4504
  751TMC3    C411149   3.474   1.186  11.359  0.1608 -0.1596  0.0684
  751TMC3    C511150   3.402   1.078  11.324  0.1836 -0.6052 -0.2218
  751TMC3    C611151   3.311   1.021  11.402 -0.5346 -0.9636  0.1424
  751TMC3     C11152   3.499   1.366  11.509 -0.0782 -0.8289  0.3505
  751TMC3     O11153   3.469   1.414  11.617 -0.5468 -0.0860  0.0362
  751TMC3     H11154   3.356   1.225  11.672  0.0406  0.6275 -0.3493
  751TMC3    H111155   3.556   1.215  11.294  0.5664 -0.5217  0.4191
  751TMC3    H211156   3.267   0.929  11.367 -0.2049 -0.5547 -1.3314
  751TMC3    C711157   3.408   1.045  11.182 -0.1004  0.1148 -0.2569
  751TMC3    C811158   3.164   1.076  11.578 -0.2447 -0.0958 -0.2043
  751TMC3    O111159   3.467   1.131  11.117 -0.3606  0.4740 -0.0455
  751TMC3    O211160   3.155   1.123  11.693 -0.2585  0.0541  0.1816
  752TMC3    C111161   2.180   0.818  17.169  0.6191  0.3728  0.6795
  752TMC3    C211162   2.211   0.691  17.207  0.2263  0.1885  0.6608
  752TMC3    C311163   2.185   0.662  17.338 -0.1203  0.1844 -0.4207
  752TMC3    C411164   2.127   0.908  17.259 -0.3150  0.1104  0.2609
  752TMC3    C511165   2.113   0.875  17.394  0.7936 -0.3942  1.2527
  752TMC3    C611166   2.141   0.747  17.436  0.6492 -1.7681  0.1827
  752TMC3     C11167   2.187   0.849  17.026  0.2832 -0.2606  0.2034
  752TMC3     O11168   2.273   0.793  16.958 -0.2831 -0.0067 -0.0475
  752TMC3     H11169   2.279   0.629  17.150  1.4705  1.7901  0.3836
  752TMC3    H111170   2.107   1.011  17.230  0.6827 -0.4934 -2.5722
  752TMC3    H211171   2.130   0.716  17.540 -2.4534 -0.5808  0.2278
  752TMC3    C711172   2.069   0.969  17.496 -0.5838 -0.4883  0.6522
  752TMC3    C811173   2.182   0.527  17.383  0.1718  0.2591 -0.0419
  752TMC3    O111174   2.109   0.932  17.600  0.1498  0.3441  0.2457
  752TMC3    O211175   2.230   0.507  17.497 -0.1735  0.2568  0.0803
  753TMC3    C111176   4.161   2.700  13.111  0.8538  0.4004  0.5168
  753TMC3    C211177   4.217   2.660  13.231  0.1924  0.5203 -0.0739
  753TMC3    C311178   4.200   2.535  13.274  0.4409 -0.3960  0.2324
  753TMC3    C411179   4.079   2.614  13.045 -0.7875  0.9258 -0.4314
  753TMC3    C511180   4.061   2.490  13.096 -0.5777 -0.0104 -0.0212
  753TMC3    C611181   4.117   2.447  13.210 -0.2902  0.1426  0.1575
  753TMC3     C11182   4.179   2.839  13.078  0.5248  0.0527 -1.0314
  753TMC3     O11183   4.275   2.902  13.123  0.1259 -0.1355  0.2565
  753TMC3     H11184   4.296   2.723  13.271 -0.1992  0.9406  0.0279
  753TMC3    H111185   4.043   2.640  12.947  0.0998 -0.5050 -1.1425
  753TMC3    H211186   4.106   2.352  13.262 -0.5701  0.7067  1.1371
  753TMC3    C711187   4.005   2.395  13.000 -0.5232  0.4757 -0.3715
  753TMC3    C811188   4.284   2.481  13.381  0.0385  0.4174 -0.5689
  753TMC3    O111189   4.012   2.420  12.881 -0.4148 -0.3788  0.7429
  753TMC3    O211190   4.290   2.358  13.399 -0.0453 -0.2447 -0.4493
  754MPD2     C11191   3.410   1.631  13.230 -0.0950  0.2837 -0.3906
  754MPD2    C111192   3.431   1.495  13.234  0.3285  0.0194  0.0649
  754MPD2    C211193   3.318   1.413  13.223 -0.3859  0.8546  0.3661
  754MPD2    C311194   3.196   1.463  13.216  0.6949  0.7297 -0.0269
  754MPD2    C411195   3.180   1.597  13.217  0.4472 -0.0517  0.1841
  754MPD2    C511196   3.283   1.681  13.224  1.1274 -0.9989  0.5171
  754MPD2     H11197   3.341   1.307  13.213  1.2519  1.1203  1.3333
  754MPD2    H111198   3.081   1.642  13.212  0.0758 -0.7722  0.9481
  754MPD2    H211199   3.495   1.699  13.229  0.8817 -0.9111  1.7911
  754MPD2    H311200   3.260   1.787  13.231  0.1765 -1.0363 -1.8511
  754MPD2     N11201   3.081   1.385  13.194 -0.9024  0.4118 -0.0123
  754MPD2    H511202   2.995   1.432  13.168  0.2247  2.5472  0.0992
  754MPD2    N111203   3.564   1.455  13.242  0.0522 -0.2937 -0.2055
  754MPD2    H711204   3.630   1.524  13.209  0.2968 -0.2917  0.2885
  755MPD2     C11205   2.399   1.779  13.456 -0.3234  0.6257 -0.3392
  755MPD2    C111206   2.343   1.653  13.445 -0.1398  0.0982 -0.1746
  755MPD2    C211207   2.425   1.548  13.414 -0.7786 -0.3043 -0.0363
  755MPD2    C311208   2.563   1.564  13.394 -0.3038  0.9036 -0.1536
  755MPD2    C411209   2.618   1.689  13.405 -0.0258 -0.5826 -0.9014
  755MPD2    C511210   2.535   1.792  13.433 -0.1367  0.0425 -0.7078
  755MPD2     H11211   2.377   1.453  13.392  1.1686 -1.2350 -0.2747
  755MPD2    H111212   2.721   1.715  13.386 -0.5215  1.4498 -0.8661
  755MPD2    H211213   2.338   1.865  13.481 -1.1974  0.4875 -2.0316
  755MPD2    H311214   2.576   1.892  13.442  3.6441 -1.5075 -0.8442
  755MPD2     N11215   2.645   1.460  13.338 -0.0973 -0.7535  0.0631
  755MPD2    H511216   2.737   1.490  13.311 -1.8498  2.8558 -1.8523
  755MPD2    N111217   2.204   1.634  13.465 -0.0232  0.8027 -0.1474
  755MPD2    H711218   2.162   1.543  13.449  0.5806  0.8360 -1.9479
  756MPD2     C11219   3.002   2.557   9.599 -0.1673  0.4169  0.4497
  756MPD2    C111220   2.924   2.461   9.664  0.0022  0.1018  0.4241
  756MPD2    C211221   2.801   2.427   9.615 -0.0385 -0.3361 -0.3367
  756MPD2    C311222   2.740   2.484   9.509  0.1892  0.3607 -0.2874
  756MPD2    C411223   2.821   2.573   9.440  0.4541  0.5145  0.4106
  756MPD2    C511224   2.953   2.610   9.480 -0.0747  0.3457  0.1886
  756MPD2     H11225   2.755   2.355   9.683  1.2096  1.4553  2.3733
  756MPD2    H111226   2.794   2.623   9.347  0.6980 -0.5169 -0.2059
  756MPD2    H211227   3.107   2.577   9.618  0.0150 -0.1708  0.0497
  756MPD2    H311228   3.013   2.674   9.417 -0.4606 -0.6481 -1.1877
  756MPD2     N11229   2.610   2.448   9.473  0.0513 -0.4566  0.5854
  756MPD2    H511230   2.564   2.392   9.544  3.6238 -4.9082 -0.6178
  756MPD2    N111231   2.970   2.395   9.783 -0.0986  0.4503 -1.0681
  756MPD2    H711232   2.901   2.338   9.830  0.5615  1.1934  0.7964
  757MPD2     C11233   2.038   1.916   9.861  1.3304 -0.6640 -0.7552
  757MPD2    C111234   2.154   1.882   9.802  0.1780  0.8415  0.0431
  757MPD2    C211235   2.208   1.971   9.701 -0.2715  0.4380  0.0596
  757MPD2    C311236   2.141   2.087   9.670  0.2644  0.0767 -0.1299
  757MPD2    C411237   2.036   2.124   9.752  0.1444  0.5837  0.1006
  757MPD2    C511238   1.979   2.037   9.844 -0.5108  0.1605  0.6422
  757MPD2     H11239   2.301   1.956   9.646 -0.8151 -1.0970 -0.4418
  757MPD2    H111240   1.976   2.214   9.736  0.6741  0.5501 -2.0774
  757MPD2    H211241   1.995   1.843   9.929  0.1794  0.4013 -0.3399
  757MPD2    H311242   1.887   2.061   9.894 -0.1589 -1.3824  2.0453
  757MPD2     N11243   2.195   2.178   9.571  0.5684 -0.1894  0.0637
  757MPD2    H511244   2.280   2.153   9.521  0.6313  1.2762 -0.5655
  757MPD2    N111245   2.211   1.750   9.830  0.1517 -0.3538 -0.2056
  757MPD2    H711246   2.158   1.692   9.895  0.2689 -1.0719 -0.7596
  758MPD2     C11247   3.258   1.066  15.550  0.5357 -0.1928 -0.2927
  758MPD2    C111248   3.251   0.925  15.558 -0.9549 -0.2879 -0.0052
  758MPD2    C211249   3.146   0.864  15.614  0.4541 -0.1987 -0.3120
  758MPD2    C311250   3.041   0.935  15.675  0.4999 -0.3747  0.5130
  758MPD2    C411251   3.046   1.073  15.666 -0.2950  0.7535  0.1878
  758MPD2    C511252   3.156   1.132  15.611 -0.1057 -0.0288 -0.0508
  758MPD2     H11253   3.142   0.756  15.615 -2.5998 -0.0648  2.6125
  758MPD2    H111254   2.964   1.132  15.707 -0.1347  3.0540 -2.8157
  758MPD2    H211255   3.341   1.119  15.506  1.2512 -0.5014  0.7001
  758MPD2    H311256   3.170   1.239  15.607 -1.7587  0.2220  0.7975
  758MPD2     N11257   2.924   0.880  15.743  0.0152  0.4944 -0.0554
  758MPD2    H511258   2.865   0.951  15.786  0.3207 -0.2316  1.5985
  758MPD2    N111259   3.354   0.852  15.500  0.1715  0.1529  0.7347
  758MPD2    H711260   3.429   0.910  15.464 -1.6666  0.6074 -2.3366
  759MPD2     C11261   2.748   4.084  10.108 -0.0360 -0.2165  0.4044
  759MPD2    C111262   2.720   4.215  10.146  0.0334  0.7844 -0.1748
  759MPD2    C211263   2.797   4.311  10.090  0.9521 -0.6897 -0.2470
  759MPD2    C311264   2.891   4.299   9.998 -0.5148 -0.4365  0.0229
  759MPD2    C411265   2.916   4.168   9.956  0.1509  0.1209  0.0005
  759MPD2    C511266   2.838   4.067  10.006 -0.5784 -1.3064 -0.0322
  759MPD2     H11267   2.785   4.408  10.136  0.2934 -0.6053 -0.5991
  759MPD2    H111268   2.982   4.141   9.874 -0.7031  0.7911 -0.8970
  759MPD2    H211269   2.683   4.001  10.130 -1.5252  1.0097  0.6843
  759MPD2    H311270   2.856   3.967   9.969  0.2256 -1.0332 -0.3660
  759MPD2     N11271   2.966   4.401   9.942  0.2974 -0.2361 -0.6729
  759MPD2    H511272   2.942   4.494   9.974  0.7490 -1.3958  3.0220
  759MPD2    N111273   2.634   4.245  10.249 -0.6179  0.4164 -0.0417
  759MPD2    H711274   2.652   4.329  10.303  0.0489  0.2928 -0.0701
  760MPD2     C11275   1.181   1.189  12.276  0.0920 -0.1670 -0.6117
  760MPD2    C111276   1.302   1.235  12.334  0.0911 -0.0355  0.1255
  760MPD2    C211277   1.385   1.146  12.398 -0.2316 -0.0944  0.3456
  760MPD2    C311278   1.361   1.016  12.410 -0.6711 -0.6365 -0.8113
  760MPD2    C411279   1.241   0.968  12.355 -0.0724 -0.2865 -0.8848
  760MPD2    C511280   1.154   1.052  12.288 -0.9818 -0.6670  0.3440
  760MPD2     H11281   1.475   1.183  12.446  0.1758  0.6631 -1.0088
  760MPD2    H111282   1.228   0.860  12.356 -3.6617  0.1819  0.0858
  760MPD2    H211283   1.103   1.254  12.238  0.4635  0.9346  0.4913
  760MPD2    H311284   1.057   1.018  12.254 -0.5450 -3.0989  1.5608
  760MPD2     N11285   1.464   0.924  12.456 -0.2551 -0.2977  0.3471
  760MPD2    H511286   1.432   0.831  12.484 -2.1714 -0.8220 -3.6854
  760MPD2    N111287   1.346   1.368  12.322 -0.7201 -0.5147 -0.5589
  760MPD2    H711288   1.438   1.392  12.359 -1.1912  1.0108 -0.3736
  761MPD2     C11289   2.648   0.999  11.512 -0.2853 -0.6753  0.1842
  761MPD2    C111290   2.712   0.963  11.399 -0.8209 -0.3316 -0.3132
  761MPD2    C211291   2.850   0.973  11.395 -0.4336 -0.6341  0.0381
  761MPD2    C311292   2.921   1.018  11.506  0.0493 -0.4618  0.0746
  761MPD2    C411293   2.853   1.046  11.619 -0.6358  0.3508  0.2925
  761MPD2    C511294   2.716   1.037  11.618 -0.0911 -0.2205  0.5358
  761MPD2     H11295   2.908   0.933  11.313 -0.0317 -0.8021  0.4028
  761MPD2    H111296   2.892   1.100  11.705  1.5757  0.1688 -0.6064
  761MPD2    H211297   2.540   0.997  11.520 -0.3106  0.6313  0.1666
  761MPD2    H311298   2.659   1.068  11.704  0.7088 -0.2196  1.0654
  761MPD2     N11299   3.065   1.034  11.488 -0.6215  0.3549  0.1922
  761MPD2    H511300   3.101   1.009  11.397 -0.7965  1.0332 -0.0667
  761MPD2    N111301   2.649   0.891  11.294 -0.4099 -0.1163 -0.3218
  761MPD2    H711302   2.557   0.853  11.315  0.5554 -2.4042 -0.2002
  762MPD2     C11303   2.834   0.843  10.544  0.3622  0.8475  0.8493
  762MPD2    C111304   2.899   0.742  10.618  0.4669 -0.1431 -0.7263
  762MPD2    C211305   3.018   0.684  10.570 -0.4177 -0.5417  0.7385
  762MPD2    C311306   3.074   0.734  10.457  0.1767 -0.2822 -0.2088
  762MPD2    C411307   3.012   0.836  10.389 -0.3042 -0.2113  0.0554
  762MPD2    C511308   2.893   0.889  10.427  0.2086  0.3053  0.9630
  762MPD2     H11309   3.069   0.601  10.616 -1.4053 -2.1894 -1.1404
  762MPD2    H111310   3.057   0.883  10.302  0.2804  0.9353  0.9737
  762MPD2    H211311   2.738   0.881  10.575  0.0854 -0.3867  1.5282
  762MPD2    H311312   2.842   0.965  10.368 -0.1969  0.0582  1.0013
  762MPD2     N11313   3.194   0.670  10.410  0.4366 -0.4059  0.3002
  762MPD2    H511314   3.222   0.591  10.469  0.8925 -1.5019 -1.3825
  762MPD2    N111315   2.831   0.704  10.739  0.6614 -0.6218  0.6669
  762MPD2    H711316   2.741   0.745  10.759  1.0171  0.4434  0.1241
  763MPD2     C11317   0.312   0.850  16.303 -0.7096 -0.6034  0.5845
  763MPD2    C111318   0.202   0.906  16.236 -0.2586 -0.0024 -0.2205
  763MPD2    C211319   0.165   1.035  16.282 -0.4568  0.0489  0.7244
  763MPD2    C311320   0.229   1.097  16.392  0.8144  0.2333 -0.1102
  763MPD2    C411321   0.337   1.039  16.447 -0.2874 -0.0420 -0.0615
  763MPD2    C511322   0.370   0.909  16.414 -0.1920 -0.1759  0.1468
  763MPD2     H11323   0.083   1.089  16.236  2.3924  1.6156 -2.5308
  763MPD2    H111324   0.382   1.076  16.538 -1.0361 -2.2424  1.2022
  763MPD2    H211325   0.363   0.761  16.269 -3.9931 -1.5076 -1.9675
  763MPD2    H311326   0.446   0.850  16.463  1.9876  0.5984 -2.3365
  763MPD2     N11327   0.180   1.213  16.464  0.2177 -0.7767  0.5241
  763MPD2    H511328   0.247   1.248  16.533  1.3901 -1.8743 -0.0571
  763MPD2    N111329   0.146   0.855  16.115  0.0094 -0.1284  0.3439
  763MPD2    H711330   0.079   0.911  16.063  2.1366  1.2302 -0.9439
  764MPD2     C11331   2.645   1.430  17.191 -0.4380 -0.0534  0.1650
  764MPD2    C111332   2.614   1.543  17.260 -0.4796  0.0596  0.6685
  764MPD2    C211333   2.680   1.563  17.377  0.3559  0.3968  0.4010
  764MPD2    C311334   2.766   1.463  17.429  0.1883 -0.4573 -0.4907
  764MPD2    C411335   2.794   1.347  17.358  0.4416  0.2064 -0.2928
  764MPD2    C511336   2.738   1.340  17.239 -0.3844  0.5512  0.1385
  764MPD2     H11337   2.663   1.651  17.437 -2.5191 -1.7350  2.7258
  764MPD2    H111338   2.856   1.264  17.388 -0.9282 -0.3490  0.9594
  764MPD2    H211339   2.618   1.410  17.088 -0.6926  2.6047 -0.2892
  764MPD2    H311340   2.762   1.255  17.177  1.3754 -0.0829  1.6956
  764MPD2     N11341   2.815   1.489  17.562 -0.6454 -0.6099  0.2436
  764MPD2    H511342   2.797   1.581  17.600  0.3900 -0.1695 -0.3348
  764MPD2    N111343   2.534   1.653  17.206  0.3057 -0.0489  0.2016
  764MPD2    H711344   2.529   1.737  17.262  0.2699  0.3937 -0.4717
  765MPD2     C11345   2.589   0.069  15.289 -0.2986 -1.5951  0.1445
  765MPD2    C111346   2.664   0.142  15.380  0.6272  0.7172 -0.1385
  765MPD2    C211347   2.774   0.080  15.438 -0.2131  0.4204  0.4209
  765MPD2    C311348   2.815   4.690  15.398 -0.4541  0.2662 -0.6292
  765MPD2    C411349   2.744   4.635  15.293 -0.0125  0.1614 -0.7907
  765MPD2    C511350   2.635   4.693  15.242 -0.1906  0.0236  0.2701
  765MPD2     H11351   2.819   0.131  15.522  0.4463 -3.1712  2.2514
  765MPD2    H111352   2.780   4.538  15.260 -2.2605 -1.1146  0.5356
  765MPD2    H211353   2.498   0.106  15.243 -0.3732  0.9525  2.3753
  765MPD2    H311354   2.584   4.642  15.161  1.5676  0.4807 -1.1464
  765MPD2     N11355   2.939   4.646  15.451 -0.0445 -0.2448  0.4827
  765MPD2    H511356   2.982   4.701  15.525 -3.4146  0.7900  1.6788
  765MPD2    N111357   2.615   0.266  15.416  0.6268 -0.0501  0.7655
  765MPD2    H711358   2.530   0.288  15.365  0.5131 -1.2435  0.4436
  766MPD2     C11359   2.181   0.263  15.155 -1.0371  0.1789 -0.8062
  766MPD2    C111360   2.280   0.363  15.159  0.3204 -0.0052  0.1382
  766MPD2    C211361   2.373   0.381  15.053  0.4322  0.8922 -0.1520
  766MPD2    C311362   2.355   0.299  14.941  0.1115 -0.5850 -0.3268
  766MPD2    C411363   2.243   0.217  14.929 -0.1940  1.1508 -0.1981
  766MPD2    C511364   2.164   0.193  15.040  0.3017 -0.2981  0.4589
  766MPD2     H11365   2.450   0.457  15.049  1.8008 -0.5291 -0.6351
  766MPD2    H111366   2.223   0.164  14.836  0.6741  0.9468 -0.2635
  766MPD2    H211367   2.125   0.233  15.243  1.7127 -0.3614  0.7905
  766MPD2    H311368   2.084   0.121  15.026  0.1340 -0.2573  1.1716
  766MPD2     N11369   2.438   0.316  14.825  0.4189 -0.4673  0.2072
  766MPD2    H511370   2.417   0.269  14.738 -0.5963  0.9725 -0.3244
  766MPD2    N111371   2.291   0.424  15.283 -0.0568  0.2674 -0.9100
  766MPD2    H711372   2.271   0.363  15.362  2.7646  2.3807  1.4397
  767MPD2     C11373   2.111   0.596  14.956  0.8920 -0.2815  0.4648
  767MPD2    C111374   2.216   0.651  14.886  0.5628  0.2465 -0.1883
  767MPD2    C211375   2.212   0.649  14.747  0.1218 -0.8107 -0.4577
  767MPD2    C311376   2.103   0.598  14.677  0.7263  0.3165  0.5151
  767MPD2    C411377   1.995   0.537  14.752  0.3076 -0.0767  0.9527
  767MPD2    C511378   2.001   0.546  14.888  0.1570 -0.4710 -0.0861
  767MPD2     H11379   2.296   0.684  14.688 -2.5949  3.4552 -1.7343
  767MPD2    H111380   1.915   0.477  14.712 -1.5548  3.3309 -0.4027
  767MPD2    H211381   2.113   0.580  15.063  1.1928 -3.1607  0.0489
  767MPD2    H311382   1.930   0.482  14.939 -0.7094 -0.1313 -0.8708
  767MPD2     N11383   2.116   0.572  14.535  0.2669  0.4815  0.4786
  767MPD2    H511384   2.206   0.587  14.490 -1.1500  1.8507 -1.8704
  767MPD2    N111385   2.323   0.709  14.963  0.2919  0.0204 -0.1875
  767MPD2    H711386   2.333   0.681  15.061  1.6290  2.1927  0.2975
  768MPD2     C11387   3.240   3.930  10.575  0.3351  0.1319  0.3422
  768MPD2    C111388   3.234   3.848  10.689  0.2146 -0.2239 -0.1709
  768MPD2    C211389   3.335   3.858  10.782 -0.4727  0.1793 -0.1007
  768MPD2    C311390   3.450   3.928  10.757 -0.0260  0.1664 -0.3433
  768MPD2    C411391   3.456   4.011  10.648 -0.1733  0.3401  0.6398
  768MPD2    C511392   3.352   4.007  10.558 -0.0629  0.7559  0.5547
  768MPD2     H11393   3.318   3.808  10.877  0.4104  0.4716  0.2135
  768MPD2    H111394   3.545   4.071  10.630 -2.0601  2.2807 -2.2540
  768MPD2    H211395   3.153   3.930  10.509 -0.0674 -0.3999  0.8745
  768MPD2    H311396   3.359   4.078  10.476  1.7114 -0.4406 -0.3347
  768MPD2     N11397   3.551   3.941  10.851  0.2843 -0.3393  0.3868
  768MPD2    H511398   3.620   4.012  10.827  1.1969 -0.9315  1.2562
  768MPD2    N111399   3.119   3.778  10.722  0.4794  0.0444 -0.0886
  768MPD2    H711400   3.117   3.744  10.818  2.0579 -1.8611 -0.7358
  769MPD2     C11401   3.811   1.936  14.771 -0.1827 -0.2751  0.2756
  769MPD2    C111402   3.797   2.060  14.834 -0.0313 -0.1669 -0.3850
  769MPD2    C211403   3.833   2.065  14.962  0.0866  0.3588 -0.0553
  769MPD2    C311404   3.886   1.958  15.040 -0.0577 -0.6001  0.2571
  769MPD2    C411405   3.903   1.841  14.974 -0.4199 -0.5696  0.3784
  769MPD2    C511406   3.864   1.833  14.842  0.0444  0.5191  0.1347
  769MPD2     H11407   3.807   2.157  15.013 -0.0520 -0.9944  2.3527
  769MPD2    H111408   3.936   1.747  15.017  1.2475 -0.8578 -1.5206
  769MPD2    H211409   3.782   1.921  14.668  0.5311 -0.1316  0.0546
  769MPD2    H311410   3.862   1.741  14.785  0.7378  0.7413 -0.2439
  769MPD2     N11411   3.911   1.981  15.177 -0.0533 -0.1914  0.2302
  769MPD2    H511412   3.888   2.076  15.203 -0.9050 -0.5078  0.6212
  769MPD2    N111413   3.710   2.148  14.769 -0.4210  0.3143 -0.4436
  769MPD2    H711414   3.678   2.115  14.679  0.9284 -0.8205 -0.4989
  770MPD2     C11415   3.560   1.934  15.201 -0.1532  0.4956  0.0202
  770MPD2    C111416   3.473   1.897  15.110 -0.1221  0.4741  0.3526
  770MPD2    C211417   3.393   1.997  15.052  0.3354 -0.0021 -0.0252
  770MPD2    C311418   3.406   2.129  15.093 -0.0837  0.2484 -0.2580
  770MPD2    C411419   3.494   2.157  15.196 -0.4266 -0.6582  0.2311
  770MPD2    C511420   3.576   2.059  15.241  0.1916  0.0466 -0.6509
  770MPD2     H11421   3.327   1.969  14.971 -0.0320  0.3706  0.1414
  770MPD2    H111422   3.499   2.261  15.228  0.3350 -0.1892 -1.4152
  770MPD2    H211423   3.628   1.868  15.253  1.2026  2.9309  1.3465
  770MPD2    H311424   3.651   2.075  15.318  0.8515  0.1552 -1.3224
  770MPD2     N11425   3.342   2.239  15.035  0.3142  0.8369  0.4235
  770MPD2    H511426   3.380   2.330  15.058 -0.5325  1.4273 -0.5209
  770MPD2    N111427   3.476   1.768  15.055 -0.0664 -0.3331  0.0344
  770MPD2    H711428   3.539   1.700  15.097  0.1829 -1.1514 -1.6535
  771MPD2     C11429   0.043   4.469  13.717 -0.1529 -0.4999  0.0963
  771MPD2    C111430   4.707   4.572  13.663  0.6997  0.2651 -0.1747
  771MPD2    C211431   4.642   4.559  13.542  1.0356  0.7134  0.1858
  771MPD2    C311432   4.641   4.437  13.481 -0.0710 -0.2835 -0.0377
  771MPD2    C411433   4.696   4.331  13.555  0.2109  0.6109  0.0706
  771MPD2    C511434   0.026   4.344  13.670  0.1104 -0.6629 -0.1093
  771MPD2     H11435   4.587   4.635  13.488  2.2979 -0.3759 -2.6724
  771MPD2    H111436   4.678   4.229  13.522  1.7452  0.3841 -0.0439
  771MPD2    H211437   0.096   4.484  13.810 -1.9518 -4.4225  1.7210
  771MPD2    H311438   0.047   4.251  13.724 -0.3753  1.1819  3.2740
  771MPD2     N11439   4.574   4.423  13.352  0.4251 -0.6241  0.2965
  771MPD2    H511440   4.538   4.513  13.320  2.3351  0.1157  0.2270
  771MPD2    N111441   4.703   4.691  13.735 -0.3295 -0.4633 -0.2631
  771MPD2    H711442   0.028   4.708  13.812 -0.7251  0.0648 -0.0502
  772MPD2     C11443   4.316   0.792  13.928 -0.1060 -1.1741 -0.6595
  772MPD2    C111444   4.290   0.657  13.939  0.3119  0.1316 -0.2889
  772MPD2    C211445   4.170   0.614  13.993 -0.4108 -0.3786  0.1266
  772MPD2    C311446   4.074   0.700  14.038  1.2729  0.9427  0.4862
  772MPD2    C411447   4.097   0.833  14.019  0.0718  0.3739 -0.0553
  772MPD2    C511448   4.214   0.886  13.964 -0.4978 -0.1316 -0.3237
  772MPD2     H11449   4.159   0.507  14.001 -1.2102 -0.5826 -3.5459
  772MPD2    H111450   4.020   0.903  14.050  0.5463  1.6202 -1.6998
  772MPD2    H211451   4.414   0.833  13.908  0.1312 -0.6040  1.5768
  772MPD2    H311452   4.222   0.994  13.962 -0.4324 -0.1450 -0.7122
  772MPD2     N11453   3.951   0.663  14.104  0.1998  0.3828  0.1853
  772MPD2    H511454   3.901   0.737  14.152  0.0493 -0.2387  0.9935
  772MPD2    N111455   4.395   0.563  13.907  0.3069 -0.1324 -0.7654
  772MPD2    H711456   4.483   0.603  13.876 -0.0868  1.2984 -0.0439
  773MPD2     C11457   3.453   1.287  17.469  0.2275  0.3871 -0.1335
  773MPD2    C111458   3.424   1.162  17.419 -0.0887 -0.1105  0.4799
  773MPD2    C211459   3.465   1.044  17.478 -0.4238 -0.4519  0.5505
  773MPD2    C311460   3.521   1.050  17.601  0.2554  0.5959 -0.4004
  773MPD2    C411461   3.564   1.173  17.644  1.0078  0.1186  0.4290
  773MPD2    C511462   3.528   1.290  17.580  0.2753  0.5168 -0.9335
  773MPD2     H11463   3.425   0.952  17.437  1.7337 -2.0671  2.0778
  773MPD2    H111464   3.622   1.188  17.734 -0.5561 -1.3795  1.6633
  773MPD2    H211465   3.415   1.378  17.426  3.4957  1.9654  0.3117
  773MPD2    H311466   3.556   1.382  17.630  0.2686 -0.6088  1.1722
  773MPD2     N11467   3.547   0.931  17.662 -0.6463 -0.2465  0.3611
  773MPD2    H511468   3.505   0.849  17.620 -0.0030 -1.1800  1.5670
  773MPD2    N111469   3.354   1.143  17.300 -0.3105  0.6080 -0.0526
  773MPD2    H711470   3.356   1.052  17.256 -1.8135 -0.2714  1.7016
  774MPD2     C11471   3.035   0.583  13.213 -0.2287  0.2910 -0.1600
  774MPD2    C111472   2.994   0.675  13.310  0.1385 -0.0711 -0.1834
  774MPD2    C211473   3.085   0.780  13.335  0.3707  0.2390  0.1557
  774MPD2    C311474   3.208   0.787  13.282 -0.4661 -0.1232  0.0937
  774MPD2    C411475   3.245   0.690  13.192 -0.0344 -0.2135  0.1001
  774MPD2    C511476   3.159   0.591  13.157  0.3108 -1.0127  0.2713
  774MPD2     H11477   3.058   0.865  13.397 -0.7221 -1.3279  1.8315
  774MPD2    H111478   3.346   0.694  13.154  0.0657 -0.9666  0.2784
  774MPD2    H211479   2.965   0.511  13.172  0.1415 -0.4758  0.5631
  774MPD2    H311480   3.187   0.521  13.079  3.0751 -0.1804  0.5187
  774MPD2     N11481   3.287   0.897  13.323 -0.3694 -0.8820 -0.5324
  774MPD2    H511482   3.244   0.962  13.388 -0.0199 -1.7562  0.5678
  774MPD2    N111483   2.874   0.650  13.380  0.1019  0.4275 -0.3724
  774MPD2    H711484   2.824   0.562  13.375  0.9644 -0.1740  1.4159
  775MPD2     C11485   4.160   1.718  15.973 -0.2128 -0.6295  0.9355
  775MPD2    C111486   4.114   1.844  16.003 -0.6502  0.1463  0.0213
  775MPD2    C211487   4.198   1.948  15.967  0.2850 -0.0042 -0.7235
  775MPD2    C311488   4.321   1.921  15.903  0.4713 -0.2614 -0.7078
  775MPD2    C411489   4.366   1.795  15.875  0.3515  0.0296 -1.0532
  775MPD2    C511490   4.276   1.692  15.911 -0.0011 -0.3825  0.3907
  775MPD2     H11491   4.163   2.049  15.987  0.6583 -0.0188  0.0177
  775MPD2    H111492   4.464   1.768  15.837  1.0293  0.7406  0.1718
  775MPD2    H211493   4.097   1.631  15.992 -1.7254  0.2911  0.1752
  775MPD2    H311494   4.295   1.588  15.890 -0.8525 -0.6901  1.1738
  775MPD2     N11495   4.398   2.022  15.844  0.2664  0.1203  0.0321
  775MPD2    H511496   4.474   1.987  15.788  0.4132  0.5511 -0.0399
  775MPD2    N111497   3.989   1.869  16.067  0.5713  0.0262  0.2045
  775MPD2    H711498   3.940   1.783  16.089 -0.8426  1.1313  1.3490
  776MPD2     C11499   3.138   2.525  11.372  0.9436  0.3027  0.4064
  776MPD2    C111500   3.258   2.470  11.420  0.5629 -0.0830  0.6724
  776MPD2    C211501   3.370   2.479  11.343 -0.0627 -0.2269 -0.4404
  776MPD2    C311502   3.378   2.558  11.226 -0.4759 -0.3299  0.0240
  776MPD2    C411503   3.264   2.626  11.187  0.0384  0.0447  0.1664
  776MPD2    C511504   3.145   2.604  11.257 -0.1986  0.1953 -0.0817
  776MPD2     H11505   3.457   2.423  11.374 -2.3622 -1.6725  3.3814
  776MPD2    H111506   3.264   2.695  11.103 -0.5509 -0.5350 -0.3072
  776MPD2    H211507   3.048   2.509  11.430  0.3236 -0.0272 -0.6432
  776MPD2    H311508   3.052   2.643  11.216 -0.8145 -0.9878  0.2048
  776MPD2     N11509   3.484   2.557  11.134  0.7682  0.5278  0.2205
  776MPD2    H511510   3.460   2.599  11.045  1.0010 -2.2763 -1.1563
  776MPD2    N111511   3.246   2.379  11.529 -0.2798  0.2025 -0.6682
  776MPD2    H711512   3.153   2.366  11.566 -0.1200  2.1980  0.4822
  777MPD2     C11513   3.520   4.376   0.257 -0.4163 -0.2362 -0.1878
  777MPD2    C111514   3.610   4.305   0.334 -0.2734  0.0380  0.4392
  777MPD2    C211515   3.680   4.205   0.274  0.6543 -0.2691 -0.8851
  777MPD2    C311516   3.647   4.162   0.149  0.0427  0.4736  0.0048
  777MPD2    C411517   3.554   4.226   0.070  0.2074 -0.1172 -0.4575
  777MPD2    C511518   3.492   4.339   0.126  0.4495 -0.1152 -0.5107
  777MPD2     H11519   3.747   4.142   0.331  0.8588 -1.7474 -2.7595
  777MPD2    H111520   3.530   4.190  17.725 -3.6666  0.3667  0.3107
  777MPD2    H211521   3.475   4.465   0.299 -1.4255 -1.4110  1.2294
  777MPD2    H311522   3.428   4.402   0.065 -1.3038 -3.0424 -1.7307
  777MPD2     N11523   3.708   4.036   0.111 -0.1931 -0.2786  0.0619
  777MPD2    H511524   3.761   3.999   0.189 -0.3129 -1.1535 -0.2772
  777MPD2    N111525   3.625   4.338   0.465  0.1148 -0.0774  0.0288
  777MPD2    H711526   3.579   4.424   0.493  0.6274 -0.1671  1.1538
  778MPD2     C11527   0.067   0.279  14.765 -0.1280 -0.0371 -0.2524
  778MPD2    C111528   0.069   0.160  14.689 -0.5924  0.0292  0.6968
  778MPD2    C211529   0.170   0.138  14.592  0.0759 -0.3049 -0.7194
  778MPD2    C311530   0.273   0.227  14.565  0.6405 -0.1479  0.3975
  778MPD2    C411531   0.262   0.346  14.634  0.0056 -0.5372  0.1613
  778MPD2    C511532   0.165   0.368  14.735  0.0637 -0.0878  0.6659
  778MPD2     H11533   0.168   0.047  14.532 -1.0082  0.4451 -1.8122
  778MPD2    H111534   0.334   0.425  14.618  1.7786 -2.1196  0.4161
  778MPD2    H211535   4.737   0.299  14.846 -0.2716 -2.9775  0.3723
  778MPD2    H311536   0.161   0.469  14.774 -2.7810  0.2792 -0.5808
  778MPD2     N11537   0.386   0.199  14.484 -0.1294 -0.5199 -0.4268
  778MPD2    H511538   0.395   0.101  14.459 -0.2894 -1.0281  1.4612
  778MPD2    N111539   4.726   0.051  14.730  0.5793  0.2894 -0.8850
  778MPD2    H711540   0.007   4.711  14.669  1.6890 -2.1345  2.6296
  779MPD2     C11541   4.423   3.470  13.737 -0.0730 -0.0691  0.0494
  779MPD2    C111542   4.475   3.470  13.865  0.3576  0.1698  0.1525
  779MPD2    C211543   4.520   3.591  13.921  0.1260  1.0015  0.3764
  779MPD2    C311544   4.511   3.706  13.848  0.5567  0.2448 -0.1566
  779MPD2    C411545   4.459   3.707  13.720 -0.0071  0.0627 -0.0052
  779MPD2    C511546   4.419   3.586  13.668  0.4411  0.2290 -0.1292
  779MPD2     H11547   4.555   3.596  14.023 -0.7680  2.0743  0.6244
  779MPD2    H111548   4.454   3.795  13.657  1.6160  0.4617  0.4166
  779MPD2    H211549   4.398   3.382  13.678 -2.1868  1.1784 -0.9281
  779MPD2    H311550   4.389   3.581  13.564  1.6375  1.4715 -0.5327
  779MPD2     N11551   4.559   3.822  13.906 -0.2851 -0.0357  0.5371
  779MPD2    H511552   4.626   3.814  13.981  0.5737 -1.0629 -0.3340
  779MPD2    N111553   4.485   3.341  13.922  0.1349 -0.1691 -0.2731
  779MPD2    H711554   4.440   3.271  13.863 -0.4664  1.9785 -2.3382
  780MPD2     C11555   4.212   2.927   0.641 -0.8282 -0.0334  0.0754
  780MPD2    C111556   4.158   2.831   0.561 -0.0991  0.8489 -0.1543
  780MPD2    C211557   4.136   2.859   0.427 -0.6649  0.5415  0.4988
  780MPD2    C311558   4.155   2.990   0.382  0.1062 -0.2929 -0.6220
  780MPD2    C411559   4.199   3.089   0.468  0.2888  0.1955 -0.2028
  780MPD2    C511560   4.234   3.054   0.591 -0.1953 -0.4141 -0.0741
  780MPD2     H11561   4.099   2.790   0.352  3.1431  1.8145 -2.5337
  780MPD2    H111562   4.227   3.187   0.432 -1.1290  0.8293  0.4442
  780MPD2    H211563   4.250   2.900   0.739  3.4500 -1.2817 -1.9247
  780MPD2    H311564   4.256   3.134   0.661 -0.0799 -0.9046  0.4497
  780MPD2     N11565   4.115   3.021   0.246 -0.3650  0.0361  0.6204
  780MPD2    H511566   4.082   2.948   0.184 -2.1005 -0.1442  1.7746
  780MPD2    N111567   4.143   2.694   0.597 -0.7514 -0.1817  0.0401
  780MPD2    H711568   4.187   2.664   0.684  0.1278 -0.4719 -0.5113
  781MPD2     C11569   0.781   0.707  12.253 -0.1729 -0.3527 -0.0794
  781MPD2    C111570   0.894   0.658  12.309  0.1635  0.9412 -0.0986
  781MPD2    C211571   1.017   0.671  12.253 -0.3033  0.3981  0.5602
  781MPD2    C311572   1.027   0.727  12.126 -0.0285  0.0941  0.5062
  781MPD2    C411573   0.915   0.769  12.067  0.3044  0.3885 -0.1771
  781MPD2    C511574   0.799   0.768  12.134  0.4236 -0.0952  0.0328
  781MPD2     H11575   1.101   0.635  12.311 -0.1638  0.9416  0.6997
  781MPD2    H111576   0.932   0.814  11.970 -0.2816  3.2398  1.0383
  781MPD2    H211577   0.680   0.714  12.292 -0.3953 -2.6151 -0.2565
  781MPD2    H311578   0.716   0.806  12.074 -1.0616 -0.5158  1.8279
  781MPD2     N11579   1.144   0.736  12.045 -0.0542 -0.2704  0.4115
  781MPD2    H511580   1.135   0.752  11.945 -1.5344  0.8518  0.7221
  781MPD2    N111581   0.893   0.598  12.432 -0.6445  0.2331  0.2619
  781MPD2    H711582   0.980   0.568  12.473 -0.3793  1.2969  0.4647
  782MPD2     C11583   3.802   1.367  10.119  0.2052 -0.3639  0.4472
  782MPD2    C111584   3.841   1.353  10.245  0.5971 -0.9289  0.2073
  782MPD2    C211585   3.939   1.433  10.295 -0.2431  0.2003 -0.1152
  782MPD2    C311586   3.997   1.532  10.225  0.8756 -0.3396 -0.3235
  782MPD2    C411587   3.948   1.560  10.098  0.2005  0.0343  0.0808
  782MPD2    C511588   3.859   1.472  10.041  0.2253  0.5175 -0.4702
  782MPD2     H11589   3.972   1.408  10.395  0.7874  0.1321 -0.4762
  782MPD2    H111590   3.981   1.645  10.039 -1.8982  0.9922  0.2802
  782MPD2    H211591   3.724   1.305  10.076  0.0918 -0.3450  0.6276
  782MPD2    H311592   3.826   1.483   9.938  0.7857  0.2202 -0.6810
  782MPD2     N11593   4.100   1.596  10.291  0.1298  0.2311  0.5243
  782MPD2    H511594   4.122   1.559  10.383  1.9435  1.1629  0.4599
  782MPD2    N111595   3.800   1.247  10.329 -0.1945 -0.5039  0.5260
  782MPD2    H711596   3.770   1.166  10.275 -3.1216  0.0522  1.3238
  783MPD2     C11597   3.230   0.812  10.965 -0.5047 -0.1069  0.6038
  783MPD2    C111598   3.324   0.902  10.998  0.4487 -0.7443  0.4243
  783MPD2    C211599   3.426   0.937  10.912 -0.1481  0.1319 -0.1773
  783MPD2    C311600   3.429   0.890  10.783  0.1362 -0.0924 -0.5434
  783MPD2    C411601   3.335   0.798  10.751 -0.1901  0.1810 -0.2884
  783MPD2    C511602   3.231   0.772  10.838  0.0879  0.2053 -0.2610
  783MPD2     H11603   3.510   0.999  10.942  0.5088 -0.4035 -0.9226
  783MPD2    H111604   3.325   0.748  10.656 -2.1452 -0.1280  0.0904
  783MPD2    H211605   3.152   0.779  11.032 -1.1226  1.5103  0.6575
  783MPD2    H311606   3.151   0.701  10.825  0.5570  0.1094 -2.7244
  783MPD2     N11607   3.529   0.937  10.695 -0.8252 -0.0455  0.0578
  783MPD2    H511608   3.596   1.007  10.726  0.0761 -0.9511  0.1497
  783MPD2    N111609   3.330   0.944  11.133  0.0882 -0.2217 -0.1465
  783MPD2    H711610   3.266   0.903  11.200  0.5315 -0.8240 -0.0925
  784MPD2     C11611   0.737   1.350   1.686  0.5972 -0.4827  0.1865
  784MPD2    C111612   0.817   1.457   1.648  0.0422 -0.4185  0.1476
  784MPD2    C211613   0.760   1.557   1.574  0.1649  0.2965  0.3161
  784MPD2    C311614   0.638   1.543   1.516 -0.0854 -0.1960 -0.2724
  784MPD2    C411615   0.555   1.436   1.549  1.1837 -0.6127 -1.0659
  784MPD2    C511616   0.609   1.338   1.629 -0.8406  0.3599 -0.4442
  784MPD2     H11617   0.812   1.649   1.552  0.0547  0.6800  1.7196
  784MPD2    H111618   0.451   1.424   1.521  1.4843 -1.7587 -1.7083
  784MPD2    H211619   0.781   1.265   1.738 -3.7099 -2.6432  0.2751
  784MPD2    H311620   0.554   1.248   1.654 -1.6687  0.7399 -0.8856
  784MPD2     N11621   0.595   1.647   1.431  0.3039 -0.7173 -0.4552
  784MPD2    H511622   0.665   1.720   1.418 -2.0088  1.7110  0.8340
  784MPD2    N111623   0.955   1.470   1.683  0.5229 -0.1902  0.5549
  784MPD2    H711624   0.997   1.559   1.662  0.8211 -0.3710  0.3899
  785MPD2     C11625   1.940   4.538  10.684  0.2990  0.1289 -0.0986
  785MPD2    C111626   1.882   4.651  10.735  0.0575  0.5268  0.0799
  785MPD2    C211627   1.745   4.653  10.744 -0.1687 -0.3627 -0.2658
  785MPD2    C311628   1.670   4.550  10.691  0.2192  0.0447  0.0507
  785MPD2    C411629   1.726   4.445  10.634 -0.8029 -1.0946 -0.0335
  785MPD2    C511630   1.864   4.438  10.635  0.3486  0.8923 -0.9135
  785MPD2     H11631   1.687   0.001  10.774 -0.3087 -0.8579  0.8940
  785MPD2    H111632   1.665   4.364  10.596 -1.0978 -1.3374  0.9495
  785MPD2    H211633   2.047   4.524  10.677  0.3454  1.1522 -1.3820
  785MPD2    H311634   1.919   4.349  10.606  0.1518  0.0035  1.4252
  785MPD2     N11635   1.530   4.571  10.693  0.0012 -0.2357 -0.7218
  785MPD2    H511636   1.494   4.647  10.750  2.2447 -0.2201  0.6938
  785MPD2    N111637   1.971   0.014  10.777 -0.3625 -0.0635 -0.9219
  785MPD2    H711638   2.071   4.732  10.774  0.2600  2.5518  2.3795
  786MPD2     C11639   0.305   3.095  14.853 -0.4765 -0.2732  0.9749
  786MPD2    C111640   0.407   3.007  14.825  0.1675 -0.0553  0.1498
  786MPD2    C211641   0.493   2.968  14.929  0.6318  0.1156  0.0639
  786MPD2    C311642   0.464   3.006  15.058  0.4439  0.2910  0.4487
  786MPD2    C411643   0.347   3.082  15.079  1.0568 -0.0579 -0.3207
  786MPD2    C511644   0.269   3.127  14.978 -0.8655  0.0949  0.6607
  786MPD2     H11645   0.566   2.890  14.916 -0.3580 -1.2248  2.7399
  786MPD2    H111646   0.317   3.116  15.177 -1.9430  0.3363 -1.3890
  786MPD2    H211647   0.255   3.134  14.765 -0.1677  1.0461  1.3764
  786MPD2    H311648   0.180   3.185  15.000  0.2113  1.8516  0.3073
  786MPD2     N11649   0.547   2.964  15.168 -0.5368 -0.2933  0.2017
  786MPD2    H511650   0.512   2.991  15.260  2.5740 -0.9880  1.5977
  786MPD2    N111651   0.422   2.950  14.696 -0.1564  0.5253 -0.2187
  786MPD2    H711652   0.506   2.894  14.685 -0.6380 -0.7397  2.5232
  787MPD2     C11653   0.350   2.448  14.921 -0.2438 -0.1463 -0.0615
  787MPD2    C111654   0.379   2.411  14.791  0.5537  0.2465  0.0759
  787MPD2    C211655   0.435   2.287  14.762 -0.3415  0.4104  0.3946
  787MPD2    C311656   0.447   2.191  14.864  0.1288  0.9462  0.6702
  787MPD2    C411657   0.418   2.229  14.994  0.3645 -0.3248 -0.6475
  787MPD2    C511658   0.367   2.358  15.016  0.2145 -0.1764  0.2777
  787MPD2     H11659   0.453   2.248  14.663 -0.4630  1.2161  0.0582
  787MPD2    H111660   0.432   2.163  15.079 -0.4442 -0.5209 -0.6731
  787MPD2    H211661   0.319   2.550  14.943 -0.3299 -0.5276  1.5437
  787MPD2    H311662   0.346   2.390  15.117 -0.9560  0.0548 -0.0403
  787MPD2     N11663   0.524   2.071  14.850  0.1273  0.3375 -0.5186
  787MPD2    H511664   0.573   2.055  14.762 -0.2656  0.8539 -0.8298
  787MPD2    N111665   0.345   2.508  14.698 -0.3270 -0.0999 -0.0626
  787MPD2    H711666   0.303   2.590  14.742  0.8595  0.0710  0.7640
  788MPD2     C11667   2.622   0.883   0.795 -0.3772 -0.2713 -0.2532
  788MPD2    C111668   2.511   0.852   0.719 -0.7333  0.4184  0.1445
  788MPD2    C211669   2.422   0.948   0.684 -0.1884  0.1192 -0.7118
  788MPD2    C311670   2.448   1.083   0.714  0.0286  0.3514  0.1335
  788MPD2    C411671   2.561   1.114   0.786 -0.3175 -0.1039  0.1902
  788MPD2    C511672   2.648   1.013   0.816  0.0000  0.9534  0.4006
  788MPD2     H11673   2.329   0.922   0.635 -0.5159 -2.6175  1.3634
  788MPD2    H111674   2.588   1.215   0.816  0.6225 -0.1437 -0.4910
  788MPD2    H211675   2.700   0.814   0.826 -0.9399 -0.8122 -0.0503
  788MPD2    H311676   2.741   1.046   0.861  1.2158 -1.9428 -0.0169
  788MPD2     N11677   2.358   1.189   0.685  0.7618  0.5829  0.3697
  788MPD2    H511678   2.393   1.283   0.703  2.1069  0.1724 -0.0770
  788MPD2    N111679   2.473   0.718   0.685  0.0629  0.0428  0.1817
  788MPD2    H711680   2.392   0.707   0.625  0.6891 -0.3947 -0.5829
  789MPD2     C11681   2.379   0.216  16.394 -0.8232 -0.3621  0.0523
  789MPD2    C111682   2.286   0.255  16.299  0.8982 -0.4287 -0.0029
  789MPD2    C211683   2.188   0.345  16.332 -0.1010 -0.5050 -0.2827
  789MPD2    C311684   2.188   0.412  16.451 -0.1035  0.0372  0.1360
  789MPD2    C411685   2.279   0.367  16.545 -0.0544  0.0798 -0.3788
  789MPD2    C511686   2.372   0.269  16.516 -0.7890 -0.2319  0.8939
  789MPD2     H11687   2.123   0.381  16.253 -1.0831  1.4265  1.4106
  789MPD2    H111688   2.284   0.412  16.643  0.7429 -0.7342 -0.0416
  789MPD2    H211689   2.462   0.151  16.370 -1.1136 -1.2465  1.4800
  789MPD2    H311690   2.436   0.231  16.595 -0.7170 -1.2055  0.3700
  789MPD2     N11691   2.090   0.506  16.494  0.0839  0.4981  0.1973
  789MPD2    H511692   2.100   0.533  16.591  0.6243  0.9900  0.0061
  789MPD2    N111693   2.296   0.207  16.167 -0.0796  0.1923  0.0543
  789MPD2    H711694   2.221   0.227  16.101 -0.4901 -2.7629 -0.4012
  790MPD2     C11695   3.963   2.768  13.453 -0.1900  0.1485 -0.4217
  790MPD2    C111696   3.901   2.646  13.476 -0.0555  0.3114  0.3496
  790MPD2    C211697   3.812   2.598  13.384  0.3914 -0.9504  0.4621
  790MPD2    C311698   3.791   2.659  13.261  0.0179 -0.8088 -0.1639
  790MPD2    C411699   3.857   2.778  13.241  0.1132  1.0322 -0.1539
  790MPD2    C511700   3.939   2.828  13.332 -0.7280 -0.6361  0.2875
  790MPD2     H11701   3.754   2.510  13.410 -0.2199 -1.1191 -1.4814
  790MPD2    H111702   3.860   2.837  13.150  1.9026  0.2542 -0.6067
  790MPD2    H211703   4.043   2.805  13.516 -0.1913 -0.7735  0.1362
  790MPD2    H311704   3.999   2.918  13.322 -1.8618  0.2838  1.6794
  790MPD2     N11705   3.692   2.600  13.173  0.1503  0.0782  0.2226
  790MPD2    H511706   3.630   2.532  13.214 -1.9864  0.9619 -1.5213
  790MPD2    N111707   3.931   2.580  13.593 -0.1955 -0.3143 -0.1631
  790MPD2    H711708   4.014   2.617  13.638  0.7387 -1.2022 -1.1650
  791MPD2     C11709   3.164   2.316  13.325  0.9489 -0.1720  0.5773
  791MPD2    C111710   3.190   2.260  13.201  0.0081 -0.2712  0.1112
  791MPD2    C211711   3.113   2.155  13.155  0.0911 -0.1142 -0.7921
  791MPD2    C311712   2.995   2.124  13.213  0.1223  0.1854  0.0064
  791MPD2    C411713   2.966   2.184  13.337  0.8539 -0.1274  0.4235
  791MPD2    C511714   3.049   2.278  13.388 -0.5901  0.8964  0.9036
  791MPD2     H11715   3.134   2.102  13.063 -0.6040 -1.6917 -0.0288
  791MPD2    H111716   2.877   2.154  13.390 -0.1301  1.1982 -0.4769
  791MPD2    H211717   3.222   2.402  13.358  1.1955  0.3931 -1.2961
  791MPD2    H311718   3.025   2.324  13.483  0.2828 -1.0635  2.0668
  791MPD2     N11719   2.916   2.028  13.151 -0.0627 -0.0510  0.5483
  791MPD2    H511720   2.949   2.006  13.057  1.2370  3.3349  0.2159
  791MPD2    N111721   3.301   2.321  13.127  0.0961  1.0819 -0.3227
  791MPD2    H711722   3.348   2.395  13.179 -1.4688  1.0977  1.1038
  792MPD2     C11723   4.017   2.141  11.042  0.2360 -0.1990  0.2598
  792MPD2    C111724   3.933   2.165  10.937  0.0008  0.1753  0.3272
  792MPD2    C211725   3.795   2.171  10.968 -0.3093  0.0215 -0.4515
  792MPD2    C311726   3.747   2.154  11.093  1.0528  0.4922 -0.7472
  792MPD2    C411727   3.838   2.138  11.196  0.2648 -0.0772 -0.2393
  792MPD2    C511728   3.970   2.140  11.168  0.2962  0.0108  0.5533
  792MPD2     H11729   3.721   2.194  10.892  0.2125 -1.0671 -1.3061
  792MPD2    H111730   3.811   2.118  11.299  1.4260  1.0871  0.2788
  792MPD2    H211731   4.122   2.156  11.020 -0.7392  1.9633 -2.9592
  792MPD2    H311732   4.034   2.118  11.253 -0.5762  0.0295  1.2109
  792MPD2     N11733   3.613   2.153  11.120 -0.5020  1.0378 -0.3969
  792MPD2    H511734   3.593   2.160  11.220 -1.0572  3.1923 -0.6565
  792MPD2    N111735   3.980   2.201  10.808 -0.3900  0.8866 -0.1919
  792MPD2    H711736   4.081   2.215  10.804 -0.3625  1.0265  0.8414
  793MPD2     C11737   2.837   2.288  10.537  0.3641 -0.4629 -0.7932
  793MPD2    C111738   2.971   2.261  10.521 -0.8912  0.1306  1.0205
  793MPD2    C211739   3.043   2.244  10.635  0.0262 -0.0251  0.1064
  793MPD2    C311740   2.989   2.248  10.761 -0.1978 -0.6667  1.0149
  793MPD2    C411741   2.850   2.270  10.767  0.1998 -0.0370  0.4779
  793MPD2    C511742   2.771   2.299  10.658 -0.3018 -0.2127  0.1296
  793MPD2     H11743   3.151   2.232  10.629  0.0204 -0.0321  0.0140
  793MPD2    H111744   2.800   2.269  10.863 -0.9080  0.7086 -0.0981
  793MPD2    H211745   2.780   2.313  10.448  1.3802  1.2362 -0.9549
  793MPD2    H311746   2.666   2.325  10.666 -0.1460 -0.8312  4.2618
  793MPD2     N11747   3.080   2.235  10.874 -0.8331  0.5364 -0.1337
  793MPD2    H511748   3.178   2.218  10.856 -0.3927  3.9534 -0.9673
  793MPD2    N111749   3.039   2.254  10.396  0.3197  0.0652  0.4551
  793MPD2    H711750   3.141   2.249  10.400  0.2821  0.2512  1.4645
  794MPD2     C11751   2.703   1.472  16.798  0.5643 -0.1381 -0.2453
  794MPD2    C111752   2.798   1.397  16.725  0.5197  0.3712  0.4232
  794MPD2    C211753   2.771   1.371  16.590  0.2386  0.4757  0.3789
  794MPD2    C311754   2.656   1.433  16.533  0.2597  1.2705  0.0404
  794MPD2    C411755   2.572   1.512  16.611 -0.8145  0.2624  0.1654
  794MPD2    C511756   2.593   1.522  16.740 -0.7014  0.3719  0.0323
  794MPD2     H11757   2.842   1.313  16.532  0.5088  0.6425  0.5420
  794MPD2    H111758   2.492   1.571  16.568 -0.9526 -0.4352 -0.5326
  794MPD2    H211759   2.719   1.482  16.904  0.9346  2.7453 -0.5849
  794MPD2    H311760   2.525   1.584  16.797 -0.1243 -0.9607  2.1822
  794MPD2     N11761   2.610   1.417  16.398  0.4485  0.3043 -0.4407
  794MPD2    H511762   2.531   1.475  16.374  0.3000  0.5207  0.5429
  794MPD2    N111763   2.912   1.336  16.781  1.1028  0.6340 -0.1225
  794MPD2    H711764   2.966   1.275  16.721  1.2030  0.5514  0.0502
  795MPD2     C11765   1.054   3.753  14.144 -0.2040  0.0697 -0.1048
  795MPD2    C111766   1.006   3.673  14.044 -0.2192  0.1963 -0.2401
  795MPD2    C211767   1.098   3.574  13.996  0.8950  0.3036  0.3362
  795MPD2    C311768   1.228   3.578  14.025  0.0065  0.3042 -0.5022
  795MPD2    C411769   1.272   3.657  14.120  0.4658  0.0198  0.3384
  795MPD2    C511770   1.188   3.746  14.181 -0.0531 -0.1963  0.1936
  795MPD2     H11771   1.067   3.504  13.919 -0.3796  1.7399 -0.4501
  795MPD2    H111772   1.371   3.645  14.163  1.2867 -2.2950 -2.1665
  795MPD2    H211773   0.986   3.823  14.191 -1.5985  0.3263 -2.5001
  795MPD2    H311774   1.222   3.800  14.269 -0.1979 -1.0338  0.7600
  795MPD2     N11775   1.307   3.482  13.968  0.4842 -0.0076 -0.2849
  795MPD2    H511776   1.264   3.419  13.901  0.2919  0.1715 -0.3297
  795MPD2    N111777   0.872   3.673  13.992  0.7024  0.5187 -0.0378
  795MPD2    H711778   0.848   3.607  13.919 -0.4253  1.5570 -0.6245
  796MPD2     C11779   0.562   0.614  15.808 -0.3956 -0.0225  0.1107
  796MPD2    C111780   0.591   0.648  15.938  0.5200 -0.1316  0.2005
  796MPD2    C211781   0.538   0.767  15.981  0.2824  0.7811  0.0061
  796MPD2    C311782   0.479   0.851  15.895 -0.1338  0.0913 -0.1015
  796MPD2    C411783   0.459   0.822  15.766 -0.4319 -0.6756  0.0410
  796MPD2    C511784   0.502   0.700  15.720  1.0534 -0.4806 -0.0010
  796MPD2     H11785   0.554   0.796  16.084 -0.3474  2.3684 -0.3300
  796MPD2    H111786   0.419   0.895  15.697  1.4971 -0.7640 -1.1774
  796MPD2    H211787   0.588   0.513  15.779  1.4293  0.5497 -0.2919
  796MPD2    H311788   0.488   0.685  15.614 -2.6650 -1.5505  0.6666
  796MPD2     N11789   0.444   0.975  15.950  0.4409  0.4468 -0.2004
  796MPD2    H511790   0.485   1.002  16.039  0.3097  1.2775 -0.3851
  796MPD2    N111791   0.650   0.551  16.021 -0.4545 -0.4686  0.0627
  796MPD2    H711792   0.687   0.468  15.976 -1.2160 -0.7902  0.0353
  797MPD2     C11793   2.318   4.435  16.836 -0.6185  0.0255  0.6914
  797MPD2    C111794   2.190   4.480  16.847  0.0886 -0.2484 -0.3188
  797MPD2    C211795   2.127   4.529  16.736  0.3992 -0.1323  0.2514
  797MPD2    C311796   2.187   4.537  16.615  0.4867 -0.0433  0.5699
  797MPD2    C411797   2.315   4.494  16.600  0.1662  0.4953 -0.4283
  797MPD2    C511798   2.374   4.430  16.710  0.2151 -0.2941 -0.2807
  797MPD2     H11799   2.025   4.565  16.743  0.2849 -0.5147  0.5312
  797MPD2    H111800   2.371   4.508  16.508 -2.2930 -1.8917 -2.3204
  797MPD2    H211801   2.376   4.395  16.918 -0.5925 -0.5061  0.4158
  797MPD2    H311802   2.472   4.385  16.702  0.5476  0.2380  0.8028
  797MPD2     N11803   2.130   4.614  16.509 -0.5434 -0.3846  0.0058
  797MPD2    H511804   2.185   4.635  16.427 -0.3481 -1.5164 -0.1432
  797MPD2    N111805   2.107   4.475  16.959  0.1228 -0.4719 -0.3937
  797MPD2    H711806   2.008   4.467  16.939  0.0718  1.0092 -0.7211
  798MPD2     C11807   1.717   0.326  16.854 -0.3273  0.3871 -0.4479
  798MPD2    C111808   1.816   0.240  16.820  0.1186 -0.4412  0.1581
  798MPD2    C211809   1.856   0.153  16.916 -0.5620  0.0974 -0.4944
  798MPD2    C311810   1.798   0.134  17.040 -0.3966  0.1743  0.0616
  798MPD2    C411811   1.689   0.204  17.070 -0.3539  0.5593 -0.1711
  798MPD2    C511812   1.654   0.305  16.981  0.2751 -0.0283  0.2313
  798MPD2     H11813   1.930   0.077  16.893 -0.3255  0.4826 -1.0152
  798MPD2    H111814   1.637   0.191  17.164 -1.3643  0.8764 -0.6892
  798MPD2    H211815   1.674   0.399  16.787  0.2449  2.4018  1.3532
  798MPD2    H311816   1.571   0.371  17.003  0.1515 -0.5025  1.2010
  798MPD2     N11817   1.859   0.028  17.119  0.8036 -0.3851 -0.1040
  798MPD2    H511818   1.940   4.724  17.075 -1.1645 -2.0268 -2.0861
  798MPD2    N111819   1.861   0.223  16.693  0.1959  0.4091  0.3463
  798MPD2    H711820   1.929   0.148  16.678  0.4364  1.1908 -2.4105
  799MPD2     C11821   0.308   1.728  14.712 -0.3606 -0.0718 -0.1597
  799MPD2    C111822   0.335   1.691  14.587  0.2802  0.7864 -0.2145
  799MPD2    C211823   0.311   1.776  14.478  0.1982 -0.4761 -0.6597
  799MPD2    C311824   0.254   1.904  14.503 -0.1733  0.4484 -0.0331
  799MPD2    C411825   0.221   1.935  14.633  0.1775  0.0094  0.3201
  799MPD2    C511826   0.250   1.847  14.740 -0.3953 -0.2950  0.1502
  799MPD2     H11827   0.331   1.746  14.376  1.2279 -0.5845 -0.4269
  799MPD2    H111828   0.162   2.024  14.654  0.9834  0.7750 -0.6418
  799MPD2    H211829   0.313   1.649  14.786 -4.1892  0.1995  0.3700
  799MPD2    H311830   0.212   1.877  14.837 -0.0076 -0.6870  0.4251
  799MPD2     N11831   0.236   1.997  14.395  0.8564  0.9157 -0.0218
  799MPD2    H511832   0.215   2.094  14.416  1.7851  1.5314 -1.8883
  799MPD2    N111833   0.385   1.555  14.569  0.3384  0.4609 -0.2295
  799MPD2    H711834   0.408   1.501  14.652 -0.6617  0.4904  0.0641
  800MPD2     C11835   0.800   2.751  14.320  0.6695  0.1088 -0.4057
  800MPD2    C111836   0.909   2.669  14.315  0.4142 -0.1883 -0.2063
  800MPD2    C211837   0.914   2.568  14.219  0.0732  0.5487  1.2311
  800MPD2    C311838   0.808   2.551  14.137 -0.1207  0.5676  0.0508
  800MPD2    C411839   0.685   2.611  14.162 -0.3639 -0.0722  0.2761
  800MPD2    C511840   0.685   2.709  14.260  0.0557 -0.4804 -0.3320
  800MPD2     H11841   0.999   2.501  14.209 -0.3107  0.2523 -0.0424
  800MPD2    H111842   0.588   2.588  14.118 -1.2044  1.1028  1.5250
  800MPD2    H211843   0.805   2.841  14.381  2.4445  0.2140 -0.6836
  800MPD2    H311844   0.597   2.772  14.264 -0.1996 -1.0212  2.5624
  800MPD2     N11845   0.826   2.457  14.031 -0.5654  0.0632 -0.2114
  800MPD2    H511846   0.913   2.405  14.025 -1.5820 -1.8579  1.7359
  800MPD2    N111847   1.031   2.703  14.378  0.5781 -0.8696  0.0144
  800MPD2    H711848   1.034   2.781  14.443  2.0502 -0.2801 -0.7596
  801MPD2     C11849   1.142   3.372  14.434  0.4999  0.0742 -0.0565
  801MPD2    C111850   1.154   3.269  14.522  0.1606  0.0412 -0.5565
  801MPD2    C211851   1.101   3.278  14.651 -0.2939 -0.3264 -0.0627
  801MPD2    C311852   1.024   3.386  14.680  0.4757  0.0028 -0.5442
  801MPD2    C411853   1.003   3.492  14.592 -0.5661 -0.6202 -0.6522
  801MPD2    C511854   1.070   3.482  14.475  0.0690 -0.0575 -0.5685
  801MPD2     H11855   1.099   3.192  14.717  0.6577  0.5289  1.0633
  801MPD2    H111856   0.939   3.573  14.625 -0.3185 -0.0715 -1.5325
  801MPD2    H211857   1.165   3.376  14.328  3.3358 -0.5108  0.5377
  801MPD2    H311858   1.039   3.558  14.405 -1.0449  0.4579  0.4737
  801MPD2     N11859   0.943   3.385  14.801  0.2922 -0.2371  0.0838
  801MPD2    H511860   0.870   3.455  14.800 -0.5012 -1.0749  0.1507
  801MPD2    N111861   1.210   3.145  14.486 -0.0599 -0.1169  0.2663
  801MPD2    H711862   1.198   3.077  14.561 -1.9901  0.5726  0.5982
  802MPD2     C11863   0.218   3.946   0.057 -0.5404 -0.2699 -0.1789
  802MPD2    C111864   0.109   3.937  17.728  0.5295  0.1611 -0.1549
  802MPD2    C211865   0.116   3.859  17.613 -0.1248 -0.2306 -0.1202
  802MPD2    C311866   0.233   3.793  17.577  0.7594 -0.7661 -0.1309
  802MPD2    C411867   0.335   3.784  17.671  0.0100  0.2888  0.2748
  802MPD2    C511868   0.321   3.857   0.033  0.7584 -0.4251 -0.2311
  802MPD2     H11869   0.027   3.859  17.551 -0.9104 -1.3785  1.0031
  802MPD2    H111870   0.437   3.749  17.665 -0.3148 -0.3430 -1.5813
  802MPD2    H211871   0.208   4.011   0.143 -0.3212  0.0144 -0.3687
  802MPD2    H311872   0.405   3.856   0.102  0.1257  2.2940  0.5708
  802MPD2     N11873   0.240   3.743  17.447 -0.6657  0.1013 -0.3016
  802MPD2    H511874   0.168   3.780  17.385  0.0184  3.3310  0.8160
  802MPD2    N111875   4.721   3.990   0.002 -0.5773  0.4637 -0.3953
  802MPD2    H711876   4.647   3.953  17.697  0.0136 -3.1118  1.1177
  803MPD2     C11877   0.943   1.403  12.670 -0.2332  0.5157  0.0265
  803MPD2    C111878   0.998   1.490  12.578 -0.1066 -0.1157  0.3591
  803MPD2    C211879   1.111   1.562  12.613 -0.2527  0.2731  0.2519
  803MPD2    C311880   1.166   1.536  12.736  0.2884 -0.1325 -0.0444
  803MPD2    C411881   1.114   1.452  12.831  0.3442  0.6624  1.2755
  803MPD2    C511882   0.999   1.382  12.796 -0.0878  0.0725  0.2955
  803MPD2     H11883   1.162   1.629  12.545 -0.8929  0.5211  0.0167
  803MPD2    H111884   1.162   1.446  12.928 -0.0172 -1.0613  1.3450
  803MPD2    H211885   0.858   1.341  12.646  0.4696 -0.7060  0.7263
  803MPD2    H311886   0.951   1.315  12.867 -0.2336  2.5732  2.5108
  803MPD2     N11887   1.283   1.597  12.779 -0.3265 -0.4726  0.3343
  803MPD2    H511888   1.308   1.585  12.877 -1.0769  1.3177  0.7475
  803MPD2    N111889   0.938   1.511  12.449  0.6953  0.3391 -0.1555
  803MPD2    H711890   0.995   1.569  12.389 -2.4893  1.4224 -2.1483
  804MPD2     C11891   1.050   3.412  17.192 -0.2491  0.1977  0.7862
  804MPD2    C111892   1.040   3.413  17.326 -0.2042 -0.1401 -0.1954
  804MPD2    C211893   1.086   3.527  17.396 -0.2764  0.7658  0.1913
  804MPD2    C311894   1.120   3.647  17.329 -0.2388  0.2113 -0.3224
  804MPD2    C411895   1.125   3.649  17.192 -0.1672 -0.2276  0.5815
  804MPD2    C511896   1.096   3.529  17.125 -0.3585  0.2778  0.1491
  804MPD2     H11897   1.074   3.528  17.504  0.0755  2.3965  0.2082
  804MPD2    H111898   1.132   3.740  17.134  2.9858  0.5943  2.2662
  804MPD2    H211899   1.041   3.327  17.125  2.2374  0.4024  0.1921
  804MPD2    H311900   1.088   3.534  17.017  1.3771  1.5614  0.0939
  804MPD2     N11901   1.132   3.773  17.396  0.0161  0.0638  0.0077
  804MPD2    H511902   1.104   3.779  17.494  1.9399 -0.6716  0.5964
  804MPD2    N111903   1.019   3.297  17.407 -0.1353  0.4394  0.3595
  804MPD2    H711904   1.036   3.315  17.506 -0.9606  1.8131  0.2473
  805MPD2     C11905   4.527   1.536  15.677  0.1992  0.1458  0.6632
  805MPD2    C111906   4.576   1.636  15.593  0.5196  0.7669  0.1361
  805MPD2    C211907   4.711   1.655  15.584 -0.3061  0.0386 -0.4917
  805MPD2    C311908   0.062   1.576  15.645  0.1833  0.1523 -0.2228
  805MPD2    C411909   0.015   1.478  15.731 -0.1312 -0.4093  0.2171
  805MPD2    C511910   4.620   1.458  15.743 -0.1297 -0.5357 -0.3721
  805MPD2     H11911   0.000   1.740  15.524  0.1472 -1.3715 -2.2573
  805MPD2    H111912   0.087   1.432  15.798 -1.5750 -2.3603  0.4373
  805MPD2    H211913   4.421   1.516  15.692 -0.1865  1.3646 -0.4009
  805MPD2    H311914   4.588   1.381  15.812  0.5999 -0.1640  0.3735
  805MPD2     N11915   0.201   1.609  15.627  0.2094 -0.4583  0.8579
  805MPD2    H511916   0.205   1.706  15.597  0.4314 -0.1916  1.7610
  805MPD2    N111917   4.508   1.733  15.519  0.1231 -0.3256 -0.3446
  805MPD2    H711918   4.562   1.785  15.451 -2.0360  1.1668 -0.8941
  806MPD2     C11919   0.609   1.310   1.116  0.0417  0.0630 -0.6720
  806MPD2    C111920   0.731   1.382   1.137  0.0641  0.8060 -0.6861
  806MPD2    C211921   0.766   1.468   1.037 -0.1588  0.1829 -0.1423
  806MPD2    C311922   0.688   1.477   0.924  0.0917 -0.3745  0.8912
  806MPD2    C411923   0.573   1.404   0.908 -0.2352 -0.2269  0.7562
  806MPD2    C511924   0.524   1.327   1.008 -0.4277  0.3230  0.7612
  806MPD2     H11925   0.865   1.511   1.041 -1.0897  2.2988 -0.0753
  806MPD2    H111926   0.509   1.421   0.821  0.7378 -2.6613 -0.4264
  806MPD2    H211927   0.570   1.245   1.193  1.9699 -0.5454 -0.2045
  806MPD2    H311928   0.422   1.290   1.017  0.0235 -1.1070 -0.0372
  806MPD2     N11929   0.725   1.574   0.830 -0.3580 -0.2810  0.3429
  806MPD2    H511930   0.789   1.639   0.876 -1.4788 -0.5993  2.3549
  806MPD2    N111931   0.805   1.345   1.249  0.1350  0.3059 -0.2499
  806MPD2    H711932   0.767   1.265   1.298  0.4413  0.4617  0.2361
  807MPD2     C11933   0.888   0.723   1.461 -0.2338  0.3458  0.5277
  807MPD2    C111934   0.841   0.833   1.531  0.0295 -0.1994  0.2329
  807MPD2    C211935   0.722   0.824   1.599 -0.3005  0.4032  0.9999
  807MPD2    C311936   0.651   0.702   1.609  0.1486  0.2251  0.5184
  807MPD2    C411937   0.702   0.590   1.538  0.8948 -0.3891  1.2203
  807MPD2    C511938   0.820   0.603   1.461 -0.2351 -0.4008  0.6715
  807MPD2     H11939   0.688   0.910   1.655  1.1978  1.3363  0.4967
  807MPD2    H111940   0.643   0.500   1.536 -1.3116  1.0597  1.4327
  807MPD2    H211941   0.977   0.725   1.400 -2.4419  1.2941 -2.6707
  807MPD2    H311942   0.858   0.519   1.405  1.8662  0.7164  0.4185
  807MPD2     N11943   0.535   0.698   1.692  0.5086 -0.1783  0.1463
  807MPD2    H511944   0.498   0.788   1.720 -0.3019 -0.5814  0.3808
  807MPD2    N111945   0.910   0.958   1.526  0.2155 -0.3746  0.2249
  807MPD2    H711946   0.869   1.030   1.584  1.2937  1.2593 -1.0620
  808MPD2     C11947   1.277   3.113  10.293 -0.1223 -0.4303  0.0100
  808MPD2    C111948   1.299   3.118  10.156 -0.3573  0.1273  0.4072
  808MPD2    C211949   1.338   3.240  10.096 -0.0204 -0.6886 -0.4579
  808MPD2    C311950   1.357   3.352  10.176 -0.2288 -0.4870  0.7657
  808MPD2    C411951   1.337   3.348  10.314 -0.1999  0.2388  0.1020
  808MPD2    C511952   1.295   3.230  10.370 -0.1684  0.2571 -0.2977
  808MPD2     H11953   1.359   3.248   9.990  0.4401  0.0638 -0.3074
  808MPD2    H111954   1.336   3.436  10.378  1.1582  0.3563 -0.0535
  808MPD2    H211955   1.249   3.022  10.345 -0.2650  0.8529  2.1402
  808MPD2    H311956   1.264   3.242  10.473  1.2426 -0.1248  0.1745
  808MPD2     N11957   1.413   3.476  10.127  0.0896 -0.0260  0.1969
  808MPD2    H511958   1.416   3.551  10.195 -0.0816  0.5727 -0.4502
  808MPD2    N111959   1.311   3.001  10.075 -0.5496 -0.2464  0.2753
  808MPD2    H711960   1.329   3.018   9.977  0.7633 -0.9553  0.4047
  809MPD2     C11961   2.181   3.772   9.481 -0.0134 -0.7123 -0.5632
  809MPD2    C111962   2.114   3.663   9.533  0.6319  0.1135  0.1095
  809MPD2    C211963   2.001   3.687   9.609 -0.3111  0.4216  0.4476
  809MPD2    C311964   1.934   3.808   9.619 -0.5397  0.6543 -0.5378
  809MPD2    C411965   2.004   3.919   9.558 -0.2045 -1.1149  0.7567
  809MPD2    C511966   2.119   3.899   9.486 -0.2843 -0.0989 -0.2177
  809MPD2     H11967   1.963   3.600   9.662 -1.9081 -0.2886 -1.8587
  809MPD2    H111968   1.965   4.019   9.568 -1.0293 -1.1673 -2.1324
  809MPD2    H211969   2.260   3.756   9.409  1.4215 -0.8716  1.0301
  809MPD2    H311970   2.171   3.982   9.441 -0.3288 -0.2290 -0.5047
  809MPD2     N11971   1.815   3.841   9.691 -0.8471 -0.4161 -0.3334
  809MPD2    H511972   1.798   3.938   9.719  1.2562  0.7610 -3.1434
  809MPD2    N111973   2.154   3.522   9.531  0.1771  0.2420 -0.4507
  809MPD2    H711974   2.080   3.458   9.558  0.4321 -0.7027 -2.0141
  810MPD2     C11975   0.836   2.075  11.041 -0.4367  0.5087 -0.7219
  810MPD2    C111976   0.795   2.076  10.913  0.3888  0.2560 -0.2044
  810MPD2    C211977   0.795   2.199  10.844  0.1629 -1.1949 -0.2332
  810MPD2    C311978   0.834   2.316  10.910 -0.3355 -0.3091 -0.0314
  810MPD2    C411979   0.873   2.306  11.045  0.1855  0.0608  0.1634
  810MPD2    C511980   0.874   2.183  11.110 -0.0260 -0.4405 -0.2335
  810MPD2     H11981   0.761   2.214  10.743  0.8273 -1.3654 -0.4800
  810MPD2    H111982   0.893   2.398  11.098  0.8981  0.5920 -1.0225
  810MPD2    H211983   0.846   1.979  11.092  2.4010  0.8179 -0.6792
  810MPD2    H311984   0.910   2.176  11.212 -0.3441  0.8684 -0.0329
  810MPD2     N11985   0.826   2.445  10.847 -0.3465  0.0060 -0.2493
  810MPD2    H511986   0.847   2.524  10.906  1.4952 -0.6301 -0.0452
  810MPD2    N111987   0.742   1.957  10.860 -0.1598  0.2825 -0.0655
  810MPD2    H711988   0.752   1.870  10.911 -2.3374 -0.2518 -0.5289
  811MPD2     C11989   0.422   1.496  10.150 -0.6907 -0.2807  0.2891
  811MPD2    C111990   0.524   1.565  10.207 -0.4718  0.3051  0.3464
  811MPD2    C211991   0.590   1.655  10.140  1.0302 -0.0772  0.0052
  811MPD2    C311992   0.556   1.689  10.009 -0.1094 -0.4850  0.2033
  811MPD2    C411993   0.458   1.615   9.945 -0.0858 -0.3528  0.5342
  811MPD2    C511994   0.393   1.518  10.018  0.2642 -0.0060  0.1601
  811MPD2     H11995   0.655   1.729  10.185 -0.4856 -0.2171  2.3851
  811MPD2    H111996   0.442   1.633   9.839 -1.4737 -0.5859  0.7062
  811MPD2    H211997   0.353   1.436  10.207 -0.8612 -2.4263 -2.1723
  811MPD2    H311998   0.320   1.451   9.973  0.4604  0.2972 -0.5979
  811MPD2     N11999   0.626   1.800   9.949  0.7013 -0.0460  0.4080
  811MPD2    H512000   0.697   1.848  10.004  0.8541  2.1291 -1.6888
  811MPD2    N112001   0.545   1.551  10.345 -0.2373  0.0328  0.1751
  811MPD2    H712002   0.463   1.509  10.388  1.1072 -2.3055  0.4494
  812MPD2     C12003   4.126   2.025  11.969  0.9008 -0.1391  0.5806
  812MPD2    C112004   4.236   2.088  12.024 -0.8340  0.5842 -0.1138
  812MPD2    C212005   4.274   2.067  12.152 -0.1481  0.1777 -0.2406
  812MPD2    C312006   4.203   1.984  12.235 -0.0770  0.5404  0.0049
  812MPD2    C412007   4.092   1.916  12.186 -0.6161  0.3013 -0.3392
  812MPD2    C512008   4.054   1.940  12.056 -0.3089  0.0135  0.3636
  812MPD2     H12009   4.351   2.133  12.190 -1.4044  1.0880  0.7073
  812MPD2    H112010   4.025   1.855  12.244  1.6589 -1.0793  0.8360
  812MPD2    H212011   4.081   2.053  11.875  1.1581  0.6245  0.6855
  812MPD2    H312012   3.956   1.903  12.032  0.0818 -0.1048 -1.0685
  812MPD2     N12013   4.230   1.976  12.370 -0.0813 -0.0344 -0.0237
  812MPD2    H512014   4.308   2.035  12.398  1.1419 -1.4871 -0.3643
  812MPD2    N112015   4.305   2.177  11.934 -0.6137  0.4454  0.0354
  812MPD2    H712016   4.258   2.193  11.846 -1.7999  0.4852  0.6815
  813MPD2     C12017   3.494   3.995  12.766  0.3913  0.0600  0.3897
  813MPD2    C112018   3.460   4.129  12.771 -0.0788  0.2634 -0.5318
  813MPD2    C212019   3.396   4.186  12.882 -0.4898  0.0777  0.2053
  813MPD2    C312020   3.361   4.107  12.994 -0.1593  0.1908 -0.1149
  813MPD2    C412021   3.418   3.976  12.996 -0.1587  0.3153  0.6836
  813MPD2    C512022   3.482   3.930  12.887  0.7735 -0.3481 -0.1418
  813MPD2     H12023   3.361   4.288  12.872 -0.4461 -0.2253 -3.0230
  813MPD2    H112024   3.419   3.907  13.079 -1.8709  0.8419  1.1350
  813MPD2    H212025   3.536   3.941  12.683  1.3339  3.3799 -1.2904
  813MPD2    H312026   3.527   3.831  12.886 -1.8893 -1.5341 -3.0503
  813MPD2     N12027   3.297   4.167  13.099 -0.0090  0.0057 -0.3340
  813MPD2    H512028   3.294   4.267  13.082  1.3812 -0.2430 -1.9926
  813MPD2    N112029   3.495   4.218  12.667  0.2382  0.0922  0.7311
  813MPD2    H712030   3.511   4.313  12.698 -0.2682  0.8720 -1.3463
  814MPD2     C12031   4.115   0.598  12.380  0.0556 -0.5014  0.0441
  814MPD2    C112032   4.085   0.699  12.291  0.4970  0.1298  0.0647
  814MPD2    C212033   4.101   0.835  12.323 -0.4380 -0.2638 -0.2273
  814MPD2    C312034   4.151   0.863  12.453 -0.0921  0.9869  0.3235
  814MPD2    C412035   4.198   0.762  12.540 -0.1523 -0.0046  0.0734
  814MPD2    C512036   4.177   0.627  12.501 -0.0517 -0.1365 -1.4597
  814MPD2     H12037   4.066   0.912  12.254  0.8341  0.4521 -0.0839
  814MPD2    H112038   4.246   0.774  12.636 -2.3563 -2.2827  1.4675
  814MPD2    H212039   4.096   0.493  12.360 -0.1747 -0.2953 -0.7863
  814MPD2    H312040   4.197   0.548  12.573  1.0183  0.1947 -1.3974
  814MPD2     N12041   4.169   0.992  12.502 -0.0732 -1.0924  0.5708
  814MPD2    H512042   4.196   1.001  12.600 -3.0230  0.3498  1.2475
  814MPD2    N112043   4.031   0.662  12.165  0.2908 -0.1139 -0.3240
  814MPD2    H712044   4.026   0.740  12.101  3.8776 -0.6310 -1.2241
  815MPD2     C12045   0.030   3.682  11.865  0.4346  0.5805  0.3996
  815MPD2    C112046   4.652   3.642  11.804 -0.1393 -0.2466 -0.1231
  815MPD2    C212047   4.530   3.676  11.861  0.6936 -0.3023 -0.0728
  815MPD2    C312048   4.531   3.752  11.976  0.5405  0.2948  0.0551
  815MPD2    C412049   4.645   3.799  12.034 -0.2859  0.0510 -0.2072
  815MPD2    C512050   0.025   3.769  11.974  0.2957 -0.5273  0.3200
  815MPD2     H12051   4.433   3.651  11.821  0.0840  2.0848 -0.1122
  815MPD2    H112052   4.637   3.871  12.115 -1.0597  0.9852 -1.1230
  815MPD2    H212053   0.123   3.663  11.812  0.9154  0.9596  1.0936
  815MPD2    H312054   0.112   3.818  12.015  0.3074 -0.5964  0.3774
  815MPD2     N12055   4.410   3.774  12.031 -0.2747 -0.6959  0.1729
  815MPD2    H512056   4.336   3.724  11.981 -0.5089  0.9789 -1.1853
  815MPD2    N112057   4.655   3.551  11.698 -0.1793  0.8911  0.2355
  815MPD2    H712058   4.734   3.488  11.686  0.0335  1.3741 -0.9073
  816MPD2     C12059   0.189   3.323  17.456  0.3694 -0.4683  0.4244
  816MPD2    C112060   0.116   3.340  17.329 -0.4406 -0.4272 -0.2246
  816MPD2    C212061   0.184   3.322  17.211 -0.9633 -0.1377  0.0722
  816MPD2    C312062   0.317   3.300  17.214  0.1564  0.0992  0.2940
  816MPD2    C412063   0.386   3.291  17.332  0.3072  0.0391 -0.1674
  816MPD2    C512064   0.324   3.306  17.456  0.4493  0.7124 -0.8896
  816MPD2     H12065   0.139   3.344  17.115 -2.3890 -1.6695  0.3779
  816MPD2    H112066   0.494   3.281  17.342  0.2128 -1.1122 -0.3793
  816MPD2    H212067   0.137   3.318  17.552 -1.6234  1.2135 -0.5748
  816MPD2    H312068   0.386   3.295  17.544 -4.5661  3.3254  2.8843
  816MPD2     N12069   0.390   3.280  17.094  0.0438 -0.4802 -0.0122
  816MPD2    H512070   0.339   3.287  17.007  0.6458 -1.0391 -0.4115
  816MPD2    N112071   4.716   3.375  17.336  0.2259  0.1900  0.4711
  816MPD2    H712072   4.668   3.398  17.422 -2.1921 -1.3699 -0.4486
  817MPD2     C12073   0.224   0.462  10.221 -0.2904 -0.0175  0.1338
  817MPD2    C112074   0.127   0.432  10.121  0.5793 -0.4160  0.5341
  817MPD2    C212075   0.047   0.543  10.079  0.2459 -0.9702  0.2102
  817MPD2    C312076   0.061   0.672  10.125 -0.0186 -0.2444 -0.1478
  817MPD2    C412077   0.176   0.698  10.202 -0.5157  0.1385  0.6583
  817MPD2    C512078   0.251   0.594  10.245 -0.7751  0.2692 -0.2484
  817MPD2     H12079   4.708   0.528  10.006  0.3750 -1.6863  0.2182
  817MPD2    H112080   0.196   0.801  10.230 -2.7461  0.5840  0.6481
  817MPD2    H212081   0.278   0.381  10.269 -2.5113 -1.4606  0.1761
  817MPD2    H312082   0.345   0.623  10.289 -0.1912  0.5214 -1.6565
  817MPD2     N12083   4.720   0.783  10.084 -0.2354 -0.2187 -0.5066
  817MPD2    H512084   0.014   0.875  10.110 -0.4603  0.1710 -1.6237
  817MPD2    N112085   0.108   0.300  10.070 -0.4793  0.1978  0.0431
  817MPD2    H712086   0.048   0.300   9.988 -0.8228  1.2261  0.2971
  818MPD2     C12087   3.217   0.091  10.144 -0.4406  0.5085  0.8409
  818MPD2    C112088   3.217   0.007  10.264  0.8880  0.7820 -0.0876
  818MPD2    C212089   3.267   4.615  10.259 -0.2250  0.9817  0.0283
  818MPD2    C312090   3.319   4.572  10.136  0.5118 -0.0960 -0.4009
  818MPD2    C412091   3.323   4.660  10.026 -0.0001  0.1616 -0.8520
  818MPD2    C512092   3.272   0.044  10.027 -0.6715 -0.1537 -0.1574
  818MPD2     H12093   3.271   4.554  10.349 -0.0916 -0.0292 -0.6608
  818MPD2    H112094   3.371   4.627   9.935 -1.7788  0.4605 -1.8806
  818MPD2    H212095   3.183   0.194  10.140 -0.0413  0.6001 -0.2316
  818MPD2    H312096   3.267   0.108   9.940  0.6265 -1.3826 -1.1452
  818MPD2     N12097   3.372   4.445  10.121 -0.2785  0.1022  0.8232
  818MPD2    H512098   3.406   4.420  10.029 -0.9176 -0.0586  0.6295
  818MPD2    N112099   3.161   0.041  10.389 -0.0172 -0.1084  0.1748
  818MPD2    H712100   3.173   4.713  10.464  1.5553  0.3797  0.3678
  819MPD2     C12101   0.831   1.723  15.440 -0.3115 -0.2256 -0.5327
  819MPD2    C112102   0.787   1.596  15.472  0.0616  0.0186 -0.8908
  819MPD2    C212103   0.859   1.529  15.567  0.0455 -0.3307  0.2889
  819MPD2    C312104   0.968   1.584  15.638  0.0410  0.5109  0.8938
  819MPD2    C412105   0.995   1.716  15.621  0.2380  0.6328  0.2870
  819MPD2    C512106   0.924   1.783  15.523  0.3454  0.7094 -0.4317
  819MPD2     H12107   0.828   1.428  15.591  0.3620 -0.3079  0.7903
  819MPD2    H112108   1.071   1.772  15.675  0.4348  0.7385 -0.0965
  819MPD2    H212109   0.791   1.792  15.367 -0.6406 -1.1531 -1.2280
  819MPD2    H312110   0.931   1.891  15.519  2.0555  0.5699 -1.3518
  819MPD2     N12111   1.018   1.512  15.751  0.1526 -0.2750 -0.1383
  819MPD2    H512112   0.974   1.423  15.770 -1.7009  0.6032 -0.2943
  819MPD2    N112113   0.682   1.549  15.395  0.3621  0.0357 -0.3830
  819MPD2    H712114   0.634   1.614  15.334  0.7938 -1.6948 -2.5687
  820MPD2     C12115   4.611   1.770  14.889 -0.1785 -0.2957 -0.1223
  820MPD2    C112116   4.648   1.802  15.018 -0.2654 -0.4305 -0.2665
  820MPD2    C212117   0.021   1.737  15.077 -0.2152  0.7122  0.6282
  820MPD2    C312118   0.084   1.631  15.004  0.1599 -0.5083 -0.3456
  820MPD2    C412119   0.040   1.598  14.878 -1.1151 -0.4970  0.6614
  820MPD2    C512120   4.673   1.666  14.823  0.5641 -0.1982 -1.0001
  820MPD2     H12121   0.054   1.763  15.177 -0.1533 -1.6368  1.2130
  820MPD2    H112122   0.090   1.519  14.822 -2.3667  1.4490 -3.1878
  820MPD2    H212123   4.535   1.823  14.833 -2.1308 -2.2008  0.7346
  820MPD2    H312124   4.658   1.645  14.718 -0.4556 -1.3267 -0.6333
  820MPD2     N12125   0.181   1.545  15.061 -0.0234  0.4992 -0.7020
  820MPD2    H512126   0.211   1.473  14.995  0.0308 -0.8218  0.7650
  820MPD2    N112127   4.569   1.903  15.073 -0.4330  0.0083  0.3884
  820MPD2    H712128   4.489   1.932  15.019 -0.1257 -0.1309 -0.1417
  821MPD2     C12129   0.859   2.828  13.297  0.1299  0.4883 -0.1966
  821MPD2    C112130   0.968   2.779  13.360 -0.4522 -0.5746  0.1180
  821MPD2    C212131   1.095   2.807  13.308  0.4040 -0.3314 -0.5991
  821MPD2    C312132   1.107   2.865  13.179  0.2345  0.6140  0.6258
  821MPD2    C412133   0.991   2.912  13.116 -0.0884  0.1250 -1.1423
  821MPD2    C512134   0.872   2.899  13.177 -0.4732  0.0755  0.1390
  821MPD2     H12135   1.180   2.790  13.374 -0.7833 -1.2834  0.6974
  821MPD2    H112136   0.995   2.940  13.011  0.7294  0.0065 -1.1405
  821MPD2    H212137   0.760   2.806  13.335  0.6063  0.8838  1.2646
  821MPD2    H312138   0.782   2.921  13.121 -0.7989  0.3472  0.7729
  821MPD2     N12139   1.228   2.881  13.111 -0.6249 -0.5669  0.6323
  821MPD2    H512140   1.225   2.899  13.011  1.6589 -1.1248  0.4713
  821MPD2    N112141   0.961   2.698  13.480  0.0514  0.6823 -0.8560
  821MPD2    H712142   1.052   2.679  13.520 -0.9585  0.3325  1.3030
  822MPD2     C12143   1.608   2.595  15.934 -0.2711  0.4243  0.3954
  822MPD2    C112144   1.602   2.566  16.066  0.7035 -0.7594 -0.6330
  822MPD2    C212145   1.533   2.657  16.146  0.5468 -1.0081 -0.7309
  822MPD2    C312146   1.490   2.776  16.100 -0.8194 -0.3527 -0.4604
  822MPD2    C412147   1.500   2.807  15.968  0.3499  0.0869 -0.4685
  822MPD2    C512148   1.553   2.712  15.888 -0.2512  0.6631  0.0064
  822MPD2     H12149   1.520   2.633  16.251  1.6909 -1.5481 -0.7036
  822MPD2    H112150   1.449   2.890  15.920 -1.0247 -1.0202 -0.9387
  822MPD2    H212151   1.665   2.539  15.861 -1.1131  0.0260  0.0456
  822MPD2    H312152   1.556   2.730  15.781 -2.1694  2.5613  0.2720
  822MPD2     N12153   1.427   2.862  16.193 -0.2766 -0.5225  0.0923
  822MPD2    H512154   1.405   2.817  16.282 -2.0550 -0.5610 -0.3793
  822MPD2    N112155   1.668   2.457  16.129 -0.4046  0.3488  0.2708
  822MPD2    H712156   1.657   2.459  16.230  0.9993 -0.9587  0.4467
  823MPD2     C12157   1.246   3.071  16.997 -0.1666 -0.0412 -0.7666
  823MPD2    C112158   1.269   2.986  16.891  0.7998 -0.1548  0.4059
  823MPD2    C212159   1.347   2.870  16.909  0.0484  0.3699 -0.3051
  823MPD2    C312160   1.393   2.838  17.037 -0.4998 -0.6534 -0.3951
  823MPD2    C412161   1.350   2.911  17.144  0.0670 -0.6840 -0.8388
  823MPD2    C512162   1.284   3.024  17.124 -0.5934  0.0066 -0.5535
  823MPD2     H12163   1.372   2.802  16.828 -1.9424 -0.3474 -0.3163
  823MPD2    H112164   1.378   2.891  17.247 -0.3033 -0.6814 -0.7382
  823MPD2    H212165   1.203   3.170  16.984 -0.0180  0.1386  0.0794
  823MPD2    H312166   1.285   3.100  17.201 -0.7044 -1.1379  0.5703
  823MPD2     N12167   1.465   2.716  17.067 -1.3917  0.4744 -0.4676
  823MPD2    H512168   1.490   2.692  17.163  1.6149  0.1680 -1.3268
  823MPD2    N112169   1.233   3.027  16.753 -0.2823  0.0629  0.2029
  823MPD2    H712170   1.192   3.118  16.733  1.6322  0.3409 -2.6266
  824MPD2     C12171   2.052   1.704  16.061  0.1756 -0.4836 -0.4057
  824MPD2    C112172   2.112   1.821  16.027  0.3762 -0.1083  0.3296
  824MPD2    C212173   2.221   1.828  15.943 -0.9815  0.0017 -0.3403
  824MPD2    C312174   2.282   1.711  15.901  0.2089  0.0712  0.3360
  824MPD2    C412175   2.222   1.595  15.939 -0.2201  0.2432  0.8247
  824MPD2    C512176   2.109   1.585  16.014 -0.8870 -0.0039 -0.8650
  824MPD2     H12177   2.269   1.924  15.930  1.9207 -1.5944 -1.4991
  824MPD2    H112178   2.248   1.495  15.905  0.8204  0.9438 -0.4801
  824MPD2    H212179   1.959   1.697  16.117  0.7857 -0.5207  0.5997
  824MPD2    H312180   2.076   1.485  16.038  1.0299 -0.3655  0.2151
  824MPD2     N12181   2.396   1.721  15.818  0.9108 -0.2338 -0.0299
  824MPD2    H512182   2.420   1.817  15.794 -0.7935  0.0873 -0.4796
  824MPD2    N112183   2.057   1.944  16.075  0.4089 -0.5455 -0.5072
  824MPD2    H712184   2.093   2.031  16.038 -1.4329  0.0858 -0.7910
  825MPD2     C12185   3.012   2.073  15.332 -0.5574 -0.0954 -0.2193
  825MPD2    C112186   2.928   2.083  15.445  0.2636  0.5299 -0.6822
  825MPD2    C212187   2.915   2.209  15.508  0.1041  0.0089 -0.2900
  825MPD2    C312188   2.977   2.322  15.454  0.4363 -0.5223  0.1023
  825MPD2    C412189   3.056   2.306  15.344 -0.8590  0.1849 -0.6510
  825MPD2    C512190   3.070   2.186  15.284 -0.2916 -0.6541 -0.0302
  825MPD2     H12191   2.864   2.221  15.603 -0.9798 -0.8823 -0.7644
  825MPD2    H112192   3.104   2.389  15.294  0.3198  1.4931  2.6867
  825MPD2    H212193   3.027   1.983  15.275 -2.1443 -0.9701  0.7347
  825MPD2    H312194   3.132   2.185  15.195 -0.5373  1.7078 -0.2126
  825MPD2     N12195   2.957   2.454  15.506  0.5147 -0.2898  0.9492
  825MPD2    H512196   2.990   2.534  15.454 -1.5472 -1.0978 -1.5983
  825MPD2    N112197   2.877   1.956  15.491  0.0014 -0.2948  0.2987
  825MPD2    H712198   2.897   1.875  15.432  0.6026  0.2788 -0.2832
  826MPD2     C12199   2.417   2.116  13.381 -0.5534  0.1634  0.2875
  826MPD2    C112200   2.461   2.141  13.515  0.0677  0.0018  0.0689
  826MPD2    C212201   2.372   2.194  13.608  0.1433  0.4184 -0.2598
  826MPD2    C312202   2.233   2.201  13.577 -0.4292  0.3682 -0.3455
  826MPD2    C412203   2.192   2.163  13.451 -0.5923 -0.0795 -0.3263
  826MPD2    C512204   2.282   2.122  13.355  0.6064  0.3913 -0.7015
  826MPD2     H12205   2.415   2.222  13.704  1.4670  0.9786 -1.0147
  826MPD2    H112206   2.091   2.186  13.420 -0.9387  0.1487  0.9917
  826MPD2    H212207   2.482   2.084  13.300 -0.8914 -0.0508  0.0985
  826MPD2    H312208   2.247   2.094  13.256 -3.9920 -0.9796  1.3109
  826MPD2     N12209   2.137   2.259  13.655 -0.0752 -0.1344 -0.5940
  826MPD2    H512210   2.040   2.273  13.628 -0.3873 -1.9377 -0.4211
  826MPD2    N112211   2.594   2.116  13.544  0.1216  0.1726 -0.2125
  826MPD2    H712212   2.651   2.083  13.467  0.2496 -0.1967  0.0428
  827MPD2     C12213   3.729   3.930   9.869 -0.4464 -0.3790 -0.1640
  827MPD2    C112214   3.729   3.806   9.929 -0.2889 -0.0813 -0.9465
  827MPD2    C212215   3.635   3.715   9.884 -0.1756 -0.4491 -0.2908
  827MPD2    C312216   3.546   3.741   9.780  0.1287  0.7651 -0.0931
  827MPD2    C412217   3.539   3.869   9.737  0.0446 -0.6916  0.6065
  827MPD2    C512218   3.633   3.958   9.777 -0.1985  0.3960  0.2676
  827MPD2     H12219   3.639   3.614   9.923 -2.2994  0.1468  1.4363
  827MPD2    H112220   3.469   3.912   9.666 -0.7415 -0.7141  1.3647
  827MPD2    H212221   3.802   4.004   9.899 -1.5218  0.3878  0.5461
  827MPD2    H312222   3.637   4.059   9.738  0.0711  0.6486  0.9424
  827MPD2     N12223   3.458   3.638   9.745 -0.2662 -0.1803 -0.3355
  827MPD2    H512224   3.474   3.551   9.794  3.8893  2.0353  2.1631
  827MPD2    N112225   3.817   3.782  10.045  0.8017 -0.1713  0.4297
  827MPD2    H712226   3.875   3.856  10.081  0.4770  0.6330 -0.6980
  828MPD2     C12227   1.658   2.524  12.364 -0.3235  0.1929 -0.4966
  828MPD2    C112228   1.697   2.641  12.304  0.2764 -0.4623  0.1452
  828MPD2    C212229   1.798   2.631  12.208  0.2942 -0.7635 -0.2489
  828MPD2    C312230   1.854   2.512  12.162  0.9829  0.2798  0.0192
  828MPD2    C412231   1.815   2.399  12.234  0.6884 -0.0152 -0.1562
  828MPD2    C512232   1.719   2.412  12.327 -0.2603  0.3659 -0.0837
  828MPD2     H12233   1.818   2.722  12.154  1.6490 -0.2494  1.1264
  828MPD2    H112234   1.855   2.301  12.211 -2.7103 -0.9070 -2.2693
  828MPD2    H212235   1.591   2.513  12.449 -1.9958  1.6172 -1.6163
  828MPD2    H312236   1.695   2.323  12.384 -2.5684 -0.1330 -1.8303
  828MPD2     N12237   1.946   2.508  12.057  0.5206  0.0066  0.4949
  828MPD2    H512238   1.993   2.419  12.044 -1.1818 -0.6053 -1.5020
  828MPD2    N112239   1.630   2.765  12.312  0.1660  0.2810 -0.4422
  828MPD2    H712240   1.673   2.842  12.261 -1.9696  1.3896 -0.5736
  829MPD2     C12241   1.776   3.211  11.672 -0.2311 -0.4532  0.4880
  829MPD2    C112242   1.655   3.275  11.693  0.3567  0.6619  0.3253
  829MPD2    C212243   1.582   3.236  11.802 -0.8292 -0.0575  0.4055
  829MPD2    C312244   1.627   3.135  11.886  0.0434 -0.3206  0.7796
  829MPD2    C412245   1.743   3.068  11.857  0.2471 -0.1978  0.3041
  829MPD2    C512246   1.814   3.108  11.750  0.4474  0.1171  0.1114
  829MPD2     H12247   1.490   3.293  11.811 -0.1023  0.7519  2.6001
  829MPD2    H112248   1.771   2.988  11.925 -0.9110  0.1671  1.2059
  829MPD2    H212249   1.844   3.237  11.593  0.8664 -0.8696  1.2890
  829MPD2    H312250   1.913   3.068  11.731  1.0536  1.1872  1.0557
  829MPD2     N12251   1.564   3.090  12.002  0.0847  0.3355  0.3895
  829MPD2    H512252   1.611   3.017  12.054  0.5845  0.3008 -0.1082
  829MPD2    N112253   1.621   3.379  11.595 -0.2555  0.5354  0.4292
  829MPD2    H712254   1.683   3.386  11.515 -0.1891  0.4806  0.4765
  830MPD2     C12255   1.464   0.916  16.124 -0.4065 -0.0016  0.4113
  830MPD2    C112256   1.392   0.973  16.016 -0.0557 -0.4668  0.7319
  830MPD2    C212257   1.434   0.969  15.884  0.0755 -0.1452  0.3976
  830MPD2    C312258   1.559   0.916  15.859  0.1278  0.5371 -0.0786
  830MPD2    C412259   1.635   0.872  15.964 -0.2013  0.0458  0.2573
  830MPD2    C512260   1.583   0.861  16.092 -0.1735 -0.3374 -0.5876
  830MPD2     H12261   1.377   1.016  15.804  2.2641 -0.1358 -1.1805
  830MPD2    H112262   1.730   0.821  15.949 -1.1291 -1.2433 -1.3323
  830MPD2    H212263   1.431   0.903  16.226  1.0440 -2.4488  0.5693
  830MPD2    H312264   1.651   0.823  16.168  1.2418  1.7345 -0.8015
  830MPD2     N12265   1.611   0.908  15.735 -0.6985 -0.4287 -0.3208
  830MPD2    H512266   1.708   0.879  15.722 -0.0877  1.2851  0.3038
  830MPD2    N112267   1.269   1.036  16.052  0.2350 -0.5037 -0.2638
  830MPD2    H712268   1.256   1.054  16.151  0.4470  1.9321 -0.6914
  831MPD2     C12269   1.764   2.999  16.404  0.6771  0.3750  0.2062
  831MPD2    C112270   1.785   2.870  16.356  0.0598 -0.0551  0.8967
  831MPD2    C212271   1.710   2.760  16.402  0.5070 -0.0421 -0.3096
  831MPD2    C312272   1.614   2.786  16.507 -0.3315  0.4603  0.2204
  831MPD2    C412273   1.606   2.912  16.562  0.3321 -0.0099 -0.4370
  831MPD2    C512274   1.682   3.016  16.508  0.2460  0.8954  0.8495
  831MPD2     H12275   1.712   2.662  16.355 -1.8202  0.4548 -1.4509
  831MPD2    H112276   1.545   2.932  16.649 -2.6241 -1.3972 -2.1901
  831MPD2    H212277   1.828   3.077  16.363  0.7632  0.1685 -0.0485
  831MPD2    H312278   1.665   3.114  16.552 -0.1101  0.5933  1.3829
  831MPD2     N12279   1.512   2.689  16.546 -0.7209 -0.3727 -0.1112
  831MPD2    H512280   1.444   2.721  16.615 -0.6098 -1.1190  0.3458
  831MPD2    N112281   1.882   2.860  16.253 -0.4612  0.1590 -0.1599
  831MPD2    H712282   1.902   2.946  16.204  0.0000 -0.8487 -1.7436
  832MPD2     C12283   0.668   4.011  17.461  0.0891  0.1419 -0.5032
  832MPD2    C112284   0.647   4.148  17.462  0.1209 -0.3276 -0.4305
  832MPD2    C212285   0.540   4.205  17.400  0.2638 -0.3564 -0.5526
  832MPD2    C312286   0.451   4.127  17.329 -0.0934 -0.0638  0.0243
  832MPD2    C412287   0.478   3.991  17.321  0.4884 -0.1914  0.0091
  832MPD2    C512288   0.584   3.935  17.384  0.1116 -0.4407  0.8535
  832MPD2     H12289   0.534   4.313  17.396  0.9954 -0.3336 -0.9686
  832MPD2    H112290   0.411   3.929  17.261  0.9446  0.7895 -1.5193
  832MPD2    H212291   0.748   3.968  17.520 -0.0814  0.6832  0.1295
  832MPD2    H312292   0.603   3.828  17.384 -5.3367 -1.4398  0.3452
  832MPD2     N12293   0.340   4.180  17.259 -0.5927  0.2598 -0.2068
  832MPD2    H512294   0.276   4.116  17.212 -0.4687 -1.3617  1.8558
  832MPD2    N112295   0.751   4.232  17.521  0.0740  0.1392  0.4219
  832MPD2    H712296   0.839   4.186  17.543 -0.9708 -2.4453 -0.8458
  833MPD2     C12297   2.267   0.351  12.857 -0.6356 -0.4311  0.0879
  833MPD2    C112298   2.353   0.461  12.860  0.0046 -0.7849  0.0098
  833MPD2    C212299   2.461   0.450  12.776  0.0405  0.4533  0.1198
  833MPD2    C312300   2.479   0.355  12.685  0.1175 -0.1443 -0.0546
  833MPD2    C412301   2.390   0.248  12.683 -0.2778 -0.6980 -0.1909
  833MPD2    C512302   2.283   0.247  12.769  0.1485  0.1356 -0.6793
  833MPD2     H12303   2.543   0.519  12.788 -0.0226  0.5510 -0.0081
  833MPD2    H112304   2.406   0.162  12.619  0.7964  0.1103 -0.9831
  833MPD2    H212305   2.176   0.349  12.916  0.3920  1.1823  1.7282
  833MPD2    H312306   2.212   0.165  12.768 -0.1572  0.4044 -0.9372
  833MPD2     N12307   2.586   0.363  12.599 -0.7613 -0.0274  0.2735
  833MPD2    H512308   2.634   0.453  12.601  0.4885 -0.6746 -0.1902
  833MPD2    N112309   2.329   0.572  12.941 -0.6584 -0.3042  0.7788
  833MPD2    H712310   2.264   0.565  13.019  1.0623 -2.6971  2.0001
  834MPD2     C12311   2.709   0.604  11.595  0.6660  0.8154 -1.2260
  834MPD2    C112312   2.597   0.552  11.654 -0.1251  0.4037  0.8302
  834MPD2    C212313   2.596   0.545  11.793  0.3201  0.0989  0.0829
  834MPD2    C312314   2.715   0.571  11.863  0.4721 -0.1778  0.0814
  834MPD2    C412315   2.820   0.627  11.794  0.3705  0.8078 -0.2406
  834MPD2    C512316   2.810   0.653  11.665  0.1232  0.8216 -0.5754
  834MPD2     H12317   2.509   0.521  11.853 -0.2781  1.3974 -0.2488
  834MPD2    H112318   2.916   0.651  11.838  0.2735 -1.1645  1.0193
  834MPD2    H212319   2.716   0.623  11.488 -0.2010 -3.1969 -2.0083
  834MPD2    H312320   2.888   0.702  11.608  1.8795 -1.9882 -0.5386
  834MPD2     N12321   2.736   0.550  11.998 -0.3458  0.5265 -0.0168
  834MPD2    H512322   2.826   0.565  12.041  0.5364  0.4366 -1.8631
  834MPD2    N112323   2.482   0.511  11.576  0.3595 -0.0458 -0.4821
  834MPD2    H712324   2.500   0.508  11.476  0.3578 -0.7675 -0.4563
  835MPD2     C12325   2.356   3.424  10.863 -0.0592  0.5447 -0.5869
  835MPD2    C112326   2.260   3.498  10.930 -0.1504  0.2143 -0.0165
  835MPD2    C212327   2.211   3.454  11.051  0.5281 -0.2221 -0.2929
  835MPD2    C312328   2.270   3.342  11.109 -0.4222  0.5812  0.5534
  835MPD2    C412329   2.376   3.280  11.049  0.1262  0.3253 -0.0855
  835MPD2    C512330   2.418   3.315  10.928  0.6390  0.2895  0.4036
  835MPD2     H12331   2.130   3.504  11.102  0.3018  1.4020 -2.2346
  835MPD2    H112332   2.426   3.200  11.103 -0.3032 -0.0330 -0.2184
  835MPD2    H212333   2.390   3.458  10.766  0.4381  0.8567 -0.3075
  835MPD2    H312334   2.497   3.270  10.869  1.1119 -2.1232  2.9398
  835MPD2     N12335   2.237   3.296  11.241 -0.6041  0.2607 -0.4116
  835MPD2    H512336   2.309   3.237  11.283 -0.9163 -1.3517 -2.1496
  835MPD2    N112337   2.216   3.615  10.865 -0.5099  0.7251 -0.3681
  835MPD2    H712338   2.234   3.615  10.765  1.6643  2.8853  0.0498
  836MPD2     C12339   1.767   3.782  11.644  0.1815 -0.1273 -0.3110
  836MPD2    C112340   1.796   3.671  11.728  0.4244 -0.5670  0.4630
  836MPD2    C212341   1.717   3.654  11.839 -0.6422  0.1892  0.1794
  836MPD2    C312342   1.625   3.752  11.872 -0.4047  0.0068  0.2577
  836MPD2    C412343   1.599   3.859  11.789  1.0418 -0.0158 -0.0315
  836MPD2    C512344   1.670   3.873  11.677  0.0531  0.0499  0.4554
  836MPD2     H12345   1.736   3.571  11.906  1.3324  0.9557  0.5681
  836MPD2    H112346   1.509   3.918  11.800  1.4614  0.8920 -1.3470
  836MPD2    H212347   1.823   3.789  11.552  0.8175 -0.6984  0.0313
  836MPD2    H312348   1.663   3.962  11.616 -1.0075  0.1314  0.7010
  836MPD2     N12349   1.533   3.750  11.982 -0.3229 -0.6955  0.1125
  836MPD2    H512350   1.445   3.799  11.965  0.6935  1.1119  0.0261
  836MPD2    N112351   1.892   3.579  11.680  0.2275  0.6676  0.8261
  836MPD2    H712352   1.904   3.582  11.579 -1.2506 -0.2874  0.6319
  837MPD2     C12353   0.922   2.362  10.197  0.8664 -0.2708 -0.7335
  837MPD2    C112354   0.937   2.396  10.068 -0.5290 -0.0184 -0.4309
  837MPD2    C212355   0.956   2.524  10.027  0.0655  0.2921 -0.3143
  837MPD2    C312356   0.950   2.630  10.116  0.1899 -0.5204  0.1836
  837MPD2    C412357   0.960   2.591  10.248 -0.2206  0.3989 -0.4056
  837MPD2    C512358   0.945   2.462  10.294  0.5934  0.0266 -0.6602
  837MPD2     H12359   0.964   2.547   9.921  0.1591 -1.2298 -0.6331
  837MPD2    H112360   0.973   2.672  10.319  3.3537 -1.1754  0.7195
  837MPD2    H212361   0.918   2.257  10.225  1.0605  0.1778  0.9730
  837MPD2    H312362   0.941   2.448  10.401  0.7155 -0.6633 -0.7423
  837MPD2     N12363   0.946   2.759  10.060 -0.2117 -0.0999  0.1786
  837MPD2    H512364   0.954   2.759   9.959 -1.5550 -0.7202  0.0674
  837MPD2    N112365   0.945   2.306   9.959 -0.5213 -0.7583  0.8626
  837MPD2    H712366   0.955   2.351   9.868 -0.2018 -1.1827  0.6876
  838MPD2     C12367   3.744   2.069  11.791  0.2648 -0.6010 -0.6897
  838MPD2    C112368   3.782   1.936  11.806  1.0168 -0.6346  0.0177
  838MPD2    C212369   3.742   1.866  11.920  0.1325 -0.0234 -0.0589
  838MPD2    C312370   3.669   1.925  12.017 -0.0759  0.3202 -0.0302
  838MPD2    C412371   3.644   2.063  12.001  0.4938  0.3982  0.6897
  838MPD2    C512372   3.683   2.135  11.892  0.1656  0.2298  0.0313
  838MPD2     H12373   3.759   1.760  11.936  0.1564  0.0800  0.6010
  838MPD2    H112374   3.590   2.128  12.068 -0.7044  1.4950 -1.3629
  838MPD2    H212375   3.762   2.119  11.696 -1.2855  1.5280  0.1318
  838MPD2    H312376   3.649   2.238  11.890 -2.9472 -0.7993  1.0179
  838MPD2     N12377   3.629   1.852  12.127  0.2717  0.4510  1.1988
  838MPD2    H512378   3.663   1.756  12.123 -0.6115  0.1224  1.5628
  838MPD2    N112379   3.845   1.868  11.702  0.2457 -0.0462 -0.0976
  838MPD2    H712380   3.887   1.776  11.717 -0.4052 -0.5019 -1.1064
  839MPD2     C12381   3.829   1.090  11.801  1.0618  1.0297 -1.1271
  839MPD2    C112382   3.789   1.091  11.673 -0.5552  0.5515 -0.2638
  839MPD2    C212383   3.816   1.203  11.593  0.0142  0.3923  0.1917
  839MPD2    C312384   3.880   1.309  11.654  0.4037  0.1416  0.4663
  839MPD2    C412385   3.909   1.312  11.787  0.0906 -0.3749  0.2390
  839MPD2    C512386   3.885   1.201  11.862  0.0491  0.2761  0.1039
  839MPD2     H12387   3.802   1.203  11.485  0.4906  4.4625  0.1501
  839MPD2    H112388   3.965   1.390  11.837  0.0344 -0.7070  0.8309
  839MPD2    H212389   3.819   0.996  11.854  1.7779  0.8332 -1.3426
  839MPD2    H312390   3.925   1.200  11.962  1.7571  1.4591 -0.5700
  839MPD2     N12391   3.925   1.428  11.591  0.3406  0.2988 -0.2059
  839MPD2    H512392   3.949   1.507  11.650  0.5681  0.8414 -1.0121
  839MPD2    N112393   3.717   0.986  11.622 -0.7158 -0.0511 -0.0353
  839MPD2    H712394   3.698   0.984  11.522 -2.4307  0.4266  0.2727
  840MPD2     C12395   4.159   4.233  10.293  0.1648 -0.1927  0.4819
  840MPD2    C112396   4.144   4.145  10.402  1.3041  0.2917  0.3331
  840MPD2    C212397   4.176   4.179  10.530 -0.7254 -0.2156 -0.7100
  840MPD2    C312398   4.231   4.303  10.554  0.0040  0.3818 -0.5638
  840MPD2    C412399   4.256   4.389  10.452 -0.3076  0.5042 -0.0222
  840MPD2    C512400   4.220   4.352  10.322 -0.0200  0.7762 -0.5161
  840MPD2     H12401   4.129   4.119  10.608 -0.2578  1.6062  0.9455
  840MPD2    H112402   4.286   4.491  10.468  1.8745 -0.0829 -0.4266
  840MPD2    H212403   4.130   4.217  10.190 -0.8727  3.2409  0.2662
  840MPD2    H312404   4.227   4.423  10.240 -0.9117  0.9757 -0.4189
  840MPD2     N12405   4.263   4.350  10.687 -0.1505  0.0326 -0.5682
  840MPD2    H512406   4.286   4.448  10.697  0.2058 -0.2754  1.5748
  840MPD2    N112407   4.096   4.013  10.364 -0.3128  0.6265  0.0983
  840MPD2    H712408   4.075   4.005  10.265  0.5722  0.0377 -0.0336
  841MPD2     C12409   3.329   3.333  14.683  0.1476  1.1131 -0.6020
  841MPD2    C112410   3.373   3.299  14.556  0.0692  0.0413 -0.0900
  841MPD2    C212411   3.431   3.392  14.476  0.1675  0.0611  0.3253
  841MPD2    C312412   3.467   3.514  14.528 -0.0674 -0.1053  0.3527
  841MPD2    C412413   3.420   3.551  14.656 -0.2625  0.0187 -0.0040
  841MPD2    C512414   3.363   3.456  14.737 -0.5273  0.0016 -0.2458
  841MPD2     H12415   3.485   3.360  14.387 -0.0443  2.2815 -0.5926
  841MPD2    H112416   3.419   3.655  14.686  0.7765 -1.3885  4.8489
  841MPD2    H212417   3.273   3.259  14.739  1.7091 -0.0994 -0.6236
  841MPD2    H312418   3.317   3.477  14.833 -0.4873  3.3641 -0.9576
  841MPD2     N12419   3.538   3.601  14.439  0.6148  0.6075  0.4271
  841MPD2    H512420   3.545   3.572  14.342  0.4627  1.5976  0.1258
  841MPD2    N112421   3.366   3.169  14.501  0.1969 -0.2816 -0.5436
  841MPD2    H712422   3.402   3.156  14.407  1.2179  0.2120 -0.2275
  842MPD2     C12423   3.796   4.199  17.271 -0.1789  0.1229 -0.1557
  842MPD2    C112424   3.745   4.312  17.199  0.0220  0.9001  0.0192
  842MPD2    C212425   3.694   4.414  17.271  0.6046  0.6916 -0.4057
  842MPD2    C312426   3.682   4.413  17.408 -0.1209  0.2723  0.1065
  842MPD2    C412427   3.735   4.315  17.480 -0.7174 -0.2431  0.7095
  842MPD2    C512428   3.806   4.217  17.412 -0.1040 -0.3476  0.2458
  842MPD2     H12429   3.644   4.489  17.211  1.3550  0.1354 -1.7448
  842MPD2    H112430   3.729   4.300  17.587  2.4249  0.8876  1.0426
  842MPD2    H212431   3.835   4.107  17.230  2.7183  0.7958  1.0028
  842MPD2    H312432   3.851   4.141  17.475  1.4328 -0.0745 -0.5459
  842MPD2     N12433   3.609   4.513  17.486  0.5623 -0.3333 -1.0156
  842MPD2    H512434   3.632   4.518  17.585  1.1157 -1.1533 -1.1068
  842MPD2    N112435   3.747   4.309  17.058  0.2863  0.0683  0.5713
  842MPD2    H712436   3.766   4.215  17.024  2.2966  1.2690 -1.6958
  843MPD2     C12437   1.414   4.685  17.724  0.0424  0.3132 -0.0362
  843MPD2    C112438   1.393   0.054   0.063 -1.1760  0.0805 -0.8238
  843MPD2    C212439   1.448   0.177   0.036  0.2886 -0.4369  0.8823
  843MPD2    C312440   1.536   0.196  17.685 -0.0936 -0.3285 -0.2449
  843MPD2    C412441   1.553   0.089  17.595  0.2612 -0.0092 -0.0684
  843MPD2    C512442   1.491   4.709  17.610 -0.5569  0.1030  0.2224
  843MPD2     H12443   1.447   0.255   0.112  0.3358  1.7378 -1.3672
  843MPD2    H112444   1.629   0.084  17.518  0.7264 -0.3961  0.4142
  843MPD2    H212445   1.380   4.583  17.735  1.5511  0.0080  1.8233
  843MPD2    H312446   1.522   4.628  17.544 -1.6571 -0.7737  0.7780
  843MPD2     N12447   1.607   0.317  17.654 -0.5870 -0.5065 -0.3790
  843MPD2    H512448   1.670   0.303  17.575 -1.3597  1.8442 -1.4167
  843MPD2    N112449   1.330   0.024   0.191  0.3023  0.0669 -0.0719
  843MPD2    H712450   1.313   4.664   0.205 -2.5772  0.4894 -0.5615
  844MPD2     C12451   4.519   4.329  16.640  0.7077  0.6505  0.4685
  844MPD2    C112452   4.613   4.234  16.649  0.1413  0.4785  0.2551
  844MPD2    C212453   4.734   4.275  16.689  0.2310 -0.2801 -0.2421
  844MPD2    C312454   0.028   4.410  16.714  0.1858  0.6714  0.6473
  844MPD2    C412455   4.678   4.506  16.684 -0.3081 -0.0862 -0.5600
  844MPD2    C512456   4.549   4.459  16.659 -0.3841  0.8334 -0.6775
  844MPD2     H12457   0.073   4.200  16.695 -0.1002 -0.4393  1.8947
  844MPD2    H112458   4.704   4.611  16.688  0.8277 -0.4686  2.0323
  844MPD2    H212459   4.416   4.299  16.620  1.8279 -3.3700  0.8523
  844MPD2    H312460   4.473   4.535  16.649 -1.0791  0.2031 -0.2244
  844MPD2     N12461   0.164   4.440  16.754  0.5820  1.1603  0.3015
  844MPD2    H512462   0.228   4.361  16.746 -2.7683 -1.6033  0.8192
  844MPD2    N112463   4.594   4.096  16.618  0.0582  0.7225 -0.0064
  844MPD2    H712464   4.668   4.038  16.655  0.6881  1.3596 -0.2800
  845MPD2     C12465   0.518   0.531  17.135 -0.4262 -0.0685  1.0561
  845MPD2    C112466   0.396   0.470  17.154  0.1883 -0.4644  0.3307
  845MPD2    C212467   0.387   0.334  17.139 -0.2441  0.0773 -0.2273
  845MPD2    C312468   0.501   0.251  17.130  0.6636 -0.5652  0.4794
  845MPD2    C412469   0.625   0.309  17.117 -0.6792  0.8645  0.2975
  845MPD2    C512470   0.628   0.446  17.111 -0.3138 -0.3826 -0.2156
  845MPD2     H12471   0.295   0.278  17.151 -0.2034  0.3508  1.2543
  845MPD2    H112472   0.715   0.249  17.106 -0.4376  1.2925 -0.1058
  845MPD2    H212473   0.529   0.638  17.143  0.4487 -0.1507  0.9179
  845MPD2    H312474   0.725   0.493  17.109 -0.6151  0.0957 -2.9468
  845MPD2     N12475   0.478   0.113  17.111 -0.7584  0.0406 -0.2518
  845MPD2    H512476   0.384   0.078  17.119 -0.0419 -1.6169  0.9709
  845MPD2    N112477   0.273   0.542  17.162 -0.5200  0.3191 -0.4105
  845MPD2    H712478   0.189   0.490  17.183  0.5729  0.0988  3.2889
  846MPD2     C12479   1.829   0.213  13.984  0.0451 -0.1942 -0.4234
  846MPD2    C112480   1.700   0.243  13.940 -0.4602  0.1692 -0.2317
  846MPD2    C212481   1.598   0.233  14.033 -0.1300 -0.4119 -0.6694
  846MPD2    C312482   1.620   0.186  14.163  0.4635  0.0646  0.2329
  846MPD2    C412483   1.754   0.164  14.201 -0.0095 -0.3346 -0.1396
  846MPD2    C512484   1.852   0.182  14.112 -0.4881 -0.0770 -0.1918
  846MPD2     H12485   1.497   0.254  14.000 -0.4778  1.0384  1.3533
  846MPD2    H112486   1.782   0.131  14.300 -3.0925 -1.0776  0.4857
  846MPD2    H212487   1.916   0.220  13.920  1.2699  0.1148  1.3104
  846MPD2    H312488   1.951   0.156  14.147 -0.0793 -0.0083 -1.3145
  846MPD2     N12489   1.517   0.154  14.251  0.0418  0.6365  0.0099
  846MPD2    H512490   1.425   0.178  14.215 -0.0961  0.2151  0.0865
  846MPD2    N112491   1.668   0.284  13.808  0.0838 -0.3299 -0.3851
  846MPD2    H712492   1.570   0.307  13.792  0.5579  2.2534  0.4161
  847MPD2     C12493   1.574   1.126  14.887  0.4248 -0.4216  0.9205
  847MPD2    C112494   1.680   1.195  14.933 -0.6169 -0.0439  0.5975
  847MPD2    C212495   1.780   1.124  14.998  0.3782  0.1990 -0.1068
  847MPD2    C312496   1.754   0.994  15.028  0.1144  0.3259  0.1662
  847MPD2    C412497   1.642   0.925  14.990 -0.5426 -0.6089  0.0182
  847MPD2    C512498   1.548   0.996  14.923  0.9157  1.0598  0.4893
  847MPD2     H12499   1.876   1.168  15.025  1.2306 -0.8485 -1.4590
  847MPD2    H112500   1.624   0.820  15.005  0.7315 -1.0237 -1.3542
  847MPD2    H212501   1.500   1.185  14.834  0.0498  0.2912  2.2503
  847MPD2    H312502   1.446   0.962  14.912  0.2782  2.3545  2.3559
  847MPD2     N12503   1.853   0.935  15.113  0.0113  0.0627  0.0274
  847MPD2    H512504   1.936   0.987  15.139 -0.2634  0.2561  0.5270
  847MPD2    N112505   1.701   1.334  14.920 -0.2738  0.8030 -0.2619
  847MPD2    H712506   1.796   1.369  14.931  0.1906 -0.8229  0.9040
  848MPD2     C12507   4.540   0.123  17.117 -0.6671  0.6152  0.5034
  848MPD2    C112508   4.562   0.032  17.017 -0.6672 -0.1555 -0.4890
  848MPD2    C212509   4.522   0.077  16.888 -0.4216  0.9484 -1.1613
  848MPD2    C312510   4.480   0.209  16.872 -0.3293 -0.1096 -0.2885
  848MPD2    C412511   4.455   0.289  16.975 -0.0054  0.1681 -0.4400
  848MPD2    C512512   4.486   0.250  17.097 -0.6248  0.3577 -0.7883
  848MPD2     H12513   4.525   0.016  16.798  0.6842 -0.4245 -0.2034
  848MPD2    H112514   4.420   0.392  16.970 -0.0640  0.2861  2.6539
  848MPD2    H212515   4.565   0.093  17.218 -3.2754 -1.5571  0.4783
  848MPD2    H312516   4.465   0.310  17.185 -3.2817 -1.6970 -0.0299
  848MPD2     N12517   4.462   0.260  16.741 -0.1652 -0.5928  0.0964
  848MPD2    H512518   4.421   0.353  16.744  0.9815 -0.0920 -0.0801
  848MPD2    N112519   4.613   4.643  17.028 -0.1439  0.2347  0.1810
  848MPD2    H712520   4.630   4.597  16.940 -2.2635  1.0580 -0.6760
  849MPD2     C12521   3.428   4.153  13.892 -0.9527  0.6553 -0.1106
  849MPD2    C112522   3.522   4.231  13.833  0.1894  0.0421  0.0996
  849MPD2    C212523   3.622   4.287  13.916  0.3492 -1.0635 -0.4135
  849MPD2    C312524   3.633   4.244  14.049 -0.2190 -0.1279  0.3008
  849MPD2    C412525   3.541   4.158  14.111 -0.2321  0.1709  0.6321
  849MPD2    C512526   3.434   4.127  14.031  0.0529  0.2170  0.6875
  849MPD2     H12527   3.690   4.360  13.873 -0.7547 -0.8113 -1.7333
  849MPD2    H112528   3.548   4.137  14.217 -0.5526  1.5243  0.9209
  849MPD2    H212529   3.343   4.119  13.834  1.1912 -1.2043 -2.1869
  849MPD2    H312530   3.353   4.071  14.077  1.1315 -0.3530  1.9111
  849MPD2     N12531   3.747   4.290  14.114  0.2398 -0.4661  0.4407
  849MPD2    H512532   3.816   4.340  14.059 -1.2917 -0.9976 -1.9707
  849MPD2    N112533   3.517   4.270  13.699 -0.6973  0.0784 -0.6477
  849MPD2    H712534   3.586   4.338  13.670 -0.0867  0.5096  1.8171
  850MPD2     C12535   1.968   2.103  14.780 -0.3321  0.0908  0.3000
  850MPD2    C112536   1.966   2.176  14.892 -0.1451  0.3712 -0.6477
  850MPD2    C212537   2.073   2.250  14.934 -0.9592  1.1651  0.3271
  850MPD2    C312538   2.179   2.255  14.856 -0.6760  0.7186  0.3808
  850MPD2    C412539   2.190   2.185  14.736 -0.1080  0.5036  0.0618
  850MPD2    C512540   2.080   2.112  14.699 -0.6073  0.7765 -0.6185
  850MPD2     H12541   2.068   2.303  15.029 -1.4785  0.1100  0.8773
  850MPD2    H112542   2.281   2.196  14.678 -0.5225 -1.2288 -0.9114
  850MPD2    H212543   1.877   2.046  14.766  0.3234 -1.0240  0.6219
  850MPD2    H312544   2.071   2.061  14.603 -0.9885  3.1029 -1.8313
  850MPD2     N12545   2.298   2.324  14.897  0.4679 -0.0287 -0.0567
  850MPD2    H512546   2.382   2.297  14.846  1.1509  2.9643 -0.5082
  850MPD2    N112547   1.846   2.173  14.963  0.1231 -0.2495  0.6577
  850MPD2    H712548   1.775   2.107  14.930 -0.9480  2.0605 -1.6104
  851MPD2     C12549   1.885   1.726  15.639  0.2120 -0.2726  0.0085
  851MPD2    C112550   1.812   1.721  15.522  0.2840 -0.2032  0.0343
  851MPD2    C212551   1.788   1.592  15.464 -0.4958  0.1949  0.2840
  851MPD2    C312552   1.840   1.480  15.528 -0.3275 -0.0207 -0.1147
  851MPD2    C412553   1.907   1.500  15.648 -0.2312  0.0032 -0.5240
  851MPD2    C512554   1.933   1.622  15.701 -0.3458  0.2964  1.0487
  851MPD2     H12555   1.736   1.574  15.370 -0.6312  0.0548  0.3865
  851MPD2    H112556   1.949   1.415  15.699  0.4795  1.3582  1.1509
  851MPD2    H212557   1.911   1.822  15.683  2.0153  0.7137 -3.1886
  851MPD2    H312558   1.992   1.627  15.792 -0.5279 -1.0776  1.2368
  851MPD2     N12559   1.820   1.352  15.474 -0.4074 -0.8610 -0.4174
  851MPD2    H512560   1.748   1.339  15.404 -1.6515  2.6168  0.2164
  851MPD2    N112561   1.768   1.841  15.465 -0.0620 -0.2209 -0.1591
  851MPD2    H712562   1.790   1.925  15.517  1.8362 -0.0957 -1.1605
  852MPD2     C12563   1.266   0.089  10.026 -0.1323  0.2045  0.0371
  852MPD2    C112564   1.352   0.136  10.121  0.6439 -0.4363 -0.3229
  852MPD2    C212565   1.461   0.213  10.085 -0.1291 -0.0755  0.1851
  852MPD2    C312566   1.492   0.240   9.951  0.0456  0.0295  0.1671
  852MPD2    C412567   1.418   0.177   9.852  0.0346  0.5112 -0.2578
  852MPD2    C512568   1.301   0.117   9.896 -1.0278  0.7124 -0.0369
  852MPD2     H12569   1.529   0.250  10.161 -0.4175 -0.5095  0.6600
  852MPD2    H112570   1.443   0.183   9.747 -0.1001 -1.4879 -0.4005
  852MPD2    H212571   1.176   0.036  10.054  0.4053  0.2466  1.8418
  852MPD2    H312572   1.234   0.079   9.820  0.5225 -1.3700 -0.3455
  852MPD2     N12573   1.602   0.325   9.921 -0.3889  0.5246  0.1486
  852MPD2    H512574   1.661   0.359   9.996  0.6442  1.5878 -1.1370
  852MPD2    N112575   1.329   0.105  10.259  0.5462  0.7926  0.0020
  852MPD2    H712576   1.375   0.157  10.334  0.1067  0.4486  0.5040
  853MPD2     C12577   3.301   4.579  12.327 -0.1267 -0.2379  0.3473
  853MPD2    C112578   3.342   4.713  12.323  0.4456 -0.3629 -0.2356
  853MPD2    C212579   3.390   0.018  12.202  0.0407  0.3267 -0.2991
  853MPD2    C312580   3.409   4.674  12.093  0.4519 -0.0138  0.8289
  853MPD2    C412581   3.366   4.543  12.100 -0.5632  0.0716  0.0754
  853MPD2    C512582   3.308   4.506  12.217 -1.1914  0.1351  0.0895
  853MPD2     H12583   3.442   0.114  12.199  1.5697 -0.3961  3.8779
  853MPD2    H112584   3.368   4.475  12.015  0.1729 -2.3973  2.0808
  853MPD2    H212585   3.258   4.527  12.412 -0.1297 -1.6874 -0.5489
  853MPD2    H312586   3.264   4.407  12.210 -1.5392  0.3879 -1.2698
  853MPD2     N12587   3.460   4.723  11.972 -0.0351 -0.4092  0.0680
  853MPD2    H512588   3.495   4.652  11.909 -0.9218  0.2759 -1.2142
  853MPD2    N112589   3.307   0.062  12.433 -0.0850 -0.2694  0.2913
  853MPD2    H712590   3.265   0.014  12.512  0.6826 -0.0522  0.8396
  854MPD2     C12591   0.187   0.103  13.510  0.0176  0.0061 -0.0534
  854MPD2    C112592   0.201   0.083  13.370  0.3133  0.4260  0.1064
  854MPD2    C212593   0.294   4.736  13.318 -0.3279 -0.1739  0.9519
  854MPD2    C312594   0.370   4.659  13.409 -0.1713  0.0132 -0.0239
  854MPD2    C412595   0.353   4.682  13.548  0.4103  0.1503 -0.6214
  854MPD2    C512596   0.265   0.035  13.601 -0.2430  0.6510 -0.2950
  854MPD2     H12597   0.313   4.722  13.213  0.7370 -0.3685  1.1698
  854MPD2    H112598   0.408   4.623  13.621  1.0077  2.1482  0.5352
  854MPD2    H212599   0.135   0.187  13.556 -1.4381 -1.1095  0.3457
  854MPD2    H312600   0.258   0.060  13.706  2.7583 -2.1681  0.5591
  854MPD2     N12601   0.453   4.552  13.375 -0.1859 -0.0558  0.3503
  854MPD2    H512602   0.500   4.502  13.449  1.2880 -0.4203 -0.8355
  854MPD2    N112603   0.146   0.180  13.285 -0.5552 -0.0719 -0.1264
  854MPD2    H712604   0.137   0.273  13.326  1.5021  0.2181 -0.3296
  855MPD2     C12605   1.030   3.951  13.802 -0.4201  0.3377 -0.1358
  855MPD2    C112606   0.976   4.076  13.815 -0.0426  0.3709 -0.0945
  855MPD2    C212607   0.944   4.153  13.707 -0.5400 -0.1101  0.1633
  855MPD2    C312608   0.968   4.110  13.580  0.8261 -0.5241 -0.2374
  855MPD2    C412609   1.028   3.989  13.563 -0.1577  0.1910 -0.2499
  855MPD2    C512610   1.067   3.914  13.674 -0.4946  0.4287  0.2866
  855MPD2     H12611   0.899   4.251  13.717  0.4771  0.3539  0.2228
  855MPD2    H112612   1.042   3.943  13.466  2.7502  0.0771  0.2153
  855MPD2    H212613   1.046   3.887  13.887  1.2409  0.5663 -0.2750
  855MPD2    H312614   1.109   3.814  13.673 -3.0821 -0.6457  0.9559
  855MPD2     N12615   0.918   4.171  13.467 -0.3871  0.8355  0.0925
  855MPD2    H512616   0.936   4.127  13.377  0.9720  3.1306 -0.7695
  855MPD2    N112617   0.930   4.116  13.947 -0.1089  0.9804  0.5720
  855MPD2    H712618   0.916   4.038  14.011 -0.4514  1.3680  0.9663
  856MPD2     C12619   2.475   0.647  13.929 -0.3298 -0.2027 -0.0807
  856MPD2    C112620   2.536   0.768  13.936  0.1876  0.0761 -0.0418
  856MPD2    C212621   2.499   0.866  13.836  0.4598  0.2432 -0.0471
  856MPD2    C312622   2.411   0.838  13.735 -0.2917 -0.6884 -0.0556
  856MPD2    C412623   2.359   0.715  13.723 -0.1799  0.1013  0.2298
  856MPD2    C512624   2.386   0.624  13.822  0.4748 -0.0087  0.7729
  856MPD2     H12625   2.527   0.968  13.861  2.2239 -0.0900 -0.6512
  856MPD2    H112626   2.285   0.683  13.650  0.7920  0.8598 -1.0688
  856MPD2    H212627   2.489   0.583  14.014  0.3898  0.7753  0.5321
  856MPD2    H312628   2.345   0.524  13.818 -1.9830  0.9991  0.5502
  856MPD2     N12629   2.377   0.941  13.640  0.2072  0.2334  0.4868
  856MPD2    H512630   2.297   0.921  13.581  0.0543  1.3612  0.3190
  856MPD2    N112631   2.643   0.799  14.019 -0.1210 -0.1985 -0.6491
  856MPD2    H712632   2.690   0.888  14.008 -2.5965  1.2615  0.4805
  857MPD2     C12633   4.258   2.857  12.632  0.0213 -0.7314 -0.0217
  857MPD2    C112634   4.379   2.818  12.676  0.1618  0.0186 -0.2727
  857MPD2    C212635   4.455   2.904  12.761  0.4072 -0.4935 -0.0696
  857MPD2    C312636   4.401   3.026  12.790 -0.3039  0.3981  0.0769
  857MPD2    C412637   4.272   3.058  12.746  0.0543 -0.5539  0.6592
  857MPD2    C512638   4.196   2.971  12.668 -0.0416 -0.1192  0.0576
  857MPD2     H12639   4.559   2.878  12.777  0.8403  1.0108 -0.4657
  857MPD2    H112640   4.225   3.149  12.782  0.6800  0.4519 -1.0718
  857MPD2    H212641   4.207   2.777  12.579 -0.2320  1.1926 -2.6891
  857MPD2    H312642   4.096   2.997  12.635 -0.2562 -2.4953 -1.1571
  857MPD2     N12643   4.477   3.111  12.865 -0.1235  0.3422  0.3334
  857MPD2    H512644   4.553   3.068  12.917  0.4415  1.5573  0.5279
  857MPD2    N112645   4.426   2.688  12.639  0.1131 -0.4455 -0.5701
  857MPD2    H712646   4.368   2.630  12.580 -3.5013  2.9600 -0.3221
  858MPD2     C12647   4.303   1.634  16.720  0.4953 -0.4904 -0.4450
  858MPD2    C112648   4.386   1.711  16.643  0.9750 -0.3646 -0.7939
  858MPD2    C212649   4.368   1.848  16.632 -0.8357 -0.5554 -0.4368
  858MPD2    C312650   4.281   1.912  16.715 -0.1762 -0.5162 -0.2352
  858MPD2    C412651   4.202   1.840  16.789 -0.4830  0.3645  0.4451
  858MPD2    C512652   4.212   1.700  16.789 -0.2242 -0.3547  0.2900
  858MPD2     H12653   4.425   1.906  16.560  1.1088  0.3843  1.8379
  858MPD2    H112654   4.128   1.886  16.854 -0.7918 -0.1576  0.4558
  858MPD2    H212655   4.306   1.526  16.712  1.0701 -0.5491  0.6814
  858MPD2    H312656   4.149   1.639  16.853 -1.5841  1.7404  0.9728
  858MPD2     N12657   4.274   2.056  16.719  0.0555  0.4760  0.2379
  858MPD2    H512658   4.206   2.104  16.776 -2.4743 -0.5596 -1.8938
  858MPD2    N112659   4.494   1.647  16.581  0.5400 -0.1007 -0.1002
  858MPD2    H712660   4.500   1.547  16.595  2.8566  0.1298  0.5621
  859MPD2     C12661   3.418   4.009  15.198 -0.0618  0.3970 -0.5123
  859MPD2    C112662   3.547   3.985  15.156 -0.0433  0.5405 -0.6236
  859MPD2    C212663   3.595   3.857  15.156 -0.0054 -0.5572 -0.2726
  859MPD2    C312664   3.512   3.763  15.198 -0.4469  0.2063 -0.3598
  859MPD2    C412665   3.399   3.789  15.271 -0.4370  0.0740  0.7505
  859MPD2    C512666   3.345   3.910  15.255  0.0402 -0.1451  0.3531
  859MPD2     H12667   3.689   3.846  15.103  1.2552  1.0482  1.6566
  859MPD2    H112668   3.328   3.721  15.316 -0.9010  0.4836  0.6538
  859MPD2    H212669   3.380   4.105  15.165  2.5757  1.6080 -0.0000
  859MPD2    H312670   3.239   3.919  15.276 -0.2151 -0.2222 -0.8987
  859MPD2     N12671   3.547   3.623  15.186 -0.4873  0.2893  0.6917
  859MPD2    H512672   3.481   3.558  15.227  0.1995 -0.2236  0.9872
  859MPD2    N112673   3.621   4.099  15.102  0.1498 -0.0851 -0.8414
  859MPD2    H712674   3.577   4.189  15.086 -1.5609 -0.5618  1.2123
  860MPD2     C12675   1.001   4.522  11.709  0.1516 -0.0763 -0.3005
  860MPD2    C112676   1.022   4.439  11.818  0.1227  0.4241  0.3581
  860MPD2    C212677   0.914   4.411  11.898 -0.0319 -0.3068  0.1641
  860MPD2    C312678   0.795   4.476  11.891 -0.7632 -0.3940 -0.2938
  860MPD2    C412679   0.772   4.530  11.766 -0.0237  0.1220 -0.2036
  860MPD2    C512680   0.869   4.560  11.681  0.4145  0.2248 -0.1301
  860MPD2     H12681   0.922   4.347  11.984  2.5253 -0.7600 -0.4318
  860MPD2    H112682   0.673   4.566  11.739 -0.5572  0.4465  2.1930
  860MPD2    H212683   1.078   4.554  11.639 -1.0194 -1.8598 -2.4314
  860MPD2    H312684   0.849   4.607  11.585 -3.1993 -1.5695 -0.2626
  860MPD2     N12685   0.691   4.451  11.977 -0.2945  0.3138 -0.1446
  860MPD2    H512686   0.702   4.382  12.051 -2.9713 -1.5566 -1.4866
  860MPD2    N112687   1.147   4.372  11.846 -0.5116  0.0029 -0.2473
  860MPD2    H712688   1.150   4.321  11.934  1.6387  1.0442  0.2891
  861MPD2     C12689   0.464   2.313  10.825  0.9716  0.2517 -0.9039
  861MPD2    C112690   0.466   2.440  10.883 -0.5042 -0.0059  0.7758
  861MPD2    C212691   0.429   2.554  10.813 -0.3295 -0.2458 -0.7283
  861MPD2    C312692   0.388   2.544  10.684  0.7172 -0.0721 -0.3397
  861MPD2    C412693   0.409   2.423  10.621 -0.1607  0.7983 -0.4280
  861MPD2    C512694   0.444   2.307  10.691  0.7077  0.0098 -0.3314
  861MPD2     H12695   0.435   2.651  10.859 -1.2522  0.6030 -2.4105
  861MPD2    H112696   0.373   2.402  10.521  1.6409 -1.1843 -0.6503
  861MPD2    H212697   0.498   2.225  10.878  0.0311  0.0144 -0.6974
  861MPD2    H312698   0.461   2.214  10.638  0.9950  0.3912 -0.8932
  861MPD2     N12699   0.341   2.652  10.602  0.1812  0.1367  0.6290
  861MPD2    H512700   0.322   2.641  10.503 -1.6414 -1.8297  1.2158
  861MPD2    N112701   0.485   2.463  11.017  0.0436 -1.1418  0.3121
  861MPD2    H712702   0.490   2.557  11.055  0.8985 -1.4815  1.0379
  862MPD2     C12703   4.421   2.921  10.126 -0.0895 -0.0724 -0.3034
  862MPD2    C112704   4.500   2.837  10.195 -0.0323 -0.2970 -0.3260
  862MPD2    C212705   4.474   2.700  10.176  0.2806 -0.4046  0.3860
  862MPD2    C312706   4.372   2.661  10.087 -0.2156  0.3602 -0.1945
  862MPD2    C412707   4.297   2.753  10.015  0.2479  0.0380  0.1192
  862MPD2    C512708   4.325   2.886  10.041 -0.1692 -0.1302 -0.9123
  862MPD2     H12709   4.522   2.628  10.241  1.4952 -0.5469 -0.6694
  862MPD2    H112710   4.217   2.725   9.948  0.5616 -0.2200 -0.1472
  862MPD2    H212711   4.451   3.025  10.122  0.6996 -0.2887 -0.0836
  862MPD2    H312712   4.277   2.968   9.989  0.3449  0.7204 -0.0486
  862MPD2     N12713   4.362   2.519  10.076  0.2166  0.8394 -0.3923
  862MPD2    H512714   4.407   2.465  10.150  0.3157  0.2707 -0.8635
  862MPD2    N112715   4.589   2.887  10.288 -0.2379 -0.4283 -0.5468
  862MPD2    H712716   4.578   2.979  10.330  1.0957 -0.4553 -0.1436
  863MPD2     C12717   3.116   0.342  16.193 -0.0811 -0.3402 -0.5323
  863MPD2    C112718   3.055   0.449  16.252 -0.5285 -0.8451 -0.2242
  863MPD2    C212719   3.106   0.500  16.375 -0.4069  0.0359  0.2552
  863MPD2    C312720   3.217   0.447  16.431 -0.0381 -0.1976  0.4609
  863MPD2    C412721   3.273   0.332  16.380  0.9120  0.2354 -0.6435
  863MPD2    C512722   3.220   0.283  16.262 -0.7064 -0.1805 -0.7041
  863MPD2     H12723   3.066   0.593  16.416 -0.0215  1.2435 -2.1092
  863MPD2    H112724   3.351   0.275  16.428  0.5307 -1.3651 -1.9382
  863MPD2    H212725   3.091   0.303  16.095 -2.4089  0.8008 -0.4111
  863MPD2    H312726   3.268   0.198  16.214 -0.9767  1.1508 -3.3499
  863MPD2     N12727   3.261   0.511  16.553  0.1837  0.4697  0.6887
  863MPD2    H512728   3.198   0.582  16.589  1.3431  2.0701 -0.4241
  863MPD2    N112729   2.939   0.497  16.185 -0.1428  0.1344 -0.4552
  863MPD2    H712730   2.918   0.443  16.102  0.3982 -2.0749  0.8572
  864MPD2     C12731   3.106   2.308  17.155  0.1307  0.0702  0.2481
  864MPD2    C112732   3.191   2.227  17.089  0.9087  0.6184  0.0715
  864MPD2    C212733   3.246   2.278  16.976  1.0388 -0.8306  0.0454
  864MPD2    C312734   3.226   2.408  16.932  0.1285 -0.7968  0.2329
  864MPD2    C412735   3.136   2.486  17.005 -0.1307 -0.5945  0.2371
  864MPD2    C512736   3.075   2.438  17.114 -0.3127 -0.2317 -0.2007
  864MPD2     H12737   3.308   2.224  16.906 -0.7940  0.9695 -3.0206
  864MPD2    H112738   3.116   2.591  16.990 -1.8157 -0.9427  0.1003
  864MPD2    H212739   3.064   2.273  17.249 -1.5242  2.8386  0.5440
  864MPD2    H312740   3.014   2.505  17.173  1.0385 -1.6572  2.7932
  864MPD2     N12741   3.284   2.463  16.812 -0.0828  0.5556  0.4185
  864MPD2    H512742   3.237   2.545  16.774 -1.4325 -0.8283 -0.8838
  864MPD2    N112743   3.221   2.100  17.141  0.1924 -0.3103  0.2007
  864MPD2    H712744   3.180   2.077  17.231  1.0955  1.7341  1.1149
  865MPD2     C12745   3.592   2.524  16.021 -0.5295 -0.4117 -0.9340
  865MPD2    C112746   3.526   2.447  16.115 -0.1811  0.0225  0.4893
  865MPD2    C212747   3.439   2.522  16.192 -0.0867  0.4034 -0.2247
  865MPD2    C312748   3.399   2.657  16.170 -0.7125  0.0571 -0.5051
  865MPD2    C412749   3.456   2.713  16.061  0.1282  0.2108 -0.3871
  865MPD2    C512750   3.549   2.649  15.985  0.2506  0.1307 -0.4313
  865MPD2     H12751   3.380   2.462  16.261 -1.0644  0.2251 -1.2012
  865MPD2    H112752   3.441   2.818  16.040 -0.4921  0.8299  3.1680
  865MPD2    H212753   3.670   2.490  15.953  0.1960 -0.9131  0.1378
  865MPD2    H312754   3.586   2.698  15.896  2.9779 -0.3130  0.4445
  865MPD2     N12755   3.319   2.733  16.260  0.5955 -0.0071 -0.0775
  865MPD2    H512756   3.287   2.821  16.221  0.5740 -0.0484 -0.1535
  865MPD2    N112757   3.576   2.319  16.137 -0.3107  0.1473 -0.3629
  865MPD2    H712758   3.640   2.288  16.065  0.4705 -0.3005  0.5178
  866MPD2     C12759   0.889   2.931  11.374  0.1302  0.2883 -0.7473
  866MPD2    C112760   0.860   2.851  11.270 -0.6122 -0.5561 -0.6745
  866MPD2    C212761   0.731   2.838  11.216  0.5498  0.1344 -0.8907
  866MPD2    C312762   0.629   2.897  11.294 -0.2250  0.6285  0.0281
  866MPD2    C412763   0.658   2.977  11.407  0.4140 -0.0134 -0.7649
  866MPD2    C512764   0.792   2.998  11.441  0.1635  0.4792  0.1413
  866MPD2     H12765   0.712   2.770  11.134  1.2737 -1.6599  0.4045
  866MPD2    H112766   0.586   3.013  11.480  1.1884 -0.1113  0.0467
  866MPD2    H212767   0.986   2.939  11.423 -1.3777  0.9596  2.0935
  866MPD2    H312768   0.815   3.054  11.531 -1.0919  0.9941  0.1522
  866MPD2     N12769   0.495   2.896  11.240  0.1212  0.0486 -1.0835
  866MPD2    H512770   0.425   2.949  11.292 -1.3438 -2.7126 -0.2865
  866MPD2    N112771   0.975   2.785  11.212 -0.4154  0.0401 -0.4409
  866MPD2    H712772   1.061   2.810  11.259 -1.0818  0.6764  0.4427
  867MPD2     C12773   2.391   2.058  16.232  0.0028 -0.1145  0.3888
  867MPD2    C112774   2.410   1.929  16.282  0.6369  0.2757  0.5491
  867MPD2    C212775   2.396   1.913  16.421  0.2297  0.2298  0.5038
  867MPD2    C312776   2.335   2.012  16.503  0.5014 -0.0314  0.5578
  867MPD2    C412777   2.304   2.133  16.443  0.3275 -0.1633  0.4012
  867MPD2    C512778   2.340   2.161  16.314 -0.1063  0.1666  0.5162
  867MPD2     H12779   2.435   1.827  16.473  2.0673 -0.2362 -1.6708
  867MPD2    H112780   2.259   2.206  16.508  0.5941  0.0489  0.3454
  867MPD2    H212781   2.431   2.081  16.134 -0.3977 -2.0569 -0.2361
  867MPD2    H312782   2.328   2.255  16.262  0.2405  0.9367  1.8358
  867MPD2     N12783   2.308   1.992  16.644 -0.4832  0.3491  0.2758
  867MPD2    H512784   2.268   2.068  16.699 -3.5781 -0.4273 -0.9428
  867MPD2    N112785   2.461   1.826  16.198  0.6321 -0.2558  0.0400
  867MPD2    H712786   2.487   1.850  16.103 -0.0386 -1.1848 -0.3781
  868MPD2     C12787   4.485   1.655  13.285  0.2935  0.0300  0.3917
  868MPD2    C112788   4.493   1.556  13.386 -0.0771  0.0834 -0.2354
  868MPD2    C212789   4.398   1.558  13.490  0.4370  0.1063  0.1476
  868MPD2    C312790   4.295   1.651  13.493  0.5104  0.0606  0.4318
  868MPD2    C412791   4.288   1.749  13.396  0.6050 -0.3996 -0.0336
  868MPD2    C512792   4.380   1.750  13.294 -0.0941 -0.2851 -0.1179
  868MPD2     H12793   4.407   1.479  13.563 -0.9368 -1.3150 -1.2265
  868MPD2    H112794   4.207   1.820  13.393  0.4938 -0.6214 -2.8312
  868MPD2    H212795   4.564   1.667  13.211 -1.0133 -0.4464 -1.0696
  868MPD2    H312796   4.382   1.819  13.211 -2.7340  0.8969  0.8186
  868MPD2     N12797   4.209   1.645  13.603 -0.3121  0.5096 -0.3552
  868MPD2    H512798   4.238   1.579  13.675 -1.3006 -0.2454 -0.6658
  868MPD2    N112799   4.599   1.463  13.374 -0.3444 -0.6100 -0.4350
  868MPD2    H712800   4.653   1.480  13.290 -0.2244  0.5009 -0.1353
  869MPD2     C12801   0.665   3.330   0.787  0.6345 -0.4639 -0.2913
  869MPD2    C112802   0.770   3.360   0.707 -0.0747 -0.6142 -0.2802
  869MPD2    C212803   0.877   3.433   0.766  0.1381 -0.0774  0.0047
  869MPD2    C312804   0.879   3.458   0.904 -0.3077 -0.2683  0.1133
  869MPD2    C412805   0.777   3.402   0.977 -0.3264 -0.3354 -0.2223
  869MPD2    C512806   0.670   3.346   0.918 -0.6764  0.2076 -0.2820
  869MPD2     H12807   0.955   3.470   0.701 -0.9691 -0.5186 -1.5897
  869MPD2    H112808   0.772   3.420   1.084  0.6930 -2.0919  0.1291
  869MPD2    H212809   0.578   3.283   0.742 -0.4215 -0.9927  2.3261
  869MPD2    H312810   0.582   3.327   0.977 -1.4215  1.8042 -0.8896
  869MPD2     N12811   0.968   3.549   0.960  0.1711 -0.2931 -0.2513
  869MPD2    H512812   0.966   3.553   1.061 -2.0331 -0.0335 -0.3052
  869MPD2    N112813   0.757   3.338   0.566  0.0162  0.0822  0.2013
  869MPD2    H712814   0.665   3.328   0.525  0.9145 -0.6785 -1.6702
  870MPD2     C12815   0.268   2.972   1.976 -0.1100 -0.2753 -0.4818
  870MPD2    C112816   0.278   2.858   1.900 -0.2014 -0.0879 -0.0268
  870MPD2    C212817   0.196   2.859   1.790 -0.3093 -0.1357  0.3257
  870MPD2    C312818   0.110   2.963   1.758 -0.2557 -0.2853  0.1136
  870MPD2    C412819   0.098   3.069   1.845 -0.4539 -0.2594  0.4378
  870MPD2    C512820   0.178   3.075   1.957 -0.0189  0.2034  0.4349
  870MPD2     H12821   0.214   2.787   1.712  0.3935 -0.6192  0.9392
  870MPD2    H112822   0.024   3.145   1.822  0.0791  0.4594  1.1033
  870MPD2    H212823   0.307   2.972   2.077 -0.2193 -2.3144 -0.4467
  870MPD2    H312824   0.179   3.152   2.033 -0.7124 -2.9412  3.6289
  870MPD2     N12825   0.032   2.953   1.639 -0.1713 -0.5473  0.3003
  870MPD2    H512826   0.057   2.878   1.575  0.5090  0.0595 -0.1315
  870MPD2    N112827   0.370   2.752   1.941  0.0210 -0.8544  0.0518
  870MPD2    H712828   0.425   2.774   2.024 -0.1768  0.9705 -0.2982
  871MPD2     C12829   1.595   2.182  16.527 -0.0885  0.0110  0.3673
  871MPD2    C112830   1.573   2.134  16.656 -0.3750 -0.6564 -0.2523
  871MPD2    C212831   1.531   2.005  16.667 -0.1603  0.0038 -0.4249
  871MPD2    C312832   1.518   1.921  16.559 -0.4995 -0.4384 -0.0280
  871MPD2    C412833   1.543   1.964  16.432 -0.3832  0.6685  1.1689
  871MPD2    C512834   1.583   2.096  16.417  0.2435 -0.1110 -0.5440
  871MPD2     H12835   1.527   1.959  16.765 -0.2681  0.3734 -0.2596
  871MPD2    H112836   1.534   1.913  16.336 -0.9909 -1.2054  2.2349
  871MPD2    H212837   1.640   2.279  16.507  2.4892 -1.4808 -1.0899
  871MPD2    H312838   1.598   2.123  16.313  0.2034  2.0832  0.0100
  871MPD2     N12839   1.506   1.784  16.595 -0.0256  0.1142 -0.2460
  871MPD2    H512840   1.480   1.759  16.690  0.8082  0.7403  0.1501
  871MPD2    N112841   1.597   2.214  16.769 -0.7483 -0.7038 -0.9245
  871MPD2    H712842   1.623   2.312  16.761  0.7154 -1.2011 -2.4350
  872MPD2     C12843   2.307   0.194  13.561 -0.3830 -0.5561 -0.2416
  872MPD2    C112844   2.369   0.209  13.675  0.2170 -0.3641 -0.3578
  872MPD2    C212845   2.311   0.156  13.796 -0.8696  0.9114  0.0849
  872MPD2    C312846   2.196   0.076  13.795  0.3122  0.5623 -0.3830
  872MPD2    C412847   2.129   0.078  13.679 -0.1058 -0.2214 -0.2700
  872MPD2    C512848   2.183   0.139  13.568  0.3093 -0.1229 -0.1364
  872MPD2     H12849   2.382   0.158  13.878 -1.3416  1.3642  0.4782
  872MPD2    H112850   2.045   0.012  13.661  0.2033 -1.2131  1.9546
  872MPD2    H212851   2.336   0.238  13.466  1.2150  1.5129  1.2038
  872MPD2    H312852   2.130   0.129  13.474  1.2595  1.3022 -0.8281
  872MPD2     N12853   2.136   0.021  13.912  1.1162 -0.4279 -0.7618
  872MPD2    H512854   2.043   4.722  13.896  1.5657 -2.2776  0.9494
  872MPD2    N112855   2.489   0.287  13.682 -0.8888 -0.3016  0.4513
  872MPD2    H712856   2.537   0.298  13.771 -2.0595 -1.1962  1.2076
  873MPD2     C12857   4.592   4.097   0.442  0.2294  0.0009 -0.0488
  873MPD2    C112858   4.460   4.098   0.488 -0.0643 -0.3453 -0.0206
  873MPD2    C212859   4.374   3.997   0.458  0.2638 -0.6202  0.4083
  873MPD2    C312860   4.424   3.886   0.400  0.2552 -0.4871  0.1260
  873MPD2    C412861   4.558   3.869   0.370  0.4171 -0.5640 -0.2947
  873MPD2    C512862   4.641   3.980   0.388  0.2262  0.2725  0.4935
  873MPD2     H12863   4.271   3.986   0.491 -0.1958 -0.7218 -1.1017
  873MPD2    H112864   4.599   3.788   0.311  1.9204 -0.3826  0.4895
  873MPD2    H212865   4.662   4.173   0.475 -0.0597 -0.1822  1.0075
  873MPD2    H312866   0.010   3.979   0.378  0.2097  0.7727  0.2376
  873MPD2     N12867   4.341   3.779   0.371  0.2148 -0.0195 -0.1854
  873MPD2    H512868   4.384   3.691   0.346 -0.3752  0.1308 -1.7628
  873MPD2    N112869   4.428   4.215   0.561 -0.5614  0.4175 -0.3771
  873MPD2    H712870   4.508   4.277   0.567 -0.0184 -0.4212  0.9776
  874MPD2     C12871   3.849   4.589  16.170  0.7715 -0.0183 -0.6068
  874MPD2    C112872   3.901   4.586  16.297  0.2014 -0.3134 -0.0971
  874MPD2    C212873   4.009   4.665  16.320 -0.1817 -0.1172  0.3790
  874MPD2    C312874   4.049   0.023  16.241 -0.2158  0.2424  0.6941
  874MPD2    C412875   4.003   0.033  16.114  0.2860 -0.8228  0.0497
  874MPD2    C512876   3.902   4.685  16.081  0.0867  0.1435 -0.2117
  874MPD2     H12877   4.061   4.643  16.412  0.2292 -0.2763  0.1090
  874MPD2    H112878   4.032   0.117  16.051 -2.6035  0.0272 -0.1649
  874MPD2    H212879   3.775   4.517  16.138 -1.8107  1.9572  0.8786
  874MPD2    H312880   3.857   4.701  15.983  2.4248 -2.4708 -1.7022
  874MPD2     N12881   4.141   0.107  16.293 -0.0344  0.2613 -0.1406
  874MPD2    H512882   4.160   0.092  16.391 -2.2452 -0.6724  0.1384
  874MPD2    N112883   3.836   4.498  16.393  0.3533  0.2626  0.1097
  874MPD2    H712884   3.744   4.460  16.372  0.1890 -0.1660  1.6159
  875MPD2     C12885   4.348   2.863  14.630  0.0304  0.1782  0.6062
  875MPD2    C112886   4.411   2.982  14.594 -0.0888 -0.4915 -0.2611
  875MPD2    C212887   4.452   3.073  14.691  0.2889 -0.3376 -1.2136
  875MPD2    C312888   4.431   3.038  14.830 -0.3513  0.0315  0.3126
  875MPD2    C412889   4.376   2.916  14.872  0.4531  0.0276  0.2770
  875MPD2    C512890   4.325   2.842  14.771 -0.0666 -0.1135 -0.0012
  875MPD2     H12891   4.507   3.166  14.679 -2.1910  1.3340  0.3066
  875MPD2    H112892   4.354   2.895  14.976 -0.3292  0.1270  0.1273
  875MPD2    H212893   4.300   2.795  14.561  0.2153  0.3803  0.2806
  875MPD2    H312894   4.265   2.757  14.799  0.8085 -0.9385 -0.6073
  875MPD2     N12895   4.470   3.122  14.939  0.2063  0.7306  0.0268
  875MPD2    H512896   4.446   3.088  15.032  1.8679 -0.2385  0.0934
  875MPD2    N112897   4.431   3.020  14.457 -0.2647  0.1687  1.1235
  875MPD2    H712898   4.472   3.113  14.449  0.4076 -0.2874 -0.8539
  876MPD2     C12899   3.423   4.273  15.988  0.0428  0.1220  1.0953
  876MPD2    C112900   3.554   4.249  15.989 -0.5957 -0.5073 -0.2754
  876MPD2    C212901   3.599   4.131  16.052  0.5321 -0.1461 -0.3498
  876MPD2    C312902   3.511   4.038  16.110  0.3219  0.1314 -0.9011
  876MPD2    C412903   3.376   4.060  16.105  0.4423  0.4195 -0.5280
  876MPD2    C512904   3.333   4.183  16.052  0.8540  0.5152 -0.9188
  876MPD2     H12905   3.707   4.122  16.049  0.8737  3.8831 -0.6847
  876MPD2    H112906   3.298   3.998  16.148  0.0855  0.4356 -1.1593
  876MPD2    H212907   3.381   4.356  15.933 -1.4091 -0.3857  1.4581
  876MPD2    H312908   3.228   4.208  16.060  1.6845  3.6296  0.3443
  876MPD2     N12909   3.572   3.920  16.159  0.0157 -0.7757  0.3373
  876MPD2    H512910   3.671   3.909  16.139  0.2603  1.0801  0.5815
  876MPD2    N112911   3.628   4.335  15.901  0.0327  0.0866 -0.3607
  876MPD2    H712912   3.584   4.419  15.864 -1.5029 -0.6156 -0.0936
  877MPD2     C12913   3.610   0.001  15.276  0.0552 -0.5768  0.5470
  877MPD2    C112914   3.740   0.024  15.315 -0.8007 -0.3729  0.8453
  877MPD2    C212915   3.820   0.106  15.241 -0.1955 -0.1457 -0.8447
  877MPD2    C312916   3.765   0.184  15.137  0.6063 -0.0854 -0.0381
  877MPD2    C412917   3.633   0.167  15.108 -0.1160 -0.6434 -0.0564
  877MPD2    C512918   3.553   0.084  15.184  0.8146  0.3137 -0.0061
  877MPD2     H12919   3.925   0.114  15.266  0.4122  1.4544 -3.9694
  877MPD2    H112920   3.593   0.225  15.026 -0.1655 -1.2876 -0.4885
  877MPD2    H212921   3.542   4.673  15.328 -0.1360  0.4916  1.6877
  877MPD2    H312922   3.456   0.056  15.145  1.9038  0.5358 -2.8842
  877MPD2     N12923   3.840   0.264  15.043  0.0570 -0.1659 -0.2626
  877MPD2    H512924   3.790   0.294  14.960  1.3242  0.5414 -0.7603
  877MPD2    N112925   3.791   4.698  15.430 -0.6956 -0.0132 -0.6368
  877MPD2    H712926   3.877   4.732  15.474 -1.6463 -0.6148  1.6835
  878MPD2     C12927   3.853   4.002  12.765 -0.2696  0.1487 -0.3131
  878MPD2    C112928   3.845   4.141  12.765 -0.5056  0.2829  0.0131
  878MPD2    C212929   3.820   4.199  12.886  0.7611  0.5927 -0.2602
  878MPD2    C312930   3.803   4.126  13.005  0.3129 -0.3802  0.7099
  878MPD2    C412931   3.837   3.992  12.998  0.3392 -0.0778 -0.4913
  878MPD2    C512932   3.853   3.930  12.876  0.2378 -0.3512 -0.2503
  878MPD2     H12933   3.803   4.306  12.890 -0.4375  0.3934 -0.0768
  878MPD2    H112934   3.839   3.923  13.082  0.8909 -0.6376 -0.9729
  878MPD2    H212935   3.863   3.937  12.678 -2.7575 -1.6364  0.7339
  878MPD2    H312936   3.886   3.827  12.883  0.5152 -0.2321  0.1995
  878MPD2     N12937   3.742   4.189  13.115  0.1520  0.1211  0.4111
  878MPD2    H512938   3.731   4.288  13.095  1.0382  0.0007 -0.6305
  878MPD2    N112939   3.852   4.207  12.644  0.2196 -0.4033 -0.3747
  878MPD2    H712940   3.859   4.141  12.567  3.3002 -0.6318  0.0830
  879MPD2     C12941   3.828   0.903  16.897 -0.0998 -0.5475  0.1619
  879MPD2    C112942   3.886   0.785  16.936  0.3082  0.9300 -0.8199
  879MPD2    C212943   3.891   0.687  16.839  0.0688  0.1613 -0.0512
  879MPD2    C312944   3.850   0.699  16.706 -0.2084  0.5182 -0.1290
  879MPD2    C412945   3.800   0.824  16.673  0.0029 -0.1508  0.0060
  879MPD2    C512946   3.788   0.920  16.769  0.0981  0.5448 -0.0502
  879MPD2     H12947   3.920   0.589  16.876  0.2562  0.1399 -0.2615
  879MPD2    H112948   3.759   0.853  16.576 -1.3608  2.5931  1.3874
  879MPD2    H212949   3.825   0.990  16.961 -0.0014 -1.6155  1.6319
  879MPD2    H312950   3.742   1.017  16.752 -1.1535 -0.0477  0.0288
  879MPD2     N12951   3.859   0.602  16.608 -0.3472  0.4158  0.3806
  879MPD2    H512952   3.817   0.617  16.516 -0.1248  3.2314  0.7486
  879MPD2    N112953   3.940   0.782  17.064 -0.2280  0.3656  0.6693
  879MPD2    H712954   3.942   0.870  17.115 -0.6343  1.6191 -1.5083
  880MPD2     C12955   0.303   1.981   0.446 -0.0362 -0.9296  0.5862
  880MPD2    C112956   0.398   2.064   0.503 -0.3347 -0.7246 -0.5482
  880MPD2    C212957   0.460   2.010   0.613  0.1023 -0.0775  0.2912
  880MPD2    C312958   0.410   1.895   0.675 -0.3233  0.1719 -0.0347
  880MPD2    C412959   0.320   1.814   0.613  0.5274  0.9772 -0.5083
  880MPD2    C512960   0.263   1.861   0.500  0.6590 -0.5804 -0.7956
  880MPD2     H12961   0.531   2.069   0.671 -0.2706  2.3525 -1.7150
  880MPD2    H112962   0.280   1.722   0.653 -0.8216  1.5692 -0.4930
  880MPD2    H212963   0.259   2.008   0.351 -1.0663 -0.8092  1.1042
  880MPD2    H312964   0.186   1.799   0.455  0.7890 -1.0095 -0.4340
  880MPD2     N12965   0.467   1.860   0.799  0.5732  0.3446 -0.7200
  880MPD2    H512966   0.550   1.909   0.829  0.1269  0.4909  0.2722
  880MPD2    N112967   0.410   2.201   0.462 -0.2047 -0.4246 -0.6851
  880MPD2    H712968   0.357   2.225   0.379  0.5754  1.2739 -0.6954
  881MPD2     C12969   0.490   3.072  17.722  0.1577  0.4512 -0.1697
  881MPD2    C112970   0.591   2.997   0.017  0.1873 -0.2933 -0.5130
  881MPD2    C212971   0.555   2.890   0.097  0.1481  0.1570  0.7409
  881MPD2    C312972   0.421   2.877   0.140 -0.5512  0.2952 -0.3418
  881MPD2    C412973   0.323   2.963   0.104 -0.0520 -0.6297 -0.2254
  881MPD2    C512974   0.365   3.064   0.019  0.0784 -0.2974 -0.4783
  881MPD2     H12975   0.632   2.822   0.132 -2.4350 -2.9401  0.4149
  881MPD2    H112976   0.218   2.945   0.121  0.3609 -2.6410  0.0908
  881MPD2    H212977   0.512   3.153  17.653 -1.4502  1.8614  0.9414
  881MPD2    H312978   0.280   3.120  17.733 -0.8770 -1.3873  0.0256
  881MPD2     N12979   0.381   2.759   0.207 -0.4105 -0.4662  0.7057
  881MPD2    H512980   0.284   2.747   0.236 -0.6079 -2.4206 -0.7560
  881MPD2    N112981   0.715   3.012  17.708  0.2066 -0.0127  0.3667
  881MPD2    H712982   0.703   3.066  17.623 -1.9879 -1.0779 -0.0170
  882MPD2     C12983   4.122   0.390  14.350 -0.2518  0.1596  0.1280
  882MPD2    C112984   4.027   0.403  14.448 -0.1472 -0.1103 -0.0128
  882MPD2    C212985   3.933   0.302  14.459 -0.9403 -0.4997 -0.4420
  882MPD2    C312986   3.927   0.193  14.367  0.5890  0.8824  0.0698
  882MPD2    C412987   4.014   0.198  14.262  0.0154 -0.1154  0.5517
  882MPD2    C512988   4.102   0.296  14.248  0.2613 -0.5704  0.1245
  882MPD2     H12989   3.873   0.298  14.549 -0.3360  1.9138  0.0669
  882MPD2    H112990   3.999   0.124  14.184  1.2081  0.3919 -0.1613
  882MPD2    H212991   4.205   0.460  14.340 -0.1488 -0.0123 -0.2128
  882MPD2    H312992   4.161   0.291  14.158 -2.3922 -0.3052 -1.6132
  882MPD2     N12993   3.836   0.081  14.371 -0.3042 -0.2059 -0.3041
  882MPD2    H512994   3.840   0.023  14.288 -2.9139 -0.0795 -0.5188
  882MPD2    N112995   4.041   0.505  14.548  0.6208  0.1531 -0.2637
  882MPD2    H712996   4.123   0.564  14.536 -0.9928  2.4293  0.0322
  883MPD2     C12997   0.573   4.628  15.942  1.0981  0.1412 -0.7883
  883MPD2    C112998   0.645   4.575  15.839  0.0816 -0.2754  0.3763
  883MPD2    C212999   0.780   4.572  15.852  0.0184  0.3573 -1.1206
  883MPD2    C313000   0.853   4.629  15.956  1.1292  0.3290  0.4471
  883MPD2    C413001   0.777   4.695  16.050 -0.4982  0.2346  1.1343
  883MPD2    C513002   0.637   4.697  16.046  0.0430 -0.1977 -0.8208
  883MPD2     H13003   0.840   4.529  15.773  0.1576  0.1048 -0.8755
  883MPD2    H113004   0.817   0.007  16.137 -0.9445  0.3389  1.2795
  883MPD2    H213005   0.465   4.618  15.948  1.0589  1.3162  0.4262
  883MPD2    H313006   0.581   0.008  16.125  3.4379  1.0249  0.8062
  883MPD2     N13007   0.997   4.614  15.957 -0.2118  0.4129 -0.2196
  883MPD2    H513008   1.032   4.560  15.879  0.2831  1.1400 -0.5056
  883MPD2    N113009   0.593   4.534  15.722 -0.5808  0.2682 -0.4171
  883MPD2    H713010   0.658   4.502  15.651 -0.0991 -0.0720  0.1722
  884MPD2     C13011   3.299   1.042  14.659  0.1090 -0.6291  0.1085
  884MPD2    C113012   3.263   1.135  14.756 -0.0772 -0.1164  0.0612
  884MPD2    C213013   3.149   1.115  14.834  0.3196  0.2309 -0.4175
  884MPD2    C313014   3.076   0.995  14.817  0.1569  0.4606 -0.8867
  884MPD2    C413015   3.121   0.899  14.724  0.5718 -0.3199 -0.3311
  884MPD2    C513016   3.237   0.919  14.659 -0.6426  0.3110 -0.0939
  884MPD2     H13017   3.123   1.190  14.908  3.1935  0.0301  0.8172
  884MPD2    H113018   3.070   0.805  14.710  1.6278 -0.8040 -0.8629
  884MPD2    H213019   3.369   1.046  14.576 -0.4268 -0.9333 -0.3638
  884MPD2    H313020   3.271   0.843  14.590  1.6902 -2.0876  3.7052
  884MPD2     N13021   2.960   0.976  14.893  0.4727  0.8640 -0.3158
  884MPD2    H513022   2.950   1.054  14.957  0.5506  0.5975  0.0233
  884MPD2    N113023   3.317   1.264  14.761 -0.1988  0.2003  0.3775
  884MPD2    H713024   3.277   1.329  14.828 -1.1417  0.9256 -0.8833
  885MPD2     C13025   1.194   1.353   0.215  0.4259 -0.0106  0.3161
  885MPD2    C113026   1.248   1.237   0.170  0.6084 -0.0716 -0.0467
  885MPD2    C213027   1.249   1.218   0.034  1.0947 -0.0253 -0.2424
  885MPD2    C313028   1.173   1.298  17.702  0.5699  0.0366 -0.4881
  885MPD2    C413029   1.111   1.412   0.008 -0.4023 -0.7374 -0.8816
  885MPD2    C513030   1.125   1.438   0.138  0.1578 -0.2210 -0.2628
  885MPD2     H13031   1.293   1.128  17.747 -0.1572 -0.0097 -1.6243
  885MPD2    H113032   1.047   1.476  17.702  1.3509  1.5188 -0.3210
  885MPD2    H213033   1.188   1.381   0.319 -0.2581  1.4414 -0.1076
  885MPD2    H313034   1.087   1.526   0.189  0.2861  0.4488 -1.3195
  885MPD2     N13035   1.180   1.274  17.558  0.5886 -0.3609  0.5424
  885MPD2    H513036   1.234   1.193  17.528  1.8428  0.1141  1.5040
  885MPD2    N113037   1.325   1.152   0.255  0.3471 -0.0287 -1.0287
  885MPD2    H713038   1.378   1.077   0.212  0.8734 -0.2795  0.0528
  886MPD2     C13039   2.237   4.051  15.173 -0.2325  0.3654 -0.1514
  886MPD2    C113040   2.366   4.048  15.220  0.1985  0.5746 -0.3127
  886MPD2    C213041   2.458   4.138  15.172 -0.6699  0.1237  0.3107
  886MPD2    C313042   2.423   4.235  15.077 -0.3730  0.4297  0.1278
  886MPD2    C413043   2.299   4.226  15.023 -0.1425 -0.0612 -0.5351
  886MPD2    C513044   2.209   4.138  15.075 -0.1270 -0.1865  0.2591
  886MPD2     H13045   2.561   4.139  15.206 -0.3814 -1.2333 -0.5193
  886MPD2    H113046   2.265   4.271  14.930 -0.6490  3.6914  1.4722
  886MPD2    H213047   2.159   3.979  15.191  0.3514 -0.2397 -0.0578
  886MPD2    H313048   2.119   4.127  15.015  0.5069 -1.1423 -0.5280
  886MPD2     N13049   2.507   4.334  15.017  0.4006  0.2599 -0.0567
  886MPD2    H513050   2.455   4.379  14.943  0.2117  0.9212  0.4778
  886MPD2    N113051   2.400   3.952  15.322  0.2999  0.4927 -0.6366
  886MPD2    H713052   2.485   3.964  15.376  1.5445  0.5797 -2.6327
  887MPD2     C13053   3.038   3.687  15.536  0.4581  0.0336  0.1933
  887MPD2    C113054   2.937   3.782  15.527  0.0634  0.6649 -1.1225
  887MPD2    C213055   2.968   3.915  15.514 -0.8441  0.5832 -0.4767
  887MPD2    C313056   3.098   3.965  15.533 -0.5928  0.5517  0.2674
  887MPD2    C413057   3.201   3.869  15.537  0.2016  0.1151 -0.5196
  887MPD2    C513058   3.169   3.733  15.539  0.7358 -0.2552  0.0437
  887MPD2     H13059   2.891   3.986  15.487 -1.2305 -0.2685 -1.6582
  887MPD2    H113060   3.305   3.898  15.536  1.5675 -4.7226  0.4208
  887MPD2    H213061   3.011   3.582  15.530 -3.4760  0.9988  1.2370
  887MPD2    H313062   3.253   3.664  15.536  1.1315  0.2538 -0.5836
  887MPD2     N13063   3.121   4.104  15.524  0.2813  0.5047  0.1330
  887MPD2    H513064   3.040   4.165  15.515 -0.2135 -0.1383  0.1986
  887MPD2    N113065   2.803   3.746  15.496 -0.6461  0.9813 -0.0667
  887MPD2    H713066   2.748   3.825  15.463  0.1885  2.5736  2.2991
  888MPD2     C13067   0.002   4.130  14.732  0.3947  0.0888  0.2108
  888MPD2    C113068   4.716   4.176  14.855  0.6745 -0.2911 -0.6675
  888MPD2    C213069   0.041   4.291  14.895  0.0773  0.2598 -0.5849
  888MPD2    C313070   0.130   4.361  14.819 -0.6798 -0.8012 -0.3548
  888MPD2    C413071   0.148   4.316  14.687  0.0957 -1.1502 -0.4035
  888MPD2    C513072   0.080   4.210  14.650 -0.4291  0.0477 -0.2382
  888MPD2     H13073   0.023   4.320  14.998  1.6283 -0.4576 -0.1170
  888MPD2    H113074   0.213   4.362  14.613 -2.6896  2.8949 -0.3192
  888MPD2    H213075   4.699   4.042  14.685  0.5158  0.3738 -0.4331
  888MPD2    H313076   0.092   4.182  14.546 -1.6075  1.3275 -0.7180
  888MPD2     N13077   0.189   4.469  14.874 -0.3207 -0.1172  0.5911
  888MPD2    H513078   0.150   4.503  14.962 -0.9042 -0.3180  0.4028
  888MPD2    N113079   4.636   4.109  14.957  0.5068 -0.9553  0.2303
  888MPD2    H713080   4.635   4.154  15.048  1.1172  0.3949 -0.4274
  889MPD2     C13081   4.667   3.788  12.585  0.3162 -0.3578  0.6092
  889MPD2    C113082   4.689   3.785  12.722  1.1425 -0.1768 -0.1198
  889MPD2    C213083   4.636   3.890  12.801 -0.3849 -0.4343 -0.1586
  889MPD2    C313084   4.584   3.999  12.747  0.8296  0.1931  0.6595
  889MPD2    C413085   4.573   4.008  12.608 -0.3401 -0.5388  0.0291
  889MPD2    C513086   4.614   3.901  12.529  0.2565  0.2066  0.5539
  889MPD2     H13087   4.673   3.906  12.902 -0.2846  1.6247 -0.5218
  889MPD2    H113088   4.537   4.095  12.554 -0.9682 -1.4101 -0.9643
  889MPD2    H213089   4.725   3.712  12.533 -2.1712 -2.5958  1.1238
  889MPD2    H313090   4.612   3.912  12.421  1.5723  0.8564  0.5912
  889MPD2     N13091   4.552   4.107  12.833  0.3299 -0.4174 -0.2311
  889MPD2    H513092   4.559   4.099  12.934 -0.5140 -1.1643 -0.2263
  889MPD2    N113093   4.728   3.660  12.777 -0.3509 -0.2161 -0.0632
  889MPD2    H713094   0.002   3.580  12.717  0.6969 -1.5855  1.9790
  890MPD2     C13095   3.569   0.918  14.826 -0.4226  0.0512  0.3115
  890MPD2    C113096   3.704   0.899  14.794 -0.3210 -0.5748 -0.1559
  890MPD2    C213097   3.781   0.841  14.900  0.3353 -0.5904  0.2836
  890MPD2    C313098   3.722   0.763  14.997 -0.2671 -0.0739 -0.3734
  890MPD2    C413099   3.586   0.766  15.017  0.1559  0.2391  0.5752
  890MPD2    C513100   3.517   0.847  14.934  0.0246  1.0647  0.1403
  890MPD2     H13101   3.887   0.840  14.877 -0.0605  0.7031 -1.6773
  890MPD2    H113102   3.543   0.709  15.099 -2.5191  0.1079 -0.9210
  890MPD2    H213103   3.504   0.966  14.754  0.2704  1.4145  0.5915
  890MPD2    H313104   3.410   0.849  14.950  0.0804  1.1201  0.4910
  890MPD2     N13105   3.810   0.693  15.091  0.0322  0.0888  0.5974
  890MPD2    H513106   3.906   0.724  15.084 -0.9993  3.2593  0.8128
  890MPD2    N113107   3.758   0.975  14.687  0.5048  0.5158  0.6562
  890MPD2    H713108   3.694   1.040  14.643 -0.1048 -1.9913 -2.1021
  891MPD2     C13109   1.841   4.013  16.704  0.4970  0.1748  1.0823
  891MPD2    C113110   1.744   4.011  16.806  0.7554 -0.0137  0.4848
  891MPD2    C213111   1.778   3.938  16.920  0.1100  0.5427  0.4269
  891MPD2    C313112   1.888   3.856  16.927 -0.0233  0.0336 -0.4128
  891MPD2    C413113   1.978   3.855  16.819  0.6411 -0.6230 -0.6528
  891MPD2    C513114   1.945   3.923  16.710 -0.0351 -0.2604  0.3090
  891MPD2     H13115   1.713   3.951  17.006  0.1670 -0.1820  0.5861
  891MPD2    H113116   2.072   3.801  16.823 -0.2609 -2.0535  1.0651
  891MPD2    H213117   1.824   4.060  16.608  1.7615 -2.7658 -0.5906
  891MPD2    H313118   2.008   3.921  16.621 -1.5724 -3.7798 -0.6668
  891MPD2     N13119   1.918   3.782  17.048  1.5090  0.1919  0.0307
  891MPD2    H513120   1.858   3.798  17.128 -0.0316 -1.6291 -0.7839
  891MPD2    N113121   1.637   4.099  16.801 -0.0365  0.4457  0.2203
  891MPD2    H713122   1.629   4.170  16.728 -1.8322  0.8474  0.8274
  892MPD2     C13123   3.217   0.521  14.575  0.0486  0.5936  0.4293
  892MPD2    C113124   3.140   0.410  14.571  0.0498  0.2025  0.2383
  892MPD2    C213125   3.195   0.287  14.537  1.2846  0.6619  0.5571
  892MPD2    C313126   3.333   0.278  14.520  0.4891  0.1349  0.1442
  892MPD2    C413127   3.410   0.390  14.537 -0.5102  0.4668  0.3277
  892MPD2    C513128   3.348   0.507  14.561 -0.0857  0.0629  0.5443
  892MPD2     H13129   3.132   0.203  14.510  1.0418  0.3536  2.0882
  892MPD2    H113130   3.517   0.395  14.522 -0.6001  0.9768 -0.1084
  892MPD2    H213131   3.186   0.620  14.605 -0.6096  0.5794 -0.2040
  892MPD2    H313132   3.413   0.594  14.566 -0.3399  0.2532  0.5151
  892MPD2     N13133   3.397   0.162  14.477  0.0526 -0.1237 -0.0570
  892MPD2    H513134   3.497   0.166  14.462  0.1317 -3.9693 -0.5265
  892MPD2    N113135   3.003   0.419  14.595 -0.1209 -0.7205  0.8272
  892MPD2    H713136   2.950   0.339  14.627  0.8179 -0.6405  2.5649
  893MPD2     C13137   4.463   2.520   0.358 -0.7757  0.1320  0.3395
  893MPD2    C113138   4.490   2.570   0.484 -0.0974  0.1672  0.2321
  893MPD2    C213139   4.504   2.489   0.597  0.2999  0.0780 -0.3324
  893MPD2    C313140   4.460   2.358   0.588 -0.3520 -0.5030  0.1411
  893MPD2    C413141   4.429   2.307   0.462  0.1717  0.5598  0.1772
  893MPD2    C513142   4.423   2.392   0.349 -0.2282  0.2764 -0.2349
  893MPD2     H13143   4.527   2.537   0.691 -1.3127  0.7636 -0.2872
  893MPD2    H113144   4.394   2.205   0.450 -3.2855  1.9584 -1.5400
  893MPD2    H213145   4.468   2.584   0.270  1.2406  1.0588  1.1260
  893MPD2    H313146   4.389   2.353   0.254 -0.0514 -0.2237 -0.0973
  893MPD2     N13147   4.460   2.265   0.695  0.0280 -0.0862  0.1840
  893MPD2    H513148   4.436   2.169   0.670 -0.8418 -0.0316  0.7952
  893MPD2    N113149   4.519   2.709   0.492 -0.3388  0.4416 -0.5944
  893MPD2    H713150   4.517   2.755   0.401  0.5543  1.6356 -0.0299
  894MPD2     C13151   2.476   1.343   1.190 -0.1028 -0.5160  0.7732
  894MPD2    C113152   2.469   1.223   1.131 -0.2340 -0.0127  0.1829
  894MPD2    C213153   2.591   1.151   1.113  0.7816  0.2765  0.5205
  894MPD2    C313154   2.715   1.189   1.161 -0.1047 -0.1126  0.2994
  894MPD2    C413155   2.713   1.315   1.233  0.1755  0.8057 -0.0108
  894MPD2    C513156   2.596   1.389   1.237  0.3859  0.0509  0.8783
  894MPD2     H13157   2.572   1.060   1.057  1.2957  0.1911  0.4905
  894MPD2    H113158   2.799   1.358   1.284  0.1409  1.8332 -0.8219
  894MPD2    H213159   2.386   1.402   1.200 -0.1426 -0.3142 -0.8274
  894MPD2    H313160   2.594   1.483   1.292 -3.0760  0.5259 -0.0331
  894MPD2     N13161   2.832   1.122   1.123 -0.0017 -0.4705 -0.1707
  894MPD2    H513162   2.816   1.043   1.061 -2.5224  0.6134 -0.8952
  894MPD2    N113163   2.350   1.158   1.081 -0.4033  0.2402 -0.2366
  894MPD2    H713164   2.363   1.070   1.032  1.4244  1.8048 -2.5447
  895MPD2     C13165   2.597   3.979  13.414 -0.5278 -0.0615 -0.1794
  895MPD2    C113166   2.501   3.974  13.310 -0.2949  0.0610  0.2034
  895MPD2    C213167   2.491   3.859  13.234 -0.0525  0.2970 -0.1117
  895MPD2    C313168   2.557   3.747  13.274 -0.3916  0.7121 -0.4279
  895MPD2    C413169   2.642   3.747  13.389 -0.7524 -0.0926  0.0203
  895MPD2    C513170   2.659   3.864  13.454 -0.1871 -0.1845  0.0623
  895MPD2     H13171   2.415   3.853  13.157 -1.6896  0.5060  1.5020
  895MPD2    H113172   2.690   3.658  13.426 -0.7989 -0.5936 -1.1147
  895MPD2    H213173   2.614   4.069  13.472  0.1960  1.3366 -2.5629
  895MPD2    H313174   2.701   3.857  13.554  0.0546  0.7498  0.0220
  895MPD2     N13175   2.532   3.629  13.196  0.3890 -0.2599 -0.7243
  895MPD2    H513176   2.462   3.626  13.123 -0.1339 -4.9944 -0.0729
  895MPD2    N113177   2.421   4.084  13.275 -0.0974  0.1438 -0.7526
  895MPD2    H713178   2.377   4.076  13.184 -2.6166  3.2813  0.1761
  896MPD2     C13179   0.198   1.256   1.447 -0.0911 -0.4230 -0.3231
  896MPD2    C113180   0.127   1.314   1.339  0.4175  0.0752 -0.0815
  896MPD2    C213181   0.012   1.246   1.298  0.1330 -0.1898 -0.3212
  896MPD2    C313182   4.713   1.128   1.365 -0.0787  0.2664  0.5815
  896MPD2    C413183   0.047   1.070   1.467  0.0824 -0.0478 -0.6036
  896MPD2    C513184   0.160   1.133   1.501  0.6666 -0.3250  0.6036
  896MPD2     H13185   4.692   1.272   1.211  0.5109  2.6298  0.2680
  896MPD2    H113186   0.026   0.973   1.512 -0.1983  0.3440  0.1022
  896MPD2    H213187   0.288   1.307   1.479  1.0566 -2.9021  0.3665
  896MPD2    H313188   0.219   1.091   1.582  0.8033  2.6447  2.0560
  896MPD2     N13189   4.592   1.073   1.321 -0.0550 -0.1014  0.3152
  896MPD2    H513190   4.552   1.098   1.231 -1.2887 -0.7588  0.6799
  896MPD2    N113191   0.164   1.444   1.299 -0.0166  0.1342 -0.0242
  896MPD2    H713192   0.255   1.475   1.333 -0.1563 -1.5735  1.9311
  897MPD2     C13193   0.479   3.919  10.323 -0.6335 -0.2904  0.2509
  897MPD2    C113194   0.551   4.032  10.353 -0.9023  0.3277 -1.0137
  897MPD2    C213195   0.577   4.047  10.492  0.4450  0.6000  0.0076
  897MPD2    C313196   0.535   3.955  10.581  0.4184  0.5075 -0.3184
  897MPD2    C413197   0.454   3.850  10.544 -1.0237 -0.9963 -0.6881
  897MPD2    C513198   0.443   3.822  10.416 -0.3231 -0.6102 -0.6249
  897MPD2     H13199   0.618   4.137  10.536 -0.8868  0.4228  1.6319
  897MPD2    H113200   0.428   3.779  10.621 -0.2564 -0.1637  0.3345
  897MPD2    H213201   0.458   3.897  10.219  0.7567  0.0353 -0.1022
  897MPD2    H313202   0.379   3.741  10.383 -0.9413 -1.4093  2.6010
  897MPD2     N13203   0.554   3.988  10.719 -0.0357 -0.7053 -0.0229
  897MPD2    H513204   0.593   4.081  10.729  1.5348 -1.4022  0.3760
  897MPD2    N113205   0.600   4.119  10.254  1.2083  0.2684 -0.2661
  897MPD2    H713206   0.550   4.112  10.166  3.0706 -2.0293 -1.1452
  898MPD2     C13207   2.402   4.510  17.595 -0.5908 -0.4836  0.3054
  898MPD2    C113208   2.421   4.506  17.456 -0.4366  0.3146 -0.2403
  898MPD2    C213209   2.460   4.626  17.397  0.8493 -0.4280 -0.5218
  898MPD2    C313210   2.461   0.006  17.465  0.7561  0.5410  0.0843
  898MPD2    C413211   2.434   0.002  17.600  0.2831 -0.4486  0.5192
  898MPD2    C513212   2.412   4.623  17.667 -0.0341  1.1472  0.0628
  898MPD2     H13213   2.484   4.626  17.292  2.7810  0.8418 -0.0861
  898MPD2    H113214   2.416   0.090  17.659 -0.2673  0.8983 -1.6607
  898MPD2    H213215   2.379   4.419  17.650  0.5659 -1.9722 -1.6749
  898MPD2    H313216   2.388   4.624   0.019 -1.4806  3.8213 -0.2960
  898MPD2     N13217   2.490   0.122  17.396 -0.7145  0.3686  0.2361
  898MPD2    H513218   2.525   0.116  17.301  0.6699 -0.1419  0.7759
  898MPD2    N113219   2.422   4.388  17.366  0.6144  0.9883 -0.2530
  898MPD2    H713220   2.429   4.397  17.265  1.3114  1.6423 -0.1470
  899MPD2     C13221   3.025   0.024  16.928 -0.5825 -0.4981  0.4214
  899MPD2    C113222   3.096   0.091  17.028 -0.2406  0.0779 -0.2378
  899MPD2    C213223   3.107   0.035  17.156 -0.4854  0.1128 -0.5033
  899MPD2    C313224   3.035   4.661  17.193  0.5544  0.9010 -0.3201
  899MPD2    C413225   2.963   4.605  17.089 -1.1026  0.0188 -0.1784
  899MPD2    C513226   2.963   4.647  16.960  0.5738  0.0710  0.4523
  899MPD2     H13227   3.154   0.097  17.232 -1.4519  1.1390 -0.7391
  899MPD2    H113228   2.900   4.521  17.115 -1.3400  1.2194  3.1536
  899MPD2    H213229   3.014   0.063  16.827 -2.5830 -3.0957 -0.3645
  899MPD2    H313230   2.899   4.595  16.889  1.5698  1.0335 -1.1613
  899MPD2     N13231   3.027   4.600  17.319 -0.0629 -0.3113 -0.0473
  899MPD2    H513232   2.971   4.516  17.321 -0.9605  0.2644 -0.6893
  899MPD2    N113233   3.162   0.200  16.974  0.7104 -0.1450 -0.1106
  899MPD2    H713234   3.137   0.219  16.878 -0.1078  1.4410  0.4205
  900MPD2     C13235   2.960   2.293  12.920 -0.4550  0.7283  0.2751
  900MPD2    C113236   2.935   2.175  12.851  0.0418  0.0914  0.3057
  900MPD2    C213237   2.799   2.135  12.837 -0.0979  0.6547 -0.5018
  900MPD2    C313238   2.696   2.213  12.893 -0.1651 -0.1726 -0.0488
  900MPD2    C413239   2.730   2.323  12.968  0.0510 -0.1957  0.6776
  900MPD2    C513240   2.861   2.371  12.973 -0.0999 -0.2078  0.0717
  900MPD2     H13241   2.764   2.045  12.786 -0.0623  0.7230 -0.6472
  900MPD2    H113242   2.654   2.363  13.034 -0.0662 -0.8724  0.9541
  900MPD2    H213243   3.060   2.330  12.941 -0.7395  2.2423 -1.0163
  900MPD2    H313244   2.898   2.452  13.035  0.2277  1.6122 -2.5155
  900MPD2     N13245   2.564   2.173  12.879  0.4926 -0.1406  0.1401
  900MPD2    H513246   2.549   2.088  12.825 -1.5355 -0.4917  1.2444
  900MPD2    N113247   3.040   2.093  12.799  0.2718  0.4241  0.2343
  900MPD2    H713248   3.134   2.124  12.821  1.0907 -3.4603  2.2581
  901MPD2     C13249   3.074   1.027  12.877 -0.4584  0.8078 -0.5569
  901MPD2    C113250   3.201   1.079  12.897  0.3262 -0.5727 -0.0212
  901MPD2    C213251   3.219   1.211  12.896 -0.7807  0.1850  0.6730
  901MPD2    C313252   3.119   1.301  12.862 -0.4669  0.4356 -0.0658
  901MPD2    C413253   2.991   1.249  12.834 -0.5381 -0.9487  0.0307
  901MPD2    C513254   2.970   1.108  12.842  0.0371  0.7688  0.8666
  901MPD2     H13255   3.318   1.252  12.915 -1.9185  2.5318  1.5295
  901MPD2    H113256   2.909   1.313  12.804 -0.7734 -0.8157  0.9593
  901MPD2    H213257   3.060   0.921  12.896 -1.9798  1.2507  0.7756
  901MPD2    H313258   2.872   1.063  12.829  0.0025  0.5605  1.8376
  901MPD2     N13259   3.155   1.435  12.853  0.4737  0.1104 -0.2497
  901MPD2    H513260   3.249   1.463  12.881  0.1290  1.8539 -0.8110
  901MPD2    N113261   3.305   0.985  12.917 -0.2953 -0.2518  0.0232
  901MPD2    H713262   3.283   0.888  12.900 -0.9759 -0.3670  1.5907
  902MPD2     C13263   2.694   4.701  12.726  1.3982  0.2712 -0.6194
  902MPD2    C113264   2.605   4.642  12.818  0.7302 -0.1171  0.1028
  902MPD2    C213265   2.552   4.520  12.779 -0.0167 -0.8047  0.4195
  902MPD2    C313266   2.597   4.456  12.667  0.0861  0.9214  0.1277
  902MPD2    C413267   2.689   4.513  12.584 -0.4141 -0.2304  0.1823
  902MPD2    C513268   2.733   4.640  12.609 -0.0936 -0.5429  0.4525
  902MPD2     H13269   2.472   4.476  12.837 -1.0808  2.0450  1.1083
  902MPD2    H113270   2.733   4.465  12.497 -0.6000 -3.2696  1.7563
  902MPD2    H213271   2.742   0.058  12.735 -0.7934  1.4677 -1.7652
  902MPD2    H313272   2.808   4.686  12.545 -0.6672 -0.2413  0.0012
  902MPD2     N13273   2.541   4.332  12.619  0.3935 -0.3512  0.0970
  902MPD2    H513274   2.578   4.297  12.531  1.3889  1.5662 -0.2542
  902MPD2    N113275   2.562   4.713  12.927  0.1425  0.2220  0.1259
  902MPD2    H713276   2.599   0.069  12.931  1.3620 -0.1970 -1.1316
  903MPD2     C13277   2.000   4.463  12.290 -0.1214  0.0304 -0.6353
  903MPD2    C113278   2.008   4.327  12.276 -0.3007 -0.1607  0.3471
  903MPD2    C213279   1.922   4.273  12.182 -0.0459  0.2827 -0.6840
  903MPD2    C313280   1.853   4.349  12.090  0.5055 -0.2958 -0.4777
  903MPD2    C413281   1.864   4.487  12.089 -0.7981  0.6153  0.7609
  903MPD2    C513282   1.925   4.538  12.199  0.4477  0.0084 -0.0688
  903MPD2     H13283   1.913   4.166  12.168 -2.2207  0.4536 -0.6351
  903MPD2    H113284   1.821   4.555  12.017  0.4125 -0.3049 -0.8225
  903MPD2    H213285   2.055   4.518  12.365 -1.0853 -0.0679  0.1377
  903MPD2    H313286   1.924   4.645  12.211 -0.9026  0.1619 -1.6365
  903MPD2     N13287   1.777   4.283  11.993  0.8994 -0.6406 -0.1087
  903MPD2    H513288   1.776   4.182  12.000  3.7591 -0.6954 -0.3340
  903MPD2    N113289   2.100   4.258  12.360 -0.3598 -0.1001  0.0821
  903MPD2    H713290   2.157   4.321  12.415 -0.9652  0.7435 -0.2363
  904MPD2     C13291   2.199   3.346  14.112 -0.3113 -0.5180 -0.0447
  904MPD2    C113292   2.252   3.461  14.046 -0.2356  0.1698  0.0798
  904MPD2    C213293   2.386   3.476  14.042 -0.2384 -0.0827  0.3731
  904MPD2    C313294   2.475   3.389  14.108 -0.1436  0.5694  0.5450
  904MPD2    C413295   2.425   3.277  14.176  0.3210 -0.5678 -0.4012
  904MPD2    C513296   2.287   3.259  14.174 -0.3973 -0.0420  0.7225
  904MPD2     H13297   2.428   3.561  13.990  0.7860 -0.7815  0.0588
  904MPD2    H113298   2.488   3.199  14.217  0.8700  1.5381  2.7061
  904MPD2    H213299   2.095   3.318  14.126 -0.0830 -1.6532 -0.5963
  904MPD2    H313300   2.246   3.177  14.231 -1.1832 -0.4383 -0.4097
  904MPD2     N13301   2.609   3.425  14.097 -0.7209 -0.1377  0.2521
  904MPD2    H513302   2.629   3.511  14.048 -0.6337 -0.7080 -0.7152
  904MPD2    N113303   2.180   3.564  14.005  0.1341 -0.0965 -0.1793
  904MPD2    H713304   2.227   3.644  13.964 -0.3727 -0.3641 -1.3024
  905MPD2     C13305   2.036   3.962  13.368  0.9455 -0.2722 -0.0411
  905MPD2    C113306   2.036   3.861  13.461  0.0500  0.0409 -0.1254
  905MPD2    C213307   2.064   3.730  13.425  0.2400 -0.0977 -0.6262
  905MPD2    C313308   2.110   3.703  13.295 -0.3091 -0.8525  0.4453
  905MPD2    C413309   2.102   3.805  13.199  0.1447  0.2174 -0.0740
  905MPD2    C513310   2.059   3.932  13.232  0.6225  0.2520  0.6930
  905MPD2     H13311   2.064   3.654  13.502  0.9299  1.2871  0.7516
  905MPD2    H113312   2.122   3.786  13.094 -1.8785  0.2367 -0.4555
  905MPD2    H213313   2.012   4.064  13.397 -1.1848 -1.0855  1.0919
  905MPD2    H313314   2.065   4.017  13.166  2.9972 -2.1018 -2.1462
  905MPD2     N13315   2.161   3.574  13.269 -0.0024 -0.2538 -0.4403
  905MPD2    H513316   2.153   3.503  13.341 -1.6743  0.0326 -0.3483
  905MPD2    N113317   1.998   3.894  13.596  0.7433 -0.5151  0.1562
  905MPD2    H713318   2.005   3.991  13.623 -1.0548  0.1929 -1.9688
  906MPD2     C13319   4.182   4.184  11.523 -0.2484  0.0500 -0.0645
  906MPD2    C113320   4.180   4.135  11.395 -0.2856 -0.0343 -0.1264
  906MPD2    C213321   4.164   3.995  11.382  0.0793  0.2555 -0.1857
  906MPD2    C313322   4.161   3.912  11.489  0.6061 -0.1515 -0.3569
  906MPD2    C413323   4.165   3.959  11.615  0.2476 -0.6651  0.0895
  906MPD2    C513324   4.169   4.093  11.630 -0.5820  0.6928  0.0818
  906MPD2     H13325   4.166   3.957  11.280 -1.2828  0.3855 -0.2556
  906MPD2    H113326   4.167   3.902  11.707 -0.3090  3.2887  2.5767
  906MPD2    H213327   4.202   4.289  11.541 -2.7780  0.5338 -0.0692
  906MPD2    H313328   4.161   4.140  11.728  1.8236  0.8838  0.1914
  906MPD2     N13329   4.159   3.768  11.483 -0.4996 -0.3724  0.0471
  906MPD2    H513330   4.174   3.717  11.569  0.8172  0.2996  0.2155
  906MPD2    N113331   4.192   4.217  11.280 -0.5221 -0.4731 -0.2469
  906MPD2    H713332   4.181   4.168  11.192  2.2083 -0.3535 -0.6652
  907MPD2     C13333   2.797   2.889  16.245  0.0668 -0.2081 -0.0471
  907MPD2    C113334   2.853   2.776  16.189  0.4997 -0.4782 -0.4803
  907MPD2    C213335   2.890   2.669  16.272 -0.1151 -0.1564  1.0832
  907MPD2    C313336   2.869   2.675  16.411  0.0450  0.6495 -0.6116
  907MPD2    C413337   2.830   2.798  16.465 -0.2551 -0.0078 -0.0987
  907MPD2    C513338   2.788   2.898  16.383  0.1334 -0.2809  0.2617
  907MPD2     H13339   2.927   2.577  16.230 -0.3970 -0.3905  1.3517
  907MPD2    H113340   2.823   2.805  16.573  0.8703 -2.8083  0.1645
  907MPD2    H213341   2.765   2.970  16.180 -0.4660 -0.6812 -0.3848
  907MPD2    H313342   2.752   2.985  16.438 -1.4005  0.5188 -2.0018
  907MPD2     N13343   2.899   2.563  16.492  0.5407  0.4566  0.2503
  907MPD2    H513344   2.966   2.495  16.457 -1.6169 -2.2096  1.3559
  907MPD2    N113345   2.858   2.747  16.048  0.0945  0.5592 -0.0003
  907MPD2    H713346   2.921   2.672  16.022  1.1447  1.5773 -0.4572
  908MPD2     C13347   0.308   4.112   9.504 -0.3558 -0.3618  0.3322
  908MPD2    C113348   0.271   4.100   9.631 -0.2008 -0.3365  0.8995
  908MPD2    C213349   0.356   4.139   9.733  0.0595 -0.5221 -0.1645
  908MPD2    C313350   0.483   4.183   9.708  0.2959 -0.7786  0.4656
  908MPD2    C413351   0.518   4.206   9.578  0.7923  0.1804  0.2869
  908MPD2    C513352   0.428   4.164   9.476 -0.5104 -0.4922 -0.5742
  908MPD2     H13353   0.322   4.134   9.836 -0.0186 -0.4671 -0.1877
  908MPD2    H113354   0.615   4.243   9.548  0.6391  0.2225 -0.1591
  908MPD2    H213355   0.239   4.089   9.424  0.2072  1.4718 -0.6997
  908MPD2    H313356   0.450   4.188   9.372 -2.9626 -0.0642 -1.0133
  908MPD2     N13357   0.562   4.227   9.814  0.7461  0.0336  0.1115
  908MPD2    H513358   0.517   4.210   9.903  1.6237 -0.6572  0.4204
  908MPD2    N113359   0.132   4.062   9.654 -0.1493 -0.0194  0.0499
  908MPD2    H713360   0.075   4.024   9.579  0.0533 -2.0326  0.9255
  909MPD2     C13361   0.860   1.720  11.597  0.4376  0.3334  0.2769
  909MPD2    C113362   0.874   1.854  11.584 -0.0224 -0.8515 -0.0146
  909MPD2    C213363   0.798   1.934  11.665  0.0290 -0.0718  0.4846
  909MPD2    C313364   0.724   1.887  11.772 -0.0213 -0.9626  0.1955
  909MPD2    C413365   0.716   1.750  11.790 -0.3360 -0.3314  0.1908
  909MPD2    C513366   0.782   1.670  11.697  0.9068 -0.5272  0.3033
  909MPD2     H13367   0.812   2.041  11.659 -0.0828 -0.0253  1.0432
  909MPD2    H113368   0.652   1.703  11.863 -3.4491 -0.3066 -2.5568
  909MPD2    H213369   0.913   1.642  11.543 -1.6418 -0.7029 -0.2756
  909MPD2    H313370   0.770   1.564  11.714  1.6797 -0.7182 -0.3670
  909MPD2     N13371   0.679   1.991  11.857  0.6904  0.8428 -0.4678
  909MPD2    H513372   0.682   2.087  11.825 -0.2024  0.9505 -0.2352
  909MPD2    N113373   0.956   1.918  11.485 -0.9347  0.9093 -0.3201
  909MPD2    H713374   0.945   2.018  11.472 -1.0526  0.7251 -1.5986
  910MPD2     C13375   1.993   3.178  16.077  0.5260 -0.4219 -0.1867
  910MPD2    C113376   2.119   3.137  16.034 -0.8742  1.0892  0.9799
  910MPD2    C213377   2.154   3.154  15.898 -0.6958 -0.2373  0.4787
  910MPD2    C313378   2.067   3.206  15.811 -0.2888 -0.6381  0.3578
  910MPD2    C413379   1.947   3.247  15.850 -0.5074  0.2042  0.0212
  910MPD2    C513380   1.916   3.250  15.985  0.4905  0.0956 -0.0373
  910MPD2     H13381   2.255   3.121  15.875 -0.6963  1.1717 -1.4745
  910MPD2    H113382   1.874   3.286  15.781 -2.5610 -0.3733  1.8651
  910MPD2    H213383   1.954   3.168  16.178  0.7626 -1.3385 -0.1877
  910MPD2    H313384   1.827   3.303  16.018 -1.1527 -2.3488 -0.5595
  910MPD2     N13385   2.094   3.214  15.668  0.3750  0.0702  0.2045
  910MPD2    H513386   2.020   3.256  15.612  1.9703  1.0101 -1.2234
  910MPD2    N113387   2.214   3.073  16.122 -0.8711 -0.2122  0.3253
  910MPD2    H713388   2.310   3.055  16.093 -0.4304 -2.2106  3.0426
  911MPD2     C13389   0.151   4.055  16.195 -0.6196  0.6263  0.1285
  911MPD2    C113390   0.176   4.139  16.304  0.2329 -0.4502  0.5177
  911MPD2    C213391   0.078   4.234  16.338 -0.7129 -0.5897  0.2616
  911MPD2    C313392   4.705   4.246  16.257  0.1595 -0.1697  0.9675
  911MPD2    C413393   4.689   4.156  16.153 -0.6910 -0.0908 -0.0785
  911MPD2    C513394   0.038   4.065  16.113 -0.0893  0.3519 -0.3602
  911MPD2     H13395   0.088   4.299  16.425  0.5838 -0.7943  0.2603
  911MPD2    H113396   4.602   4.170  16.089  0.6575 -3.2662 -2.5903
  911MPD2    H213397   0.227   3.982  16.170 -0.9049 -1.5671  5.6309
  911MPD2    H313398   0.013   3.998  16.032 -1.8731  1.5799 -0.7968
  911MPD2     N13399   4.622   4.357  16.265 -0.2728  0.0921 -0.3810
  911MPD2    H513400   4.532   4.345  16.219 -0.2186 -0.3300 -0.3723
  911MPD2    N113401   0.291   4.105  16.381  0.6719  0.0008  0.3422
  911MPD2    H713402   0.354   4.038  16.337  0.3252 -0.2078  0.1640
  912MPD2     C13403   4.196   4.221  15.947 -0.5281  0.4893  0.1351
  912MPD2    C113404   4.218   4.268  16.072 -0.1742 -0.0296  0.6372
  912MPD2    C213405   4.257   4.169  16.165 -0.8094 -0.4218  0.4260
  912MPD2    C313406   4.277   4.031  16.146 -0.5061 -0.3353 -0.5257
  912MPD2    C413407   4.247   3.991  16.019  0.8107  0.2556 -0.1290
  912MPD2    C513408   4.210   4.088  15.927  0.6973 -0.4984  0.0455
  912MPD2     H13409   4.290   4.206  16.261  0.1948  0.4104 -0.2471
  912MPD2    H113410   4.250   3.887  15.987 -2.7487 -0.1731  0.9336
  912MPD2    H213411   4.170   4.286  15.864  1.7966  1.4328  0.1626
  912MPD2    H313412   4.188   4.054  15.826  2.2157 -0.2232 -0.3800
  912MPD2     N13413   4.328   3.950  16.251 -0.3818  0.4534 -0.3248
  912MPD2    H513414   4.369   4.005  16.325  0.2359  1.3760 -1.3449
  912MPD2    N113415   4.205   4.401  16.095  0.4318  0.3284  0.3923
  912MPD2    H713416   4.206   4.465  16.016 -0.1885  1.9731  1.7339
  913MPD2     C13417   0.351   0.620   9.869  0.1016 -0.2426 -0.0435
  913MPD2    C113418   0.462   0.622   9.946 -0.1690  0.0651  0.2304
  913MPD2    C213419   0.550   0.733   9.938  0.0872  0.5534 -0.4988
  913MPD2    C313420   0.525   0.832   9.844  0.1884  0.0305  0.6260
  913MPD2    C413421   0.408   0.836   9.767  0.4391  0.2772 -0.0229
  913MPD2    C513422   0.325   0.724   9.778 -0.2099  0.0840  0.0519
  913MPD2     H13423   0.642   0.746   9.994  0.6780 -1.8404 -0.9550
  913MPD2    H113424   0.395   0.923   9.704 -0.5569  0.4412  0.4108
  913MPD2    H213425   0.287   0.533   9.867 -0.9787  0.5684 -0.8571
  913MPD2    H313426   0.240   0.705   9.713  0.2130 -1.0374 -0.1850
  913MPD2     N13427   0.612   0.941   9.822  0.3429  0.4583 -0.7205
  913MPD2    H513428   0.602   0.993   9.736 -0.8359  1.5286  0.0444
  913MPD2    N113429   0.482   0.507  10.021  0.0240  0.0035  0.2938
  913MPD2    H713430   0.413   0.433  10.020  0.2045 -0.1299 -2.9681
  914MPD2     C13431   3.742   1.226  12.223 -0.1025 -0.4917  0.0420
  914MPD2    C113432   3.682   1.278  12.328  0.3549  0.8069  0.0189
  914MPD2    C213433   3.691   1.203  12.450  0.0233  0.4230 -0.0359
  914MPD2    C313434   3.744   1.076  12.461 -0.7687 -0.6347  0.3840
  914MPD2    C413435   3.794   1.026  12.345 -0.2267  0.3564  0.2997
  914MPD2    C513436   3.789   1.100  12.229 -0.1916  0.2967 -0.2710
  914MPD2     H13437   3.641   1.245  12.537  1.0969 -2.0950  1.7818
  914MPD2    H113438   3.835   0.926  12.344  2.9462  1.6706 -0.2568
  914MPD2    H213439   3.728   1.263  12.123  3.7139  1.7126  0.3331
  914MPD2    H313440   3.840   1.055  12.145  0.3314 -2.4916  1.5598
  914MPD2     N13441   3.726   1.009  12.587  0.7996 -0.8676 -0.2742
  914MPD2    H513442   3.698   1.056  12.672  0.1921 -1.3282 -0.2290
  914MPD2    N113443   3.606   1.402  12.313 -0.0571 -0.2704 -0.4448
  914MPD2    H713444   3.615   1.446  12.222  0.3498 -2.0395 -1.2802
  915MPD2     C13445   1.474   0.587  15.612 -0.0040 -0.3257  0.0839
  915MPD2    C113446   1.342   0.589  15.578 -0.4139  0.5262  0.7864
  915MPD2    C213447   1.252   0.600  15.682  0.8632  0.7139  0.3519
  915MPD2    C313448   1.298   0.615  15.812  0.5917 -0.0424 -0.1335
  915MPD2    C413449   1.429   0.613  15.845 -0.2957 -0.2834 -0.1019
  915MPD2    C513450   1.515   0.584  15.739 -0.6717 -0.1198  0.5641
  915MPD2     H13451   1.147   0.613  15.656  0.5952 -0.1629  1.0148
  915MPD2    H113452   1.464   0.611  15.948 -1.3057  0.9104  0.2705
  915MPD2    H213453   1.556   0.568  15.543  2.2633  0.9559  2.4132
  915MPD2    H313454   1.621   0.572  15.757 -0.1708  0.9200 -1.6578
  915MPD2     N13455   1.192   0.641  15.902 -0.5329  0.6645 -0.0412
  915MPD2    H513456   1.096   0.655  15.872 -1.0020 -1.7719  0.3539
  915MPD2    N113457   1.311   0.580  15.438 -0.0072 -0.2794 -0.1169
  915MPD2    H713458   1.390   0.588  15.376  0.6640 -0.0558  0.7675
  916MPD2     C13459   4.057   3.728  15.827  0.5413 -0.3395  0.6530
  916MPD2    C113460   4.020   3.615  15.895 -0.6161  0.3116 -0.5984
  916MPD2    C213461   4.064   3.498  15.851 -0.6419  0.1453  0.1456
  916MPD2    C313462   4.140   3.489  15.733 -0.2634  0.9473 -0.1161
  916MPD2    C413463   4.177   3.606  15.668  0.5298  0.5141 -0.5124
  916MPD2    C513464   4.136   3.728  15.721 -0.2492  0.3982 -0.4562
  916MPD2     H13465   4.025   3.407  15.895  1.3528 -0.7815 -0.0133
  916MPD2    H113466   4.211   3.604  15.565  0.5904  2.0814 -0.5168
  916MPD2    H213467   4.022   3.826  15.857  0.5323  0.0085 -0.4895
  916MPD2    H313468   4.152   3.822  15.669  0.8620  0.6514  0.3608
  916MPD2     N13469   4.173   3.355  15.689 -0.2141  0.0341 -0.3542
  916MPD2    H513470   4.113   3.280  15.722 -1.4630  0.8410 -0.8046
  916MPD2    N113471   3.930   3.632  16.004 -0.5352  0.2099  0.3070
  916MPD2    H713472   3.891   3.725  16.010 -1.6049 -0.1535 -1.0072
  917MPD2     C13473   4.401   1.372  11.033 -0.0277 -0.3255  0.4160
  917MPD2    C113474   4.419   1.465  11.134 -0.8366  0.2711 -0.1583
  917MPD2    C213475   4.525   1.558  11.114  0.5655  0.0768 -0.4605
  917MPD2    C313476   4.595   1.571  10.995 -0.6899  0.4669  0.4990
  917MPD2    C413477   4.569   1.485  10.893 -0.1881 -0.2764  0.1835
  917MPD2    C513478   4.484   1.384  10.922  0.6338  0.7623 -0.3766
  917MPD2     H13479   4.540   1.638  11.186  0.0982 -0.5459  0.3284
  917MPD2    H113480   4.626   1.483  10.801 -0.9649 -1.5595 -0.2751
  917MPD2    H213481   4.337   1.285  11.047 -0.0025 -0.2053  1.2782
  917MPD2    H313482   4.479   1.306  10.846  1.6929  0.8494 -0.5355
  917MPD2     N13483   4.686   1.676  10.970  0.5647 -0.1319  0.2866
  917MPD2    H513484   0.001   1.661  10.885 -3.1753 -0.2587 -2.0584
  917MPD2    N113485   4.359   1.453  11.261 -0.6798 -0.1163  0.2691
  917MPD2    H713486   4.298   1.375  11.281  0.3058 -1.0492 -0.3226
  918MPD2     C13487   4.607   1.759  12.186 -0.3926 -0.1464  0.4661
  918MPD2    C113488   4.646   1.625  12.142 -0.5244  0.1690 -0.5822
  918MPD2    C213489   4.574   1.567  12.041  0.3441  0.0781 -0.4533
  918MPD2    C313490   4.464   1.626  11.987 -0.4289  0.1406 -1.4925
  918MPD2    C413491   4.429   1.752  12.033  0.5605 -0.0607  0.2581
  918MPD2    C513492   4.495   1.815  12.131 -0.1355 -0.0003 -0.3890
  918MPD2     H13493   4.620   1.477  12.002 -0.9996 -0.4690 -0.7400
  918MPD2    H113494   4.337   1.793  11.993 -0.6884 -1.0361  2.1308
  918MPD2    H213495   4.660   1.815  12.262  0.6000  0.8606 -0.9585
  918MPD2    H313496   4.467   1.916  12.158 -1.7096 -0.4540 -0.3451
  918MPD2     N13497   4.404   1.556  11.880 -0.6641  0.0823 -0.9470
  918MPD2    H513498   4.449   1.469  11.852 -3.4953 -0.9365 -2.2588
  918MPD2    N113499   0.015   1.554  12.194  0.3031  0.6117 -0.1688
  918MPD2    H713500   0.027   1.459  12.162  0.4706  0.6060 -0.0876
  919MPD2     C13501   0.238   0.566  11.765 -0.1642  0.7679 -0.2027
  919MPD2    C113502   0.239   0.447  11.688  0.4043 -0.6356 -0.3404
  919MPD2    C213503   0.239   0.459  11.549  0.0898 -0.4008 -0.3781
  919MPD2    C313504   0.251   0.584  11.486 -0.2223 -0.5887 -0.4470
  919MPD2    C413505   0.247   0.696  11.574 -0.0541 -0.6263  0.3281
  919MPD2    C513506   0.244   0.688  11.710  0.4316  0.2495  0.0365
  919MPD2     H13507   0.255   0.365  11.495  0.8218 -0.3721 -0.2194
  919MPD2    H113508   0.252   0.796  11.534  1.0405 -0.8121 -0.0080
  919MPD2    H213509   0.254   0.565  11.872 -2.7963  1.2705  0.1943
  919MPD2    H313510   0.249   0.778  11.771 -3.1231  0.6235 -0.2133
  919MPD2     N13511   0.243   0.602  11.345  0.2978  0.0158  0.6889
  919MPD2    H513512   0.250   0.697  11.312 -2.5164  0.1580  0.4921
  919MPD2    N113513   0.254   0.315  11.729  0.3748  0.0285  0.0958
  919MPD2    H713514   0.226   0.249  11.658  2.9859  0.3747 -1.2490
  920MPD2     C13515   4.736   1.258  10.665 -0.0139 -0.7240 -0.0037
  920MPD2    C113516   4.637   1.161  10.669  0.9080  0.2572  0.1756
  920MPD2    C213517   4.655   1.045  10.741  0.0789  0.0531 -0.5001
  920MPD2    C313518   0.033   1.025  10.808 -0.7359  0.5584 -0.4375
  920MPD2    C413519   0.128   1.117  10.791  0.0342 -0.4206  0.4097
  920MPD2    C513520   0.116   1.232  10.721  0.0956  0.2245  0.0336
  920MPD2     H13521   4.575   0.973  10.754  0.4629  0.1762  2.6147
  920MPD2    H113522   0.221   1.103  10.845  0.2187  1.3810  0.5403
  920MPD2    H213523   4.731   1.346  10.601 -0.2019 -0.5379  0.2679
  920MPD2    H313524   0.200   1.301  10.719 -1.7666  2.5328  1.6463
  920MPD2     N13525   0.047   0.899  10.872 -0.3326 -0.1448 -0.2921
  920MPD2    H513526   4.711   0.831  10.859 -1.0808  0.7899 -0.8938
  920MPD2    N113527   4.521   1.180  10.588 -0.6702  0.1726 -0.2712
  920MPD2    H713528   4.450   1.107  10.591  0.4130 -0.7597  2.4398
  921MPD2     C13529   0.974   4.713  16.786  0.2837  0.1229 -0.0003
  921MPD2    C113530   1.011   4.589  16.819  0.1408 -0.5083 -0.1639
  921MPD2    C213531   0.910   4.493  16.795 -0.5040 -0.0593 -0.0091
  921MPD2    C313532   0.796   4.514  16.718  0.0794 -0.6746  0.0499
  921MPD2    C413533   0.755   4.645  16.694 -0.2619 -0.8870  0.0795
  921MPD2    C513534   0.848   0.001  16.734  0.1307  0.6968 -0.5308
  921MPD2     H13535   0.927   4.393  16.836 -1.8848 -0.4442 -0.3783
  921MPD2    H113536   0.660   4.676  16.652 -0.5049 -0.9389  0.5961
  921MPD2    H213537   1.048   0.053  16.796 -0.7926  1.2765 -1.3465
  921MPD2    H313538   0.813   0.101  16.709  0.9737  1.0819 -0.1805
  921MPD2     N13539   0.717   4.399  16.672  0.5120  0.1384 -0.0183
  921MPD2    H513540   0.627   4.420  16.630  0.5104 -0.4814 -0.3199
  921MPD2    N113541   1.144   4.552  16.850 -0.0454  0.3912  0.3797
  921MPD2    H713542   1.219   4.615  16.821  0.2938  0.3892  1.2470
  922MPD2     C13543   1.959   2.170  17.495 -0.2398  0.2326 -0.3530
  922MPD2    C113544   1.984   2.131  17.624 -0.3361  0.0051  0.1824
  922MPD2    C213545   1.943   2.004  17.669  0.2873 -0.1458 -0.3154
  922MPD2    C313546   1.867   1.925  17.586 -0.2321  0.8166  0.2670
  922MPD2    C413547   1.835   1.967  17.459 -0.0804  0.3332 -0.2462
  922MPD2    C513548   1.876   2.095  17.419 -0.1313  0.6593  0.4328
  922MPD2     H13549   1.989   1.969   0.007  0.5049 -1.2659 -0.8572
  922MPD2    H113550   1.785   1.910  17.381  2.6246 -0.6083 -1.3017
  922MPD2    H213551   2.007   2.260  17.460  0.1621 -0.7538 -2.3244
  922MPD2    H313552   1.855   2.131  17.319 -0.4430  0.3101  0.3710
  922MPD2     N13553   1.828   1.804  17.643  0.7325 -0.2610 -0.5881
  922MPD2    H513554   1.853   1.771  17.735 -0.9988  1.8542  0.6163
  922MPD2    N113555   2.078   2.203  17.708 -0.3619  0.6085 -0.2468
  922MPD2    H713556   2.104   2.159   0.042  0.5189 -0.7394 -1.1920
  923MPD2     C13557   4.208   3.663   9.936  0.0164 -0.0491  0.2562
  923MPD2    C113558   4.199   3.802   9.923 -0.1629  1.2666 -0.0005
  923MPD2    C213559   4.258   3.878  10.024  0.3581 -0.0023  0.3013
  923MPD2    C313560   4.318   3.811  10.128  0.0769  0.6555  0.6053
  923MPD2    C413561   4.312   3.676  10.146  0.8469  0.2774 -0.6609
  923MPD2    C513562   4.257   3.599  10.041 -0.1723 -0.5452  0.2088
  923MPD2     H13563   4.254   3.986  10.018  2.3696  0.0591  0.1379
  923MPD2    H113564   4.343   3.628  10.238  0.0335  1.2613  0.1234
  923MPD2    H213565   4.174   3.597   9.858  0.1694 -0.8834  0.9011
  923MPD2    H313566   4.252   3.494  10.063  0.2531 -0.8389 -1.0826
  923MPD2     N13567   4.379   3.880  10.237 -0.1564  0.0045  0.4511
  923MPD2    H513568   4.413   3.820  10.312  0.7600 -1.2221 -0.9546
  923MPD2    N113569   4.138   3.850   9.804 -0.0387  0.5659 -0.1714
  923MPD2    H713570   4.114   3.778   9.737  0.6656  0.9702 -0.8679
  924MPD2     C13571   3.140   1.608  16.764 -0.0821 -0.9451  0.3050
  924MPD2    C113572   3.112   1.683  16.655  0.2337 -0.2879  0.0000
  924MPD2    C213573   3.104   1.820  16.645 -0.3511 -0.4247  0.0143
  924MPD2    C313574   3.119   1.891  16.767 -0.2400 -0.0829 -0.2014
  924MPD2    C413575   3.137   1.815  16.881 -0.4132 -0.3745 -0.4619
  924MPD2    C513576   3.155   1.677  16.884  0.4260  0.6169 -0.0818
  924MPD2     H13577   3.079   1.857  16.546  1.1251 -1.8337 -0.8778
  924MPD2    H113578   3.151   1.870  16.973 -0.3110 -2.1588  0.5773
  924MPD2    H213579   3.169   1.504  16.763 -2.0652 -1.4854 -0.3212
  924MPD2    H313580   3.182   1.632  16.978  2.2627  1.9019 -0.0136
  924MPD2     N13581   3.112   2.031  16.779 -0.4746  0.5041  0.3569
  924MPD2    H513582   3.130   2.077  16.867 -0.8054 -0.5545  0.9806
  924MPD2    N113583   3.097   1.602  16.538 -0.1400 -0.3242  0.0448
  924MPD2    H713584   3.129   1.505  16.543  0.6715  0.0023  1.3388
  925MPD2     C13585   1.850   0.163  14.685 -0.0102  0.4597  0.3674
  925MPD2    C113586   1.848   0.026  14.661 -0.2567 -0.6567  0.5290
  925MPD2    C213587   1.768   4.678  14.746 -0.4768 -0.0276  0.1274
  925MPD2    C313588   1.681   4.730  14.834  0.5808  0.3115 -0.3935
  925MPD2    C413589   1.689   0.128  14.858  0.2868 -0.0683  0.0619
  925MPD2    C513590   1.776   0.207  14.792  0.3329  0.3363 -0.2311
  925MPD2     H13591   1.752   4.576  14.714  1.8173 -1.0712  2.3205
  925MPD2    H113592   1.619   0.172  14.928 -0.7726  0.4382 -1.3118
  925MPD2    H213593   1.902   0.237  14.624 -0.3550  0.4760  0.0899
  925MPD2    H313594   1.760   0.315  14.796 -0.9031  0.1475 -0.0400
  925MPD2     N13595   1.587   4.657  14.915  0.1338  0.2045  0.1360
  925MPD2    H513596   1.510   4.700  14.965  2.9094  1.4560  3.3357
  925MPD2    N113597   1.923   4.700  14.558 -0.3185  0.1351  0.2420
  925MPD2    H713598   1.915   4.600  14.542  1.1067  0.3007 -1.4805
  926MPD2     C13599   0.618   2.971  13.988 -0.2968  0.6531  0.0186
  926MPD2    C113600   0.589   3.088  13.925 -0.1546  0.1061  0.2616
  926MPD2    C213601   0.668   3.122  13.819  0.6908 -0.1690 -0.3100
  926MPD2    C313602   0.770   3.039  13.772  0.7492 -0.4420  0.0308
  926MPD2    C413603   0.789   2.920  13.837 -0.4829  0.1845  0.0183
  926MPD2    C513604   0.718   2.891  13.943  0.4129 -0.0458  0.4599
  926MPD2     H13605   0.637   3.216  13.774 -2.5266 -1.2007 -0.2541
  926MPD2    H113606   0.870   2.852  13.812 -1.2719 -0.9265  0.4597
  926MPD2    H213607   0.562   2.942  14.077 -1.6957  1.1167 -0.7126
  926MPD2    H313608   0.741   2.799  13.997  2.7034  0.1322 -0.2173
  926MPD2     N13609   0.823   3.057  13.646  0.2497  0.1524  0.2630
  926MPD2    H513610   0.878   2.980  13.608 -1.9704 -0.4088 -1.7966
  926MPD2    N113611   0.484   3.176  13.962 -0.0304 -0.0821 -0.0649
  926MPD2    H713612   0.487   3.261  13.906  0.2078  0.6345  1.0438
  927MPD2     C13613   0.919   4.620   0.860  1.7942  0.3559 -0.0646
  927MPD2    C113614   0.862   4.654   0.736 -0.2933 -0.1787  0.7257
  927MPD2    C213615   0.910   0.028   0.673 -0.5835 -0.4699 -0.6068
  927MPD2    C313616   0.993   0.112   0.732  0.3605 -0.4735  0.8518
  927MPD2    C413617   1.052   0.075   0.849 -0.0800  0.0375  0.2322
  927MPD2    C513618   1.007   4.708   0.918  0.0283 -0.4354  0.3923
  927MPD2     H13619   0.873   0.053   0.575 -0.3248 -0.6597 -0.7524
  927MPD2    H113620   1.133   0.132   0.895  1.5585 -0.7201 -1.7332
  927MPD2    H213621   0.889   4.533   0.917  1.2142  0.9638  0.5509
  927MPD2    H313622   1.057   4.678   1.010 -0.5196  0.2904  0.9272
  927MPD2     N13623   1.024   0.229   0.664  0.8374 -0.0394  0.4663
  927MPD2    H513624   0.985   0.239   0.570 -1.8162  0.9133  1.6631
  927MPD2    N113625   0.758   4.571   0.687  0.0044 -0.3219  0.0086
  927MPD2    H713626   0.733   4.495   0.749  1.4345 -0.1645  0.7921
  928MPD2     C13627   2.958   3.648   0.262  0.0487 -0.0637  0.4602
  928MPD2    C113628   3.064   3.681   0.340  0.7653  0.4352 -0.2435
  928MPD2    C213629   3.192   3.663   0.288  0.2782 -0.2823  0.4310
  928MPD2    C313630   3.214   3.621   0.154 -0.0158  0.6315  0.0078
  928MPD2    C413631   3.103   3.589   0.073  0.0656 -0.2515 -0.1002
  928MPD2    C513632   2.979   3.602   0.131 -0.5898  0.2440 -0.0607
  928MPD2     H13633   3.279   3.694   0.344 -0.6476 -0.5031  1.9775
  928MPD2    H113634   3.109   3.553  17.725 -0.2214 -1.5305  0.3348
  928MPD2    H213635   2.859   3.665   0.303 -0.3618  0.6472 -0.8343
  928MPD2    H313636   2.895   3.577   0.067 -1.3142  0.5488  0.7662
  928MPD2     N13637   3.342   3.605   0.094 -0.4783 -0.4755  1.1884
  928MPD2    H513638   3.340   3.586  17.749  0.2614 -0.9903  1.2716
  928MPD2    N113639   3.032   3.722   0.466 -0.2402  0.0521 -0.5467
  928MPD2    H713640   2.939   3.758   0.484 -1.0039 -1.5086 -1.3581
  929MPD2     C13641   3.868   3.905  10.766 -0.7619  0.0397 -0.0823
  929MPD2    C113642   3.823   3.800  10.686 -0.6338 -0.0424  0.5154
  929MPD2    C213643   3.772   3.836  10.562  0.0755  0.6557 -0.4002
  929MPD2    C313644   3.766   3.969  10.521  0.0043 -0.3134 -0.2965
  929MPD2    C413645   3.828   4.067  10.595 -0.2105  0.3339 -0.3668
  929MPD2    C513646   3.878   4.038  10.716 -0.9133  0.2776 -0.0841
  929MPD2     H13647   3.721   3.757  10.507  0.2337 -0.8695  1.6656
  929MPD2    H113648   3.850   4.167  10.560  2.0808 -0.4877 -1.2298
  929MPD2    H213649   3.906   3.889  10.866 -1.2767  1.3562  0.3261
  929MPD2    H313650   3.914   4.119  10.779  1.2999 -0.7653 -0.0083
  929MPD2     N13651   3.706   4.013  10.406 -0.2436  0.1197  0.0232
  929MPD2    H513652   3.714   4.112  10.386  1.6700 -0.0743 -0.2421
  929MPD2    N113653   3.814   3.672  10.750 -0.1688 -0.3915 -0.2119
  929MPD2    H713654   3.848   3.663  10.845  1.9767  0.8780 -0.8642
  930MPD2     C13655   0.101   1.704  13.910 -0.1578 -0.7105 -0.0577
  930MPD2    C113656   0.229   1.648  13.895 -0.5305  0.2483 -0.4881
  930MPD2    C213657   0.263   1.585  13.778  0.4628 -0.3599 -0.3937
  930MPD2    C313658   0.175   1.587  13.674  0.2015 -0.2172 -0.5601
  930MPD2    C413659   0.050   1.634  13.685  0.0493 -0.5035 -0.5284
  930MPD2    C513660   0.012   1.690  13.807 -0.2535  0.2731  0.3657
  930MPD2     H13661   0.368   1.567  13.753  1.3239  1.3452  2.0335
  930MPD2    H113662   4.715   1.638  13.606 -1.4832  0.5384  0.9504
  930MPD2    H213663   0.065   1.748  14.002  1.5138  0.8065 -0.1280
  930MPD2    H313664   4.661   1.750  13.816  0.3612  1.1897  0.3881
  930MPD2     N13665   0.207   1.558  13.542  0.6501 -0.6083 -0.3666
  930MPD2    H513666   0.139   1.591  13.474  2.2859  0.9762 -1.2134
  930MPD2    N113667   0.322   1.671  14.000  0.4085  0.1809  0.1658
  930MPD2    H713668   0.305   1.748  14.063  1.0098  1.9801 -1.8575
  931MPD2     C13669   0.683   3.936   0.841 -0.0279  0.1208 -0.7362
  931MPD2    C113670   0.573   4.021   0.846 -0.0519 -1.1315  0.4185
  931MPD2    C213671   0.488   4.009   0.955  0.3031  0.3615  0.0750
  931MPD2    C313672   0.499   3.892   1.039 -0.7524 -0.4128 -0.2372
  931MPD2    C413673   0.603   3.806   1.017 -0.9216 -0.6923 -0.8607
  931MPD2    C513674   0.700   3.829   0.921 -0.6765 -0.1241 -0.6578
  931MPD2     H13675   0.401   4.073   0.967 -0.9662 -1.3990  0.2268
  931MPD2    H113676   0.614   3.713   1.073 -0.4517 -0.2744 -0.2593
  931MPD2    H213677   0.755   3.945   0.760  1.1559  0.4606  0.3543
  931MPD2    H313678   0.784   3.762   0.905 -1.0375 -0.5630 -0.7310
  931MPD2     N13679   0.414   3.865   1.156  0.3144  0.0678  0.7087
  931MPD2    H513680   0.450   3.788   1.212 -2.7189 -1.7339  0.1603
  931MPD2    N113681   0.568   4.125   0.750 -0.1597  0.6204 -0.5303
  931MPD2    H713682   0.645   4.135   0.684  0.6779  0.4796  0.4238
  932MPD2     C13683   1.941   4.634  11.540  0.5029  0.1872  0.0824
  932MPD2    C113684   2.054   4.649  11.466 -0.0681 -0.8576 -0.1861
  932MPD2    C213685   2.133   4.539  11.436 -0.1664 -0.6079 -0.0949
  932MPD2    C313686   2.098   4.413  11.490  0.1010  0.1437 -0.2665
  932MPD2    C413687   1.996   4.410  11.581  0.1898  0.3325  0.0431
  932MPD2    C513688   1.914   4.516  11.597  0.7395  0.2121 -0.0802
  932MPD2     H13689   2.225   4.547  11.379  2.4117 -1.4801  3.9178
  932MPD2    H113690   1.962   4.313  11.616  0.6329  0.0264 -0.3783
  932MPD2    H213691   1.860   4.706  11.550  0.3789 -0.1971  1.7144
  932MPD2    H313692   1.820   4.506  11.650  0.9721 -0.9570  0.1105
  932MPD2     N13693   2.167   4.291  11.475  0.6260 -0.0521  0.5776
  932MPD2    H513694   2.139   4.216  11.538  3.7652 -0.2119  1.7698
  932MPD2    N113695   2.093   0.036  11.407 -0.1219  0.5551 -0.1073
  932MPD2    H713696   2.170   0.029  11.341 -0.8301 -0.8489 -0.7858
  933MPD2     C13697   2.602   4.092   1.123  0.7826 -0.7722 -0.5110
  933MPD2    C113698   2.628   4.069   0.989  0.6726  0.8690 -0.2710
  933MPD2    C213699   2.559   4.143   0.894 -0.0798 -0.4541 -0.5903
  933MPD2    C313700   2.471   4.240   0.934 -0.0831 -0.1049  0.2736
  933MPD2    C413701   2.444   4.256   1.071  0.0648 -0.4513  0.3656
  933MPD2    C513702   2.504   4.178   1.159 -0.8139 -0.0770 -0.4763
  933MPD2     H13703   2.592   4.125   0.793 -0.3932  0.1001 -0.7913
  933MPD2    H113704   2.382   4.338   1.104 -0.2383 -0.5695  0.0976
  933MPD2    H213705   2.658   4.035   1.198 -1.6978 -2.0885  0.3367
  933MPD2    H313706   2.492   4.202   1.264 -1.0165  1.0889 -0.7749
  933MPD2     N13707   2.418   4.320   0.832 -0.3704  0.7957  0.6019
  933MPD2    H513708   2.450   4.294   0.739  0.5385  0.3002  1.0533
  933MPD2    N113709   2.723   3.971   0.961 -0.5159  0.4243  0.2495
  933MPD2    H713710   2.772   3.929   1.040 -3.1224  0.0754  1.6693
  934MPD2     C13711   4.605   0.668   1.540 -0.0420 -0.9202  0.1211
  934MPD2    C113712   4.639   0.638   1.414  0.4627 -0.3186  0.2611
  934MPD2    C213713   4.541   0.593   1.325 -0.0698 -0.5040 -0.2385
  934MPD2    C313714   4.409   0.580   1.362  0.2009  1.0054  0.1122
  934MPD2    C413715   4.379   0.620   1.492 -0.3886  0.8651  0.1703
  934MPD2    C513716   4.473   0.657   1.577 -0.6536 -0.2146 -0.1537
  934MPD2     H13717   4.565   0.573   1.222 -1.2905  0.0649 -0.6265
  934MPD2    H113718   4.279   0.605   1.529  0.7076 -2.1387  1.9037
  934MPD2    H213719   4.667   0.713   1.618  0.2703  1.7868 -1.6805
  934MPD2    H313720   4.446   0.692   1.676 -1.2627  0.7432 -0.6547
  934MPD2     N13721   4.305   0.524   1.282 -0.1858  0.1800 -0.2076
  934MPD2    H513722   4.216   0.515   1.328  0.2032 -0.1443  0.4828
  934MPD2    N113723   0.030   0.661   1.354  0.0287  0.0047 -0.1912
  934MPD2    H713724   0.054   0.633   1.260  0.8022 -0.3503  0.1075
  935MPD2     C13725   4.419   4.705   0.489  0.0926  0.0077 -0.4590
  935MPD2    C113726   4.288   4.725   0.471  0.1072  0.2182 -0.1664
  935MPD2    C213727   4.228   0.073   0.565 -0.1545  0.5178  0.0342
  935MPD2    C313728   4.309   0.142   0.658  0.7273 -0.6111  0.5030
  935MPD2    C413729   4.442   0.118   0.669  0.3368  0.0251  0.6973
  935MPD2    C513730   4.498   0.026   0.585  0.2576  0.9148 -0.4275
  935MPD2     H13731   4.123   0.099   0.559  0.1782  1.8487 -0.0041
  935MPD2    H113732   4.507   0.165   0.742  0.3518 -0.6945  1.1483
  935MPD2    H213733   4.467   4.652   0.407 -0.0694 -0.1485 -0.4542
  935MPD2    H313734   4.603   0.002   0.580  0.2187  0.5229  0.5577
  935MPD2     N13735   4.252   0.233   0.752 -0.8029  0.6064 -0.9219
  935MPD2    H513736   4.316   0.268   0.823  0.8098  0.1722 -2.1664
  935MPD2    N113737   4.197   4.668   0.372 -0.0042  0.5649 -0.0691
  935MPD2    H713738   4.101   4.693   0.393 -0.4962 -0.7306 -0.7730
  936MPD2     C13739   2.650   2.806  12.273  0.2882  0.1493  0.4378
  936MPD2    C113740   2.661   2.876  12.390  0.0311  0.1394 -0.6496
  936MPD2    C213741   2.733   2.998  12.387 -0.1207 -0.5651  0.6878
  936MPD2    C313742   2.813   3.031  12.282  0.6104  0.5032  0.3980
  936MPD2    C413743   2.805   2.955  12.167  0.0295 -0.3885  0.3172
  936MPD2    C513744   2.717   2.852  12.161  0.7045 -0.1766  0.5277
  936MPD2     H13745   2.737   3.062  12.475 -0.9267 -0.0818  0.3673
  936MPD2    H113746   2.864   2.961  12.076  0.0488 -0.2887  0.3369
  936MPD2    H213747   2.590   2.715  12.273  0.2919  0.1427 -3.3310
  936MPD2    H313748   2.712   2.782  12.079  0.2641 -1.0631  1.3211
  936MPD2     N13749   2.915   3.126  12.306 -0.8476  0.8411 -0.3823
  936MPD2    H513750   2.919   3.163  12.401  0.5481  1.2459 -0.5910
  936MPD2    N113751   2.591   2.834  12.510  0.3836 -0.4660  0.6600
  936MPD2    H713752   2.621   2.879  12.596 -1.5830  2.0377  0.0207
  937MPD2     C13753   0.587   4.468  11.451 -0.1278  0.2792  0.1710
  937MPD2    C113754   0.588   4.602  11.487  0.4809  0.2176  0.6742
  937MPD2    C213755   0.660   4.691  11.410 -0.2732  0.2770  0.6768
  937MPD2    C313756   0.743   4.644  11.309 -0.3610 -0.2560 -0.4943
  937MPD2    C413757   0.750   4.507  11.286 -0.4711  0.1548  0.1506
  937MPD2    C513758   0.672   4.418  11.352  0.0041  0.5071  0.5296
  937MPD2     H13759   0.657   0.058  11.431  0.4804  0.3735  0.3047
  937MPD2    H113760   0.819   4.476  11.208  0.6788  0.7685  0.9159
  937MPD2    H213761   0.545   4.387  11.510 -2.6536  1.4078 -0.0574
  937MPD2    H313762   0.682   4.313  11.329 -1.3870  0.8082 -1.4325
  937MPD2     N13763   0.809   0.010  11.242  0.1100  0.3559 -0.3305
  937MPD2    H513764   0.794   0.106  11.272 -1.0591  0.8173 -2.3697
  937MPD2    N113765   0.506   4.656  11.584 -0.0735  0.4701  0.1907
  937MPD2    H713766   0.524   0.015  11.605 -0.3672  0.5572  0.0445
  938MPD2     C13767   3.215   0.466   0.365 -0.1348 -0.1500  0.5595
  938MPD2    C113768   3.237   0.513   0.492 -0.1612  0.5227  0.0936
  938MPD2    C213769   3.172   0.473   0.603  1.0672 -0.3580  0.3902
  938MPD2    C313770   3.085   0.366   0.593 -0.0779 -0.8157 -0.3634
  938MPD2    C413771   3.070   0.312   0.468 -0.0104  0.2138 -0.0464
  938MPD2    C513772   3.122   0.367   0.356  0.1908 -0.2024 -0.0918
  938MPD2     H13773   3.191   0.521   0.698 -0.1853 -2.3779  1.6627
  938MPD2    H113774   3.001   0.229   0.457 -1.8058  1.9626 -2.1589
  938MPD2    H213775   3.260   0.512   0.278 -1.1535  0.1076  0.1629
  938MPD2    H313776   3.101   0.326   0.257  0.4857  0.0604 -0.2638
  938MPD2     N13777   3.024   0.307   0.705 -0.1330  0.2285 -0.2051
  938MPD2    H513778   2.966   0.224   0.698  1.4411 -0.7950 -1.0268
  938MPD2    N113779   3.326   0.630   0.509  0.2194  1.0891  0.3559
  938MPD2    H713780   3.338   0.664   0.604 -1.8848 -1.2919  1.4575
  939MPD2     C13781   0.222   1.782  17.418 -0.7859  0.2728  0.1653
  939MPD2    C113782   0.137   1.872  17.474  0.3731 -0.6109 -0.2166
  939MPD2    C213783   0.172   2.005  17.480  0.1348 -0.0274  0.0391
  939MPD2    C313784   0.298   2.048  17.445  0.1241 -0.0689  0.2433
  939MPD2    C413785   0.390   1.951  17.408 -0.1828  0.6034 -0.0937
  939MPD2    C513786   0.353   1.819  17.397 -0.2839 -0.2117 -0.2777
  939MPD2     H13787   0.100   2.078  17.513 -0.2010 -0.5749  0.5292
  939MPD2    H113788   0.487   1.980  17.370 -0.0671  0.0505 -0.2108
  939MPD2    H213789   0.208   1.676  17.403  1.4236 -0.1848  1.4398
  939MPD2    H313790   0.423   1.747  17.355 -0.0061  0.8479 -1.6116
  939MPD2     N13791   0.332   2.185  17.442 -0.1845 -0.0569 -0.2728
  939MPD2    H513792   0.254   2.249  17.451 -0.3092 -0.1966 -0.3624
  939MPD2    N113793   0.006   1.820  17.499 -0.2349 -0.0340  0.1445
  939MPD2    H713794   4.727   1.721  17.484 -3.4293  0.3906  1.0701
  940MPD2     C13795   3.560   2.884  12.804 -0.2281  0.1071  0.5918
  940MPD2    C113796   3.459   2.839  12.890  0.1720 -0.3865  0.6509
  940MPD2    C213797   3.368   2.745  12.847  0.0466 -0.0358  0.1359
  940MPD2    C313798   3.359   2.700  12.713 -0.6144  0.5642 -0.1808
  940MPD2    C413799   3.464   2.745  12.630  0.0247 -0.0707 -0.2875
  940MPD2    C513800   3.559   2.838  12.674 -0.0240  0.2901 -0.0403
  940MPD2     H13801   3.291   2.724  12.920  1.9272 -0.8358  1.8726
  940MPD2    H113802   3.465   2.711  12.528  2.5106 -0.0615 -0.2627
  940MPD2    H213803   3.640   2.950  12.835 -1.5012  1.0245  1.9084
  940MPD2    H313804   3.642   2.862  12.608 -0.4266 -0.9443 -0.9958
  940MPD2     N13805   3.278   2.596  12.662  0.5816 -0.8590  0.1152
  940MPD2    H513806   3.298   2.558  12.570 -0.0942  0.7346 -0.6892
  940MPD2    N113807   3.452   2.870  13.026  0.2379 -0.0843 -0.1211
  940MPD2    H713808   3.400   2.807  13.087 -2.0610  0.6150 -1.3540
  941MPD2     C13809   2.426   2.740   9.610  0.0526 -0.1055  0.4855
  941MPD2    C113810   2.505   2.702   9.721 -0.0564  0.1961 -0.0335
  941MPD2    C213811   2.450   2.610   9.818 -0.6940 -0.1133 -0.1452
  941MPD2    C313812   2.325   2.553   9.794 -0.0643  0.1987 -0.2012
  941MPD2    C413813   2.246   2.610   9.688 -0.4470  0.4024 -0.0989
  941MPD2    C513814   2.301   2.698   9.604 -0.1950 -0.4241 -0.2195
  941MPD2     H13815   2.508   2.588   9.907 -0.5072  2.5729  0.4017
  941MPD2    H113816   2.150   2.575   9.653 -0.6969  0.5139  0.4674
  941MPD2    H213817   2.467   2.808   9.536  0.7595 -1.0939 -0.0187
  941MPD2    H313818   2.246   2.734   9.518  0.5193 -1.1082 -0.9592
  941MPD2     N13819   2.266   2.443   9.861 -0.0198  0.2798  0.0173
  941MPD2    H513820   2.167   2.421   9.850  0.3956 -1.0761 -1.0508
  941MPD2    N113821   2.636   2.750   9.757  0.0541  0.0411  0.0753
  941MPD2    H713822   2.669   2.711   9.844 -2.8148 -0.7902  0.8164
  942MPD2     C13823   2.456   0.189   9.718 -0.2474  0.2049 -0.4747
  942MPD2    C113824   2.488   0.100   9.823 -0.1574  0.4207  0.4925
  942MPD2    C213825   2.558   4.724   9.800  0.4591 -0.0388  0.4855
  942MPD2    C313826   2.597   4.695   9.672 -0.1815 -0.3301  0.4497
  942MPD2    C413827   2.568   0.042   9.568  0.5027  0.4576 -0.3102
  942MPD2    C513828   2.492   0.157   9.591  0.2495 -0.4597 -0.2471
  942MPD2     H13829   2.570   4.656   9.884  0.0790  0.1457  0.6865
  942MPD2    H113830   2.611   0.025   9.470  2.0489 -0.0957  0.4600
  942MPD2    H213831   2.399   0.279   9.740 -2.4619 -1.1207 -0.8913
  942MPD2    H313832   2.467   0.221   9.506  3.1342  0.5595 -0.3086
  942MPD2     N13833   2.665   4.577   9.637 -0.4699  0.0040  0.6672
  942MPD2    H513834   2.681   4.564   9.538  0.2876 -1.8138  1.0159
  942MPD2    N113835   2.456   0.137   9.962  0.2686 -0.3129 -0.2657
  942MPD2    H713836   2.478   0.066  10.031  1.7171 -0.0698 -0.4570
  943MPD2     C13837   1.611   2.112   9.790  0.5072  0.0288 -0.1495
  943MPD2    C113838   1.632   2.088   9.921 -0.4599  0.1876 -0.1260
  943MPD2    C213839   1.655   2.195  10.002 -0.8930 -0.5704  0.5847
  943MPD2    C313840   1.651   2.324   9.964 -0.5732 -0.2332 -0.2719
  943MPD2    C413841   1.641   2.342   9.830  0.0082  1.0222  0.5624
  943MPD2    C513842   1.619   2.240   9.747  0.3670  0.4388 -0.3007
  943MPD2     H13843   1.675   2.182  10.108  4.2616  0.0344 -0.2839
  943MPD2    H113844   1.640   2.435   9.774  0.5742  0.2169 -0.7686
  943MPD2    H213845   1.597   2.028   9.723 -2.4024 -0.4981  1.1258
  943MPD2    H313846   1.614   2.252   9.639 -1.9524 -1.3686 -0.4053
  943MPD2     N13847   1.658   2.423  10.064 -0.5397 -0.2840  0.0961
  943MPD2    H513848   1.651   2.398  10.162 -1.1739  0.0477  0.1393
  943MPD2    N113849   1.651   1.955   9.972  0.5133 -0.6860 -0.4218
  943MPD2    H713850   1.631   1.880   9.906  2.1856 -0.8957 -0.7021
  944MPD2     C13851   1.147   0.713  10.995 -0.0611  0.5562 -0.5698
  944MPD2    C113852   1.018   0.672  10.971 -0.7660  0.9095 -0.4919
  944MPD2    C213853   0.930   0.678  11.079 -0.3898 -0.0752  0.2980
  944MPD2    C313854   0.974   0.716  11.205  0.4046  0.0954  0.0489
  944MPD2    C413855   1.104   0.751  11.232 -1.0714  0.4526 -0.1472
  944MPD2    C513856   1.188   0.760  11.123  0.6078 -0.6889  0.6021
  944MPD2     H13857   0.824   0.667  11.058 -0.4375  3.2088 -1.0069
  944MPD2    H113858   1.151   0.763  11.329  0.6259 -0.3512 -0.8862
  944MPD2    H213859   1.218   0.716  10.914  0.2214 -1.3520 -0.3708
  944MPD2    H313860   1.290   0.787  11.144  0.1421  1.5013  0.0089
  944MPD2     N13861   0.879   0.720  11.307 -0.6447 -0.0286 -0.5708
  944MPD2    H513862   0.790   0.676  11.284  0.6485 -1.8071 -2.1544
  944MPD2    N113863   0.981   0.634  10.840 -0.7389 -0.1844 -0.1803
  944MPD2    H713864   1.043   0.664  10.766 -1.2358 -0.9807 -0.9076
    1TMC1    C113865   4.216   2.161  14.357 -0.1695 -0.2870 -0.8252
    1TMC1    C213866   4.218   2.023  14.322  0.2758 -0.2597 -0.6997
    1TMC1    C313867   4.279   1.940  14.400 -0.6325 -0.6395 -0.5722
    1TMC1    C413868   4.300   2.208  14.460 -0.6507  0.1952 -0.1535
    1TMC1    C513869   4.388   2.114  14.515 -0.0288  0.0455  0.1234
    1TMC1    C613870   4.378   1.981  14.487  0.0485  0.2995  0.0387
    1TMC1     C13871   4.125   2.240  14.283  0.1088  0.5758 -0.5417
    1TMC1     O13872   4.069   2.190  14.187  0.9501  0.2654 -0.2016
    1TMC1     H13873   4.150   1.972  14.254 -0.2710  1.5951 -1.5447
    1TMC1    H113874   4.297   2.311  14.493 -2.6239  0.6223 -1.6501
    1TMC1    H213875   4.434   1.905  14.540  2.5216  2.1588  0.1158
    1TMC1    C713876   4.459   2.160  14.635  0.3170 -0.4341 -0.2542
    1TMC1    C813877   4.246   1.799  14.380 -0.5574 -0.1987 -0.4444
    1TMC1    O113878   4.446   2.277  14.673 -0.0527  0.4393 -0.1122
    1TMC1    O213879   4.247   1.756  14.265 -0.3005  0.3410  0.5040
    1TMC1    O313880   4.555   2.077  14.677  0.5283  0.0676  0.1223
    1TMC1    H313881   4.570   1.996  14.624 -2.1171 -0.3403 -0.0178
    1TMC1    O513882   4.288   1.729  14.485  0.9507 -0.2151  0.5166
    1TMC1    H513883   4.284   1.770  14.574 -0.5868 -1.9998  1.2675
    2MPD2     C13884   3.912   2.693  14.176  0.4291  0.2933 -0.5985
    2MPD2    C113885   3.978   2.700  14.294 -0.8665 -0.3207 -0.3751
    2MPD2    C213886   4.044   2.592  14.344  0.1018  0.5805 -0.3819
    2MPD2    C313887   4.045   2.469  14.275  0.1831 -0.0812 -0.4549
    2MPD2    C413888   3.958   2.451  14.171 -0.2532  0.2421 -0.6460
    2MPD2    C513889   3.893   2.564  14.125 -0.7206 -0.6689  0.2207
    2MPD2     H13890   4.114   2.606  14.425 -0.3012  0.5781 -0.0354
    2MPD2    H113891   3.942   2.356  14.122 -2.1226 -0.3146  1.0561
    2MPD2    H213892   3.863   2.774  14.124 -2.1642 -1.0888 -0.2860
    2MPD2    H313893   3.826   2.556  14.040  1.2368  0.4359 -1.4409
    2MPD2     N13894   4.122   2.366  14.332 -0.7442 -0.1215  0.1595
    2MPD2    H513895   4.170   2.380  14.420 -0.8610 -0.8205  0.3337
    2MPD2    N113896   3.976   2.826  14.351  0.2849 -0.0384 -0.3023
    2MPD2    H713897   3.952   2.906  14.293 -1.7306  0.6969  1.5483
    3TMC2    C113898   4.030   2.982  14.525  0.1141  0.0854  0.1393
    3TMC2    C213899   4.019   3.009  14.664 -0.1320  0.4087  0.0943
    3TMC2    C313900   4.076   3.122  14.709  0.0815  0.1545  0.8654
    3TMC2    C413901   4.079   3.072  14.435 -0.3380  0.0016  0.1916
    3TMC2    C513902   4.137   3.186  14.492  0.1587  0.2635  0.2434
    3TMC2    C613903   4.137   3.212  14.623  0.0464 -0.2776 -0.6798
    3TMC2     C13904   3.996   2.842  14.489  0.6493  0.2489 -0.0200
    3TMC2     O13905   3.973   2.763  14.580  0.4022 -0.2747 -0.1566
    3TMC2     H13906   3.980   2.931  14.728  0.2580  0.7528  0.7471
    3TMC2    H113907   4.092   3.044  14.331 -0.7394  0.9319 -0.1077
    3TMC2    H213908   4.180   3.301  14.666 -3.7819  0.2343  2.1114
    3TMC2    C713909   4.203   3.270  14.401 -0.2613 -0.2499 -0.6317
    3TMC2    C813910   4.089   3.130  14.850  0.5797  0.2522 -0.1096
    3TMC2    O113911   4.290   3.346  14.453  0.4818 -0.3659 -0.1103
    3TMC2    O213912   4.090   3.030  14.922 -0.2320  0.0080  0.6527
    3TMC2    O513913   4.024   3.248  14.872  0.1597 -0.0075  0.6222
    3TMC2    H513914   4.031   3.317  14.803 -2.0575  1.9622  2.3831
    4TMC2    C113915   3.704   3.441  13.556  0.0630  1.1421  1.1255
    4TMC2    C213916   3.767   3.506  13.459 -0.4424  0.0110 -0.0612
    4TMC2    C313917   3.904   3.511  13.458  0.2824  0.0821 -0.0125
    4TMC2    C413918   3.773   3.378  13.657  0.3771  0.0215 -0.0392
    4TMC2    C513919   3.907   3.390  13.659 -0.0498 -0.6984  0.4720
    4TMC2    C613920   3.979   3.449  13.558 -0.0939 -0.6938  0.8259
    4TMC2     C13921   3.559   3.419  13.541  0.7231  0.1285  0.1010
    4TMC2     O13922   3.508   3.356  13.633  0.2336  0.7567 -0.1792
    4TMC2     H13923   3.714   3.548  13.375  1.6193  0.5039 -1.1119
    4TMC2    H113924   3.723   3.304  13.718 -0.1132 -0.9547 -1.6105
    4TMC2    H213925   4.080   3.484  13.571  0.5573 -2.5782  0.8177
    4TMC2    C713926   3.964   3.357  13.787 -0.3502  0.3009  0.0364
    4TMC2    C813927   3.969   3.584  13.361 -0.1143 -0.7974  0.7147
    4TMC2    O113928   3.915   3.263  13.848  0.4699  0.4990  0.3808
    4TMC2    O213929   3.914   3.648  13.277  0.4144  0.1921 -0.7321
    4TMC2    O513930   4.098   3.553  13.352 -0.1519  0.1010  0.4023
    4TMC2    H513931   4.125   3.464  13.383  0.4577  1.2185  3.0783
    5MPD2     C13932   3.226   3.276  13.200 -0.2161  0.3176  0.5305
    5MPD2    C113933   3.299   3.379  13.144  0.1607 -0.0986 -0.4375
    5MPD2    C213934   3.386   3.449  13.223  0.4783 -0.2480 -0.1285
    5MPD2    C313935   3.401   3.407  13.353 -0.6029  0.5112  0.0360
    5MPD2    C413936   3.336   3.292  13.401 -0.3343  0.0600  0.0710
    5MPD2    C513937   3.243   3.233  13.325 -0.5457 -0.0270 -0.5699
    5MPD2     H13938   3.432   3.544  13.194  0.7113 -1.2989 -3.1659
    5MPD2    H113939   3.346   3.252  13.502 -1.4446  0.3229  0.2826
    5MPD2    H213940   3.149   3.232  13.137  0.1912 -1.4172  1.2527
    5MPD2    H313941   3.184   3.158  13.375 -2.0983  0.2532 -1.9722
    5MPD2     N13942   3.507   3.464  13.420 -0.1261  1.0461 -0.7259
    5MPD2    H513943   3.558   3.542  13.378  2.8345 -0.9896 -0.9360
    5MPD2    N113944   3.250   3.428  13.023 -1.2910  1.0772 -0.5081
    5MPD2    H713945   3.169   3.380  12.987  0.0050 -0.6667 -1.0721
    6MPD1     C13946   2.685   4.704  13.594  0.4671 -0.0002 -0.5935
    6MPD1    C113947   2.814   4.677  13.543 -0.5772  0.1036  0.4438
    6MPD1    C213948   2.819   4.618  13.419 -0.6289 -0.7350  0.3023
    6MPD1    C313949   2.705   4.585  13.351  0.3389  0.4567 -0.0809
    6MPD1    C413950   2.574   4.617  13.404 -0.0972  0.9673 -0.7085
    6MPD1    C513951   2.571   4.679  13.522  0.5419  0.2724 -0.1468
    6MPD1     H13952   2.915   4.588  13.380 -0.2291 -0.9907  1.5054
    6MPD1    H113953   2.486   4.582  13.350 -0.8051 -1.2752  1.9149
    6MPD1    H213954   2.669   0.012  13.691  0.4967 -0.5122 -0.3396
    6MPD1    H313955   2.474   4.698  13.568 -0.7544 -0.5994 -2.5163
    6MPD1     N13956   2.706   4.513  13.225  0.0541 -0.2304  0.6715
    6MPD1    H513957   2.618   4.480  13.188  0.0949 -1.0444  1.3049
    6MPD1    N113958   2.930   4.703  13.617  0.3592  0.2245  0.2473
    6MPD1    H613959   2.925   0.058  13.657  0.6713 -0.3664  1.6870
    6MPD1    H713960   3.015   4.685  13.565 -0.7931 -1.0290 -1.1732
    7MPD2     C13961   2.545   3.803  12.860 -0.1718 -0.9658 -0.2863
    7MPD2    C113962   2.664   3.865  12.843 -0.8065 -0.2017 -0.1689
    7MPD2    C213963   2.765   3.781  12.803 -0.5456  0.1428  0.4949
    7MPD2    C313964   2.759   3.644  12.784  0.1733 -0.4533 -0.0696
    7MPD2    C413965   2.643   3.583  12.817 -0.2604 -0.5288  0.0836
    7MPD2    C513966   2.535   3.664  12.856  0.0132  0.0848 -0.1050
    7MPD2     H13967   2.854   3.840  12.783 -0.7589  1.3325  2.9749
    7MPD2    H113968   2.629   3.476  12.805  2.8068 -0.3604 -4.8279
    7MPD2    H213969   2.455   3.858  12.884 -0.5721 -2.3072  1.3133
    7MPD2    H313970   2.439   3.614  12.869  0.3622 -0.7294 -0.6846
    7MPD2     N13971   2.864   3.560  12.744 -0.2907  0.2632  0.7789
    7MPD2    H513972   2.850   3.460  12.748  0.3675  0.1897  1.2956
    7MPD2    N113973   2.686   4.005  12.852  0.0994  0.4195  0.1211
    7MPD2    H713974   2.778   4.036  12.823 -0.3084  2.9868  1.6071
    8TMC3    C113975   3.080   3.513  12.668  0.5165 -0.3078  0.2288
    8TMC3    C213976   3.127   3.495  12.792 -0.3740 -0.3398  0.4113
    8TMC3    C313977   3.254   3.540  12.814  0.5289  0.1132 -0.3491
    8TMC3    C413978   3.159   3.542  12.562  0.4563 -0.3960  0.6677
    8TMC3    C513979   3.292   3.574  12.588 -0.8396 -0.3905  0.8512
    8TMC3    C613980   3.334   3.587  12.722  0.0369 -0.6620 -0.2562
    8TMC3     C13981   2.980   3.610  12.702 -0.2689  0.6563 -0.6152
    8TMC3     O13982   3.003   3.724  12.662 -0.4970 -0.0027  0.0544
    8TMC3     H13983   3.061   3.470  12.874 -1.8967 -0.7767 -0.9460
    8TMC3    H113984   3.114   3.575  12.469 -0.6338  0.6033  1.5435
    8TMC3    H213985   3.435   3.621  12.740 -0.5459  0.3906  1.0816
    8TMC3    C713986   3.313   3.699  12.521 -0.0952  0.0073 -0.3760
    8TMC3    C813987   3.320   3.519  12.944  0.3718 -0.7108  0.1443
    8TMC3    O113988   3.370   3.705  12.418  0.8099  0.3765  0.2527
    8TMC3    O213989   3.412   3.595  12.965 -0.0598 -0.3104  0.1368
    9TMC3    C113990   2.792   4.409  13.030  0.0946 -0.2132 -0.5109
    9TMC3    C213991   2.876   4.427  12.929  0.5425  0.8712 -0.1258
    9TMC3    C313992   2.873   4.334  12.834 -0.4776  0.3973 -0.5675
    9TMC3    C413993   2.693   4.316  13.029  0.2235  0.4634  0.2332
    9TMC3    C513994   2.689   4.227  12.920 -0.1143 -0.2469 -0.1032
    9TMC3    C613995   2.784   4.236  12.821 -0.0623  0.1078  0.1631
    9TMC3     C13996   2.818   4.485  13.149 -0.2086  0.0127 -0.5028
    9TMC3     O13997   2.937   4.519  13.165  0.0592  0.4442 -0.4285
    9TMC3     H13998   2.942   4.513  12.927  2.6696 -0.7840 -0.8375
    9TMC3    H113999   2.633   4.300  13.118 -1.1255  2.4726 -0.3169
    9TMC3    H214000   2.757   4.198  12.723 -1.5318 -0.9041  0.9533
    9TMC3    C714001   2.620   4.095  12.930  0.5551 -0.5560  0.2784
    9TMC3    C814002   2.995   4.325  12.750 -0.0999 -0.4569 -0.1297
    9TMC3    O114003   2.510   4.091  12.987 -0.1681  0.4496  0.1435
    9TMC3    O214004   3.030   4.426  12.693 -0.2778 -0.1098 -0.2774
   10MPD2     C14005   3.274   4.005  12.451  0.5083  0.7529 -1.0158
   10MPD2    C114006   3.223   3.933  12.560  0.7302 -0.7693 -0.2665
   10MPD2    C214007   3.146   4.006  12.654 -0.1283  0.1451 -0.5005
   10MPD2    C314008   3.102   4.138  12.635 -0.9256  0.6335  0.0865
   10MPD2    C414009   3.147   4.202  12.521  0.1545  0.1189  0.3258
   10MPD2    C514010   3.230   4.138  12.428  0.4086  0.0217  0.1221
   10MPD2     H14011   3.121   3.960  12.749 -0.1573 -1.6228 -1.3635
   10MPD2    H114012   3.117   4.305  12.511  1.5601  0.6464  1.5344
   10MPD2    H214013   3.352   3.968  12.385 -0.5212 -3.0783 -0.1232
   10MPD2    H314014   3.268   4.191  12.342  0.0437 -1.4511 -0.9463
   10MPD2     N14015   3.023   4.196  12.736 -0.2083 -0.7645  0.2900
   10MPD2    H514016   3.000   4.140  12.818 -0.9398  2.9896  2.6524
   10MPD2    N114017   3.256   3.804  12.592 -0.6028  0.2492 -0.1123
   10MPD2    H714018   3.203   3.773  12.674  1.9068 -0.6639  1.1492
   11MPD2     C14019   4.219   3.492  14.200 -0.3305  0.0363 -0.1146
   11MPD2    C114020   4.152   3.375  14.179 -0.2940 -0.3545 -0.2649
   11MPD2    C214021   4.095   3.354  14.060  0.3150  0.3684 -0.5984
   11MPD2    C314022   4.106   3.453  13.962  0.2213  0.5220 -0.7340
   11MPD2    C414023   4.186   3.563  13.979 -0.0320 -1.0699 -0.0732
   11MPD2    C514024   4.233   3.585  14.104 -0.0475 -0.2555 -0.0694
   11MPD2     H14025   4.033   3.268  14.039  0.6470  0.5492 -2.3262
   11MPD2    H114026   4.200   3.630  13.895  2.0058 -1.9004 -0.4152
   11MPD2    H214027   4.263   3.520  14.295 -1.7345  1.9788 -0.0293
   11MPD2    H314028   4.282   3.679  14.124  0.7717 -0.4227 -1.2732
   11MPD2     N14029   4.043   3.450  13.833 -0.3920  0.0041  0.4127
   11MPD2    H514030   4.068   3.525  13.768  2.4341  0.9727  2.5920
   11MPD2    N114031   4.135   3.274  14.278 -0.5022  0.3534  0.0928
   11MPD2    H714032   4.066   3.203  14.260 -0.2268  0.5289 -1.6387
    1MPD1     C14033   2.001   4.084  17.352 -0.1237 -0.6940 -0.7258
    1MPD1    C114034   1.930   4.128  17.238  0.0861 -0.3091  0.0049
    1MPD1    C214035   1.990   4.127  17.118 -0.0297 -0.3058 -0.1433
    1MPD1    C314036   2.115   4.079  17.107 -0.5822 -0.3415  0.9011
    1MPD1    C414037   2.187   4.030  17.211 -0.0230 -0.1912  0.3893
    1MPD1    C514038   2.127   4.028  17.337  0.1424 -0.1108  0.0048
    1MPD1     H14039   1.934   4.166  17.034 -0.0293 -0.5481 -0.2549
    1MPD1    H114040   2.288   3.991  17.198 -1.0143 -2.0723 -1.4748
    1MPD1    H214041   1.963   4.093  17.453 -0.7201  0.5927 -1.0566
    1MPD1    H314042   2.177   4.003  17.430  0.0745 -1.6869 -0.3951
    1MPD1     N14043   2.188   4.085  16.990 -0.4414 -0.0181  0.1112
    1MPD1    H514044   2.282   4.048  16.993 -0.0236  1.1439  1.6378
    1MPD1    N114045   1.799   4.149  17.249 -0.0933 -0.3094  0.0147
    1MPD1    H614046   1.765   4.175  17.342 -0.0702  2.0638 -0.6365
    1MPD1    H714047   1.769   4.221  17.184 -0.6157 -0.8943 -0.3819
    2MPD1     C14048   2.980   3.842  16.980  0.0645  0.1292 -0.3265
    2MPD1    C114049   2.866   3.783  17.016 -0.2982  0.3684  0.1608
    2MPD1    C214050   2.738   3.828  16.970  0.1769 -0.2054  0.0411
    2MPD1    C314051   2.735   3.912  16.863  0.6187  0.1112 -0.4819
    2MPD1    C414052   2.853   3.965  16.821 -0.3050  0.1737 -0.6715
    2MPD1    C514053   2.978   3.941  16.884 -0.0035 -0.6577  0.9178
    2MPD1     H14054   2.643   3.784  16.997 -0.0377 -0.1909 -0.6710
    2MPD1    H114055   2.853   4.034  16.738 -2.5998  1.0035  0.0217
    2MPD1    H214056   3.083   3.830  17.012 -0.0922  0.6915  0.3974
    2MPD1    H314057   3.073   3.989  16.863  0.5983 -2.7024 -1.0830
    2MPD1     N14058   2.607   3.953  16.813  0.4408 -0.0260  0.6057
    2MPD1    H514059   2.518   3.930  16.856  1.4759  0.0419  2.7719
    2MPD1    N114060   2.874   3.692  17.121  0.6583 -0.1206 -0.1499
    2MPD1    H614061   2.953   3.628  17.111  0.0545 -0.8452 -0.3161
    2MPD1    H714062   2.794   3.629  17.121 -0.1421  0.8885  1.9909
    3TMC3    C114063   2.437   4.059  16.688 -0.2390 -0.7165  0.8931
    3TMC3    C214064   2.395   4.067  16.554 -0.5091  0.3089  0.1130
    3TMC3    C314065   2.271   4.107  16.529 -0.5404 -0.0174 -0.1718
    3TMC3    C414066   2.360   4.091  16.793  0.3995 -0.2784  0.5065
    3TMC3    C514067   2.234   4.117  16.761  0.1072 -0.2472 -0.5650
    3TMC3    C614068   2.186   4.124  16.635 -0.7184 -0.4008 -0.7199
    3TMC3     C14069   2.579   4.025  16.704 -0.4340 -0.0695 -0.2941
    3TMC3     O14070   2.651   4.052  16.609 -0.0493  0.8243  0.4815
    3TMC3     H14071   2.461   4.035  16.474  0.4416  2.4734  0.0309
    3TMC3    H114072   2.403   4.107  16.892 -1.0175  0.0215  1.0638
    3TMC3    H214073   2.081   4.147  16.623 -0.6751  0.3529  0.3280
    3TMC3    C714074   2.144   4.139  16.874 -0.3436 -0.2471  0.4514
    3TMC3    C814075   2.229   4.145  16.395 -0.0839  0.1948 -0.1207
    3TMC3    O114076   2.040   4.201  16.848  0.5619  0.2252 -0.2119
    3TMC3    O214077   2.106   4.147  16.379 -0.4064  0.3550  0.2076
    4MPD1     C14078   2.288   4.394  15.953 -0.5547  0.4472  0.1187
    4MPD1    C114079   2.413   4.359  16.000  0.0165 -0.1700  0.8398
    4MPD1    C214080   2.420   4.304  16.121  0.6468 -0.4148  0.1571
    4MPD1    C314081   2.300   4.269  16.189 -0.5532  0.0071 -0.1603
    4MPD1    C414082   2.181   4.273  16.124 -0.1441  0.3311 -0.6507
    4MPD1    C514083   2.174   4.337  16.001  0.0964  0.2039  0.2556
    4MPD1     H14084   2.508   4.292  16.183  0.8442  0.7998  0.1043
    4MPD1    H114085   2.089   4.242  16.172  0.1278 -3.0938 -2.3670
    4MPD1    H214086   2.280   4.440  15.855  0.1345  0.3307  0.0114
    4MPD1    H314087   2.080   4.351  15.950 -0.1824 -0.8047  0.4780
    4MPD1     N14088   2.324   4.202  16.317 -0.2084  0.1171 -0.0132
    4MPD1    H514089   2.418   4.187  16.351  0.0715 -3.1237 -2.2326
    4MPD1    N114090   2.530   4.414  15.942  0.0116  0.4711 -0.0864
    4MPD1    H614091   2.514   4.401  15.842  1.5929 -0.3073 -0.2406
    4MPD1    H714092   2.613   4.360  15.966  0.3730  0.3349 -1.6216
    1TCq1    O114093   2.420   0.032  11.469 -0.1871 -0.2667 -0.3387
    1TCq1    C114094   2.431   0.043  11.339  0.2272 -0.4037  0.0536
    1TCq1    O214095   2.336   0.034  11.261 -0.4136 -0.6364  0.6922
    1TCq1    C214096   2.571   0.061  11.307 -0.1656 -0.6603 -0.1316
    1TCq1    C314097   2.593   0.102  11.178 -0.9938 -0.5811 -0.5246
    1TCq1    C414098   2.723   0.119  11.147  0.0045 -0.2662 -0.4048
    1TCq1    C514099   2.829   0.069  11.220 -0.5652 -0.5794  0.2164
    1TCq1    C614100   2.797   4.735  11.331 -0.2050 -0.1233  0.2431
    1TCq1    C714101   2.666   4.732  11.382  0.3730  0.3321 -0.0825
    1TCq1    C814102   2.908   4.675  11.402 -0.4799 -0.4582 -0.4120
    1TCq1    O414103   3.003   4.623  11.334  0.1287 -0.3670 -0.0312
    1TCq1    C914104   2.761   0.147  11.013 -0.2361 -0.4802  0.2680
    1TCq1    O514105   2.881   0.158  10.985 -0.4424 -0.5045  1.4023
    1TCq1    O614106   2.668   0.148  10.928  0.2187  0.3409  0.2281
    1TCq1    H114107   2.506   0.050  11.514 -0.4602 -0.5885  0.3129
    1TCq1    H214108   2.514   0.138  11.114 -3.4567 -2.3557  1.4699
    1TCq1    H314109   2.930   0.065  11.182 -0.1837  0.7208  1.1044
    1TCq1    H414110   2.653   4.662  11.463 -1.0002  2.0364  1.1548
    2MPD1     C14111   3.082   4.394  11.807 -0.3774  0.3283 -0.1170
    2MPD1    C114112   2.984   4.476  11.849  0.8205 -0.1729  0.5094
    2MPD1    C214113   2.922   4.558  11.755 -0.4667 -0.7464 -0.3938
    2MPD1    C314114   2.954   4.558  11.624  0.2775  0.2502 -0.7404
    2MPD1    C414115   3.055   4.475  11.582 -0.0059 -0.6823  0.2411
    2MPD1    C514116   3.119   4.396  11.679 -0.0054 -0.5998 -0.8820
    2MPD1     H14117   2.844   4.624  11.791  0.9393  0.4729  0.4630
    2MPD1    H114118   3.091   4.466  11.480  2.2664 -0.8021  1.0664
    2MPD1    H214119   3.144   4.342  11.880  0.9478  1.8602 -0.1592
    2MPD1    H314120   3.204   4.338  11.645  2.2252  1.4032  1.3506
    2MPD1     N14121   2.879   4.641  11.534 -0.6282 -0.5491  0.5971
    2MPD1    H514122   2.798   4.683  11.578 -0.0473  1.7982 -0.6124
    2MPD1    N114123   2.957   4.489  11.984  0.3838 -0.7565  0.5801
    2MPD1    H614124   2.961   4.402  12.036  0.1397 -0.2518  1.4271
    2MPD1    H714125   2.863   4.524  11.999  0.3336 -0.6716  0.0790
    1TMC1    C114126   3.498   3.795   1.325  0.1339 -0.3496  0.2963
    1TMC1    C214127   3.551   3.851   1.438 -0.7077 -0.3022 -0.2944
    1TMC1    C314128   3.464   3.913   1.524  0.0357  0.2315  0.5108
    1TMC1    C414129   3.369   3.784   1.299  0.0775  0.4622 -0.2139
    1TMC1    C514130   3.284   3.830   1.395  0.7390  0.0195  0.3370
    1TMC1    C614131   3.331   3.899   1.505  0.3049  0.6302  0.0134
    1TMC1     C14132   3.585   3.724   1.241  0.3879  0.8720  0.0629
    1TMC1     O14133   3.697   3.772   1.233  0.0763 -0.0764 -0.3733
    1TMC1     H14134   3.656   3.855   1.465 -0.9984  1.3047  0.6181
    1TMC1    H114135   3.354   3.763   1.194 -1.1595  0.9723 -0.1355
    1TMC1    H214136   3.261   3.948   1.573  1.3054 -1.3648  2.4946
    1TMC1    C714137   3.138   3.825   1.363  0.3421 -0.0185 -0.7996
    1TMC1    C814138   3.511   3.916   1.661  0.9727 -0.9014 -0.0275
    1TMC1    O114139   3.067   3.913   1.409  0.0434  0.2584 -0.4636
    1TMC1    O214140   3.604   3.854   1.710  0.5190  0.1344 -0.3115
    1TMC1    O314141   3.133   3.767   1.240  0.3342 -0.1135  0.8228
    1TMC1    H314142   3.206   3.701   1.239  1.9410  1.6215  1.5000
    1TMC1    O514143   3.448   4.019   1.715  0.7255 -0.4875  0.1243
    1TMC1    H514144   3.382   4.062   1.657  2.2078  0.3273 -0.9624
    2MPD1     C14145   3.699   3.324   0.951 -0.1148 -0.4192 -0.3628
    2MPD1    C114146   3.570   3.310   0.986  0.2537  0.3735  0.2571
    2MPD1    C214147   3.518   3.400   1.071  0.5214 -0.5170  0.2950
    2MPD1    C314148   3.592   3.508   1.119  0.4349  0.6017 -1.0412
    2MPD1    C414149   3.718   3.529   1.074 -0.0141 -0.4713 -0.5642
    2MPD1    C514150   3.777   3.431   0.997  0.7642 -0.0255 -0.1521
    2MPD1     H14151   3.417   3.392   1.109 -0.6450  2.3321 -2.2692
    2MPD1    H114152   3.779   3.613   1.103 -2.1788  0.5159  1.1357
    2MPD1    H214153   3.755   3.254   0.890  0.1158 -1.0303  0.5508
    2MPD1    H314154   3.876   3.460   0.965  0.8638 -0.4084 -0.1844
    2MPD1     N14155   3.528   3.606   1.198  0.0450  0.1995 -0.1680
    2MPD1    H514156   3.431   3.583   1.216 -0.2082  0.8622 -0.6779
    2MPD1    N114157   3.496   3.197   0.944  0.0163 -0.5747  0.5091
    2MPD1    H614158   3.527   3.155   0.856  0.1469 -0.9684  0.7448
    2MPD1    H714159   3.397   3.220   0.945  0.0156 -0.6536  1.6456
    1MPD1     C14160   4.083   4.019  12.528 -0.0292 -0.4358  0.7196
    1MPD1    C114161   4.001   4.007  12.416 -0.1279 -0.2234  0.1476
    1MPD1    C214162   4.021   4.090  12.308  0.1601 -0.7415 -0.1872
    1MPD1    C314163   4.129   4.172  12.309  0.0948 -0.2311 -0.3475
    1MPD1    C414164   4.204   4.198  12.425 -0.1581 -0.3822  0.5582
    1MPD1    C514165   4.182   4.114  12.533  0.2304  0.5415 -0.6967
    1MPD1     H14166   3.955   4.083  12.223 -0.5535 -0.4614  0.3413
    1MPD1    H114167   4.288   4.265  12.431  0.8310 -1.6226  0.4668
    1MPD1    H214168   4.074   3.968  12.623  0.6662 -2.4330 -0.2905
    1MPD1    H314169   4.236   4.111  12.627 -1.5025  0.3353  0.2835
    1MPD1     N14170   4.161   4.233  12.186 -0.1112  0.0051 -0.7143
    1MPD1    H514171   4.113   4.202  12.102  0.5188 -0.9420 -0.7197
    1MPD1    N114172   3.878   3.926  12.422 -0.0131  0.4322 -0.2691
    1MPD1    H614173   3.900   3.845  12.480 -0.9192 -0.7042 -1.5161
    1MPD1    H714174   3.842   3.903  12.330  1.7410 -0.4170 -0.7592
    2MPD1     C14175   4.036   0.013  10.286  0.3862 -0.5431 -0.1577
    2MPD1    C114176   4.033   0.137  10.233  0.1083  0.0758 -0.0914
    2MPD1    C214177   4.132   0.232  10.264  0.8020  0.1818  0.0553
    2MPD1    C314178   4.231   0.209  10.356 -0.1200  0.0610  0.1809
    2MPD1    C414179   4.230   0.083  10.415 -1.1664  0.0630  0.0949
    2MPD1    C514180   4.137   4.725  10.375 -0.7381 -0.2208 -0.8325
    2MPD1     H14181   4.124   0.333  10.226  3.2326  0.5555  0.5389
    2MPD1    H114182   4.295   0.054  10.498 -1.0495 -1.0177 -0.3714
    2MPD1    H214183   3.969   4.674  10.252  0.5422  0.4056 -2.6727
    2MPD1    H314184   4.144   4.629  10.425  0.4714  0.0101 -0.5719
    2MPD1     N14185   4.322   0.305  10.408  0.0553  0.3663 -0.4402
    2MPD1    H514186   4.385   0.275  10.482 -0.3733  1.3856  0.3346
    2MPD1    N114187   3.935   0.171  10.137  0.2324  0.2315  0.3882
    2MPD1    H614188   3.905   0.101  10.069 -2.7998  1.9742 -0.0878
    2MPD1    H714189   3.959   0.254  10.084 -0.8791 -0.0155 -0.5148
    3MPD1     C14190   0.109   1.227  10.194 -0.0406  0.0315  0.4512
    3MPD1    C114191   0.194   1.146  10.259 -0.4823  0.6013  0.0040
    3MPD1    C214192   0.140   1.049  10.341 -0.0201  0.0846 -0.2770
    3MPD1    C314193   0.008   1.011  10.340 -0.5330 -0.0248  0.3184
    3MPD1    C414194   4.652   1.094  10.271 -0.1388 -0.4278  0.0458
    3MPD1    C514195   4.708   1.210  10.213 -0.3604 -0.4059 -0.6726
    3MPD1     H14196   0.210   0.991  10.401 -0.6093 -3.4446 -2.9871
    3MPD1    H114197   4.545   1.081  10.277 -0.1304 -0.7733 -0.5159
    3MPD1    H214198   0.136   1.307  10.127 -1.0010 -0.1841 -0.1945
    3MPD1    H314199   4.635   1.274  10.166  1.6396  0.6219 -2.3920
    3MPD1     N14200   4.705   0.894  10.409 -0.5989 -0.2587 -0.1649
    3MPD1    H514201   0.039   0.848  10.462 -1.5430 -0.6152  0.8089
    3MPD1    N114202   0.328   1.171  10.243 -0.2071 -0.2298 -0.5690
    3MPD1    H614203   0.348   1.227  10.161  0.4465 -2.3261 -1.8356
    3MPD1    H714204   0.383   1.085  10.231 -0.1733 -0.1355 -1.0800
    4MPD2     C14205   4.048   0.020  11.624  0.3822 -0.2970 -0.6549
    4MPD2    C114206   4.167   0.014  11.693 -0.6681  0.3785  0.5388
    4MPD2    C214207   4.240   0.125  11.711  0.0315 -0.0899  0.4891
    4MPD2    C314208   4.204   0.248  11.659  0.1480  0.6474 -0.1804
    4MPD2    C414209   4.090   0.254  11.587  0.3165  0.1207  0.0033
    4MPD2    C514210   4.007   0.146  11.585  0.4138  0.0549 -0.2939
    4MPD2     H14211   4.335   0.122  11.764 -0.5346 -0.1776  1.5105
    4MPD2    H114212   4.056   0.344  11.537  1.3070  1.1269  1.1281
    4MPD2    H214213   3.985   4.674  11.602 -0.9362  0.8799 -1.4214
    4MPD2    H314214   3.916   0.153  11.527  0.4860  0.4496 -0.3575
    4MPD2     N14215   4.286   0.364  11.664  0.9360 -0.7852 -0.1657
    4MPD2    H514216   4.351   0.375  11.741  0.6370 -1.8544  0.2415
    4MPD2    N114217   4.218   4.634  11.745 -0.1969 -0.1063  0.7891
    4MPD2    H714218   4.314   4.645  11.778  0.5146 -0.5001 -1.1598
    5TMC3    C114219   4.246   4.426  11.808 -0.2355  0.0882  0.3391
    5TMC3    C214220   4.198   4.369  11.927 -0.3101 -0.4224 -0.5230
    5TMC3    C314221   4.287   4.375  12.028  0.3074 -0.3345 -0.3755
    5TMC3    C414222   4.378   4.469  11.795 -0.3610  0.5002 -0.1952
    5TMC3    C514223   4.446   4.486  11.910  0.4936  0.2999 -0.6020
    5TMC3    C614224   4.412   4.428  12.030 -0.0510  0.1488  0.4735
    5TMC3     C14225   4.152   4.518  11.754 -0.1403  0.1896  0.2457
    5TMC3     O14226   4.038   4.480  11.752  0.2042 -0.6100  0.1903
    5TMC3     H14227   4.090   4.361  11.936 -0.0398 -1.0915  2.1380
    5TMC3    H114228   4.411   4.487  11.693 -2.5079 -0.4302 -1.0715
    5TMC3    H214229   4.480   4.419  12.114  0.3469 -0.6952  0.0640
    5TMC3    C714230   4.512   4.611  11.903 -0.3668 -0.4318  0.4997
    5TMC3    C814231   4.245   4.341  12.168  0.8129 -0.2992  0.1684
    5TMC3    O114232   4.533   4.662  11.793  0.2969 -0.2864  0.2153
    5TMC3    O214233   4.302   4.415  12.248 -0.0409 -0.1336 -0.0558
    6TMC3    C114234   4.426   0.516  10.434  0.4639 -0.2741 -0.4233
    6TMC3    C214235   4.483   0.626  10.368  0.0392  0.6690 -0.2409
    6TMC3    C314236   4.571   0.701  10.436 -0.0013 -1.2127  0.5850
    6TMC3    C414237   4.463   0.487  10.562 -0.7000  0.1849  0.4297
    6TMC3    C514238   4.553   0.571  10.621  0.5024  0.5005  0.5381
    6TMC3    C614239   4.613   0.677  10.562 -0.0443  0.1612 -0.5128
    6TMC3     C14240   4.344   0.422  10.350  0.4755  0.2084 -0.3506
    6TMC3     O14241   4.326   0.449  10.233 -0.1749 -0.4128  0.0410
    6TMC3     H14242   4.447   0.656  10.270  0.7261 -0.3567 -0.8226
    6TMC3    H114243   4.413   0.415  10.625  1.7300 -1.1793  0.7965
    6TMC3    H214244   4.687   0.742  10.608  2.6576 -1.9219 -1.9425
    6TMC3    C714245   4.592   0.552  10.763 -0.5577  0.3114  0.5191
    6TMC3    C814246   4.575   0.840  10.395 -0.3437  0.4976  0.4474
    6TMC3    O114247   4.620   0.653  10.824 -0.3867  0.2619  0.1069
    6TMC3    O214248   4.477   0.882  10.340  0.1046  0.3167 -0.7180
    7MPD2     C14249   4.625   0.322  12.102 -0.0357 -0.1100  0.7194
    7MPD2    C114250   4.616   0.283  11.967  0.3585  0.1338 -0.1948
    7MPD2    C214251   4.600   0.149  11.942 -0.5639  0.0356 -0.5477
    7MPD2    C314252   4.583   0.058  12.050 -0.0839 -0.0778 -0.1573
    7MPD2    C414253   4.596   0.097  12.181  0.6465  0.4051 -0.0624
    7MPD2    C514254   4.614   0.237  12.210 -0.2456 -0.1221 -0.3387
    7MPD2     H14255   4.612   0.111  11.841  1.4212 -0.0852 -0.2631
    7MPD2    H114256   4.560   0.026  12.254  3.0955  0.3272  1.0826
    7MPD2    H214257   4.611   0.429  12.115 -0.0244 -0.1675  1.2152
    7MPD2    H314258   4.614   0.267  12.314 -2.1256  0.0244 -0.3795
    7MPD2     N14259   4.534   4.666  12.023  0.4117  0.2220  0.1933
    7MPD2    H514260   4.508   4.608  12.102  0.5287 -0.6020 -0.3661
    7MPD2    N114261   4.622   0.384  11.865  0.3715 -0.0242  0.3269
    7MPD2    H714262   4.625   0.481  11.895  0.7857  0.4535 -1.2898
    8TMC3    C114263   4.591   0.490  11.663  0.9317 -0.5223  0.0400
    8TMC3    C214264   4.637   0.510  11.538 -0.1714  0.0796  0.7098
    8TMC3    C314265   4.554   0.578  11.446 -0.5217  0.2460 -0.6334
    8TMC3    C414266   4.470   0.524  11.695 -0.1570 -0.3452  0.4940
    8TMC3    C514267   4.382   0.569  11.595  0.2830 -0.9157 -0.5292
    8TMC3    C614268   4.422   0.610  11.478  0.0155 -0.0981 -0.3511
    8TMC3     C14269   4.633   0.369  11.732  0.2418  1.0053 -0.0921
    8TMC3     O14270   4.638   0.269  11.662 -0.3091 -0.0698 -0.1397
    8TMC3     H14271   4.734   0.471  11.510 -1.0141 -2.4149  1.2604
    8TMC3    H114272   4.438   0.522  11.799  1.2790 -0.6607  0.9325
    8TMC3    H214273   4.361   0.658  11.403  3.5120  0.6470 -2.7229
    8TMC3    C714274   4.277   0.471  11.577 -0.3937 -0.0650 -0.0284
    8TMC3    C814275   4.591   0.568  11.306  0.2929 -0.4108 -0.1327
    8TMC3    O114276   4.235   0.474  11.462 -0.2505 -0.4070 -0.2108
    8TMC3    O214277   4.552   0.659  11.235  0.2584 -0.1862 -0.1803
    9MPD2     C14278   4.702   0.249  11.155 -0.4644 -0.5138 -0.5425
    9MPD2    C114279   4.656   0.379  11.160  0.1669 -0.0291  0.6558
    9MPD2    C214280   4.637   0.438  11.031 -0.8860  0.0299 -0.2950
    9MPD2    C314281   4.634   0.362  10.912  0.2273  0.0811 -0.5857
    9MPD2    C414282   4.655   0.223  10.921 -0.5602 -0.4378 -0.3266
    9MPD2    C514283   4.710   0.181  11.036  0.3344 -0.0061 -0.6047
    9MPD2     H14284   4.602   0.540  11.023  1.1797  0.6662 -1.1808
    9MPD2    H114285   4.675   0.166  10.830 -2.2515 -1.7741  0.1388
    9MPD2    H214286   0.003   0.191  11.238  0.1558 -1.5494 -1.5659
    9MPD2    H314287   0.010   0.081  11.042 -0.1192 -0.1183  0.4938
    9MPD2     N14288   4.609   0.416  10.789  0.1604  0.1899  0.3516
    9MPD2    H514289   4.581   0.349  10.719 -0.0949  1.1310 -0.4454
    9MPD2    N114290   4.632   0.445  11.279  0.2088 -1.1603 -0.2084
    9MPD2    H714291   4.626   0.387  11.363 -1.3998 -1.5343 -0.5768
    1MPD1     C14292   3.114   3.056  16.204  0.4253  0.5117 -0.0498
    1MPD1    C114293   3.222   3.120  16.254 -0.5669 -0.4615 -0.2518
    1MPD1    C214294   3.258   3.246  16.207  0.1159 -0.0351 -0.5410
    1MPD1    C314295   3.174   3.311  16.114  0.5931  0.0934 -0.8264
    1MPD1    C414296   3.057   3.250  16.082 -0.3605 -0.1404  0.3351
    1MPD1    C514297   3.035   3.126  16.125 -0.0968  0.1300 -0.1696
    1MPD1     H14298   3.350   3.298  16.232 -1.3298  1.4170  1.6942
    1MPD1    H114299   2.982   3.297  16.020 -1.1278  1.7488  2.6873
    1MPD1    H214300   3.095   2.953  16.231 -0.6162  0.0468 -2.5660
    1MPD1    H314301   2.952   3.071  16.082 -0.5230  1.7373 -1.4490
    1MPD1     N14302   3.208   3.428  16.044  0.3247 -0.9213 -0.5215
    1MPD1    H514303   3.132   3.466  15.988 -0.5371 -1.8069  0.0415
    1MPD1    N114304   3.310   3.049  16.334  0.0900 -0.2738 -0.2846
    1MPD1    H614305   3.255   2.972  16.372 -1.9685  0.0742 -2.5496
    1MPD1    H714306   3.360   3.111  16.397 -1.5736 -0.9012  1.6530
    2TMC2    C114307   3.421   3.791  15.858  0.2282  0.0242 -0.0307
    2TMC2    C214308   3.306   3.861  15.851 -0.1993  0.1802  0.3700
    2TMC2    C314309   3.188   3.808  15.900 -0.0238 -0.6005  0.2219
    2TMC2    C414310   3.426   3.661  15.896 -0.4743 -0.2335 -0.0043
    2TMC2    C514311   3.314   3.622  15.961  0.7601  0.7880  0.0585
    2TMC2    C614312   3.195   3.687  15.960  0.0538  0.1371 -0.1352
    2TMC2     C14313   3.554   3.849  15.822 -0.2643 -0.9493 -0.9750
    2TMC2     O14314   3.642   3.770  15.845  0.5074 -0.0549  0.6529
    2TMC2     H14315   3.308   3.960  15.807  0.9287 -0.3072 -0.7047
    2TMC2    H114316   3.511   3.595  15.885  0.6125  0.9652  1.2566
    2TMC2    H214317   3.117   3.652  16.028 -0.3973 -2.0751 -1.7890
    2TMC2    C714318   3.326   3.502  16.041 -0.1030 -0.1178 -0.2579
    2TMC2    C814319   3.064   3.882  15.900  0.5155 -0.0072 -0.2819
    2TMC2    O114320   3.437   3.480  16.086 -0.5936 -0.1245 -0.2546
    2TMC2    O214321   3.060   4.002  15.896 -0.8557  0.2568 -0.4704
    2TMC2    O514322   2.961   3.793  15.930  0.5277  0.0848 -0.2096
    2TMC2    H514323   2.975   3.703  15.893  2.0567  0.5305 -0.7002
    3MPD1     C14324   3.902   4.145  15.592  0.0941 -0.2897 -0.3884
    3MPD1    C114325   3.779   4.170  15.542  0.1994 -0.1128  0.1526
    3MPD1    C214326   3.672   4.101  15.591  0.2783  0.1820  0.1997
    3MPD1    C314327   3.680   4.014  15.698 -0.4341 -0.5207  0.3588
    3MPD1    C414328   3.808   3.999  15.760 -0.3255  0.2823  0.0770
    3MPD1    C514329   3.916   4.065  15.707  1.0232 -0.3537 -0.0143
    3MPD1     H14330   3.575   4.129  15.551 -0.1078  1.8091  2.3244
    3MPD1    H114331   3.811   3.944  15.853  4.1572  1.1560  0.4150
    3MPD1    H214332   3.992   4.183  15.546 -1.2864 -0.1541 -2.9571
    3MPD1    H314333   4.012   4.054  15.755  1.1394  0.4016 -0.0861
    3MPD1     N14334   3.558   3.967  15.754 -0.4990  0.1936  0.7303
    3MPD1    H514335   3.474   4.019  15.732 -1.6138 -1.5382  0.9613
    3MPD1    N114336   3.770   4.251  15.426 -0.5188  0.4827  0.1038
    3MPD1    H614337   3.855   4.299  15.398  1.3806 -1.6429  2.2465
    3MPD1    H714338   3.692   4.317  15.430 -0.6699  0.3921 -1.3009
    1TMC1    C114339   2.682   2.619  13.647 -1.0155  0.1084  0.5365
    1TMC1    C214340   2.666   2.632  13.512  0.1485  0.4216 -0.3004
    1TMC1    C314341   2.536   2.627  13.466  0.0635  0.0415 -0.1911
    1TMC1    C414342   2.571   2.616  13.736 -0.4032 -0.0231  0.4013
    1TMC1    C514343   2.451   2.609  13.679 -0.0451 -0.7503 -0.0368
    1TMC1    C614344   2.429   2.608  13.549  0.1320 -0.5866  0.1503
    1TMC1     C14345   2.809   2.623  13.707  0.4342  0.1529  0.2271
    1TMC1     O14346   2.905   2.612  13.630 -0.4077 -0.5774 -0.1215
    1TMC1     H14347   2.750   2.656  13.449  1.5260  0.1778  1.4411
    1TMC1    H114348   2.580   2.611  13.844  2.3323  0.9318  0.2343
    1TMC1    H214349   2.328   2.615  13.510  0.9613  1.0363 -1.7207
    1TMC1    C714350   2.343   2.652  13.760  0.1467  0.1528 -0.1101
    1TMC1    C814351   2.509   2.642  13.325 -0.4593 -0.7415  0.5683
    1TMC1    O114352   2.227   2.628  13.730 -0.1134 -0.0131 -0.1265
    1TMC1    O214353   2.434   2.739  13.304 -0.1627 -0.6615 -0.0165
    1TMC1    O314354   2.385   2.773  13.799  0.3106 -0.1726  0.1883
    1TMC1    H314355   2.477   2.791  13.770 -0.1049  0.1965 -0.8694
    1TMC1    O514356   2.514   2.524  13.260  0.1449 -0.2150 -0.2397
    1TMC1    H514357   2.574   2.456  13.297 -1.4802 -1.0167  0.9445
    2MPD2     C14358   3.056   2.664  13.868 -0.1388  0.7680  0.6658
    2MPD2    C114359   2.935   2.613  13.918 -0.2226  0.6894 -0.2197
    2MPD2    C214360   2.933   2.574  14.052  0.1662 -0.2693 -0.2451
    2MPD2    C314361   3.038   2.581  14.142  0.2439 -0.3744  0.0366
    2MPD2    C414362   3.156   2.631  14.088  0.2961  0.2977  0.1403
    2MPD2    C514363   3.160   2.667  13.955  0.1314  0.1106  0.2762
    2MPD2     H14364   2.844   2.520  14.083 -0.2542 -0.2545 -1.4069
    2MPD2    H114365   3.249   2.641  14.145  1.5489 -1.0656 -1.6643
    2MPD2    H214366   3.060   2.714  13.772  1.3468  2.9700  1.8807
    2MPD2    H314367   3.260   2.688  13.917  0.3645 -0.9240  0.3089
    2MPD2     N14368   3.011   2.542  14.276  0.5606 -0.0071  0.0450
    2MPD2    H514369   2.916   2.509  14.285  1.0974 -2.0091 -1.7569
    2MPD2    N114370   2.813   2.610  13.842 -0.3082  0.1864 -0.1513
    2MPD2    H714371   2.729   2.589  13.895 -0.1032  0.6604  0.3684
    3TCq1    O114372   2.964   2.174  14.580 -0.4313  0.0896 -0.2103
    3TCq1    C114373   2.884   2.257  14.655 -1.0473  0.1306 -0.5593
    3TCq1    O214374   2.827   2.219  14.754  0.8230  0.2764  0.3247
    3TCq1    C214375   2.942   2.390  14.642 -1.1416 -0.1826  0.7919
    3TCq1    C314376   3.013   2.433  14.753  0.5131  0.2137  0.3251
    3TCq1    C414377   3.111   2.530  14.736  0.1319  0.2316  0.4086
    3TCq1    C514378   3.136   2.574  14.612 -0.0467  0.1155  0.0147
    3TCq1    C614379   3.074   2.518  14.504  0.4209  0.3024 -0.5434
    3TCq1    C714380   2.967   2.432  14.518  0.1916  0.1878 -0.9731
    3TCq1    C814381   3.108   2.565  14.372 -0.5525  0.1713 -0.6667
    3TCq1    O414382   3.225   2.594  14.365  0.2826 -0.3283  0.0978
    3TCq1    C914383   3.196   2.571  14.847 -0.6754 -0.0768  0.0354
    3TCq1    O514384   3.163   2.535  14.965  0.2747 -0.0128 -0.2537
    3TCq1    O614385   3.295   2.640  14.817 -0.5617 -0.1686 -0.0868
    3TCq1    H114386   3.016   2.228  14.515 -0.0380 -0.7265 -0.5692
    3TCq1    H214387   2.997   2.387  14.850 -1.4783  0.4140  0.0810
    3TCq1    H314388   3.211   2.650  14.596 -0.6331  0.7864  0.4637
    3TCq1    H414389   2.907   2.397  14.434  0.1069 -1.9039 -0.0168
    1MPD2     C14390   2.309   3.388  14.875 -0.3316  0.8547  0.2737
    1MPD2    C114391   2.184   3.333  14.851  0.0102  0.4166 -0.0187
    1MPD2    C214392   2.162   3.201  14.884 -0.1119 -0.2508 -0.2227
    1MPD2    C314393   2.262   3.120  14.942 -0.0556  0.0711 -0.2816
    1MPD2    C414394   2.378   3.186  14.973 -0.3685 -0.0577 -0.2482
    1MPD2    C514395   2.399   3.309  14.924  0.1727 -0.1412  0.2554
    1MPD2     H14396   2.064   3.160  14.862  0.8290 -1.7446 -1.6266
    1MPD2    H114397   2.456   3.132  15.025  0.9488  1.1134 -1.0072
    1MPD2    H214398   2.343   3.490  14.860 -1.7569  1.5763  2.0273
    1MPD2    H314399   2.498   3.353  14.930 -0.9518  2.2697  1.1662
    1MPD2     N14400   2.244   2.982  14.989 -0.6158 -0.3950  0.1634
    1MPD2    H514401   2.327   2.936  15.025  0.9779  0.9086 -1.8210
    1MPD2    N114402   2.082   3.424  14.800 -0.1145  0.1264  0.0076
    1MPD2    H714403   2.102   3.523  14.793 -1.8462  0.5388  0.9698
    2TMC3    C114404   1.865   3.513  14.767 -0.0670 -0.5036 -0.2377
    2TMC3    C214405   1.765   3.474  14.851 -0.1046 -0.3646  0.0304
    2TMC3    C314406   1.637   3.479  14.819  0.3481  0.0958 -0.2034
    2TMC3    C414407   1.832   3.558  14.643 -0.0269  0.4463  0.4460
    2TMC3    C514408   1.696   3.568  14.611  0.2586 -0.0074  0.4204
    2TMC3    C614409   1.596   3.535  14.696 -0.2304 -0.9702  0.1333
    2TMC3     C14410   1.951   3.395  14.768  0.7639  0.1226  0.0405
    2TMC3     O14411   1.899   3.286  14.781  0.2047  0.2194  0.5303
    2TMC3     H14412   1.799   3.445  14.949  0.9679  0.4357 -0.0991
    2TMC3    H114413   1.909   3.576  14.568  0.0494 -1.6160  0.0110
    2TMC3    H214414   1.495   3.534  14.657  0.2412  1.0571 -1.0771
    2TMC3    C714415   1.663   3.625  14.484  0.1820  0.2834  0.2246
    2TMC3    C814416   1.555   3.378  14.875  0.0447 -0.2470 -0.0587
    2TMC3    O114417   1.550   3.609  14.436 -0.0747 -1.1943 -0.3530
    2TMC3    O214418   1.435   3.395  14.882 -0.1261 -0.3965  0.0040
    3TCq1    O114419   2.281   4.455  13.837  0.8435 -0.1686  0.8823
    3TCq1    C114420   2.353   4.420  13.948 -0.3079  0.1045 -0.0316
    3TCq1    O214421   2.468   4.454  13.966 -0.1642  0.0933 -0.3716
    3TCq1    C214422   2.259   4.395  14.059  0.1967  0.3863 -0.3859
    3TCq1    C314423   2.301   4.414  14.186  0.3128  0.5409 -0.0048
    3TCq1    C414424   2.224   4.363  14.289  0.5672  0.7627  0.2587
    3TCq1    C514425   2.116   4.286  14.264  0.4553 -0.1296 -0.2495
    3TCq1    C614426   2.085   4.256  14.133  0.4584  0.2556  0.4457
    3TCq1    C714427   2.146   4.328  14.034  0.4572  0.2849 -0.1873
    3TCq1    C814428   1.969   4.177  14.102 -0.3507 -0.0433 -0.5374
    3TCq1    O414429   1.906   4.205  14.003 -0.1061 -0.1861  0.5276
    3TCq1    C914430   2.252   4.396  14.423 -0.9555  0.4933  0.0587
    3TCq1    O514431   2.339   4.494  14.432 -0.2096  0.4792 -0.1729
    3TCq1    O614432   2.181   4.345  14.512 -0.3648 -0.2094 -0.5765
    3TCq1    H114433   2.183   4.445  13.843  0.6197  1.3545 -0.4131
    3TCq1    H214434   2.398   4.461  14.198 -1.0766  3.1618  1.0226
    3TCq1    H314435   2.065   4.248  14.352  0.7000  2.7508  1.1437
    3TCq1    H414436   2.120   4.298  13.933 -0.2978 -0.5523  0.2501
    4MPD2     C14437   1.736   3.971  14.114 -0.7970  0.8104 -0.5051
    4MPD2    C114438   1.839   3.983  14.204  0.7399 -0.0940  0.3064
    4MPD2    C214439   1.835   3.902  14.311 -0.3095  0.1784 -0.1788
    4MPD2    C314440   1.753   3.791  14.328 -0.5486 -0.0313 -0.1770
    4MPD2    C414441   1.669   3.762  14.228  0.1291  0.9452 -0.5183
    4MPD2    C514442   1.656   3.861  14.124  0.0657 -0.2080 -0.0284
    4MPD2     H14443   1.907   3.916  14.390  0.4414  1.9782 -1.1977
    4MPD2    H114444   1.612   3.671  14.218  2.5587 -0.6249  0.0106
    4MPD2    H214445   1.725   4.026  14.021  1.1774  2.0322 -0.0009
    4MPD2    H314446   1.574   3.858  14.053 -1.4611 -0.8325  1.7647
    4MPD2     N14447   1.757   3.719  14.444 -0.5287  0.3050  0.6086
    4MPD2    H514448   1.824   3.753  14.512  0.5146  3.0493 -1.7781
    4MPD2    N114449   1.948   4.081  14.200 -0.4595  0.0700  0.5257
    4MPD2    H714450   2.013   4.077  14.278  1.9422  0.1782 -1.4806
    5TMC2    C114451   1.937   2.674  15.126  0.0769 -0.3997  0.1066
    5TMC2    C214452   1.990   2.661  15.250  0.5134  1.1118  0.1186
    5TMC2    C314453   2.114   2.708  15.267 -0.2031  0.0877 -0.3981
    5TMC2    C414454   2.018   2.710  15.021  0.0901 -0.5358 -0.1099
    5TMC2    C514455   2.139   2.772  15.044 -0.0604 -0.1835  0.2260
    5TMC2    C614456   2.191   2.766  15.168 -0.3241  0.1024 -0.0170
    5TMC2     C14457   1.811   2.740  15.139  0.2917 -0.3399 -0.2884
    5TMC2     O14458   1.720   2.676  15.189 -0.0019 -0.3063 -0.2079
    5TMC2     H14459   1.922   2.639  15.332 -0.4580  1.3755 -0.6056
    5TMC2    H114460   1.973   2.715  14.922  1.6570  3.2421 -0.6408
    5TMC2    H214461   2.286   2.811  15.195 -0.1418 -0.2237 -0.1103
    5TMC2    C714462   2.127   2.910  14.988 -0.5554 -0.7051  0.3349
    5TMC2    C814463   2.157   2.727  15.399 -0.3913  0.4954  0.1122
    5TMC2    O114464   2.024   2.943  14.935 -0.0605  0.1501  0.3832
    5TMC2    O214465   2.245   2.804  15.426 -0.2853  0.2586  0.3208
    5TMC2    O514466   2.116   2.615  15.464  0.0374  0.0107  0.2434
    5TMC2    H514467   2.075   2.553  15.401 -2.2031  0.7340  1.0044
    6MPD2     C14468   1.481   3.131  15.035  0.7651 -0.5055 -0.4413
    6MPD2    C114469   1.599   3.155  14.970  0.2161  0.3640 -0.0303
    6MPD2    C214470   1.703   3.055  14.980  0.7965 -0.0653  0.7299
    6MPD2    C314471   1.689   2.943  15.058  0.4350  0.1494  0.2431
    6MPD2    C414472   1.568   2.925  15.122 -0.1846  0.0309  0.5901
    6MPD2    C514473   1.470   3.018  15.116 -0.5154  0.3915 -0.2503
    6MPD2     H14474   1.791   3.071  14.919 -1.3299  1.6351 -1.8577
    6MPD2    H114475   1.552   2.848  15.195 -0.4465  2.2143  2.8322
    6MPD2    H214476   1.393   3.195  15.039  1.0887 -0.1114  0.4060
    6MPD2    H314477   1.378   2.981  15.160  0.5129 -0.0184  1.5133
    6MPD2     N14478   1.803   2.857  15.071 -0.2648  0.1748 -0.1011
    6MPD2    H514479   1.887   2.888  15.022 -0.4803  0.8257 -0.0553
    6MPD2    N114480   1.636   3.266  14.896 -0.1494  0.0941 -0.5037
    6MPD2    H714481   1.727   3.271  14.852 -0.0570  0.2075 -0.3020
  945NH3     N114482   1.060   4.273   9.981 -0.2645 -0.4563 -0.1967
  945NH3     H214483   1.156   4.307   9.974 -0.4053 -0.4873 -2.2567
  945NH3     H314484   1.068   4.181   9.940  1.8431 -1.6957  2.9577
  945NH3     H414485   1.005   4.319   9.909  0.4737  3.0851  1.5243
  946SOD     NA14486   4.034   3.031  15.942 -0.6222  0.2052  0.6718
  947SOD     NA14487   4.455   4.027  13.316  0.1048  0.2356  0.2480
  948SOD     NA14488   3.466   2.332   9.320  0.0363 -0.0206 -0.1282
  949SOD     NA14489   2.354   0.508   1.600  0.2909 -0.0730  0.4868
  950SOD     NA14490   1.063   0.982   3.130 -0.3565  0.6797 -0.3926
  951SOD     NA14491   1.972   3.869  12.200  0.3110  0.1095  0.2359
  952SOD     NA14492   4.415   3.540  14.542  0.4566 -0.3473  0.5569
  953SOD     NA14493   2.310   2.018  15.394 -0.4385 -0.2147 -0.1826
  954SOL     OW14494   0.071   1.724   1.729  0.1546 -0.2775 -0.4418
  954SOL    HW114495   0.160   1.689   1.727  0.3067  0.0697  0.2415
  954SOL    HW214496   0.042   1.659   1.793  0.8324 -0.2980 -0.1522
  955SOL     OW14497   2.593   3.125   6.829  0.2277  0.0825 -0.1246
  955SOL    HW114498   2.676   3.154   6.866  0.6157 -2.4897  1.0512
  955SOL    HW214499   2.549   3.105   6.912  0.9958  0.9303  0.4856
  956SOL     OW14500   2.497   3.818   0.127  0.0468 -0.0784 -0.2425
  956SOL    HW114501   2.431   3.762   0.085  0.2220  1.9431 -3.1986
  956SOL    HW214502   2.564   3.810   0.058 -1.5298  1.8182 -2.0135
  957SOL     OW14503   0.636   0.535   2.945 -0.1548  0.0271  0.5778
  957SOL    HW114504   0.583   0.554   2.867  0.0696  0.4209  0.5207
  957SOL    HW214505   0.678   0.451   2.926 -1.9321 -0.3898 -1.5057
  958SOL     OW14506   1.047   0.337   6.103  0.2757  0.4391 -0.6400
  958SOL    HW114507   1.024   0.324   6.011  0.5539  2.1782 -0.9549
  958SOL    HW214508   1.064   0.431   6.102  0.8291  0.3723  1.2778
  959SOL     OW14509   0.383   2.892   2.619 -0.0713 -0.7289 -0.2459
  959SOL    HW114510   0.361   2.801   2.598  2.8933 -1.0651 -1.8613
  959SOL    HW214511   0.350   2.939   2.543 -2.5024 -2.3705 -0.2018
  960SOL     OW14512   2.321   4.155   5.145  0.3273  0.5279  0.0395
  960SOL    HW114513   2.299   4.163   5.052 -0.6887  4.4710  0.6164
  960SOL    HW214514   2.415   4.141   5.140  0.3465 -0.0727  2.2399
  961SOL     OW14515   1.871   3.212   4.222 -0.3552  0.1299  0.5201
  961SOL    HW114516   1.913   3.176   4.300 -0.8351  1.0381  1.1957
  961SOL    HW214517   1.949   3.237   4.171 -0.2442 -0.3015  0.4727
  962SOL     OW14518   4.018   4.571   7.181  0.2279  0.1769 -1.0233
  962SOL    HW114519   4.074   4.631   7.132  1.0496 -0.4323 -0.8172
  962SOL    HW214520   3.954   4.616   7.236  0.5949 -0.2744 -0.2212
  963SOL     OW14521   2.041   0.862   5.113  0.1258  0.0003 -0.2311
  963SOL    HW114522   2.078   0.781   5.148  3.2488  2.6789  2.6861
  963SOL    HW214523   2.035   0.925   5.185 -1.7850  0.0668 -0.4628
  964SOL     OW14524   2.182   2.558  17.346  0.0651 -0.4702  0.1461
  964SOL    HW114525   2.096   2.553  17.305  0.2187  1.5556 -0.4439
  964SOL    HW214526   2.169   2.489  17.411  0.3468 -0.1485  0.5477
  965SOL     OW14527   3.456   0.242   3.631  0.2187 -0.1448  0.6494
  965SOL    HW114528   3.395   0.284   3.692 -1.7233 -0.3593 -1.1487
  965SOL    HW214529   3.451   0.150   3.660 -1.5405 -0.3293 -0.2348
  966SOL     OW14530   4.242   0.707   4.363 -0.2013  0.4101  0.3327
  966SOL    HW114531   4.160   0.754   4.378 -0.7374  0.3645 -2.3830
  966SOL    HW214532   4.259   0.717   4.269  0.0655  0.5496  0.3961
  967SOL     OW14533   2.540   0.718   2.813 -0.7011  0.3931 -0.4024
  967SOL    HW114534   2.463   0.756   2.855 -1.3122  0.4391 -1.5639
  967SOL    HW214535   2.502   0.672   2.738  0.7245  1.0942 -1.5723
  968SOL     OW14536   2.323   3.004   1.393  0.1601  0.0095  0.1890
  968SOL    HW114537   2.330   3.053   1.311 -1.7899  0.4862  0.3022
  968SOL    HW214538   2.402   3.029   1.440 -0.0552 -0.8072  0.9829
  969SOL     OW14539   4.493   3.612   0.689 -0.1340  0.2968  0.0206
  969SOL    HW114540   4.538   3.635   0.608 -2.0196  1.3631 -0.7192
  969SOL    HW214541   4.511   3.519   0.699 -0.2370  0.3207  0.4274
  970SOL     OW14542   1.822   0.089   7.830  0.3798 -0.6778 -0.3136
  970SOL    HW114543   1.826   4.736   7.802  0.4781 -0.1302 -2.0596
  970SOL    HW214544   1.819   0.073   7.925  0.0923 -0.2102 -0.2451
  971SOL     OW14545   1.314   1.501   9.863 -0.4143 -0.2402  0.2139
  971SOL    HW114546   1.350   1.509   9.951 -1.9411  0.2402  0.8065
  971SOL    HW214547   1.223   1.477   9.881 -0.0629 -2.0208 -0.3869
  972SOL     OW14548   2.072   3.964   8.600  0.5270  0.6742  0.1716
  972SOL    HW114549   2.082   3.871   8.622  1.2433  0.2202 -2.0897
  972SOL    HW214550   2.155   3.999   8.631  1.8311  0.3718 -3.0153
  973SOL     OW14551   2.291   0.688   6.617 -0.1623 -0.9704 -0.4074
  973SOL    HW114552   2.356   0.621   6.597  1.7154  0.6317  0.3532
  973SOL    HW214553   2.247   0.645   6.691 -1.1637 -1.2581 -1.1720
  974SOL     OW14554   3.360   2.821  15.007  0.3996 -0.5525 -0.5805
  974SOL    HW114555   3.329   2.758  14.942 -1.1709 -0.6604  0.2661
  974SOL    HW214556   3.451   2.798  14.990  0.8076  1.6717 -1.4444
  975SOL     OW14557   0.394   2.421   3.850 -0.1553 -0.0016 -0.0410
  975SOL    HW114558   0.309   2.444   3.888 -0.9898  0.0991 -2.0016
  975SOL    HW214559   0.362   2.383   3.768 -1.8603 -0.9090  1.0397
  976SOL     OW14560   3.380   3.091   3.425 -0.3663  0.1181 -0.0504
  976SOL    HW114561   3.431   3.136   3.357 -1.7231  1.2539 -0.3093
  976SOL    HW214562   3.346   3.157   3.484  0.8943 -1.6684  2.6466
  977SOL     OW14563   3.867   2.986   6.265 -0.0044 -0.0687 -0.3172
  977SOL    HW114564   3.957   2.961   6.248  0.4604  1.1748  0.2737
  977SOL    HW214565   3.829   2.908   6.225  1.1265  0.1114 -1.7616
  978SOL     OW14566   3.261   1.247   3.265 -0.8327 -0.0501  0.1805
  978SOL    HW114567   3.220   1.328   3.296  3.3192  1.2578  2.2855
  978SOL    HW214568   3.325   1.227   3.333 -2.0392 -0.9988  1.0434
  979SOL     OW14569   0.639   1.769   4.861  0.0408 -0.1055  0.0563
  979SOL    HW114570   0.683   1.839   4.812 -0.9792  0.3243 -0.2489
  979SOL    HW214571   0.679   1.791   4.945 -0.2227 -0.2915  0.2294
  980SOL     OW14572   3.949   2.790  15.397  0.3134 -0.4423 -0.2334
  980SOL    HW114573   4.018   2.726  15.413  1.4470  0.8119 -0.0209
  980SOL    HW214574   3.868   2.742  15.415 -0.1757  0.4076 -0.1706
  981SOL     OW14575   2.499   3.093  12.155  0.0382  1.0158 -0.0201
  981SOL    HW114576   2.457   3.051  12.231  0.5825 -0.2584 -0.4256
  981SOL    HW214577   2.528   3.021  12.099 -3.2862 -0.7455  0.4775
  982SOL     OW14578   0.401   3.696   8.201  0.2638  0.4810  0.4386
  982SOL    HW114579   0.338   3.626   8.218  1.5188 -0.6884  0.2735
  982SOL    HW214580   0.456   3.640   8.148  1.8998  1.0466  1.5241
  983SOL     OW14581   2.645   3.177   0.400  0.1714  0.4888  0.4835
  983SOL    HW114582   2.579   3.192   0.332  1.3137 -0.0121 -0.7252
  983SOL    HW214583   2.596   3.195   0.480  1.2763 -0.0308  1.2721
  984SOL     OW14584   3.406   4.721   6.620  0.0590  0.0233  0.2485
  984SOL    HW114585   3.493   4.729   6.581  0.1752 -2.6789 -0.1009
  984SOL    HW214586   3.372   0.069   6.604  1.5874  0.4191 -0.9036
  985SOL     OW14587   1.900   4.669  11.156 -0.3335 -0.7099 -0.0037
  985SOL    HW114588   1.994   4.686  11.152 -0.3292 -0.8962 -0.6964
  985SOL    HW214589   1.858   4.730  11.217 -1.3298 -0.3918 -1.0065
  986SOL     OW14590   4.266   2.028   9.132 -0.8752  0.5227  0.0057
  986SOL    HW114591   4.350   1.986   9.116 -1.5706 -0.7658 -0.2808
  986SOL    HW214592   4.221   2.006   9.050  0.7741  0.6575 -0.9320
  987SOL     OW14593   4.041   0.268  13.867 -0.4773  0.2203  0.0157
  987SOL    HW114594   4.125   0.308  13.888 -0.2918  0.0632 -0.4236
  987SOL    HW214595   3.978   0.333  13.899 -0.5632  0.4970 -0.7148
  988SOL     OW14596   2.621   4.088  15.727 -0.4643  0.3242  0.0452
  988SOL    HW114597   2.628   3.993  15.742  1.0324  0.1377 -1.8297
  988SOL    HW214598   2.533   4.121  15.744 -0.3454  0.9305 -0.5187
  989SOL     OW14599   2.763   4.309  13.605  0.0933  0.1582  0.1717
  989SOL    HW114600   2.759   4.389  13.656  0.3997  1.0866 -1.2473
  989SOL    HW214601   2.683   4.285  13.651  0.0810 -1.9652 -0.9369
  990SOL     OW14602   4.402   1.372   6.186  0.5153 -0.3117 -0.8444
  990SOL    HW114603   4.318   1.401   6.152  0.6895  0.7620 -0.3605
  990SOL    HW214604   4.379   1.362   6.279  2.3373 -1.0334 -0.4693
  991SOL     OW14605   0.766   3.792   8.415  0.2006 -0.2755  0.6189
  991SOL    HW114606   0.692   3.842   8.448 -1.3993 -1.7904 -0.7169
  991SOL    HW214607   0.836   3.856   8.400 -0.0747  0.3540  2.0181
  992SOL     OW14608   1.216   4.013   8.522  0.2094  0.1120  0.3562
  992SOL    HW114609   1.194   3.990   8.612  1.6189  1.4936  1.0528
  992SOL    HW214610   1.249   4.102   8.535 -0.6552  0.8311 -2.3036
  993SOL     OW14611   3.864   4.656   9.985 -0.4281  0.6732 -0.1711
  993SOL    HW114612   3.826   4.646   9.898 -1.3148 -0.6578  0.3636
  993SOL    HW214613   3.940   4.598   9.984  1.2920  2.9438  0.1315
  994SOL     OW14614   4.199   3.745   2.319  0.2721 -0.1312 -0.0123
  994SOL    HW114615   4.231   3.655   2.318  0.9927  0.1100  0.9443
  994SOL    HW214616   4.119   3.738   2.267  0.4475  1.1452 -0.4524
  995SOL     OW14617   0.343   4.201   0.326 -0.1435  0.0429 -0.3886
  995SOL    HW114618   0.270   4.239   0.375  0.8787  0.0886  1.0992
  995SOL    HW214619   0.323   4.242   0.242 -0.2719  0.1571 -0.3006
  996SOL     OW14620   2.178   1.919   4.011  0.0469  0.3954 -0.3826
  996SOL    HW114621   2.256   1.864   4.013  0.6289  1.1869 -1.2613
  996SOL    HW214622   2.144   1.920   3.922  0.2690 -2.1175 -0.4935
  997SOL     OW14623   0.326   0.311   4.896 -0.0835 -0.0121 -0.5217
  997SOL    HW114624   0.263   0.310   4.824  2.1712  1.9256 -2.5224
  997SOL    HW214625   0.408   0.316   4.848 -0.5391 -0.7871 -1.3791
  998SOL     OW14626   0.362   0.100  15.803 -0.4408  0.4158  0.3568
  998SOL    HW114627   0.269   0.102  15.823 -0.4139  0.9938  0.4352
  998SOL    HW214628   0.364   0.006  15.789  0.6962  0.2537  1.6897
  999SOL     OW14629   2.584   1.360   4.069 -0.6409  0.2767  0.2509
  999SOL    HW114630   2.677   1.365   4.092 -0.9422  0.5934  1.3609
  999SOL    HW214631   2.586   1.339   3.975  0.1173 -0.3353  0.4017
 1000SOL     OW14632   4.341   4.472   4.842 -0.0717 -0.6874  0.8186
 1000SOL    HW114633   4.397   4.538   4.801 -0.7856  0.0660  1.0526
 1000SOL    HW214634   4.313   4.517   4.922 -0.5800  2.1043 -0.9451
 1001SOL     OW14635   3.656   0.871  12.083 -0.1434  0.1992  0.0890
 1001SOL    HW114636   3.662   0.853  11.990 -1.5718 -0.7357  0.1706
 1001SOL    HW214637   3.579   0.928  12.084 -0.4185 -0.1751  0.9317
 1002SOL     OW14638   2.234   3.087  16.837  0.3177  0.0473 -0.4215
 1002SOL    HW114639   2.157   3.035  16.813  1.4176 -1.0437 -1.5643
 1002SOL    HW214640   2.314   3.050  16.801  0.4845  0.0196 -0.0266
 1003SOL     OW14641   1.965   0.834   4.853  0.2497  0.1919  0.1412
 1003SOL    HW114642   1.987   0.743   4.834  0.8556  0.0970  1.2825
 1003SOL    HW214643   2.004   0.844   4.940  0.0765  1.2421  0.0965
 1004SOL     OW14644   4.159   2.837   9.565  0.1915 -0.0624 -0.1792
 1004SOL    HW114645   4.209   2.761   9.595 -0.8318 -0.4880  0.4537
 1004SOL    HW214646   4.071   2.798   9.558 -0.5964  1.6169  0.4349
 1005SOL     OW14647   2.462   0.227   1.884  0.4550  0.1737  0.5058
 1005SOL    HW114648   2.489   0.296   1.822  0.1006 -1.0533 -1.0261
 1005SOL    HW214649   2.496   0.148   1.841  1.5216 -0.2014  2.0600
 1006SOL     OW14650   1.182   2.327   3.356 -0.8863 -0.1286 -0.2210
 1006SOL    HW114651   1.157   2.266   3.425  1.8803 -0.5509  0.4302
 1006SOL    HW214652   1.099   2.328   3.308 -0.9078 -0.1493 -0.1840
 1007SOL     OW14653   2.174   4.256   2.312  0.0514 -0.3086 -0.3518
 1007SOL    HW114654   2.155   4.193   2.243 -0.4199  0.3960 -0.8660
 1007SOL    HW214655   2.198   4.209   2.392 -1.9222 -0.3423  0.2322
 1008SOL     OW14656   3.288   2.998   0.672  0.0503  0.5214  0.6126
 1008SOL    HW114657   3.217   2.977   0.731 -1.7446 -0.8828 -2.0592
 1008SOL    HW214658   3.258   3.086   0.649 -0.2143 -0.1895 -1.8222
 1009SOL     OW14659   3.652   3.036  17.326 -0.3453 -0.3315 -0.2358
 1009SOL    HW114660   3.584   2.972  17.345 -0.4961 -0.8890 -2.6555
 1009SOL    HW214661   3.722   3.004  17.383 -0.2817 -1.2846 -0.8522
 1010SOL     OW14662   3.932   3.397   1.759  0.0886  0.0909  0.8471
 1010SOL    HW114663   3.956   3.438   1.842 -1.1984 -0.5083  1.5215
 1010SOL    HW214664   4.011   3.406   1.706 -1.1206  2.1579 -0.6254
 1011SOL     OW14665   1.179   3.325   8.167  0.1353  0.1661  0.4763
 1011SOL    HW114666   1.256   3.275   8.142  0.0901  0.0099  0.6490
 1011SOL    HW214667   1.207   3.399   8.221  0.4234  0.0166  0.5272
 1012SOL     OW14668   2.988   0.934   2.184 -0.3507 -0.3090  0.1140
 1012SOL    HW114669   2.911   0.940   2.240 -0.5900  0.4574 -0.2945
 1012SOL    HW214670   3.006   1.027   2.179 -1.1761 -0.1478  0.0448
 1013SOL     OW14671   1.997   3.688   8.658  0.3285  0.4030 -0.9621
 1013SOL    HW114672   1.902   3.691   8.650  0.2783  0.8275 -0.2279
 1013SOL    HW214673   2.006   3.625   8.729  0.9743  1.8838  0.2620
 1014SOL     OW14674   3.783   4.099  12.035 -0.5838  0.9225 -0.3101
 1014SOL    HW114675   3.717   4.079  11.968 -2.1336  1.1380  1.1537
 1014SOL    HW214676   3.797   4.016  12.080  1.0284 -0.1436 -2.7848
 1015SOL     OW14677   4.008   2.962  17.318  0.3180 -0.1164  0.0755
 1015SOL    HW114678   4.048   3.036  17.364 -0.2659  0.8442 -0.9537
 1015SOL    HW214679   4.062   2.971  17.240 -2.9052 -1.5362 -2.3241
 1016SOL     OW14680   1.187   0.602   3.181  0.0876 -0.4156 -0.4290
 1016SOL    HW114681   1.200   0.596   3.276  0.1393 -0.5937 -0.4462
 1016SOL    HW214682   1.129   0.677   3.196  0.2284 -0.3531 -0.1969
 1017SOL     OW14683   0.782   2.429  13.208  0.7512  0.7396 -0.3353
 1017SOL    HW114684   0.854   2.491  13.197 -0.5799  2.5492  1.0220
 1017SOL    HW214685   0.710   2.472  13.161  0.8702  2.6409  1.2240
 1018SOL     OW14686   0.835   3.094  14.463  0.0345  0.3185 -0.0396
 1018SOL    HW114687   0.885   3.058  14.391  0.9610 -0.0615  0.7974
 1018SOL    HW214688   0.759   3.133  14.420  2.0845  1.8774 -2.2193
 1019SOL     OW14689   3.303   1.906   6.686  0.0692  0.0384 -0.2963
 1019SOL    HW114690   3.248   1.833   6.716 -0.3474 -0.2744 -1.8210
 1019SOL    HW214691   3.249   1.982   6.707  0.4738 -0.9207  4.1684
 1020SOL     OW14692   2.384   2.783   8.518 -0.1893 -0.2281  0.3632
 1020SOL    HW114693   2.470   2.741   8.518  0.0699  0.2856  1.2838
 1020SOL    HW214694   2.365   2.782   8.612  1.2002 -1.8754  0.6218
 1021SOL     OW14695   0.484   1.847   7.034  0.3165  0.6768  0.2100
 1021SOL    HW114696   0.432   1.833   6.955  0.8211 -0.6620  0.1082
 1021SOL    HW214697   0.522   1.933   7.018  3.5662 -0.9709 -0.7519
 1022SOL     OW14698   0.807   1.927  14.481  0.4177 -0.4757 -0.5715
 1022SOL    HW114699   0.874   1.991  14.460 -0.5755  0.8274  0.2696
 1022SOL    HW214700   0.863   1.854  14.454  0.9756 -0.8024  1.4979
 1023SOL     OW14701   3.682   3.414  17.017  0.1354 -0.0669  0.0025
 1023SOL    HW114702   3.592   3.444  17.032  0.5662  0.6904  1.0738
 1023SOL    HW214703   3.684   3.324  17.049 -0.1260 -0.1048 -0.0921
 1024SOL     OW14704   2.745   3.285   9.839  0.2472  0.4314 -0.6168
 1024SOL    HW114705   2.715   3.370   9.871 -0.2383 -0.0680  0.2626
 1024SOL    HW214706   2.661   3.253   9.806 -0.0103 -0.7320  1.1929
 1025SOL     OW14707   1.545   4.294  11.409 -0.0846  0.0438 -0.0035
 1025SOL    HW114708   1.465   4.343  11.387  1.1350  0.8367 -2.6349
 1025SOL    HW214709   1.617   4.346  11.375 -0.2566 -0.0767 -0.5674
 1026SOL     OW14710   3.128   2.303   3.944 -0.6976 -0.5602 -0.3949
 1026SOL    HW114711   3.095   2.214   3.936 -2.7662  0.0082  1.6610
 1026SOL    HW214712   3.085   2.342   4.020 -0.2974 -0.9425  0.0262
 1027SOL     OW14713   2.649   4.040  15.459  0.0291 -0.3588  0.3472
 1027SOL    HW114714   2.703   4.106  15.416  3.0776 -1.8426  1.9090
 1027SOL    HW214715   2.624   4.072  15.545 -0.0383  1.0785 -0.2156
 1028SOL     OW14716   1.070   3.869  15.862 -0.7320  0.2543 -0.2120
 1028SOL    HW114717   1.026   3.954  15.860  2.1741  1.7303 -1.1957
 1028SOL    HW214718   1.107   3.882  15.775  1.0667  0.5701  0.5999
 1029SOL     OW14719   1.423   3.262   2.567 -0.0020 -0.1951 -0.4576
 1029SOL    HW114720   1.414   3.271   2.662 -2.1857 -1.5608 -0.5361
 1029SOL    HW214721   1.486   3.191   2.568  2.1070  1.6521 -1.5122
 1030SOL     OW14722   2.167   2.785   9.041  0.2762 -0.2936 -0.0119
 1030SOL    HW114723   2.099   2.830   8.990 -1.2040 -0.8022  1.4958
 1030SOL    HW214724   2.230   2.760   8.974 -0.8371  0.9965 -1.5570
 1031SOL     OW14725   0.394   3.669   7.495 -0.1931  0.0242 -0.4377
 1031SOL    HW114726   0.335   3.740   7.520  1.0833  1.0271 -0.2835
 1031SOL    HW214727   0.354   3.590   7.533 -3.0174  1.7830  0.2423
 1032SOL     OW14728   0.256   1.141   7.145  0.1484 -0.2361 -0.3857
 1032SOL    HW114729   0.220   1.063   7.102 -0.9395 -0.0505  0.1936
 1032SOL    HW214730   0.232   1.208   7.081 -2.1428  0.6807  1.4445
 1033SOL     OW14731   2.501   1.680   4.964 -0.1844  0.0918  0.8409
 1033SOL    HW114732   2.444   1.660   5.039 -1.3698  0.4272  0.0317
 1033SOL    HW214733   2.447   1.654   4.889  1.0538  2.8565 -0.9704
 1034SOL     OW14734   0.669   4.281  10.726 -0.2001  0.0054  0.0369
 1034SOL    HW114735   0.763   4.272  10.717 -0.2521  1.2634 -1.7485
 1034SOL    HW214736   0.652   4.330  10.806  2.3863  2.7577 -1.1143
 1035SOL     OW14737   0.034   0.491  12.355 -0.0498 -0.6837  0.0574
 1035SOL    HW114738   0.108   0.468  12.412 -0.2222  1.1163  1.0161
 1035SOL    HW214739   0.078   0.470  12.273  1.0857  0.5936  0.3318
 1036SOL     OW14740   1.876   3.471   7.659  1.1460 -0.2726 -0.4339
 1036SOL    HW114741   1.859   3.419   7.580  0.4420  1.6802 -1.5808
 1036SOL    HW214742   1.809   3.425   7.709  0.2030 -0.8991 -2.2806
 1037SOL     OW14743   1.499   1.392   5.565 -0.1598 -0.6671  0.3217
 1037SOL    HW114744   1.533   1.445   5.638  2.2877  0.5790 -1.7246
 1037SOL    HW214745   1.457   1.451   5.503 -0.9279 -0.6439  0.8628
 1038SOL     OW14746   1.908   3.682   1.275 -0.1520  0.2210 -0.0296
 1038SOL    HW114747   1.910   3.661   1.369  1.1504 -1.8590 -0.5350
 1038SOL    HW214748   1.999   3.660   1.256 -0.7705 -2.1712 -0.1476
 1039SOL     OW14749   1.786   1.265  10.853  0.1979 -0.9572 -0.2565
 1039SOL    HW114750   1.691   1.278  10.858  0.4424  0.8448 -0.3102
 1039SOL    HW214751   1.802   1.337  10.793  1.0338 -0.0123  1.1028
 1040SOL     OW14752   1.291   0.524   6.010 -0.0936 -0.1318  0.7913
 1040SOL    HW114753   1.344   0.604   6.004  0.2279 -0.2494  2.0629
 1040SOL    HW214754   1.348   0.464   5.962  0.1777 -1.5627  2.9371
 1041SOL     OW14755   2.666   3.634   3.429  0.3911 -0.6533 -0.4372
 1041SOL    HW114756   2.705   3.547   3.428  4.1249  1.0301 -1.0573
 1041SOL    HW214757   2.739   3.690   3.456 -0.7863 -0.5901  2.6150
 1042SOL     OW14758   0.212   0.346   7.241  0.1282 -0.2851  0.4190
 1042SOL    HW114759   0.280   0.406   7.210 -0.5054  1.2075  1.9099
 1042SOL    HW214760   0.268   0.278   7.278  1.3115  0.5136  0.1096
 1043SOL     OW14761   1.000   0.098   3.968 -0.0254 -0.1739 -0.2101
 1043SOL    HW114762   0.917   0.051   3.970  0.7273 -1.4571  0.7598
 1043SOL    HW214763   0.978   0.188   3.991  0.0871 -0.9752  2.9871
 1044SOL     OW14764   0.529   3.705  11.803  0.0694  0.0416  0.1581
 1044SOL    HW114765   0.546   3.743  11.889  1.7827  2.5330 -1.2481
 1044SOL    HW214766   0.482   3.773  11.756  0.4262  0.8349  0.9368
 1045SOL     OW14767   3.198   3.989   2.796  0.2279  0.2062  0.1541
 1045SOL    HW114768   3.208   4.084   2.786 -0.7293  0.0964 -1.9274
 1045SOL    HW214769   3.111   3.979   2.759  0.4678 -0.7592 -0.1521
 1046SOL     OW14770   3.226   1.811  16.247  0.0015  0.4329  0.4405
 1046SOL    HW114771   3.220   1.882  16.311 -0.4486  1.1120 -0.3448
 1046SOL    HW214772   3.171   1.840  16.174 -1.9322 -0.7234  1.4621
 1047SOL     OW14773   2.711   4.391   5.602 -0.3565 -0.1047  0.1982
 1047SOL    HW114774   2.715   4.395   5.697 -0.3882  0.9821  0.1549
 1047SOL    HW214775   2.754   4.471   5.573 -1.1036  0.1906 -0.1047
 1048SOL     OW14776   0.226   1.528   1.618  0.3543 -0.0133  0.5341
 1048SOL    HW114777   0.146   1.478   1.600 -0.3572  1.4475 -0.3985
 1048SOL    HW214778   0.234   1.511   1.711 -1.0731 -0.3100  0.6107
 1049SOL     OW14779   2.298   0.125  15.423  1.0071  0.4393  0.3935
 1049SOL    HW114780   2.267   0.091  15.340  0.4241 -0.3181  0.9214
 1049SOL    HW214781   2.282   0.055  15.486 -0.5885 -0.2563 -0.8019
 1050SOL     OW14782   3.968   2.700   7.848  0.6035  0.7926  0.3586
 1050SOL    HW114783   4.051   2.672   7.811 -0.0783 -1.9690  0.8852
 1050SOL    HW214784   3.917   2.718   7.769 -0.7673 -0.7680  0.9017
 1051SOL     OW14785   1.961   2.223   4.227  0.4536 -0.0062 -0.3996
 1051SOL    HW114786   1.982   2.244   4.318  1.8514 -0.8639 -0.5088
 1051SOL    HW214787   1.960   2.127   4.228  0.5010  0.0044  0.6244
 1052SOL     OW14788   2.765   1.931   8.449 -0.0040  0.1960  0.0255
 1052SOL    HW114789   2.723   1.972   8.524  0.4381  0.2705  0.2314
 1052SOL    HW214790   2.747   2.004   8.389 -0.4840  2.4133  2.9126
 1053SOL     OW14791   3.801   1.677   9.607  0.0670  0.2225 -1.1169
 1053SOL    HW114792   3.715   1.708   9.580 -0.4880  1.5498  2.1864
 1053SOL    HW214793   3.783   1.585   9.624 -0.8815  0.3971 -1.2007
 1054SOL     OW14794   1.021   4.173  12.594 -0.0033 -0.0408 -0.1575
 1054SOL    HW114795   1.008   4.167  12.688 -0.8490 -1.1662 -0.3346
 1054SOL    HW214796   1.062   4.087  12.578  0.8957  0.1950  0.8894
 1055SOL     OW14797   0.223   1.495   7.988  0.0350  0.1062  0.0299
 1055SOL    HW114798   0.308   1.539   7.997  0.0111 -0.1988  1.6158
 1055SOL    HW214799   0.228   1.457   7.900 -0.6242 -1.1277  0.5347
 1056SOL     OW14800   4.070   2.234   4.152  0.5222 -0.0073 -0.1034
 1056SOL    HW114801   4.074   2.327   4.173 -5.0728  0.6480 -2.0230
 1056SOL    HW214802   4.061   2.243   4.057  2.6481  0.8968 -0.2209
 1057SOL     OW14803   1.596   3.590   2.504  0.3440 -0.0549  0.6233
 1057SOL    HW114804   1.669   3.624   2.452  0.0324  0.5342  0.5704
 1057SOL    HW214805   1.574   3.526   2.436  1.1321  1.4537 -1.0757
 1058SOL     OW14806   1.297   1.507   9.406  1.0354 -0.4851  0.1156
 1058SOL    HW114807   1.376   1.557   9.428  0.4937  0.1491  0.6228
 1058SOL    HW214808   1.233   1.537   9.471  0.2004 -0.8624 -0.5324
 1059SOL     OW14809   0.280   0.157   8.317 -0.1809  0.1936  0.0426
 1059SOL    HW114810   0.353   0.144   8.257 -0.6260 -1.8926 -0.0722
 1059SOL    HW214811   0.314   0.107   8.392 -1.1354 -0.4467  0.0588
 1060SOL     OW14812   4.079   0.019   4.152  0.1033  0.7803  0.2643
 1060SOL    HW114813   3.995   0.014   4.109  0.0816  0.8366  0.2997
 1060SOL    HW214814   4.059   4.733   4.242  1.9207  0.8190  0.6950
 1061SOL     OW14815   3.569   0.182   9.089  0.1397  0.2315  0.1148
 1061SOL    HW114816   3.616   0.122   9.145  2.1680  0.0645 -1.7710
 1061SOL    HW214817   3.500   0.203   9.152  1.5359 -0.0356  1.7222
 1062SOL     OW14818   4.370   2.376   2.204 -0.1947 -0.7477  0.2849
 1062SOL    HW114819   4.390   2.313   2.274  3.0755 -1.0350 -0.9520
 1062SOL    HW214820   4.295   2.335   2.161 -1.0091 -0.9791  1.9093
 1063SOL     OW14821   3.869   0.508  12.613 -0.3117 -0.2639 -0.1267
 1063SOL    HW114822   3.897   0.513  12.705  0.3420  3.3267 -0.5487
 1063SOL    HW214823   3.877   0.598  12.582  0.2734 -1.1922 -2.6039
 1064SOL     OW14824   0.404   4.305   1.206  0.1690  0.1590  0.2394
 1064SOL    HW114825   0.481   4.308   1.150  1.8543  0.0609  2.5433
 1064SOL    HW214826   0.420   4.371   1.273  1.4774  0.0644  0.0204
 1065SOL     OW14827   1.554   1.142  10.616  0.6936 -0.3524 -0.2854
 1065SOL    HW114828   1.548   1.106  10.527 -2.4522  0.4007 -0.3700
 1065SOL    HW214829   1.595   1.079  10.675 -0.8304 -0.7798  0.3001
 1066SOL     OW14830   0.397   1.720   7.645  0.1365 -0.6871 -0.0576
 1066SOL    HW114831   0.460   1.722   7.572  0.4663 -0.8477  0.2222
 1066SOL    HW214832   0.424   1.646   7.700 -0.9432 -1.1792 -0.1881
 1067SOL     OW14833   2.530   0.987   0.324 -0.8652 -0.6298  0.0676
 1067SOL    HW114834   2.587   1.006   0.250 -1.6812  1.5198 -0.0009
 1067SOL    HW214835   2.544   1.061   0.382  1.6709 -0.4443 -0.8096
 1068SOL     OW14836   2.825   3.688   4.240  0.7057 -0.4164  0.3616
 1068SOL    HW114837   2.877   3.608   4.249  3.0333  1.0183 -0.2742
 1068SOL    HW214838   2.879   3.741   4.300 -0.1524 -0.0591  0.8128
 1069SOL     OW14839   1.875   3.969   8.401  0.5191 -0.5441  0.7249
 1069SOL    HW114840   1.844   4.059   8.396  0.1638 -0.8951 -4.0036
 1069SOL    HW214841   1.922   3.963   8.484  0.0293  0.5698  1.0840
 1070SOL     OW14842   2.274   4.686  14.621  0.1854  0.5396 -0.2308
 1070SOL    HW114843   2.277   4.603  14.573  1.4179  1.2120 -1.3267
 1070SOL    HW214844   2.362   4.695  14.656  0.5250  1.0284 -1.2057
 1071SOL     OW14845   2.813   2.532   4.162 -0.1848 -0.0943 -0.5999
 1071SOL    HW114846   2.749   2.573   4.220  2.5983 -0.3731  2.6485
 1071SOL    HW214847   2.756   2.490   4.098 -1.6313 -0.4309  0.9048
 1072SOL     OW14848   2.246   4.457   2.137 -0.5824 -0.8321  0.6113
 1072SOL    HW114849   2.212   4.387   2.192  0.6537 -1.2394  0.8407
 1072SOL    HW214850   2.306   4.407   2.082 -0.0040  0.5992 -0.0722
 1073SOL     OW14851   2.353   3.009  10.728  0.3136  0.2154  0.3350
 1073SOL    HW114852   2.443   3.015  10.759  0.8338 -0.2391 -1.0707
 1073SOL    HW214853   2.319   2.942  10.787  0.5677 -0.9933 -0.8820
 1074SOL     OW14854   3.747   3.141   9.464 -0.3781 -1.0606  0.0737
 1074SOL    HW114855   3.837   3.120   9.490 -0.5819  1.4034  2.7851
 1074SOL    HW214856   3.702   3.086   9.528 -3.4488  1.1110 -0.2502
 1075SOL     OW14857   0.522   1.572   5.005  0.2811 -0.1148 -0.1559
 1075SOL    HW114858   0.560   1.643   4.953 -2.1711  1.2554 -0.0899
 1075SOL    HW214859   0.543   1.502   4.943 -1.1794 -0.6191 -0.0949
 1076SOL     OW14860   2.051   4.335   1.050  0.4645 -0.1698  0.1818
 1076SOL    HW114861   2.140   4.368   1.040  0.0382  0.8700 -0.2380
 1076SOL    HW214862   2.065   4.240   1.050  0.3058 -0.1806  2.2577
 1077SOL     OW14863   0.933   1.893   2.919  0.1488  0.5849  0.0379
 1077SOL    HW114864   0.968   1.833   2.853 -2.7591 -0.8992 -0.1570
 1077SOL    HW214865   0.913   1.828   2.987 -3.5272 -0.2938 -1.8852
 1078SOL     OW14866   3.927   3.846   3.201 -0.1386 -0.1669  0.2742
 1078SOL    HW114867   3.999   3.854   3.264  0.4761 -0.0434 -0.4498
 1078SOL    HW214868   3.854   3.822   3.258  0.6771 -2.8284  0.1783
 1079SOL     OW14869   3.001   4.055   2.397 -0.2170 -0.9047 -0.0709
 1079SOL    HW114870   3.094   4.046   2.377  0.8146  2.4160  3.2269
 1079SOL    HW214871   2.999   4.115   2.471  4.8499 -0.2054 -0.5032
 1080SOL     OW14872   1.064   0.603   6.983  0.5071 -0.2063 -0.0006
 1080SOL    HW114873   1.075   0.550   6.904 -0.2045  0.2023 -0.3739
 1080SOL    HW214874   0.993   0.555   7.024  1.1966  1.5176  3.1644
 1081SOL     OW14875   3.262   3.403   5.085 -0.1898 -0.5942 -0.1364
 1081SOL    HW114876   3.264   3.455   5.005  1.7778  0.9999  0.9609
 1081SOL    HW214877   3.335   3.344   5.069 -1.0112 -1.2410 -1.4803
 1082SOL     OW14878   0.009   0.502   7.047 -0.1485 -0.1935  0.6233
 1082SOL    HW114879   4.727   0.585   7.089 -2.9648 -0.7490  0.3265
 1082SOL    HW214880   0.049   0.457   7.121 -0.1682  0.9050  1.3015
 1083SOL     OW14881   3.016   3.449   9.160 -0.2278 -0.1665 -0.1570
 1083SOL    HW114882   3.090   3.389   9.168 -1.3537 -1.4069  0.9381
 1083SOL    HW214883   2.996   3.471   9.251  1.2631 -0.1321  0.1610
 1084SOL     OW14884   2.239   3.570   5.519 -0.1541 -0.8423  0.2813
 1084SOL    HW114885   2.245   3.616   5.436  3.1926 -1.3714  0.2496
 1084SOL    HW214886   2.312   3.614   5.562 -0.1277 -0.1840 -0.4547
 1085SOL     OW14887   2.355   2.533   3.865  0.1619 -0.3691  0.3635
 1085SOL    HW114888   2.335   2.442   3.845  0.0664 -0.2176 -0.2254
 1085SOL    HW214889   2.299   2.538   3.943  1.7865  3.5327  1.3310
 1086SOL     OW14890   0.513   4.683   0.135  0.1693  0.8269  0.0728
 1086SOL    HW114891   0.501   0.013   0.070  0.4587  1.5427  0.7914
 1086SOL    HW214892   0.495   4.600   0.090  0.8359  1.6563 -1.7252
 1087SOL     OW14893   1.501   1.552   2.287 -0.6153 -0.1463 -0.1486
 1087SOL    HW114894   1.595   1.558   2.270 -1.1836  1.6125 -2.6007
 1087SOL    HW214895   1.513   1.501   2.367  1.1360  0.5834  0.0408
 1088SOL     OW14896   0.525   2.887  16.986 -0.0741  0.6957 -0.0137
 1088SOL    HW114897   0.474   2.893  17.067  1.9099 -0.7465  1.3258
 1088SOL    HW214898   0.458   2.914  16.923  1.1313  1.7498 -0.8299
 1089SOL     OW14899   1.867   4.375  12.579  0.2877 -0.0207 -0.5399
 1089SOL    HW114900   1.839   4.356  12.669 -1.0754  0.9997 -0.7451
 1089SOL    HW214901   1.954   4.407  12.604  0.4124 -0.4105 -0.4774
 1090SOL     OW14902   4.591   2.172   7.459  0.1011  0.1102  0.1259
 1090SOL    HW114903   4.629   2.085   7.472 -2.2180 -0.6455  1.8702
 1090SOL    HW214904   4.653   2.202   7.393  0.9302  1.1235  1.3725
 1091SOL     OW14905   0.994   1.193  11.109  0.7182  0.2829  0.1367
 1091SOL    HW114906   0.997   1.163  11.199  2.8829 -1.9367 -0.6625
 1091SOL    HW214907   0.933   1.127  11.076  0.2446  1.4979 -1.4389
 1092SOL     OW14908   3.316   4.479  14.154  0.4332  0.2076  0.4585
 1092SOL    HW114909   3.319   4.411  14.222  0.9981 -1.6690 -1.4161
 1092SOL    HW214910   3.287   4.424  14.082  2.0358 -1.0914  0.7796
 1093SOL     OW14911   1.757   2.958   2.791  0.1615 -0.1762  0.2338
 1093SOL    HW114912   1.770   3.053   2.786  0.7801 -0.2621  0.1075
 1093SOL    HW214913   1.757   2.954   2.886 -0.4337 -2.4139  0.1395
 1094SOL     OW14914   3.470   3.532  10.844  0.2802 -0.5821 -0.3542
 1094SOL    HW114915   3.390   3.506  10.890  1.7883 -3.1806  0.8610
 1094SOL    HW214916   3.503   3.606  10.895  0.6349  0.1006 -1.5709
 1095SOL     OW14917   2.410   4.311   7.099  0.0240  0.5312  0.0224
 1095SOL    HW114918   2.505   4.325   7.101 -0.0214  0.5482  2.5120
 1095SOL    HW214919   2.404   4.238   7.162  0.1119  1.2255  0.8359
 1096SOL     OW14920   0.895   4.544  10.777 -0.6299  0.0513  0.2345
 1096SOL    HW114921   0.867   4.525  10.866 -2.0745 -0.8181 -0.4138
 1096SOL    HW214922   0.980   4.499  10.773 -1.3210 -1.2561  0.2810
 1097SOL     OW14923   4.506   3.668   4.556 -0.4700  0.1676 -0.0589
 1097SOL    HW114924   4.527   3.613   4.632 -1.5707  2.6668  2.0753
 1097SOL    HW214925   4.589   3.709   4.532  0.4907 -0.9296  1.3427
 1098SOL     OW14926   0.426   3.753   3.759  0.3582 -0.1625  0.4967
 1098SOL    HW114927   0.336   3.780   3.780  0.7744  0.4637  1.4631
 1098SOL    HW214928   0.467   3.834   3.732  1.4760 -0.1550  2.2089
 1099SOL     OW14929   0.395   2.268  17.046  0.4589 -0.0750  0.2488
 1099SOL    HW114930   0.324   2.205  17.060 -0.9202  1.0391 -1.8453
 1099SOL    HW214931   0.397   2.278  16.951  1.6832  2.3442  0.5304
 1100SOL     OW14932   3.198   2.600   2.787 -0.3851 -0.2068 -0.4067
 1100SOL    HW114933   3.213   2.651   2.867 -0.7863  2.8147 -2.2344
 1100SOL    HW214934   3.217   2.664   2.717  1.2874 -2.7844 -2.2930
 1101SOL     OW14935   2.898   2.492   2.040  0.2732 -0.0779  0.7004
 1101SOL    HW114936   2.864   2.580   2.055  1.5527  0.1884  2.0618
 1101SOL    HW214937   2.959   2.512   1.969  1.1911  1.6278  1.9634
 1102SOL     OW14938   4.546   2.405   2.919 -0.3178  0.3719 -0.1248
 1102SOL    HW114939   4.574   2.492   2.891  1.6445  0.0453  0.8116
 1102SOL    HW214940   4.621   2.354   2.891 -0.4874 -0.6920  1.3640
 1103SOL     OW14941   1.200   1.141  12.822 -0.5025  0.0131 -0.1923
 1103SOL    HW114942   1.152   1.221  12.799  2.1332  1.1335 -1.7143
 1103SOL    HW214943   1.254   1.170  12.895  0.2418 -1.1837 -0.2887
 1104SOL     OW14944   3.873   4.341   7.150  0.5691 -0.1335  0.1111
 1104SOL    HW114945   3.807   4.370   7.213 -0.1127 -1.3936 -0.0317
 1104SOL    HW214946   3.935   4.414   7.148  1.4487 -1.0481 -5.3141
 1105SOL     OW14947   3.441   1.110   0.231  0.6746 -0.3624 -0.2222
 1105SOL    HW114948   3.519   1.082   0.183  2.5738  1.0740  2.0984
 1105SOL    HW214949   3.378   1.061   0.178 -0.9930  1.4199  0.1137
 1106SOL     OW14950   2.763   1.323   6.814 -0.7750  0.3309  0.5884
 1106SOL    HW114951   2.723   1.394   6.764 -4.2987 -2.9913 -1.3523
 1106SOL    HW214952   2.711   1.250   6.779  0.1938 -0.6367  1.1513
 1107SOL     OW14953   2.160   0.277   8.749  0.3245 -0.4896  0.0517
 1107SOL    HW114954   2.103   0.289   8.825  1.7818  2.0910  0.7403
 1107SOL    HW214955   2.240   0.311   8.788  0.5543  0.0124 -0.8501
 1108SOL     OW14956   2.100   4.426  12.687  0.4089 -0.6818 -0.4780
 1108SOL    HW114957   2.192   4.411  12.708  0.9995  2.0796 -1.0088
 1108SOL    HW214958   2.082   4.516  12.717  1.6402 -0.8733  0.8395
 1109SOL     OW14959   3.855   2.270   8.215  0.4621  0.4181  0.3379
 1109SOL    HW114960   3.815   2.227   8.290 -2.6702  1.2792 -0.8681
 1109SOL    HW214961   3.859   2.196   8.154 -1.3526  1.0757 -0.5760
 1110SOL     OW14962   3.344   1.876   4.046  0.6649 -0.2763 -0.4204
 1110SOL    HW114963   3.285   1.832   3.985 -1.2720  1.2174  0.3644
 1110SOL    HW214964   3.372   1.801   4.098 -0.9201  0.7194  1.8846
 1111SOL     OW14965   3.942   0.079  14.763  0.2612 -0.1775  0.4421
 1111SOL    HW114966   3.872   0.099  14.701 -0.6415 -0.6985  1.2896
 1111SOL    HW214967   3.885   0.032  14.823 -0.1701 -0.3402 -0.0918
 1112SOL     OW14968   4.615   3.725  14.633  0.0383  0.2098 -0.2801
 1112SOL    HW114969   4.648   3.764  14.714  1.8262 -3.4052  0.7334
 1112SOL    HW214970   4.588   3.804  14.587  1.0149 -0.0593 -1.3257
 1113SOL     OW14971   4.356   0.111   3.811  0.0914 -0.0118  0.6118
 1113SOL    HW114972   4.374   0.181   3.874  0.1945  0.3996  0.1263
 1113SOL    HW214973   4.397   0.143   3.730  1.0756 -2.2890  0.2093
 1114SOL     OW14974   1.585   4.422   6.596  0.4348  0.3600 -0.2339
 1114SOL    HW114975   1.510   4.365   6.579 -0.1123  0.9772  0.1120
 1114SOL    HW214976   1.571   4.464   6.681  0.0738 -0.0810 -0.0751
 1115SOL     OW14977   1.579   4.668  11.991 -0.1778  0.0954  0.2036
 1115SOL    HW114978   1.626   4.597  11.947 -0.3371  0.4140 -0.4738
 1115SOL    HW214979   1.597   0.001  11.931  2.5394  1.2110  2.3287
 1116SOL     OW14980   0.471   0.953   6.191 -0.5146  0.2329 -0.0534
 1116SOL    HW114981   0.427   0.998   6.263  1.7525 -1.5050  2.4301
 1116SOL    HW214982   0.412   0.878   6.183  1.5149 -1.2747 -0.9516
 1117SOL     OW14983   2.740   0.355   3.194 -0.6307  0.5244  0.0334
 1117SOL    HW114984   2.697   0.418   3.135  1.5006  0.5215 -1.4920
 1117SOL    HW214985   2.766   0.286   3.133  2.6589 -1.3971  3.6433
 1118SOL     OW14986   3.555   0.577   0.768 -0.0299 -0.0864 -0.3877
 1118SOL    HW114987   3.496   0.557   0.841  0.3393 -0.2862 -0.1442
 1118SOL    HW214988   3.637   0.560   0.814  1.2485  0.0329 -2.6592
 1119SOL     OW14989   3.918   3.233   6.044  0.0778  0.6800 -0.4610
 1119SOL    HW114990   3.875   3.161   5.998  0.1977  0.7003 -0.6077
 1119SOL    HW214991   4.009   3.201   6.049 -1.0307 -2.5068 -0.4052
 1120SOL     OW14992   4.123   0.221   5.568  0.2092 -0.2241 -0.0438
 1120SOL    HW114993   4.202   0.236   5.619  0.5255 -0.9253 -0.3213
 1120SOL    HW214994   4.164   0.208   5.483 -1.0974  1.0728 -0.8640
 1121SOL     OW14995   1.400   4.254   1.849  0.4305 -0.6424  0.3396
 1121SOL    HW114996   1.368   4.164   1.844 -1.9957  0.2878 -0.9813
 1121SOL    HW214997   1.451   4.255   1.930 -0.0194 -0.7164  0.6229
 1122SOL     OW14998   1.749   0.281   9.079  0.2436 -0.2300  0.2033
 1122SOL    HW114999   1.790   0.219   9.140 -0.1607 -1.8381 -1.1563
 1122SOL    HW215000   1.683   0.223   9.041  1.9921 -1.3927 -1.0560
 1123SOL     OW15001   3.284   3.701   4.864 -0.6833  0.2402 -0.2621
 1123SOL    HW115002   3.312   3.792   4.854 -1.0626  0.3525 -0.2811
 1123SOL    HW215003   3.193   3.717   4.888  0.0455  2.2126  1.2077
 1124SOL     OW15004   0.113   3.706   3.428  0.0946  0.1422  0.0582
 1124SOL    HW115005   0.199   3.665   3.423 -0.5676 -0.9404 -2.6700
 1124SOL    HW215006   0.134   3.795   3.456 -2.2726  0.3429  1.1763
 1125SOL     OW15007   1.400   1.469  11.820  0.0204 -0.0943 -0.3051
 1125SOL    HW115008   1.484   1.501  11.787 -0.1284 -1.4742 -2.0391
 1125SOL    HW215009   1.347   1.459  11.741 -2.3952  0.3486  1.2708
 1126SOL     OW15010   1.364   0.597   7.352  0.2861 -0.4384  0.1036
 1126SOL    HW115011   1.336   0.548   7.429 -0.6203  0.2598  0.2174
 1126SOL    HW215012   1.280   0.637   7.329 -0.1182 -1.4625 -0.2437
 1127SOL     OW15013   3.531   0.613   4.975  0.2644 -0.7352  0.5756
 1127SOL    HW115014   3.536   0.645   4.885  0.1588 -0.5863  0.6207
 1127SOL    HW215015   3.623   0.597   4.995  0.7720  1.0936 -0.3449
 1128SOL     OW15016   4.694   3.166   3.719 -0.5176  0.2778 -0.2503
 1128SOL    HW115017   4.736   3.250   3.706 -0.4707  0.0786 -1.3869
 1128SOL    HW215018   4.629   3.189   3.785  0.6948  0.0768  1.0066
 1129SOL     OW15019   3.974   3.740  14.977 -0.3466  0.1491  0.4777
 1129SOL    HW115020   3.910   3.678  15.013  0.8479 -0.5397  1.4302
 1129SOL    HW215021   4.058   3.698  14.996 -0.4641 -0.5718 -0.5650
 1130SOL     OW15022   0.710   0.145  12.315 -0.1206 -0.3136  0.0782
 1130SOL    HW115023   0.621   0.136  12.351 -0.4753 -0.6401 -0.8767
 1130SOL    HW215024   0.707   0.240  12.306 -1.3096 -0.1255  2.3276
 1131SOL     OW15025   4.404   0.603   5.824  0.1324 -0.7730 -0.1767
 1131SOL    HW115026   4.384   0.650   5.904 -0.3555  0.0393 -0.7721
 1131SOL    HW215027   4.490   0.569   5.850  0.4390 -0.1120 -0.3212
 1132SOL     OW15028   4.106   3.915   7.863 -0.1514  0.2188 -0.1737
 1132SOL    HW115029   4.132   3.952   7.947  0.2151 -1.2225  0.3558
 1132SOL    HW215030   4.043   3.847   7.889  0.0505 -0.6352 -1.8888
 1133SOL     OW15031   1.980   3.236   0.313 -0.1341  0.1376  0.3952
 1133SOL    HW115032   1.996   3.186   0.233 -2.3330 -2.1583  1.4198
 1133SOL    HW215033   2.047   3.304   0.298  0.3868 -0.2561  0.9340
 1134SOL     OW15034   0.155   3.806   2.583 -0.4899 -0.3061  0.2200
 1134SOL    HW115035   0.107   3.805   2.666 -0.0675  0.1493  0.4654
 1134SOL    HW215036   0.168   3.713   2.566  0.6643 -0.4433  1.8548
 1135SOL     OW15037   3.466   2.157   3.399  0.6718 -0.0893  0.3803
 1135SOL    HW115038   3.401   2.102   3.354 -0.2723  1.1852  0.1892
 1135SOL    HW215039   3.540   2.167   3.340 -0.1328  1.5729 -0.3521
 1136SOL     OW15040   2.610   4.323   4.905  0.0556 -0.5153  0.2038
 1136SOL    HW115041   2.621   4.414   4.931 -1.8094 -0.0343 -0.7044
 1136SOL    HW215042   2.589   4.343   4.814 -2.5636  0.7068  1.0738
 1137SOL     OW15043   1.165   2.597   8.298  0.5764 -0.0615 -0.1948
 1137SOL    HW115044   1.123   2.632   8.220  1.3615  0.3110 -0.4557
 1137SOL    HW215045   1.143   2.658   8.368  2.0852  0.5557 -0.2444
 1138SOL     OW15046   2.410   3.809   6.650 -0.5001 -0.0745  0.1057
 1138SOL    HW115047   2.343   3.867   6.688  2.6626  0.3113  5.1279
 1138SOL    HW215048   2.431   3.854   6.568 -1.3499 -0.1967 -0.1785
 1139SOL     OW15049   1.226   4.431   0.163 -0.0035 -0.0787 -0.2658
 1139SOL    HW115050   1.158   4.384   0.114  0.9507 -0.3762 -1.3010
 1139SOL    HW215051   1.307   4.385   0.137 -0.1089 -1.0749  1.1549
 1140SOL     OW15052   4.064   3.656   1.671  0.1702 -0.7496  0.1829
 1140SOL    HW115053   4.047   3.686   1.760  0.3520  0.6050 -0.2509
 1140SOL    HW215054   4.139   3.597   1.680  1.5913  1.1809  0.9962
 1141SOL     OW15055   1.186   3.158   4.815 -0.1565  0.1016  0.2415
 1141SOL    HW115056   1.172   3.244   4.855 -0.2387 -0.8075  2.1682
 1141SOL    HW215057   1.121   3.150   4.745 -1.9668  0.8697  1.8208
 1142SOL     OW15058   4.279   0.239   5.040  0.5484 -0.9025 -0.1235
 1142SOL    HW115059   4.189   0.270   5.031  1.1217  1.0328  0.7173
 1142SOL    HW215060   4.320   0.265   4.957 -0.1535  0.9381  0.1008
 1143SOL     OW15061   1.515   2.765   8.943 -0.0211  0.3085  0.4668
 1143SOL    HW115062   1.539   2.681   8.903  1.5830  0.1012  1.8546
 1143SOL    HW215063   1.595   2.811   8.917  0.3040 -0.8721 -0.6398
 1144SOL     OW15064   0.887   3.324  10.269 -0.6806  0.2311 -0.4709
 1144SOL    HW115065   0.908   3.351  10.358 -0.1488  1.8871 -1.1030
 1144SOL    HW215066   0.846   3.243  10.299 -0.8830  0.0282 -1.2871
 1145SOL     OW15067   3.499   1.644   6.213  0.0569 -0.3130 -0.1598
 1145SOL    HW115068   3.547   1.723   6.239 -0.2053 -0.3592  0.4834
 1145SOL    HW215069   3.472   1.616   6.301 -1.6545  2.0498  0.0875
 1146SOL     OW15070   2.683   4.487   6.648 -0.4264 -0.1143 -0.2391
 1146SOL    HW115071   2.644   4.570   6.675  0.9659  0.2073  0.7792
 1146SOL    HW215072   2.629   4.421   6.691  0.7630  0.2615  1.8357
 1147SOL     OW15073   2.974   1.456   8.741  0.5432  0.0607  0.1764
 1147SOL    HW115074   3.004   1.546   8.728  0.2951  0.1599  0.2914
 1147SOL    HW215075   2.951   1.465   8.834 -0.0356  1.8498 -0.1413
 1148SOL     OW15076   1.869   1.542   2.574 -0.5430  0.2793 -0.1291
 1148SOL    HW115077   1.883   1.624   2.621 -0.5900 -0.4202  1.1145
 1148SOL    HW215078   1.805   1.569   2.508 -1.4928  1.2506  1.1933
 1149SOL     OW15079   3.236   4.459   5.312  0.3154 -0.0355  0.1315
 1149SOL    HW115080   3.245   4.554   5.309  0.8769 -0.0499  1.4663
 1149SOL    HW215081   3.254   4.438   5.220 -2.5896 -1.5368 -0.1029
 1150SOL     OW15082   3.432   0.480   9.093  0.5282 -0.1435  0.4672
 1150SOL    HW115083   3.443   0.435   9.177  2.7767  0.8495  0.6825
 1150SOL    HW215084   3.494   0.439   9.033  1.0692  1.4512 -0.0531
 1151SOL     OW15085   0.754   1.330   5.038 -0.6004 -0.1961 -0.2082
 1151SOL    HW115086   0.707   1.263   4.988 -0.4561  0.4002 -1.1437
 1151SOL    HW215087   0.712   1.318   5.123  0.7885  1.3598  0.6911
 1152SOL     OW15088   0.625   2.688   7.211 -0.1952 -0.5161 -0.3026
 1152SOL    HW115089   0.542   2.732   7.193  0.8409  0.9119 -1.5736
 1152SOL    HW215090   0.693   2.753   7.194 -0.7873  0.1439 -0.1361
 1153SOL     OW15091   3.594   3.145   4.001 -0.2772 -0.2318  0.0615
 1153SOL    HW115092   3.568   3.066   4.049 -1.2245  1.0139  1.5775
 1153SOL    HW215093   3.689   3.132   3.997 -0.1601  0.2689  1.1838
 1154SOL     OW15094   1.342   0.929   1.236  0.5489  0.9126  0.3222
 1154SOL    HW115095   1.399   0.859   1.203  0.5451  0.2623  1.7068
 1154SOL    HW215096   1.268   0.880   1.270  0.6311  0.2787 -0.4205
 1155SOL     OW15097   3.455   2.021   6.474 -1.2657  0.2485 -0.1595
 1155SOL    HW115098   3.409   1.977   6.545 -0.2856  1.4810  1.2340
 1155SOL    HW215099   3.485   2.102   6.515  0.1993 -0.4352  0.1183
 1156SOL     OW15100   0.725   0.941  14.642 -0.2131  0.1513  0.0669
 1156SOL    HW115101   0.663   0.918  14.711  0.5485 -4.2424 -0.7162
 1156SOL    HW215102   0.671   0.896  14.577 -0.4252 -0.1868  0.4799
 1157SOL     OW15103   0.164   0.472   9.265  0.3814 -0.1880  0.0264
 1157SOL    HW115104   0.207   0.527   9.200  0.9427  1.0132  1.3998
 1157SOL    HW215105   0.080   0.451   9.224 -0.6212  4.4660 -0.4170
 1158SOL     OW15106   4.523   4.170   1.951  0.3964  0.0480 -0.2607
 1158SOL    HW115107   4.431   4.149   1.968 -0.1718  1.9526 -0.9864
 1158SOL    HW215108   4.536   4.118   1.871 -0.2208 -0.5307  0.0152
 1159SOL     OW15109   0.332   1.105   4.830 -0.0806 -0.5341 -0.1345
 1159SOL    HW115110   0.314   1.049   4.906  0.3438 -1.8960 -1.0399
 1159SOL    HW215111   0.248   1.093   4.787 -1.1007  0.4349  1.5654
 1160SOL     OW15112   1.152   3.893   5.384  0.1199 -0.1303  0.4697
 1160SOL    HW115113   1.202   3.975   5.391  0.2330 -0.1333 -0.3243
 1160SOL    HW215114   1.180   3.845   5.306  0.4926  0.4065  0.2753
 1161SOL     OW15115   0.010   3.007   9.485 -0.6225 -0.6486  0.2587
 1161SOL    HW115116   4.664   2.988   9.448  1.0383  0.1629 -3.9380
 1161SOL    HW215117   0.044   3.065   9.417 -0.1691 -0.6513  0.4795
 1162SOL     OW15118   2.685   4.517  17.216  0.2080  1.1440 -0.4917
 1162SOL    HW115119   2.692   4.613  17.221  1.0954  1.0625 -0.1371
 1162SOL    HW215120   2.664   4.514  17.123  0.2152  0.2774 -0.4611
 1163SOL     OW15121   0.909   4.683   6.495  0.3605  0.3063  0.3190
 1163SOL    HW115122   0.848   0.003   6.539  2.5062  1.9430  1.0950
 1163SOL    HW215123   0.953   0.003   6.433 -3.6228  1.2455 -1.6075
 1164SOL     OW15124   0.071   0.750   4.665  0.2096  0.0384 -0.5211
 1164SOL    HW115125   0.012   0.794   4.604 -1.8223 -1.6164  0.2881
 1164SOL    HW215126   0.153   0.782   4.626 -0.3249 -0.1607 -1.8327
 1165SOL     OW15127   2.343   3.879   7.143 -0.3261  0.1191 -0.9250
 1165SOL    HW115128   2.332   3.790   7.176 -0.7182  0.3941 -0.3018
 1165SOL    HW215129   2.269   3.873   7.083 -1.1314 -1.3665  0.2197
 1166SOL     OW15130   1.201   3.514  14.935 -0.2083  0.5055 -0.0116
 1166SOL    HW115131   1.286   3.475  14.916 -0.0965 -0.2168  1.9614
 1166SOL    HW215132   1.150   3.434  14.944  1.4381 -0.7437 -1.8484
 1167SOL     OW15133   0.208   4.298   6.744 -0.4629 -0.3624  0.5433
 1167SOL    HW115134   0.168   4.295   6.658 -1.5594 -3.4701  1.1329
 1167SOL    HW215135   0.252   4.213   6.738  1.0289  0.5876 -1.7251
 1168SOL     OW15136   1.658   2.310   4.073  0.0385  0.3837  0.4480
 1168SOL    HW115137   1.574   2.319   4.028  0.1961  3.8712  0.8400
 1168SOL    HW215138   1.631   2.248   4.142 -0.5819  0.3148  0.1390
 1169SOL     OW15139   1.538   1.885   8.059 -0.6479  0.0976 -0.0527
 1169SOL    HW115140   1.509   1.811   8.006 -2.1697 -1.0592  2.3860
 1169SOL    HW215141   1.454   1.914   8.096 -1.3221 -1.8655 -0.0363
 1170SOL     OW15142   2.708   4.465  10.418 -0.1501 -0.1274 -0.3490
 1170SOL    HW115143   2.710   4.560  10.408  0.0501 -0.1721 -0.7178
 1170SOL    HW215144   2.774   4.453  10.486  0.4326 -0.5112 -0.9877
 1171SOL     OW15145   1.289   1.709   3.903  0.3479 -0.2848  0.2052
 1171SOL    HW115146   1.288   1.617   3.927 -0.9959 -0.5020 -0.7112
 1171SOL    HW215147   1.224   1.734   3.969 -0.8037 -1.9164 -0.3154
 1172SOL     OW15148   1.712   2.771   2.513 -0.7992  0.1891 -0.0263
 1172SOL    HW115149   1.701   2.736   2.424  1.1447 -0.9248  0.1664
 1172SOL    HW215150   1.711   2.691   2.566  0.1060 -0.2379 -0.6604
 1173SOL     OW15151   4.501   3.403  16.241  0.1681 -0.5086 -0.0321
 1173SOL    HW115152   4.466   3.323  16.201 -0.1234 -0.9471  1.0993
 1173SOL    HW215153   4.568   3.419  16.175  1.0652 -1.6484  0.5846
 1174SOL     OW15154   2.380   1.459  12.136  0.0876  0.1670  0.6035
 1174SOL    HW115155   2.461   1.422  12.102 -0.2226  0.6728 -0.6811
 1174SOL    HW215156   2.376   1.389  12.202 -1.4325 -1.3605 -1.0852
 1175SOL     OW15157   0.983   1.379   7.301  0.4204 -0.3828 -0.2223
 1175SOL    HW115158   1.064   1.333   7.323  0.6506  0.0824 -0.0867
 1175SOL    HW215159   1.015   1.436   7.231 -1.3023  0.4852 -0.3078
 1176SOL     OW15160   4.409   3.333   1.841 -0.3597 -0.3409 -0.5803
 1176SOL    HW115161   4.379   3.302   1.927  2.3263  1.8736  1.1665
 1176SOL    HW215162   4.400   3.249   1.796 -1.2962 -0.0123 -1.0034
 1177SOL     OW15163   2.033   3.852   2.247 -0.0124 -0.4306  0.1846
 1177SOL    HW115164   2.025   3.924   2.184 -1.4387  1.5255  2.5947
 1177SOL    HW215165   2.002   3.777   2.196  1.4099  0.2385 -1.6622
 1178SOL     OW15166   1.969   0.987   0.444  0.7246 -0.0827 -0.0406
 1178SOL    HW115167   2.058   0.998   0.413  0.9558 -0.3164  0.5445
 1178SOL    HW215168   2.001   1.009   0.532  0.1496  1.4414 -0.2179
 1179SOL     OW15169   2.011   4.222   5.681  0.7653 -0.3874  0.3760
 1179SOL    HW115170   2.106   4.226   5.689  0.7008  0.3816  0.7378
 1179SOL    HW215171   2.004   4.129   5.661 -1.9138 -0.2270  0.4744
 1180SOL     OW15172   2.215   0.164   3.568 -0.6371 -0.1469  0.5491
 1180SOL    HW115173   2.298   0.149   3.523 -1.3026 -1.0308 -0.3710
 1180SOL    HW215174   2.199   0.082   3.614 -0.3227  0.3775  1.5982
 1181SOL     OW15175   3.296   4.648   5.643  0.1972  0.9885 -0.1669
 1181SOL    HW115176   3.263   4.664   5.554 -0.0452 -1.3429 -0.4827
 1181SOL    HW215177   3.258   4.561   5.652  0.5220  0.7456 -1.1608
 1182SOL     OW15178   2.326   3.337  12.019 -0.5698 -0.0316  0.5221
 1182SOL    HW115179   2.254   3.379  12.067  0.1717  2.5855 -0.6621
 1182SOL    HW215180   2.350   3.256  12.063  0.7184  0.6497  1.0466
 1183SOL     OW15181   1.796   2.139   0.127  0.0927  0.2095 -0.2847
 1183SOL    HW115182   1.758   2.126   0.040  0.0204  0.1178 -0.2382
 1183SOL    HW215183   1.739   2.092   0.188  1.4503 -2.0378 -0.7720
 1184SOL     OW15184   0.187   1.731   4.486 -0.1028  0.5013  0.5987
 1184SOL    HW115185   0.217   1.812   4.444  1.3793 -0.3506  0.0266
 1184SOL    HW215186   0.156   1.757   4.573 -0.3751  1.1763  0.3034
 1185SOL     OW15187   2.624   3.850   4.835  0.1069 -0.1848  0.1924
 1185SOL    HW115188   2.703   3.882   4.791 -0.1187  0.8269  0.5309
 1185SOL    HW215189   2.565   3.873   4.763  1.6190  1.5157 -0.4906
 1186SOL     OW15190   1.003   0.597   2.561  0.1813  0.6887 -0.3461
 1186SOL    HW115191   1.091   0.607   2.597 -0.7071  1.1287  1.7120
 1186SOL    HW215192   0.980   0.506   2.579  0.6222  1.0260  1.9591
 1187SOL     OW15193   0.164   4.051  10.088 -0.2492  0.0376  0.6314
 1187SOL    HW115194   0.109   4.028  10.163 -0.0857  0.9222  1.0216
 1187SOL    HW215195   0.131   4.135  10.056  0.1326 -0.4028 -0.9124
 1188SOL     OW15196   1.932   4.696   6.733 -0.2422  0.2874  0.2368
 1188SOL    HW115197   1.853   0.001   6.702  0.5000  0.1797 -1.7941
 1188SOL    HW215198   1.928   4.720   6.826  0.7280 -0.0244  0.3657
 1189SOL     OW15199   1.520   2.463  13.656 -0.3037 -0.6340 -0.2369
 1189SOL    HW115200   1.527   2.557  13.641  1.7847 -0.6279  0.7283
 1189SOL    HW215201   1.425   2.454  13.662  0.0264 -2.5441  2.1953
 1190SOL     OW15202   3.984   1.635   9.195  0.3782  0.1256 -0.5675
 1190SOL    HW115203   3.977   1.546   9.160  0.5190 -0.7494  1.5959
 1190SOL    HW215204   4.076   1.639   9.222  0.8683  0.5622 -2.3084
 1191SOL     OW15205   1.026   1.758   2.337  0.0050 -0.3480  0.1619
 1191SOL    HW115206   1.003   1.669   2.362  2.2331 -0.5986  1.3092
 1191SOL    HW215207   1.090   1.735   2.270  1.1139  1.6596  0.5101
 1192SOL     OW15208   3.722   1.326   7.199 -0.0271  0.5257  0.2065
 1192SOL    HW115209   3.688   1.251   7.150 -0.9471  0.8264  0.3990
 1192SOL    HW215210   3.817   1.311   7.195 -0.1003 -0.2076  1.3269
 1193SOL     OW15211   3.427   1.168   5.752  0.0188 -0.6892  0.2060
 1193SOL    HW115212   3.419   1.165   5.847 -0.9911 -0.6612  0.1255
 1193SOL    HW215213   3.473   1.251   5.736 -0.6240 -0.4331 -0.3165
 1194SOL     OW15214   4.684   1.921   0.585  0.1018  0.5102  0.1246
 1194SOL    HW115215   4.693   1.835   0.546 -1.6573  0.4651 -0.1764
 1194SOL    HW215216   0.005   1.904   0.657 -0.2610  1.1483  0.5807
 1195SOL     OW15217   3.189   2.956   8.618 -0.3799 -0.4667  0.2461
 1195SOL    HW115218   3.104   2.974   8.658 -0.5416 -1.6261  0.4433
 1195SOL    HW215219   3.192   2.862   8.639  0.1286  0.1727  3.0579
 1196SOL     OW15220   1.125   1.079   5.015  0.3901  0.4648 -0.2820
 1196SOL    HW115221   1.099   1.161   5.055  0.5684  0.2892  0.1912
 1196SOL    HW215222   1.142   1.029   5.094  1.1732  0.9863 -0.1274
 1197SOL     OW15223   3.340   4.007   6.451  0.0777  0.3713 -0.5617
 1197SOL    HW115224   3.293   4.090   6.451  0.4237  0.5646 -1.5856
 1197SOL    HW215225   3.269   3.962   6.496 -0.3291  1.7280  0.1477
 1198SOL     OW15226   2.009   0.935   2.565 -0.1171 -0.1370 -0.5155
 1198SOL    HW115227   2.069   0.950   2.638  1.7305 -1.2360 -1.8352
 1198SOL    HW215228   2.040   0.856   2.522  1.1600  0.6158 -0.9968
 1199SOL     OW15229   0.054   1.630   0.026 -0.3267 -0.1802 -0.0591
 1199SOL    HW115230   0.050   1.718   0.062 -0.2813 -0.4605  0.6409
 1199SOL    HW215231   0.141   1.603   0.054 -0.3594 -3.1358 -2.8538
 1200SOL     OW15232   1.594   0.533   4.492 -0.2969 -0.3438  0.0666
 1200SOL    HW115233   1.523   0.545   4.554 -0.4776 -0.7043 -0.0706
 1200SOL    HW215234   1.624   0.619   4.461  0.4030 -1.0745 -1.3110
 1201SOL     OW15235   0.963   2.552  16.008 -0.3477 -0.2200  0.5672
 1201SOL    HW115236   0.871   2.526  16.015 -1.1121  2.3090 -0.2809
 1201SOL    HW215237   0.966   2.608  15.931  0.3149  0.2335  0.9158
 1202SOL     OW15238   4.069   1.927   2.731 -0.3361  0.5495 -0.1336
 1202SOL    HW115239   4.021   1.982   2.794 -0.2153 -2.4589  2.5563
 1202SOL    HW215240   4.158   1.921   2.763  0.5911  1.2372 -2.5840
 1203SOL     OW15241   0.380   3.887   8.397 -0.6619 -0.0935  0.3305
 1203SOL    HW115242   0.383   3.815   8.334  0.5259  1.2029 -1.1028
 1203SOL    HW215243   0.292   3.871   8.428 -0.9424  0.9495  0.1029
 1204SOL     OW15244   0.165   3.842   3.832 -0.4782  0.0144 -0.3092
 1204SOL    HW115245   0.208   3.926   3.815 -0.3531 -0.2261 -1.1709
 1204SOL    HW215246   0.073   3.866   3.829 -0.5462 -0.0053  1.4689
 1205SOL     OW15247   2.560   1.978   4.752  0.1828  0.6659 -0.1512
 1205SOL    HW115248   2.596   1.947   4.835  0.2801  3.5103  0.8371
 1205SOL    HW215249   2.627   2.043   4.731  0.3450  0.3521 -0.6330
 1206SOL     OW15250   1.308   4.280   2.460  0.3220 -0.1819  0.2508
 1206SOL    HW115251   1.224   4.310   2.425  0.2627  0.0737  0.6033
 1206SOL    HW215252   1.282   4.309   2.548  3.5698 -0.2101  1.2017
 1207SOL     OW15253   4.148   0.649   7.009  0.2810 -0.3254 -0.1418
 1207SOL    HW115254   4.105   0.563   7.008  0.5868 -0.4508 -1.9188
 1207SOL    HW215255   4.240   0.630   6.996  0.6282  0.9010  0.5401
 1208SOL     OW15256   1.819   0.703  10.356  0.1185 -0.5046 -0.2063
 1208SOL    HW115257   1.835   0.636  10.289  0.1964 -0.9518  0.2507
 1208SOL    HW215258   1.858   0.780  10.315  0.9074 -0.4513  0.6278
 1209SOL     OW15259   1.450   4.249   4.099  0.2532 -0.1963  0.3080
 1209SOL    HW115260   1.413   4.295   4.024  0.0445 -0.1864  0.4159
 1209SOL    HW215261   1.542   4.274   4.091 -0.4429  1.3580 -2.6056
 1210SOL     OW15262   4.461   1.474   8.009 -0.3029 -0.0531 -0.5221
 1210SOL    HW115263   4.540   1.431   7.975  1.6745  2.2586  1.2115
 1210SOL    HW215264   4.477   1.568   8.002  0.2815 -0.1518 -0.4951
 1211SOL     OW15265   0.353   0.606   8.814 -0.5711 -0.4196  0.1002
 1211SOL    HW115266   0.320   0.531   8.765 -0.2575 -0.4582 -0.0485
 1211SOL    HW215267   0.368   0.675   8.750  3.1800 -2.1152 -0.8276
 1212SOL     OW15268   3.566   0.812   4.757 -0.6779  0.1431 -0.0004
 1212SOL    HW115269   3.543   0.866   4.833  0.6635 -0.3524  0.7488
 1212SOL    HW215270   3.604   0.886   4.710 -0.5371  0.7546  1.0697
 1213SOL     OW15271   1.860   1.467   8.688  0.0567  0.4478  0.5158
 1213SOL    HW115272   1.820   1.401   8.744  2.1164 -0.3592  1.0608
 1213SOL    HW215273   1.949   1.432   8.689 -0.2193 -0.3020 -1.2688
 1214SOL     OW15274   3.949   0.020   4.405 -0.6578 -0.4413  0.2977
 1214SOL    HW115275   3.897   4.679   4.395  1.2361 -1.6938  0.3184
 1214SOL    HW215276   4.005   4.734   4.478  0.7068  4.3013  0.8658
 1215SOL     OW15277   1.573   4.556  12.908 -0.0201 -0.3342  0.5208
 1215SOL    HW115278   1.494   4.516  12.944 -1.7805  2.1843 -0.5141
 1215SOL    HW215279   1.529   4.638  12.883 -1.1990 -1.2605 -0.4733
 1216SOL     OW15280   3.502   1.969   4.817 -0.4274  0.2745  0.8350
 1216SOL    HW115281   3.533   1.886   4.780 -3.6247 -0.0028 -1.2829
 1216SOL    HW215282   3.455   2.006   4.742 -0.3328 -0.3187  0.4836
 1217SOL     OW15283   3.455   3.110  11.328  0.2871 -0.1835  0.8514
 1217SOL    HW115284   3.373   3.154  11.306 -0.7400 -1.6685  1.7664
 1217SOL    HW215285   3.487   3.160  11.404  0.1012 -1.9085  2.0506
 1218SOL     OW15286   0.887   0.959   2.387  0.5603  0.1811  0.0124
 1218SOL    HW115287   0.962   0.903   2.364  0.5711 -0.6766  2.0938
 1218SOL    HW215288   0.809   0.908   2.364 -1.7816  2.4137  3.0277
 1219SOL     OW15289   0.195   4.247   1.831  0.1705 -0.1898 -0.0789
 1219SOL    HW115290   0.185   4.161   1.790 -0.4950 -0.2111  0.1279
 1219SOL    HW215291   0.111   4.288   1.810 -0.0937 -0.3957  0.5717
 1220SOL     OW15292   2.424   4.405   9.919 -0.1860  0.3983 -0.3078
 1220SOL    HW115293   2.448   4.315   9.941 -0.8630  0.5799  1.1664
 1220SOL    HW215294   2.506   4.442   9.886  0.1631  1.1564  1.4337
 1221SOL     OW15295   0.976   4.446   5.443 -0.0408 -0.4890 -0.6982
 1221SOL    HW115296   0.979   4.398   5.526 -2.4126  1.3394  0.4254
 1221SOL    HW215297   0.927   4.527   5.459  1.1777 -0.4612  2.9012
 1222SOL     OW15298   2.670   3.170  14.412 -0.3313 -0.3362  0.1968
 1222SOL    HW115299   2.691   3.203  14.324 -1.3482 -0.6722 -0.1650
 1222SOL    HW215300   2.579   3.196  14.424 -1.0700 -2.0841 -1.6026
 1223SOL     OW15301   2.125   2.986   5.951  0.0014 -0.4021  0.1912
 1223SOL    HW115302   2.143   3.044   5.878 -0.6785 -0.1636  0.2106
 1223SOL    HW215303   2.202   3.017   5.998  1.0258  0.4389 -2.0694
 1224SOL     OW15304   1.753   2.623   7.792 -0.1566 -0.0609  0.5168
 1224SOL    HW115305   1.688   2.640   7.724  1.7755  0.8942 -1.0775
 1224SOL    HW215306   1.818   2.576   7.740 -1.9941 -1.7647 -0.2528
 1225SOL     OW15307   4.511   1.833  12.999 -0.8053  0.5658 -0.6028
 1225SOL    HW115308   4.563   1.858  13.075  2.9728 -1.0633 -2.6137
 1225SOL    HW215309   4.564   1.879  12.934  2.4171 -1.3450  0.6310
 1226SOL     OW15310   4.053   0.478   2.497 -0.2716 -0.4938 -0.3885
 1226SOL    HW115311   4.145   0.475   2.524 -0.5418 -1.4427  0.4136
 1226SOL    HW215312   4.059   0.489   2.402  1.2219  0.7320 -0.1497
 1227SOL     OW15313   1.463   4.359  10.284  0.0571 -0.4071  0.0555
 1227SOL    HW115314   1.450   4.392  10.373 -2.6774 -0.1994 -0.4311
 1227SOL    HW215315   1.551   4.321  10.284  0.6943  1.0378 -0.2626
 1228SOL     OW15316   0.725   1.962  12.397 -0.0154 -0.5901 -0.8749
 1228SOL    HW115317   0.694   1.990  12.483  2.0474 -0.8197 -0.0723
 1228SOL    HW215318   0.649   1.923  12.354 -1.4356  1.0065  0.1860
 1229SOL     OW15319   2.815   0.322   1.599 -0.0249  0.1591  0.3729
 1229SOL    HW115320   2.781   0.380   1.532 -0.3675 -0.8764 -0.3479
 1229SOL    HW215321   2.894   0.366   1.631  0.7601  0.1685 -1.6064
 1230SOL     OW15322   0.923   1.011   3.779 -0.0493  0.0250 -0.3964
 1230SOL    HW115323   0.994   0.994   3.841  0.6324  4.3800  0.0363
 1230SOL    HW215324   0.847   1.009   3.838 -0.4814  0.3744 -0.9414
 1231SOL     OW15325   4.438   1.181   1.073  0.0196  0.7204  0.8085
 1231SOL    HW115326   4.523   1.184   1.029  0.9712 -1.7022  2.4784
 1231SOL    HW215327   4.371   1.170   1.006  1.5632  1.3854 -0.8321
 1232SOL     OW15328   1.651   1.487  17.159  0.0441  0.0341 -0.6945
 1232SOL    HW115329   1.607   1.465  17.241  3.1927  1.3162  1.3799
 1232SOL    HW215330   1.577   1.480  17.099 -0.9818  0.4269  0.5465
 1233SOL     OW15331   0.793   2.975   3.809 -0.0301  0.3600 -0.5384
 1233SOL    HW115332   0.820   3.016   3.727 -2.1348  1.7050 -0.5586
 1233SOL    HW215333   0.703   2.952   3.788 -0.6853 -0.2153  2.7923
 1234SOL     OW15334   2.034   1.103   3.794 -0.3584 -0.0579 -0.1828
 1234SOL    HW115335   2.043   1.026   3.738  4.4757  0.8487 -0.7435
 1234SOL    HW215336   2.127   1.117   3.815  0.1963  2.0807 -3.9035
 1235SOL     OW15337   4.137   2.002   4.615 -0.0596 -0.1946 -0.3792
 1235SOL    HW115338   4.223   1.981   4.581  0.2203 -0.0575  0.2305
 1235SOL    HW215339   4.119   2.062   4.543 -0.9940  1.6858  1.4109
 1236SOL     OW15340   4.468   1.486   1.993 -0.0496  0.5910 -0.2763
 1236SOL    HW115341   4.394   1.463   2.049 -0.0775  1.0324 -0.1324
 1236SOL    HW215342   4.443   1.572   1.960 -0.3399  0.4342 -0.4610
 1237SOL     OW15343   3.658   4.736   3.643 -0.0957 -0.3827  0.0424
 1237SOL    HW115344   3.654   0.045   3.560 -1.1051 -1.5382 -0.5742
 1237SOL    HW215345   3.750   0.008   3.665 -0.3013  0.9747  0.2468
 1238SOL     OW15346   1.021   1.342   5.114  0.3150 -0.3296 -0.3840
 1238SOL    HW115347   1.012   1.392   5.195  0.8449 -0.2450 -0.3828
 1238SOL    HW215348   0.936   1.355   5.072  0.0218  0.3304  0.4202
 1239SOL     OW15349   4.088   1.386   5.049 -0.2210  0.2131 -0.4302
 1239SOL    HW115350   4.104   1.466   5.099 -1.9508  0.0203  0.4204
 1239SOL    HW215351   4.025   1.353   5.113 -0.1939  3.4047  1.2245
 1240SOL     OW15352   2.060   3.776   0.542  0.5303  0.2689  0.3367
 1240SOL    HW115353   2.024   3.849   0.493 -2.1254 -1.2268  0.0521
 1240SOL    HW215354   2.068   3.801   0.634  2.1800  1.7831 -0.2167
 1241SOL     OW15355   2.595   0.522   3.028  0.3314 -0.3164 -0.7836
 1241SOL    HW115356   2.607   0.573   2.948  2.1004 -1.6219 -1.3608
 1241SOL    HW215357   2.503   0.499   3.020  0.1347 -0.4170  1.9530
 1242SOL     OW15358   0.322   3.434   3.475 -0.1037 -0.5009  0.1001
 1242SOL    HW115359   0.365   3.351   3.495 -0.7573 -1.2754 -1.7933
 1242SOL    HW215360   0.388   3.501   3.494  1.7929 -2.5641  0.7450
 1243SOL     OW15361   0.346   1.543   2.407  0.4774  0.0938  0.2874
 1243SOL    HW115362   0.308   1.485   2.342  0.1022  0.6591  0.0040
 1243SOL    HW215363   0.270   1.596   2.433 -1.0147 -1.5155 -0.7580
 1244SOL     OW15364   4.581   2.265  17.432  0.0022  0.1279  0.4128
 1244SOL    HW115365   4.575   2.187  17.377 -1.4064  1.7211 -1.6899
 1244SOL    HW215366   4.555   2.219  17.512 -0.5074  0.2796  0.3361
 1245SOL     OW15367   0.200   0.798  17.601 -0.6760  0.3184  0.7134
 1245SOL    HW115368   0.129   0.839  17.651 -0.4811  1.3286  0.1548
 1245SOL    HW215369   0.240   0.877  17.564 -0.0766 -0.0468  0.5791
 1246SOL     OW15370   1.158   0.710   6.286  0.3999 -0.6359  0.6316
 1246SOL    HW115371   1.144   0.756   6.370  0.3288  0.3376  0.0879
 1246SOL    HW215372   1.247   0.677   6.296  0.2033 -0.9403  1.3873
 1247SOL     OW15373   0.901   0.192   1.978 -0.1093 -0.9309 -0.3592
 1247SOL    HW115374   0.994   0.213   1.969 -0.5494  1.1660 -0.0099
 1247SOL    HW215375   0.885   0.194   1.883  0.4744  0.1326 -0.4328
 1248SOL     OW15376   0.526   3.689   4.991  0.4663  0.4900 -0.3368
 1248SOL    HW115377   0.454   3.627   4.978  1.4737 -0.0781 -3.2891
 1248SOL    HW215378   0.545   3.704   4.899  2.6560 -1.8244 -0.2625
 1249SOL     OW15379   4.239   3.078   4.120  0.3841  0.1848 -0.2270
 1249SOL    HW115380   4.246   3.048   4.211  0.3135  1.1987  0.1100
 1249SOL    HW215381   4.264   2.994   4.081 -0.4291 -0.3650  0.4036
 1250SOL     OW15382   1.939   1.748   5.861 -0.1796  0.8155  0.6799
 1250SOL    HW115383   1.990   1.706   5.792  2.5744  2.1153  1.9408
 1250SOL    HW215384   1.882   1.803   5.808  1.0484  1.0118 -0.4126
 1251SOL     OW15385   2.505   2.253  16.752 -0.3648 -0.1269 -0.1957
 1251SOL    HW115386   2.549   2.169  16.755  1.0119  0.6716  2.1156
 1251SOL    HW215387   2.458   2.260  16.836  1.0532 -1.1455  0.6797
 1252SOL     OW15388   0.750   0.375   7.841 -0.2316 -0.0621  0.0343
 1252SOL    HW115389   0.671   0.322   7.839  0.4038 -1.0063 -0.5428
 1252SOL    HW215390   0.764   0.391   7.934  2.4412 -2.0248 -0.0178
 1253SOL     OW15391   0.750   1.584   7.578 -0.0139  0.0769  0.4443
 1253SOL    HW115392   0.837   1.617   7.598  0.0652  0.0291  0.1834
 1253SOL    HW215393   0.782   1.499   7.545 -0.0174  0.7109 -1.1968
 1254SOL     OW15394   4.156   2.598   7.013 -0.7790 -0.1594  0.0756
 1254SOL    HW115395   4.192   2.512   6.991  1.4571  0.5661  0.8385
 1254SOL    HW215396   4.061   2.584   7.010 -0.3495 -1.8186 -4.4376
 1255SOL     OW15397   1.981   3.312   7.930 -0.0669  0.3761 -0.1485
 1255SOL    HW115398   1.947   3.224   7.914  1.4222 -0.4262  1.0708
 1255SOL    HW215399   1.965   3.329   8.023 -0.0274  1.1382 -0.2796
 1256SOL     OW15400   1.352   1.457   7.408 -0.1511 -0.2077 -0.0958
 1256SOL    HW115401   1.308   1.533   7.370 -1.0105 -0.7228 -0.1115
 1256SOL    HW215402   1.312   1.388   7.356 -0.1089 -1.5653  1.6883
 1257SOL     OW15403   2.861   1.045  10.082  0.4354  0.0362  0.1778
 1257SOL    HW115404   2.848   0.950  10.075 -0.2456  0.2607 -1.6740
 1257SOL    HW215405   2.771   1.078  10.091 -0.0661 -1.9169  2.4262
 1258SOL     OW15406   4.191   0.081  17.007 -0.2941  0.3341 -0.0064
 1258SOL    HW115407   4.215   0.127  16.926  0.5117  0.4107  0.2736
 1258SOL    HW215408   4.118   0.133  17.041  0.2460  2.6470 -2.4010
 1259SOL     OW15409   4.247   3.901  13.429 -0.2776 -0.0469  0.1840
 1259SOL    HW115410   4.225   3.927  13.519  1.1620 -1.2674  0.9020
 1259SOL    HW215411   4.159   3.881  13.396 -0.1996  2.1868 -1.3696
 1260SOL     OW15412   1.925   4.333  16.358  0.7443  0.7512  0.0096
 1260SOL    HW115413   1.861   4.295  16.418  1.5572 -0.5009  0.0830
 1260SOL    HW215414   1.996   4.270  16.364 -1.1249 -1.2773  0.7245
 1261SOL     OW15415   0.909   2.036  16.597  0.3799  0.0777 -0.3509
 1261SOL    HW115416   0.984   2.057  16.541 -0.6580 -0.0545 -1.8081
 1261SOL    HW215417   0.951   1.983  16.664  1.4766  1.4381  0.0210
 1262SOL     OW15418   1.050   2.568  12.673 -0.1255 -0.2146 -0.0550
 1262SOL    HW115419   0.982   2.629  12.645 -0.0285 -0.2305 -0.3229
 1262SOL    HW215420   1.014   2.511  12.741 -0.6948 -0.1019 -0.2646
 1263SOL     OW15421   0.667   3.194   2.657 -0.1399  0.1926 -0.0055
 1263SOL    HW115422   0.574   3.198   2.676 -0.2498 -3.0254  0.0493
 1263SOL    HW215423   0.693   3.109   2.693 -0.7144  0.3542  0.7813
 1264SOL     OW15424   1.044   3.571   6.569 -0.3012 -0.2017  0.0954
 1264SOL    HW115425   1.062   3.659   6.536 -2.4748 -0.7603 -2.5878
 1264SOL    HW215426   1.128   3.544   6.607  0.4429  2.5989  0.4226
 1265SOL     OW15427   1.521   4.403   5.663 -0.4820  0.0878 -0.3224
 1265SOL    HW115428   1.575   4.447   5.597 -0.7888  1.3358  0.2629
 1265SOL    HW215429   1.549   4.441   5.747  2.0365 -2.1117 -0.1561
 1266SOL     OW15430   4.268   0.202   4.327 -0.1928 -0.4834 -0.3508
 1266SOL    HW115431   4.194   0.143   4.346 -1.5005  0.7623 -1.5701
 1266SOL    HW215432   4.228   0.287   4.345  1.4576 -0.2023  1.9923
 1267SOL     OW15433   1.599   1.987   6.057 -0.3630  0.0624  0.0437
 1267SOL    HW115434   1.682   2.025   6.026  0.7257 -1.3740  1.1648
 1267SOL    HW215435   1.527   2.035   6.017  0.3784  2.9922  2.1502
 1268SOL     OW15436   0.693   4.460   7.205 -0.3049  0.0824 -0.1516
 1268SOL    HW115437   0.715   4.398   7.274 -1.4265 -1.2495 -0.9872
 1268SOL    HW215438   0.745   4.535   7.233 -0.3740 -0.2317  0.8314
 1269SOL     OW15439   4.482   0.464   4.997 -0.4013  0.1830  0.3769
 1269SOL    HW115440   4.431   0.427   4.926  0.8141 -3.2807  1.2997
 1269SOL    HW215441   4.560   0.503   4.956  0.1968  0.6096  1.9281
 1270SOL     OW15442   0.806   1.245   0.270 -0.4839  0.0138 -0.3227
 1270SOL    HW115443   0.865   1.170   0.270  3.6213  3.2663 -1.6490
 1270SOL    HW215444   0.737   1.197   0.223 -0.0625  1.0110 -1.9794
 1271SOL     OW15445   3.492   1.927   9.824  0.2758  0.5739 -0.1669
 1271SOL    HW115446   3.467   1.997   9.885 -0.7742  1.3663 -1.4966
 1271SOL    HW215447   3.570   1.897   9.871 -0.1277 -0.6469 -0.2901
 1272SOL     OW15448   3.412   0.053   3.366  0.0898 -0.6182 -0.3227
 1272SOL    HW115449   3.425   4.732   3.439 -0.4186 -1.5933 -1.0437
 1272SOL    HW215450   3.495   0.101   3.377 -0.9590  1.6892 -2.3969
 1273SOL     OW15451   0.979   2.893  14.577 -0.2267  0.4905  0.0709
 1273SOL    HW115452   0.935   2.978  14.583 -0.2906  0.4390  0.3342
 1273SOL    HW215453   1.057   2.909  14.630  0.4618  0.1780 -0.8504
 1274SOL     OW15454   2.334   1.044  12.152 -0.1316 -0.7336  0.5027
 1274SOL    HW115455   2.411   1.083  12.193  0.8886  0.5085 -2.6465
 1274SOL    HW215456   2.374   0.972  12.103  0.0948  0.5858 -1.2391
 1275SOL     OW15457   3.903   4.620   3.168 -0.5283  0.4586  0.1164
 1275SOL    HW115458   3.929   4.616   3.076 -2.6483  3.7173 -0.6456
 1275SOL    HW215459   3.819   4.575   3.178 -0.3075  1.0128  4.1423
 1276SOL     OW15460   4.357   3.913   6.208  0.5028 -0.1921  0.5687
 1276SOL    HW115461   4.441   3.912   6.253  0.9839  0.6295 -0.2929
 1276SOL    HW215462   4.294   3.956   6.266 -0.3935  0.6005 -0.9988
 1277SOL     OW15463   2.169   0.206   7.502 -0.2294 -0.0616  0.7637
 1277SOL    HW115464   2.219   0.146   7.556 -0.9165 -0.9129  0.4662
 1277SOL    HW215465   2.232   0.212   7.430  0.1798  0.2606  1.1540
 1278SOL     OW15466   0.709   0.633   7.483  0.2010  0.0979  0.2135
 1278SOL    HW115467   0.622   0.656   7.451  0.0988 -0.4383  0.1176
 1278SOL    HW215468   0.764   0.689   7.428 -3.4604  0.9288 -2.6001
 1279SOL     OW15469   3.283   2.227   6.986 -0.4267  0.0096 -0.0212
 1279SOL    HW115470   3.280   2.172   7.065  2.4424  0.7027  0.5849
 1279SOL    HW215471   3.267   2.315   7.021 -1.6920 -0.4876  0.6662
 1280SOL     OW15472   3.315   4.565   4.062  0.1167 -0.0328 -0.2374
 1280SOL    HW115473   3.363   4.614   3.997  1.3730  0.2641  0.9269
 1280SOL    HW215474   3.326   4.625   4.135  0.6687  0.3546 -0.6521
 1281SOL     OW15475   4.280   0.088   7.969 -0.1765 -0.0382 -0.2699
 1281SOL    HW115476   4.238   0.074   8.054  1.5743  2.5948  1.0385
 1281SOL    HW215477   4.345   0.018   7.963 -0.3437 -0.3642  1.8121
 1282SOL     OW15478   1.585   1.181   3.734 -0.0324  0.4415 -0.4465
 1282SOL    HW115479   1.646   1.155   3.665  0.6910  0.6555  0.1083
 1282SOL    HW215480   1.603   1.273   3.753  2.5176 -0.3424  0.9253
 1283SOL     OW15481   1.142   1.502   3.683 -0.0783  0.6647 -0.3777
 1283SOL    HW115482   1.179   1.589   3.666  1.4507 -0.3005 -1.9639
 1283SOL    HW215483   1.175   1.471   3.767  0.4238 -1.3133 -1.3121
 1284SOL     OW15484   4.315   0.073   9.462  0.2639  0.2170 -0.2423
 1284SOL    HW115485   4.376   0.115   9.522 -1.9928  0.8507  1.5844
 1284SOL    HW215486   4.259   0.148   9.444 -1.0290 -0.5098  0.7343
 1285SOL     OW15487   3.408   1.563   3.806 -0.3083  0.4369 -0.0425
 1285SOL    HW115488   3.361   1.497   3.755  1.1678 -0.7489  0.1263
 1285SOL    HW215489   3.338   1.627   3.818  0.3963  1.4034 -1.0862
 1286SOL     OW15490   2.659   1.459  12.459 -0.2662  0.0813 -0.1956
 1286SOL    HW115491   2.738   1.409  12.436 -0.1103  0.3320 -0.1977
 1286SOL    HW215492   2.642   1.519  12.386 -1.2921 -0.8268 -0.7125
 1287SOL     OW15493   3.829   0.237   8.777  0.7419  0.0135 -0.0771
 1287SOL    HW115494   3.846   0.162   8.721  1.8214  1.4973 -1.7340
 1287SOL    HW215495   3.872   0.312   8.735 -2.1353  2.2133  0.8896
 1288SOL     OW15496   2.639   2.544  12.004  0.4090  0.4994  0.0221
 1288SOL    HW115497   2.679   2.595  11.933 -2.3665  0.2181 -1.7462
 1288SOL    HW215498   2.705   2.481  12.032  0.6570  0.7189 -0.0698
 1289SOL     OW15499   3.576   0.747   1.888  0.1053  0.8326 -0.5559
 1289SOL    HW115500   3.537   0.834   1.883  1.1207  1.2936 -0.4027
 1289SOL    HW215501   3.604   0.750   1.980 -2.6915  0.1190  0.3034
 1290SOL     OW15502   1.252   1.003  10.868 -0.0864 -0.2689  0.1171
 1290SOL    HW115503   1.306   1.053  10.930  0.1180 -1.4076  0.8470
 1290SOL    HW215504   1.180   1.063  10.850 -0.6690 -0.7703  0.7909
 1291SOL     OW15505   4.564   0.886   2.875 -0.2727  0.3488  0.2313
 1291SOL    HW115506   4.643   0.925   2.837 -0.4461  0.8169  0.3500
 1291SOL    HW215507   4.496   0.951   2.859 -1.8951 -1.1550  0.9994
 1292SOL     OW15508   4.268   0.938  12.983 -0.3409  0.2805  0.1102
 1292SOL    HW115509   4.220   0.991  12.919 -0.5249 -1.2295 -1.0106
 1292SOL    HW215510   4.353   0.981  12.995  0.0023 -0.0318 -1.1914
 1293SOL     OW15511   2.231   1.676   9.112  0.7613  0.6785  0.0328
 1293SOL    HW115512   2.232   1.580   9.113 -2.2965  0.6475 -2.2098
 1293SOL    HW215513   2.224   1.698   9.205  1.5252 -0.8857  0.4644
 1294SOL     OW15514   0.559   0.649   6.745  0.5836  0.5755  0.1030
 1294SOL    HW115515   0.569   0.741   6.722  0.1900  0.7886  0.7719
 1294SOL    HW215516   0.514   0.619   6.666 -0.1591  0.5719  0.5217
 1295SOL     OW15517   4.600   2.347   7.664 -0.7859 -0.1076  0.4259
 1295SOL    HW115518   4.687   2.370   7.630 -0.0097 -0.2113  2.3785
 1295SOL    HW215519   4.572   2.280   7.601 -1.3246  0.9984 -0.5200
 1296SOL     OW15520   4.307   1.435   5.746  0.3402  0.5095  0.0507
 1296SOL    HW115521   4.212   1.435   5.743  0.2902  1.6353  1.9623
 1296SOL    HW215522   4.326   1.518   5.790 -1.8600  0.9561  0.1235
 1297SOL     OW15523   3.518   0.666   7.961  0.5122 -0.0422 -0.2342
 1297SOL    HW115524   3.447   0.694   8.018  0.1827  2.3932 -1.8772
 1297SOL    HW215525   3.507   0.571   7.972 -1.2336  0.1676 -0.2392
 1298SOL     OW15526   2.421   0.781  13.309  0.3193 -0.2134 -0.0823
 1298SOL    HW115527   2.504   0.801  13.265  0.2353 -1.6755 -0.9029
 1298SOL    HW215528   2.439   0.687  13.312  0.1375 -0.2021  1.1614
 1299SOL     OW15529   2.157   3.017   7.740  0.0362  0.0664 -0.5350
 1299SOL    HW115530   2.071   3.025   7.781 -0.2763  0.2831 -1.2245
 1299SOL    HW215531   2.198   3.059   7.816 -0.1003 -0.2761 -0.2720
 1300SOL     OW15532   0.516   2.671   4.466 -0.3455 -0.3142  0.1693
 1300SOL    HW115533   0.609   2.688   4.486 -0.9103  0.4217  2.1653
 1300SOL    HW215534   0.474   2.659   4.551 -3.3991 -1.5466 -1.5107
 1301SOL     OW15535   0.195   3.230  15.962  0.1230  0.4451  0.1471
 1301SOL    HW115536   0.148   3.293  16.017 -3.6460 -2.2417 -0.0112
 1301SOL    HW215537   0.127   3.165  15.947 -0.0730  0.2617  1.8517
 1302SOL     OW15538   4.139   2.497   5.148 -0.0534  0.0494  0.6160
 1302SOL    HW115539   4.108   2.461   5.065  1.3418 -0.0947  0.1605
 1302SOL    HW215540   4.068   2.555   5.175 -0.4460  0.2479 -0.8388
 1303SOL     OW15541   4.473   2.047   8.814  0.0392  0.4323  0.8724
 1303SOL    HW115542   4.557   2.085   8.839  0.2464 -0.9213  2.2188
 1303SOL    HW215543   4.468   1.981   8.883  0.4210 -1.0086 -0.4766
 1304SOL     OW15544   1.125   3.723   5.601  0.5414 -0.4151  0.0095
 1304SOL    HW115545   1.214   3.690   5.614  0.9133  0.3148 -0.6876
 1304SOL    HW215546   1.133   3.788   5.530 -2.3992  0.1435  0.1893
 1305SOL     OW15547   1.661   1.119  13.703  0.4111  0.4119 -0.0214
 1305SOL    HW115548   1.587   1.070  13.667  0.9329  0.7759 -1.6056
 1305SOL    HW215549   1.623   1.142  13.788  0.0955  0.7045 -0.2412
 1306SOL     OW15550   1.968   4.546   2.646  0.4557 -0.2068  0.1505
 1306SOL    HW115551   1.959   4.601   2.724 -3.8606 -0.8202  0.0911
 1306SOL    HW215552   2.007   4.467   2.684  1.4032  0.7737  1.2290
 1307SOL     OW15553   0.697   1.399  11.307  0.3928 -0.3019 -0.3991
 1307SOL    HW115554   0.764   1.428  11.245 -0.0030  0.7347 -0.3432
 1307SOL    HW215555   0.666   1.332  11.246  0.2500  0.1528 -0.8309
 1308SOL     OW15556   4.129   2.144   3.070 -0.2382 -1.2717 -0.3807
 1308SOL    HW115557   4.178   2.082   3.125  0.7356 -0.8451 -0.7659
 1308SOL    HW215558   4.202   2.189   3.027  0.6206 -1.2063  1.1252
 1309SOL     OW15559   4.012   2.305   9.287 -0.3988  0.2119  0.7259
 1309SOL    HW115560   4.095   2.327   9.244 -0.1607 -0.7568  0.6844
 1309SOL    HW215561   4.021   2.333   9.377  2.5299  1.1277  0.1445
 1310SOL     OW15562   1.652   2.239   7.446 -0.4847 -0.6441  0.5280
 1310SOL    HW115563   1.671   2.326   7.411 -2.5935 -1.5302 -2.7706
 1310SOL    HW215564   1.654   2.249   7.542 -0.4376 -2.4452  0.7217
 1311SOL     OW15565   3.815   2.830   9.107  0.4176 -0.0431  0.4648
 1311SOL    HW115566   3.805   2.769   9.180 -1.2424 -1.0036 -0.5548
 1311SOL    HW215567   3.893   2.879   9.130  0.1668 -0.4773  2.2211
 1312SOL     OW15568   0.950   0.670  15.790 -0.0889  0.1662  0.4399
 1312SOL    HW115569   0.887   0.738  15.766 -1.1118 -0.1102  2.3525
 1312SOL    HW215570   0.932   0.593  15.735 -1.8240 -1.0217  2.6961
 1313SOL     OW15571   0.622   4.411   7.707 -0.3449  0.0011 -0.1771
 1313SOL    HW115572   0.684   4.340   7.722 -2.7712 -1.7628  1.6742
 1313SOL    HW215573   0.565   4.375   7.639 -0.1993  0.9211 -0.7891
 1314SOL     OW15574   2.046   1.234   3.556 -0.2039 -0.2916  0.1471
 1314SOL    HW115575   2.124   1.276   3.592 -0.6256  0.8055 -0.1984
 1314SOL    HW215576   2.003   1.207   3.637  1.3999 -1.0308  0.7371
 1315SOL     OW15577   4.464   3.284   4.304  0.2468  0.3807 -0.1888
 1315SOL    HW115578   4.534   3.299   4.368 -2.9001  0.3494  3.2515
 1315SOL    HW215579   4.388   3.332   4.339  0.3070  0.4006 -0.0847
 1316SOL     OW15580   0.818   4.553  16.328 -0.0179 -0.2393 -0.2973
 1316SOL    HW115581   0.764   4.630  16.348  0.0560 -0.0564 -0.8205
 1316SOL    HW215582   0.899   4.592  16.296 -0.5593 -0.2401 -1.6770
 1317SOL     OW15583   1.788   4.066   0.521 -0.0881  0.1054 -0.7626
 1317SOL    HW115584   1.806   4.050   0.614  2.3072  1.1922 -1.0545
 1317SOL    HW215585   1.874   4.051   0.483  0.2299  0.4395 -0.1826
 1318SOL     OW15586   4.711   1.066  15.995  0.4059 -0.6128 -0.5307
 1318SOL    HW115587   4.616   1.061  15.980 -0.0346  0.5174  1.8403
 1318SOL    HW215588   4.706   1.129  16.067 -0.0747 -0.7077 -0.4787
 1319SOL     OW15589   3.707   4.111  11.643 -0.0551  0.2185  0.2189
 1319SOL    HW115590   3.755   4.187  11.611  0.6511 -0.4737 -0.3823
 1319SOL    HW215591   3.749   4.040  11.594 -0.3605 -0.4444  0.9121
 1320SOL     OW15592   3.595   3.120   6.728  0.1235  0.1573  0.3313
 1320SOL    HW115593   3.606   3.207   6.688 -0.9410 -1.5710 -3.6871
 1320SOL    HW215594   3.635   3.065   6.661 -1.1599 -0.7757  0.3405
 1321SOL     OW15595   3.421   2.938   2.662 -0.0976  0.2349  0.2384
 1321SOL    HW115596   3.489   2.873   2.677  0.5757  0.7926 -0.3931
 1321SOL    HW215597   3.388   2.954   2.750  0.7309 -0.7610  0.7175
 1322SOL     OW15598   1.460   3.138   0.851 -0.2927 -0.0325  0.2827
 1322SOL    HW115599   1.382   3.193   0.856 -0.9522 -0.9314 -0.0645
 1322SOL    HW215600   1.420   3.065   0.804 -1.1753  1.4125 -1.1751
 1323SOL     OW15601   1.765   3.387   3.101 -0.1954  0.0184  0.1325
 1323SOL    HW115602   1.688   3.441   3.115 -2.0856 -1.9148 -2.9534
 1323SOL    HW215603   1.727   3.300   3.089  0.9574 -0.1507 -2.1904
 1324SOL     OW15604   1.950   3.358   9.648 -0.7356 -0.1207  0.1914
 1324SOL    HW115605   2.015   3.338   9.716  0.2957  1.6966 -0.2490
 1324SOL    HW215606   1.876   3.357   9.709  1.4236  3.0920  2.8224
 1325SOL     OW15607   1.588   0.061   4.076  0.9216 -0.0395 -0.8476
 1325SOL    HW115608   1.669   0.039   4.030  0.7595 -0.4085 -0.9560
 1325SOL    HW215609   1.585   4.723   4.133 -1.2835 -0.9778 -2.1850
 1326SOL     OW15610   4.215   3.408   7.378 -0.0835  0.6574  0.2780
 1326SOL    HW115611   4.256   3.485   7.418  0.1671  0.8561 -0.3708
 1326SOL    HW215612   4.127   3.446   7.367 -0.1699 -0.2404 -1.9870
 1327SOL     OW15613   2.403   1.763   8.026  0.1610 -0.1063  0.0313
 1327SOL    HW115614   2.309   1.747   8.016  0.0584 -0.1870  1.0825
 1327SOL    HW215615   2.437   1.713   7.952 -0.6893 -1.0357  0.2588
 1328SOL     OW15616   2.640   4.182   1.805 -0.4247  0.2431 -0.3439
 1328SOL    HW115617   2.680   4.173   1.891  1.2518  1.3997 -1.0060
 1328SOL    HW215618   2.602   4.095   1.796  1.3101 -0.3803 -1.5291
 1329SOL     OW15619   3.019   3.451   2.835 -0.0718  0.2090 -0.2425
 1329SOL    HW115620   2.973   3.535   2.826  1.7421  1.1444 -0.7373
 1329SOL    HW215621   2.946   3.396   2.806 -1.5713  1.3587  1.4038
 1330SOL     OW15622   0.257   3.161   0.556 -0.3936 -0.2591 -0.1040
 1330SOL    HW115623   0.208   3.125   0.482 -0.6787  1.4242 -0.7312
 1330SOL    HW215624   0.210   3.125   0.631 -0.7300 -0.5714 -0.4682
 1331SOL     OW15625   4.509   0.986   8.131 -0.0437  0.0304  0.4745
 1331SOL    HW115626   4.469   1.049   8.071 -1.3065  1.5374  2.8826
 1331SOL    HW215627   4.591   1.030   8.151 -0.0357  1.3211 -2.4308
 1332SOL     OW15628   1.515   0.742   5.476  0.2535  0.1481 -0.5053
 1332SOL    HW115629   1.593   0.751   5.531  0.3255 -1.3731 -0.3469
 1332SOL    HW215630   1.531   0.809   5.409 -2.2628  1.8949  0.6620
 1333SOL     OW15631   3.401   2.352   7.738 -0.0724  0.2206 -0.4049
 1333SOL    HW115632   3.489   2.388   7.728 -0.8179  2.6594  2.0720
 1333SOL    HW215633   3.424   2.260   7.748 -1.1014  0.0067 -0.0068
 1334SOL     OW15634   1.398   1.203   2.447  0.7419 -0.1004  0.0677
 1334SOL    HW115635   1.317   1.253   2.452 -0.9435 -2.6495 -1.5510
 1334SOL    HW215636   1.458   1.276   2.440  1.0950 -0.5617 -1.7281
 1335SOL     OW15637   1.758   0.586   2.053  0.3266  0.0978  0.4530
 1335SOL    HW115638   1.787   0.592   1.962  1.1787  0.4126  0.7456
 1335SOL    HW215639   1.811   0.652   2.098  0.4066 -0.4470  1.1605
 1336SOL     OW15640   4.326   2.691  16.332 -0.4060 -0.4559 -0.0144
 1336SOL    HW115641   4.328   2.737  16.248 -1.1648 -2.5356 -1.1723
 1336SOL    HW215642   4.390   2.619  16.327 -0.4747 -0.4052 -1.5100
 1337SOL     OW15643   2.202   0.085   6.686  0.2833 -0.2597  0.2980
 1337SOL    HW115644   2.255   0.128   6.753 -0.8359 -0.3238  1.2321
 1337SOL    HW215645   2.120   0.061   6.729 -0.7052  0.2842 -1.2802
 1338SOL     OW15646   1.973   0.214   7.200  0.4627 -0.1195 -0.4071
 1338SOL    HW115647   1.935   0.127   7.209  1.2043 -0.2260  1.5456
 1338SOL    HW215648   2.014   0.219   7.286  1.4585 -0.4610 -0.8553
 1339SOL     OW15649   0.166   2.711   9.300 -0.1845  0.2842  0.1332
 1339SOL    HW115650   0.131   2.730   9.213 -0.0089 -0.7370 -0.1679
 1339SOL    HW215651   0.186   2.799   9.332  1.0083 -0.0048  0.2076
 1340SOL     OW15652   3.128   0.092   5.958  0.5578  0.1441 -0.0566
 1340SOL    HW115653   3.203   0.151   5.947 -0.0449  0.8823 -0.1443
 1340SOL    HW215654   3.178   0.011   5.945  0.5417  0.2450 -0.7330
 1341SOL     OW15655   2.663   1.977  15.955  0.3643 -0.5717 -0.0151
 1341SOL    HW115656   2.724   1.985  16.028  0.4312  1.2165 -0.2662
 1341SOL    HW215657   2.723   1.967  15.882  1.0871  0.9832  0.3705
 1342SOL     OW15658   3.404   4.729   2.274 -0.3146  0.0478  0.2861
 1342SOL    HW115659   3.407   0.021   2.183  3.0260 -2.2319 -0.3837
 1342SOL    HW215660   3.330   4.671   2.256  0.6976 -0.6378 -1.5619
 1343SOL     OW15661   0.967   2.053  10.594  0.2544 -0.6562 -0.0843
 1343SOL    HW115662   0.962   2.034  10.501 -0.4764 -2.7576  0.3858
 1343SOL    HW215663   0.877   2.053  10.629 -0.0890  2.0361 -0.9513
 1344SOL     OW15664   4.701   0.566   4.883 -0.2527  0.0842  0.0976
 1344SOL    HW115665   0.010   0.583   4.802 -1.0138  0.2078 -0.3289
 1344SOL    HW215666   0.032   0.572   4.949  1.3015  1.4298 -1.6923
 1345SOL     OW15667   2.422   1.614  11.108  0.5283  0.4232 -0.1092
 1345SOL    HW115668   2.475   1.638  11.032  1.2781 -0.1298  0.2361
 1345SOL    HW215669   2.471   1.540  11.143  1.4591  0.7549 -0.7266
 1346SOL     OW15670   4.717   3.952   4.125 -0.7346  0.2082  0.4315
 1346SOL    HW115671   4.717   3.972   4.031  1.6548 -0.0393  0.3767
 1346SOL    HW215672   4.629   3.915   4.132 -0.7169  0.1576  0.3937
 1347SOL     OW15673   4.541   1.250   1.667  0.1083 -0.0866 -0.4467
 1347SOL    HW115674   4.604   1.207   1.609  0.3297  0.5755 -0.6846
 1347SOL    HW215675   4.515   1.319   1.606 -2.4121 -0.5307  0.0902
 1348SOL     OW15676   3.400   0.904   6.703 -0.0938 -0.2663  0.3787
 1348SOL    HW115677   3.385   0.995   6.727 -0.4730 -0.2934  0.2476
 1348SOL    HW215678   3.458   0.883   6.775 -1.2208  0.0541  1.3800
 1349SOL     OW15679   1.476   1.463  15.548 -0.0473 -0.1692  0.1792
 1349SOL    HW115680   1.557   1.411  15.544 -0.0571  0.0893 -3.3554
 1349SOL    HW215681   1.412   1.397  15.573 -0.2802 -0.3230 -0.8023
 1350SOL     OW15682   2.778   2.196   6.039 -0.0248 -0.1264  0.0768
 1350SOL    HW115683   2.838   2.141   6.090  0.2461 -0.8577 -1.0445
 1350SOL    HW215684   2.699   2.190   6.093  1.7521  1.0211  2.8130
 1351SOL     OW15685   2.395   0.902   4.289 -0.1543 -0.3839  0.4053
 1351SOL    HW115686   2.471   0.956   4.312 -1.0129  1.0725 -0.1984
 1351SOL    HW215687   2.425   0.817   4.323 -1.8671 -0.7054  1.1147
 1352SOL     OW15688   1.862   0.371  12.501  0.0445  0.0113 -0.0520
 1352SOL    HW115689   1.868   0.276  12.492  1.2566  0.1360 -0.7095
 1352SOL    HW215690   1.952   0.404  12.512  0.6236 -1.1268 -1.2658
 1353SOL     OW15691   4.462   0.758   9.674  0.1935 -0.3337 -0.1888
 1353SOL    HW115692   4.491   0.844   9.645  2.6101 -1.2010 -0.3698
 1353SOL    HW215693   4.444   0.710   9.593  1.1227  2.6511 -2.1379
 1354SOL     OW15694   3.666   2.803   3.344  0.0990 -0.2541 -0.0773
 1354SOL    HW115695   3.662   2.772   3.254  0.9146  2.2952 -0.9849
 1354SOL    HW215696   3.575   2.818   3.370 -0.3170 -1.8058 -0.6534
 1355SOL     OW15697   0.666   2.043  15.958  0.2060 -0.0008 -0.1991
 1355SOL    HW115698   0.702   2.008  16.040  1.5792 -1.6096 -1.5006
 1355SOL    HW215699   0.686   2.136  15.968  1.6967 -0.4412  0.9258
 1356SOL     OW15700   1.717   0.925   2.183  0.2366 -0.0191  0.0195
 1356SOL    HW115701   1.778   0.995   2.159  0.8671 -0.6814 -0.3061
 1356SOL    HW215702   1.760   0.860   2.128 -0.0545 -0.5596  0.4268
 1357SOL     OW15703   4.158   2.306   8.928 -0.0526 -0.0589 -0.5549
 1357SOL    HW115704   4.175   2.216   8.901  0.4763  0.2685 -1.2972
 1357SOL    HW215705   4.062   2.306   8.920 -0.2084 -0.3470  1.2095
 1358SOL     OW15706   1.104   0.356   9.311 -0.4065  0.1574 -0.1020
 1358SOL    HW115707   1.169   0.423   9.331  1.1504 -0.7647 -1.9767
 1358SOL    HW215708   1.054   0.351   9.392 -1.0035 -0.4557 -0.5042
 1359SOL     OW15709   2.523   3.194   4.638 -0.0037  0.0628  0.0352
 1359SOL    HW115710   2.440   3.172   4.680 -0.7387  0.0444 -1.4270
 1359SOL    HW215711   2.517   3.290   4.631 -1.1184 -0.0054  0.0509
 1360SOL     OW15712   0.473   1.281   5.848  0.0570 -0.5958  0.3929
 1360SOL    HW115713   0.423   1.306   5.770  2.0850 -1.4226 -1.1657
 1360SOL    HW215714   0.440   1.348   5.908 -0.7157 -0.4791 -0.1518
 1361SOL     OW15715   0.761   3.561   3.888 -0.0491 -0.8296 -0.0800
 1361SOL    HW115716   0.838   3.607   3.856 -0.6081  1.2995  1.5720
 1361SOL    HW215717   0.746   3.599   3.975  2.1349  0.9580 -0.4781
 1362SOL     OW15718   1.620   4.356   7.582  0.0543  0.5742 -0.0622
 1362SOL    HW115719   1.587   4.426   7.639  0.2252  2.2797 -2.0543
 1362SOL    HW215720   1.548   4.345   7.520  0.7405 -1.6362 -0.4707
 1363SOL     OW15721   4.681   1.976  15.727 -0.5002  0.0790 -0.1807
 1363SOL    HW115722   0.025   1.960  15.772 -0.8734 -1.3075  0.0008
 1363SOL    HW215723   4.706   2.034  15.655  1.8809 -0.1224  0.4858
 1364SOL     OW15724   2.894   1.451   4.138 -0.0354 -0.4547 -0.5379
 1364SOL    HW115725   2.904   1.428   4.045 -0.5348 -1.2510 -0.3912
 1364SOL    HW215726   2.952   1.388   4.181  0.4033 -0.0055 -0.4826
 1365SOL     OW15727   0.105   1.412   8.994  0.5188 -0.4765 -0.4182
 1365SOL    HW115728   0.190   1.369   9.003  0.1031 -1.3042 -0.4686
 1365SOL    HW215729   0.046   1.343   9.023  1.4262 -1.0286  0.1055
 1366SOL     OW15730   3.649   3.882   6.267  0.3132 -0.1846  0.1049
 1366SOL    HW115731   3.589   3.879   6.193  1.3600 -0.9704 -0.7364
 1366SOL    HW215732   3.605   3.940   6.329  0.1554  0.1269 -0.3032
 1367SOL     OW15733   2.794   1.027   5.557 -1.0511 -0.2120 -0.5664
 1367SOL    HW115734   2.706   0.991   5.545 -0.8859  0.5046 -3.7896
 1367SOL    HW215735   2.779   1.098   5.620 -0.0507 -1.0815  0.6386
 1368SOL     OW15736   2.588   3.365  11.441  0.5408 -0.3122  0.1662
 1368SOL    HW115737   2.529   3.289  11.450  2.2943 -1.5980  0.7857
 1368SOL    HW215738   2.589   3.408  11.526 -3.7316  0.1899 -0.0096
 1369SOL     OW15739   2.931   4.181  11.329  0.3600  0.1458 -0.0220
 1369SOL    HW115740   2.913   4.111  11.265  0.2520  0.8543 -0.7667
 1369SOL    HW215741   2.962   4.248  11.268  1.8337 -2.8903 -2.6467
 1370SOL     OW15742   2.909   2.210   3.697  0.1288 -0.1447  0.0145
 1370SOL    HW115743   2.817   2.207   3.670  0.1723  2.0378 -0.3923
 1370SOL    HW215744   2.922   2.304   3.683 -0.0931 -0.0644  0.3547
 1371SOL     OW15745   2.460   3.356   8.601  0.2589 -0.5098 -0.1196
 1371SOL    HW115746   2.518   3.408   8.657 -0.8317  1.2541 -0.6450
 1371SOL    HW215747   2.384   3.361   8.659 -0.3595  0.3134 -0.9974
 1372SOL     OW15748   2.413   0.294   5.152 -0.4500  0.2003  0.0314
 1372SOL    HW115749   2.330   0.255   5.177 -0.4043  1.1564  1.7074
 1372SOL    HW215750   2.482   0.233   5.177 -0.3034  0.9084  1.3574
 1373SOL     OW15751   4.115   2.462   2.410  0.6520 -0.2008 -0.0840
 1373SOL    HW115752   4.196   2.445   2.362  0.0133 -3.8951  0.1570
 1373SOL    HW215753   4.148   2.528   2.471  0.6836 -0.3713  0.0836
 1374SOL     OW15754   2.164   2.008   8.941 -0.1542 -0.2183 -0.0476
 1374SOL    HW115755   2.213   2.009   8.859  1.6957 -1.3040  1.0778
 1374SOL    HW215756   2.083   2.057   8.921  0.0768  0.6039  1.0052
 1375SOL     OW15757   2.941   2.485  17.458  0.3367 -0.5102 -0.5403
 1375SOL    HW115758   3.026   2.447  17.480 -0.7572 -0.9546  2.8863
 1375SOL    HW215759   2.883   2.411  17.442  3.7156 -3.1602 -0.3959
 1376SOL     OW15760   4.620   4.403   2.049  0.0469 -0.0039  0.3371
 1376SOL    HW115761   4.713   4.404   2.070 -0.4908  2.7670  2.5284
 1376SOL    HW215762   4.610   4.320   2.002  1.9623  1.9663 -3.4451
 1377SOL     OW15763   3.461   4.424   5.513 -0.8492  0.6628  0.3192
 1377SOL    HW115764   3.512   4.504   5.504 -0.1671  0.3940  1.6929
 1377SOL    HW215765   3.385   4.440   5.457 -1.5674  0.6456  1.2755
 1378SOL     OW15766   0.874   0.106   9.299 -0.1961  0.1760  0.1754
 1378SOL    HW115767   0.794   0.066   9.265 -0.0091 -1.7335  2.0180
 1378SOL    HW215768   0.844   0.178   9.354  0.2985 -0.0807  0.7913
 1379SOL     OW15769   4.369   0.700   6.450  0.1036 -0.0795  0.0541
 1379SOL    HW115770   4.350   0.714   6.358  1.2563  0.2353 -0.1345
 1379SOL    HW215771   4.421   0.620   6.448  1.4777  0.7618  1.7180
 1380SOL     OW15772   3.849   0.262   5.306 -0.0246  0.5993  0.2389
 1380SOL    HW115773   3.912   0.330   5.332  1.5188 -1.4563  1.9374
 1380SOL    HW215774   3.779   0.319   5.277  1.4220  3.5433  2.4475
 1381SOL     OW15775   3.992   0.665   2.943 -0.2084  0.5989  0.5662
 1381SOL    HW115776   4.007   0.571   2.955  1.4701  0.7082 -0.7111
 1381SOL    HW215777   3.996   0.679   2.849  1.8743  0.7604  0.6630
 1382SOL     OW15778   1.331   1.417   4.325 -0.1476 -0.1185  0.7458
 1382SOL    HW115779   1.274   1.370   4.386 -0.7862  0.3618  0.5190
 1382SOL    HW215780   1.407   1.440   4.379  0.0273 -1.1261  0.9196
 1383SOL     OW15781   2.823   3.975  13.201 -0.8343 -0.2711  0.1275
 1383SOL    HW115782   2.750   3.921  13.231 -1.0349  0.9395  1.8051
 1383SOL    HW215783   2.794   4.063  13.224  1.3492  1.0500 -2.2945
 1384SOL     OW15784   4.484   2.730   5.379 -0.4920  0.2914 -0.2079
 1384SOL    HW115785   4.555   2.772   5.330  1.0774 -0.7179  1.1921
 1384SOL    HW215786   4.467   2.655   5.321 -2.8196  0.3402  0.3866
 1385SOL     OW15787   0.766   3.563  17.196 -0.7746 -0.3718  0.0712
 1385SOL    HW115788   0.723   3.525  17.272  0.1531  0.9249  1.2571
 1385SOL    HW215789   0.856   3.580  17.223 -0.3818 -0.2566 -1.2932
 1386SOL     OW15790   0.476   3.917   3.499 -0.0077 -0.2515  0.7928
 1386SOL    HW115791   0.384   3.945   3.498 -0.0580 -0.4483 -0.7229
 1386SOL    HW215792   0.470   3.883   3.409 -2.1158  4.1410 -0.7343
 1387SOL     OW15793   2.813   1.581   2.441  0.0767 -0.2486  0.1743
 1387SOL    HW115794   2.743   1.646   2.434  0.6135  0.3953  0.7201
 1387SOL    HW215795   2.827   1.558   2.533 -1.0855  2.7795  1.1123
 1388SOL     OW15796   1.416   1.754   2.690  0.0238  0.8015 -0.0753
 1388SOL    HW115797   1.495   1.792   2.653  1.2620  0.6330  2.3519
 1388SOL    HW215798   1.359   1.761   2.613 -1.4104 -0.1768  0.8886
 1389SOL     OW15799   1.778   3.034   3.046 -0.1076  0.1178 -0.3306
 1389SOL    HW115800   1.809   2.996   3.129 -2.5977  0.4733  0.7673
 1389SOL    HW215801   1.712   3.097   3.073 -1.6523 -2.0525  1.0006
 1390SOL     OW15802   2.281   1.510  11.597 -0.5700 -0.7114 -0.7349
 1390SOL    HW115803   2.208   1.563  11.629 -1.4521 -2.0784 -0.4466
 1390SOL    HW215804   2.267   1.519  11.503 -0.3955  0.0164 -0.6899
 1391SOL     OW15805   1.810   0.965   4.658  0.4989 -0.0466 -0.5884
 1391SOL    HW115806   1.856   0.911   4.722  2.0033 -0.2310 -1.8380
 1391SOL    HW215807   1.844   1.047   4.694 -0.3433  0.3137 -0.6114
 1392SOL     OW15808   2.289   3.410  14.449 -0.5689 -1.1334 -0.0140
 1392SOL    HW115809   2.348   3.341  14.421 -1.0612 -0.3947 -2.9449
 1392SOL    HW215810   2.207   3.363  14.432 -0.7343 -1.5550  1.9626
 1393SOL     OW15811   2.926   3.947  12.424  0.4362 -0.2885  0.0355
 1393SOL    HW115812   2.835   3.936  12.398 -0.1423  1.3813  1.3528
 1393SOL    HW215813   2.943   3.901  12.506 -2.1045 -0.5409  0.3985
 1394SOL     OW15814   0.155   0.343   0.629 -0.1529 -0.3306 -0.1836
 1394SOL    HW115815   0.144   0.348   0.534 -1.1380  2.1641  0.0489
 1394SOL    HW215816   0.249   0.331   0.640 -0.0760 -1.0752 -1.6457
 1395SOL     OW15817   3.531   4.011   1.990  0.3512  0.1024 -0.0510
 1395SOL    HW115818   3.501   4.026   1.900  1.1347  0.1985 -0.2936
 1395SOL    HW215819   3.476   3.938   2.020  0.0721  1.0561  1.7399
 1396SOL     OW15820   2.412   0.059   4.676 -0.3083  0.0805  0.0158
 1396SOL    HW115821   2.501   0.052   4.709 -0.8028 -1.3330  1.0724
 1396SOL    HW215822   2.363   0.060   4.759 -1.0002  1.2010 -0.4093
 1397SOL     OW15823   4.439   3.721   2.080 -0.2380 -0.4815  0.1068
 1397SOL    HW115824   4.373   3.722   2.150  0.9854 -3.2536  1.3304
 1397SOL    HW215825   4.386   3.702   2.003 -0.9975 -0.3593  0.5960
 1398SOL     OW15826   4.411   1.668   7.553  0.8472  0.1270  0.3760
 1398SOL    HW115827   4.478   1.736   7.567 -0.1498  0.8518  1.5568
 1398SOL    HW215828   4.341   1.694   7.612 -0.0440 -0.2654 -0.5211
 1399SOL     OW15829   0.476   3.758   4.266 -0.1855 -0.3222 -0.4691
 1399SOL    HW115830   0.475   3.807   4.184  0.9821  3.0909  1.5685
 1399SOL    HW215831   0.420   3.826   4.304  0.4126 -0.4693  0.6976
 1400SOL     OW15832   1.377   2.334   4.239  0.0830 -0.5279  0.2265
 1400SOL    HW115833   1.466   2.303   4.257 -1.2314 -5.2776 -1.3039
 1400SOL    HW215834   1.364   2.326   4.144 -0.0572 -3.0212  0.4627
 1401SOL     OW15835   1.396   3.919   5.782  0.5282 -0.8052 -0.1930
 1401SOL    HW115836   1.423   3.928   5.691 -1.8754 -0.3915 -0.8396
 1401SOL    HW215837   1.480   3.904   5.827  1.2627  1.4797 -0.8029
 1402SOL     OW15838   1.791   4.032   2.362  0.1033 -0.3843  0.5882
 1402SOL    HW115839   1.833   4.049   2.446  0.4328 -1.8517  0.7136
 1402SOL    HW215840   1.700   4.057   2.377  0.6938  0.9255  1.9113
 1403SOL     OW15841   3.016   1.776   4.021  0.0894  0.4576 -0.2634
 1403SOL    HW115842   3.029   1.810   3.933  1.9231  0.4992  0.0325
 1403SOL    HW215843   3.084   1.709   4.027 -1.8788 -1.4224  1.0048
 1404SOL     OW15844   4.023   3.781   7.629 -0.0740  0.2588 -0.2171
 1404SOL    HW115845   4.065   3.851   7.679 -1.4964 -0.0484  1.4121
 1404SOL    HW215846   3.939   3.823   7.612  0.3888  1.1111 -0.3871
 1405SOL     OW15847   0.137   3.638   1.337  0.5314  0.0626 -0.2261
 1405SOL    HW115848   0.057   3.684   1.312  0.0691 -0.9535 -0.5972
 1405SOL    HW215849   0.174   3.629   1.249 -1.5468  0.4707 -1.1478
 1406SOL     OW15850   3.477   2.388  15.670 -0.2673 -0.1139  0.3563
 1406SOL    HW115851   3.483   2.296  15.694 -0.8077 -0.6286 -1.4879
 1406SOL    HW215852   3.447   2.382  15.579 -0.8859  1.1744  0.4667
 1407SOL     OW15853   1.131   2.895   7.404 -0.2303 -0.1208 -1.0743
 1407SOL    HW115854   1.156   2.805   7.426 -1.0395  0.5716  2.7238
 1407SOL    HW215855   1.094   2.902   7.316 -0.6299 -0.0503 -0.8979
 1408SOL     OW15856   1.214   4.098  11.084  0.3535  0.4024  0.4305
 1408SOL    HW115857   1.276   4.168  11.063  0.0256  0.7770  0.7152
 1408SOL    HW215858   1.154   4.139  11.146  1.6491 -0.1928  2.1057
 1409SOL     OW15859   3.589   3.392   9.800  0.4229  0.1934 -0.0333
 1409SOL    HW115860   3.587   3.335   9.877 -0.1840  2.1288  1.3772
 1409SOL    HW215861   3.546   3.332   9.739 -0.0096  0.0767  0.3832
 1410SOL     OW15862   2.327   0.060   7.670 -0.0961  0.5498  0.0954
 1410SOL    HW115863   2.416   0.056   7.635  0.5004 -2.9046  2.0188
 1410SOL    HW215864   2.309   4.715   7.713 -1.5321  1.7827  1.8931
 1411SOL     OW15865   0.566   0.207   8.473  0.2729  0.2057 -0.1510
 1411SOL    HW115866   0.574   0.181   8.564 -1.1156  0.7870  0.1395
 1411SOL    HW215867   0.628   0.279   8.476  0.8135 -0.2657 -0.0246
 1412SOL     OW15868   4.453   1.214  12.004 -0.4304  1.0403  0.0823
 1412SOL    HW115869   4.444   1.140  11.943 -0.0903  0.2559  0.9896
 1412SOL    HW215870   4.362   1.207  12.035 -0.3622  1.0100  0.2715
 1413SOL     OW15871   2.834   4.683   8.026  0.6683  0.3826 -0.0049
 1413SOL    HW115872   2.878   4.669   7.942  1.4559  1.2989  0.2523
 1413SOL    HW215873   2.873   0.025   8.061  0.7308  0.2146  0.3160
 1414SOL     OW15874   4.306   4.638   5.054 -0.4032  0.1268 -0.3474
 1414SOL    HW115875   4.355   4.703   5.104  1.5019  0.2801 -2.4309
 1414SOL    HW215876   4.237   4.692   5.016  0.9217  0.6709 -1.9539
 1415SOL     OW15877   0.595   3.864   7.103  0.0490 -0.2331  0.3681
 1415SOL    HW115878   0.593   3.930   7.173  1.4496 -0.3925  0.5608
 1415SOL    HW215879   0.596   3.777   7.143 -0.9161  0.5960  2.2426
 1416SOL     OW15880   2.980   4.173  12.060 -0.0034  0.3909 -0.0337
 1416SOL    HW115881   2.890   4.201  12.043 -0.4595  0.0408  1.8296
 1416SOL    HW215882   3.002   4.128  11.979 -0.7275  0.1751 -0.1140
 1417SOL     OW15883   0.752   1.499   6.547 -0.4724 -0.3300  1.1842
 1417SOL    HW115884   0.750   1.408   6.517  2.1493  0.3372 -1.0428
 1417SOL    HW215885   0.680   1.537   6.496  0.3968  1.1476  1.0538
 1418SOL     OW15886   0.265   0.414   9.502  0.1023 -0.0099 -0.4651
 1418SOL    HW115887   0.333   0.479   9.484  0.6155  0.2174  2.1879
 1418SOL    HW215888   0.218   0.410   9.419  0.8291  0.6476 -0.9043
 1419SOL     OW15889   0.979   0.956   4.842  0.0788  0.1904 -0.2473
 1419SOL    HW115890   1.045   0.951   4.773  0.1364 -0.4670 -0.1457
 1419SOL    HW215891   1.024   1.008   4.909  1.4002 -4.2843  2.3518
 1420SOL     OW15892   1.661   3.285  11.122  0.3285 -0.7480  0.1943
 1420SOL    HW115893   1.711   3.336  11.059 -1.1600 -0.0687 -0.4239
 1420SOL    HW215894   1.570   3.314  11.118  0.6806 -0.0192 -2.2249
 1421SOL     OW15895   1.140   2.701   5.593  0.1600 -0.2306  0.1288
 1421SOL    HW115896   1.205   2.723   5.661 -1.6072 -3.1987  2.7884
 1421SOL    HW215897   1.147   2.606   5.594  3.7014  0.0371  0.8403
 1422SOL     OW15898   4.207   3.400   1.675  0.4303  0.1695  0.1511
 1422SOL    HW115899   4.193   3.327   1.614 -1.8899  1.7015 -1.1572
 1422SOL    HW215900   4.281   3.373   1.729  1.4364  2.7340  0.0145
 1423SOL     OW15901   2.955   4.588  10.145 -0.4306 -0.2796  0.1985
 1423SOL    HW115902   2.967   4.506  10.193  0.0823 -0.8458 -0.8885
 1423SOL    HW215903   3.043   4.626  10.149 -0.7867  0.8238 -2.5891
 1424SOL     OW15904   1.175   3.838  10.984 -0.2139  0.5593 -0.6404
 1424SOL    HW115905   1.199   3.789  11.064 -0.2352  0.3482 -0.7627
 1424SOL    HW215906   1.212   3.921  11.015 -1.6995  0.9421  0.1471
 1425SOL     OW15907   2.648   0.087   2.534 -0.5508 -0.2469 -0.3675
 1425SOL    HW115908   2.660   0.132   2.617 -1.3802 -0.2646 -0.2400
 1425SOL    HW215909   2.611   0.010   2.577 -1.2707 -0.6250 -1.6456
 1426SOL     OW15910   0.787   1.782   8.287 -0.2172 -0.2178  0.0567
 1426SOL    HW115911   0.838   1.702   8.275  1.2945  1.0834 -2.1522
 1426SOL    HW215912   0.767   1.769   8.380  0.3972  0.0478  0.2234
 1427SOL     OW15913   1.261   0.188  16.925  0.0051  0.2880 -0.1763
 1427SOL    HW115914   1.304   0.117  16.878  1.2456  0.0563  1.3355
 1427SOL    HW215915   1.312   0.259  16.887  1.8693  0.4962  2.7690
 1428SOL     OW15916   3.743   3.069   5.837 -0.1023 -0.2151  0.2239
 1428SOL    HW115917   3.665   3.054   5.784  0.7472  0.6387 -1.2865
 1428SOL    HW215918   3.813   3.083   5.773  0.5371  0.2631  1.0292
 1429SOL     OW15919   4.525   4.275  11.605  0.7601 -0.0491  0.1514
 1429SOL    HW115920   4.573   4.325  11.539  0.6176 -0.5185 -0.3181
 1429SOL    HW215921   4.460   4.235  11.548  1.3383 -1.9835  0.8446
 1430SOL     OW15922   0.258   2.021   3.266  0.4376  0.5592 -0.2754
 1430SOL    HW115923   0.201   2.074   3.209  1.8786  2.7636  0.3226
 1430SOL    HW215924   0.343   2.059   3.244 -0.0948  1.3443 -0.9847
 1431SOL     OW15925   3.754   3.514   4.219  0.1967  0.1569  0.3445
 1431SOL    HW115926   3.776   3.543   4.130  0.7870  0.7581  0.6939
 1431SOL    HW215927   3.665   3.480   4.206  0.0916 -0.1430  1.9080
 1432SOL     OW15928   3.617   0.276  16.808 -0.6301  0.7836 -0.2751
 1432SOL    HW115929   3.648   0.346  16.866 -0.4030  0.6954 -0.2911
 1432SOL    HW215930   3.567   0.326  16.744 -0.3621 -0.3005 -1.3279
 1433SOL     OW15931   3.179   1.114   1.704 -0.1421 -0.0973 -0.1454
 1433SOL    HW115932   3.196   1.186   1.643 -2.5443  1.9157  1.5538
 1433SOL    HW215933   3.086   1.126   1.726  0.4930  1.8173  1.4899
 1434SOL     OW15934   3.504   1.557   5.906 -0.0124  0.0735 -0.4082
 1434SOL    HW115935   3.542   1.639   5.877  2.3402 -0.4093  1.3506
 1434SOL    HW215936   3.502   1.505   5.825 -1.0023 -1.7170  0.7515
 1435SOL     OW15937   3.326   0.123   2.001 -0.3171  0.3053 -0.1658
 1435SOL    HW115938   3.293   0.165   1.922 -1.8048  0.5336  0.5864
 1435SOL    HW215939   3.253   0.122   2.063  0.2236  1.3435  0.4887
 1436SOL     OW15940   0.946   3.700   9.229  0.2319 -0.0910  0.5264
 1436SOL    HW115941   0.884   3.746   9.286  1.2486  1.8990  0.0233
 1436SOL    HW215942   0.903   3.619   9.203 -0.3342  0.9832 -1.9256
 1437SOL     OW15943   4.273   4.636  10.725 -0.3417  0.4850 -0.5230
 1437SOL    HW115944   4.244   4.650  10.815 -0.6638  0.1157 -0.5724
 1437SOL    HW215945   4.347   4.697  10.732 -0.4975  0.7089 -0.8218
 1438SOL     OW15946   3.760   1.775   6.533 -0.4849 -0.6734 -0.0031
 1438SOL    HW115947   3.686   1.722   6.562  0.0792 -1.6530 -0.3601
 1438SOL    HW215948   3.736   1.799   6.443  0.9260  1.1604  0.0983
 1439SOL     OW15949   3.345   2.487  12.415 -0.0162 -0.4449 -0.1602
 1439SOL    HW115950   3.397   2.415  12.378 -1.5179 -1.4715 -0.2549
 1439SOL    HW215951   3.292   2.519  12.342  0.5512 -0.7180 -0.6973
 1440SOL     OW15952   0.774   0.158   3.507  0.1675 -0.1705  0.4146
 1440SOL    HW115953   0.857   0.129   3.546 -0.1437 -0.9994  0.4691
 1440SOL    HW215954   0.808   0.229   3.453  2.6522 -1.1366  0.6820
 1441SOL     OW15955   0.884   1.902   2.094  0.0490 -0.2095 -0.3923
 1441SOL    HW115956   0.928   1.852   2.163  0.2454  0.7612  0.1960
 1441SOL    HW215957   0.801   1.921   2.137 -0.2679  1.1848 -1.6293
 1442SOL     OW15958   3.143   3.470  13.633 -0.0301 -0.1910 -0.8063
 1442SOL    HW115959   3.152   3.562  13.609 -1.5479  0.2361  0.3063
 1442SOL    HW215960   3.077   3.453  13.565 -1.5002 -0.8744  0.7943
 1443SOL     OW15961   2.259   2.792   1.055 -0.3697 -0.2806 -0.1358
 1443SOL    HW115962   2.313   2.786   0.977  2.7610  0.2847  1.9583
 1443SOL    HW215963   2.187   2.734   1.029  1.6658 -4.2896  3.1362
 1444SOL     OW15964   3.197   3.450   6.552 -0.2115  0.0644  0.1117
 1444SOL    HW115965   3.195   3.499   6.470 -3.1018  0.5914  0.5189
 1444SOL    HW215966   3.178   3.523   6.611 -0.7276 -0.3457  0.4468
 1445SOL     OW15967   4.458   2.257  16.180  0.2463 -0.2622  0.3303
 1445SOL    HW115968   4.535   2.287  16.131  0.0228 -0.0275  0.1239
 1445SOL    HW215969   4.398   2.245  16.106  0.9814  2.0359 -0.6553
 1446SOL     OW15970   1.832   2.810   9.776 -0.1293 -0.2498  0.0806
 1446SOL    HW115971   1.820   2.729   9.825  0.3174 -0.6040 -0.3907
 1446SOL    HW215972   1.801   2.800   9.686  0.6379  2.2361 -0.4596
 1447SOL     OW15973   0.053   4.068   4.661 -0.2841  0.1894  0.2120
 1447SOL    HW115974   4.698   4.085   4.661 -0.2382  0.4559  0.6403
 1447SOL    HW215975   0.081   4.157   4.684 -1.8823  0.2558  1.9195
 1448SOL     OW15976   3.654   0.737   8.301  0.1590 -0.2174 -0.4389
 1448SOL    HW115977   3.701   0.805   8.349 -0.0092 -0.1248 -0.4053
 1448SOL    HW215978   3.627   0.772   8.217  2.2458 -0.4649 -1.2021
 1449SOL     OW15979   1.878   3.220   3.516  0.3833  0.3013  0.0229
 1449SOL    HW115980   1.903   3.305   3.551 -1.2096  0.4020  0.9375
 1449SOL    HW215981   1.788   3.207   3.548 -0.1578 -2.2249 -2.4439
 1450SOL     OW15982   1.260   1.591   2.888  0.2890 -0.0305 -0.0002
 1450SOL    HW115983   1.322   1.533   2.931  1.8571  0.8671 -1.0160
 1450SOL    HW215984   1.317   1.634   2.824  1.2831 -0.0836  0.8511
 1451SOL     OW15985   0.147   2.160   2.212 -0.6164  0.1435  0.3803
 1451SOL    HW115986   0.195   2.151   2.130 -1.2760 -2.4460  0.2870
 1451SOL    HW215987   0.120   2.252   2.216  2.0160  0.8518  1.7280
 1452SOL     OW15988   3.288   0.264   9.729  0.6024  0.1634 -0.2131
 1452SOL    HW115989   3.270   0.344   9.777  0.2405  1.0201 -1.7788
 1452SOL    HW215990   3.248   0.280   9.643 -1.8938 -0.1337  0.8690
 1453SOL     OW15991   2.502   0.753  16.398 -0.2149 -0.4366 -0.2166
 1453SOL    HW115992   2.554   0.767  16.478  1.2201 -0.3264 -1.1677
 1453SOL    HW215993   2.421   0.799  16.418  0.6015  0.8169  0.2171
 1454SOL     OW15994   1.728   0.309   5.973  0.0889  0.5720  0.4991
 1454SOL    HW115995   1.752   0.364   6.048  2.3027  0.3850 -0.0626
 1454SOL    HW215996   1.807   0.334   5.925  1.4112 -2.4183  1.1419
 1455SOL     OW15997   0.423   3.087   8.629 -0.9077 -0.5208  0.3796
 1455SOL    HW115998   0.506   3.071   8.583  0.2528  0.5958  2.0921
 1455SOL    HW215999   0.369   3.102   8.551 -1.3601 -0.2701  0.7464
 1456SOL     OW16000   0.786   0.689   7.921 -0.2694 -0.0519  0.3382
 1456SOL    HW116001   0.719   0.658   7.860 -0.8916  0.1778  0.9018
 1456SOL    HW216002   0.793   0.621   7.988  1.4248 -0.7740 -0.5659
 1457SOL     OW16003   2.985   2.174  15.828  0.5989 -0.2617  0.1860
 1457SOL    HW116004   2.961   2.256  15.786 -0.7445 -0.0419  1.3786
 1457SOL    HW216005   2.910   2.116  15.837  0.1875  0.0785 -1.1900
 1458SOL     OW16006   4.456   2.907  16.965 -0.2622 -0.2767 -0.1358
 1458SOL    HW116007   4.399   2.979  16.938  0.2057  0.4435  0.8053
 1458SOL    HW216008   4.520   2.924  16.896  0.4010  0.3252  0.6212
 1459SOL     OW16009   0.830   4.218   3.431 -0.1847 -0.1506 -0.2416
 1459SOL    HW116010   0.767   4.162   3.476 -0.5627 -0.6520 -1.3953
 1459SOL    HW216011   0.878   4.247   3.508 -1.0962  0.5697  0.0511
 1460SOL     OW16012   3.005   0.266   6.592  0.5060 -0.3251  0.1401
 1460SOL    HW116013   2.974   0.332   6.654  1.3301 -0.5261  0.7608
 1460SOL    HW216014   3.098   0.288   6.592  0.2506  0.7461  1.0441
 1461SOL     OW16015   2.563   1.474   4.631  0.2149 -0.0720 -0.0319
 1461SOL    HW116016   2.600   1.534   4.697  2.3776 -1.1653 -0.2569
 1461SOL    HW216017   2.544   1.540   4.564 -1.6040 -1.1655 -0.5879
 1462SOL     OW16018   4.163   4.139   4.470 -0.5779  0.0057 -0.0858
 1462SOL    HW116019   4.119   4.072   4.418  0.5055 -1.2467  0.5974
 1462SOL    HW216020   4.092   4.188   4.511  1.2579  1.8909  0.8654
 1463SOL     OW16021   2.635   3.699  13.884 -0.4704  0.0037  0.6251
 1463SOL    HW116022   2.701   3.658  13.828 -0.9642 -1.8909  1.3963
 1463SOL    HW216023   2.656   3.792  13.882  2.0757 -0.4968  3.4687
 1464SOL     OW16024   0.700   2.790   3.387 -0.6317  0.2135  0.2214
 1464SOL    HW116025   0.708   2.695   3.398 -1.2094  0.1611  0.1981
 1464SOL    HW216026   0.607   2.812   3.385  0.3033  3.7477 -4.1969
 1465SOL     OW16027   3.257   1.845   9.993  0.5430  0.1725 -0.5590
 1465SOL    HW116028   3.260   1.836  10.088 -1.6205  1.6102 -0.3709
 1465SOL    HW216029   3.337   1.794   9.976  0.0615 -0.4399 -0.9713
 1466SOL     OW16030   1.703   2.218   0.429 -0.3121 -0.3501  0.0066
 1466SOL    HW116031   1.696   2.135   0.380 -2.4637  1.2768 -2.4317
 1466SOL    HW216032   1.789   2.196   0.465 -0.3123  0.7278  0.6559
 1467SOL     OW16033   1.501   0.339   3.296 -0.0170 -0.2910  0.2628
 1467SOL    HW116034   1.560   0.365   3.368  0.4022  0.5223 -0.3778
 1467SOL    HW216035   1.562   0.296   3.236  0.0194  0.5132 -0.2681
 1468SOL     OW16036   2.804   0.895   6.741  0.4013 -0.7801 -0.1089
 1468SOL    HW116037   2.742   0.920   6.673  1.0085  2.2923  0.4690
 1468SOL    HW216038   2.750   0.881   6.819  1.3721  1.4892  0.9650
 1469SOL     OW16039   2.511   1.224   7.616 -0.1440  0.0664 -0.4461
 1469SOL    HW116040   2.594   1.187   7.585  1.4001  1.3411  2.1992
 1469SOL    HW216041   2.511   1.204   7.710  0.2435  0.4097 -0.3749
 1470SOL     OW16042   2.345   2.223   6.953 -0.1331 -0.4748 -0.1913
 1470SOL    HW116043   2.384   2.218   7.040  0.7507  1.0941 -0.4932
 1470SOL    HW216044   2.262   2.190   6.987 -0.2607 -0.9214 -0.9348
 1471SOL     OW16045   3.372   3.794   6.691  0.7081  0.1069 -0.0769
 1471SOL    HW116046   3.420   3.860   6.741 -0.3315  0.6965  0.1432
 1471SOL    HW216047   3.436   3.755   6.632 -0.7320 -2.1083 -0.1752
 1472SOL     OW16048   0.099   1.582  10.159 -0.6106  0.1688 -0.1509
 1472SOL    HW116049   0.165   1.589  10.090  1.7020 -0.4240  1.9876
 1472SOL    HW216050   0.030   1.642  10.131 -1.8901 -0.9819  0.5045
 1473SOL     OW16051   2.112   1.474   3.244 -0.1543  0.0505 -0.0492
 1473SOL    HW116052   2.200   1.474   3.205 -0.5086  0.1227 -0.8468
 1473SOL    HW216053   2.088   1.381   3.240 -1.0610  0.3359 -1.1852
 1474SOL     OW16054   1.043   3.129   2.974  0.0517 -0.0818  0.2155
 1474SOL    HW116055   1.099   3.064   3.016 -0.7095 -0.5178  0.5475
 1474SOL    HW216056   0.971   3.137   3.037  0.7453 -1.1798  1.1460
 1475SOL     OW16057   4.157   4.145   7.039  0.1225 -0.3239  0.0088
 1475SOL    HW116058   4.220   4.085   7.079  2.5779  2.0417 -0.2606
 1475SOL    HW216059   4.156   4.209   7.110 -3.1954  0.8694 -1.1230
 1476SOL     OW16060   4.124   4.651  14.938  0.3175  1.3529  0.3396
 1476SOL    HW116061   4.082   4.728  14.901 -1.4334  0.6774  0.8989
 1476SOL    HW216062   4.127   4.595  14.861 -1.6261  0.5099  0.8559
 1477SOL     OW16063   0.259   0.640   6.577 -0.3536 -0.2893  0.0016
 1477SOL    HW116064   0.314   0.633   6.499 -1.3628 -0.3608 -0.7119
 1477SOL    HW216065   0.201   0.568   6.552  0.0621  0.1027 -2.0819
 1478SOL     OW16066   2.472   2.456  16.554 -0.0326  1.0226  0.1932
 1478SOL    HW116067   2.546   2.509  16.584 -0.1811  1.0508  0.5052
 1478SOL    HW216068   2.480   2.381  16.613 -1.2885  0.2091 -0.6658
 1479SOL     OW16069   3.727   2.591   3.642 -0.0558 -0.5685 -0.5581
 1479SOL    HW116070   3.702   2.591   3.734  0.2328  0.6347 -0.4841
 1479SOL    HW216071   3.806   2.644   3.641 -0.6216  0.2771 -0.8626
 1480SOL     OW16072   0.140   2.245  16.343  0.0076 -0.4838 -0.0051
 1480SOL    HW116073   0.092   2.232  16.425  0.2570  3.3409  0.7077
 1480SOL    HW216074   0.230   2.243  16.375  0.0737 -2.3780 -0.2578
 1481SOL     OW16075   2.267   3.740   0.337  0.1664 -0.2656 -0.6730
 1481SOL    HW116076   2.200   3.759   0.402  1.5915  1.5115  0.2653
 1481SOL    HW216077   2.269   3.823   0.289  1.8896  0.1386  0.0900
 1482SOL     OW16078   4.070   0.212   9.078 -0.0421  0.5624 -0.6491
 1482SOL    HW116079   4.096   0.140   9.137  0.5866  0.1298 -1.4517
 1482SOL    HW216080   3.978   0.191   9.065 -0.0447  0.9594 -1.2378
 1483SOL     OW16081   2.891   2.863   1.759  0.1451  0.2681 -0.1324
 1483SOL    HW116082   2.801   2.829   1.766  0.3750 -0.2367  0.4020
 1483SOL    HW216083   2.906   2.815   1.678  2.5395 -0.2281  0.6156
 1484SOL     OW16084   0.027   4.119   2.941 -0.0262  0.7641  0.1272
 1484SOL    HW116085   0.084   4.194   2.956  0.5406  0.6155 -1.2400
 1484SOL    HW216086   0.058   4.094   2.854 -0.7306 -0.6673  0.2814
 1485SOL     OW16087   2.343   4.566   5.265 -0.1568 -0.5496  0.1258
 1485SOL    HW116088   2.286   4.552   5.189 -0.5894 -3.0228  0.9026
 1485SOL    HW216089   2.350   4.479   5.305  0.3198 -1.5987 -2.2220
 1486SOL     OW16090   4.522   2.498   1.441 -0.5368  0.4309  0.2619
 1486SOL    HW116091   4.591   2.515   1.377 -0.3646  1.1083  0.6244
 1486SOL    HW216092   4.440   2.507   1.393  0.1255 -1.5729 -1.2548
 1487SOL     OW16093   2.954   3.793   9.387  0.0869 -0.4180 -0.1654
 1487SOL    HW116094   3.048   3.791   9.372 -0.2094 -1.3033 -1.8809
 1487SOL    HW216095   2.930   3.705   9.415 -1.3794  0.3381  0.9562
 1488SOL     OW16096   3.571   3.218   8.590 -0.3121  0.2650  0.0149
 1488SOL    HW116097   3.488   3.195   8.548 -0.8787  0.6494  0.9187
 1488SOL    HW216098   3.628   3.210   8.514  1.3081 -0.4006  1.3062
 1489SOL     OW16099   4.017   3.827  16.313 -0.2895  0.2252 -0.2439
 1489SOL    HW116100   4.041   3.764  16.382  2.0632  1.9337  0.4929
 1489SOL    HW216101   4.094   3.815  16.259 -1.3439 -1.3048 -1.3904
 1490SOL     OW16102   3.725   2.231   6.772 -0.4930  0.1765  0.1960
 1490SOL    HW116103   3.672   2.192   6.841 -1.1193  0.1669 -0.2878
 1490SOL    HW216104   3.662   2.206   6.704 -1.9685 -0.0079  1.6313
 1491SOL     OW16105   1.107   0.877   7.049  0.3948  0.7255 -0.0345
 1491SOL    HW116106   1.074   0.793   7.082  0.7968  0.3913 -0.4846
 1491SOL    HW216107   1.201   0.864   7.045  0.1244 -0.8558 -1.3562
 1492SOL     OW16108   1.067   1.314   0.606  0.1129  0.1169 -0.3022
 1492SOL    HW116109   1.129   1.309   0.532 -2.0563 -0.7921 -2.0482
 1492SOL    HW216110   0.993   1.362   0.570  0.8125  2.5179  1.4473
 1493SOL     OW16111   0.533   0.345   4.722 -0.2917 -0.0645  0.0162
 1493SOL    HW116112   0.546   0.440   4.726  1.1410 -0.3029  0.7289
 1493SOL    HW216113   0.610   0.327   4.775  0.1795  0.7031 -0.4047
 1494SOL     OW16114   4.395   2.501   5.193 -0.0865  0.3165 -0.1620
 1494SOL    HW116115   4.398   2.586   5.149 -1.2272 -1.0764 -2.9864
 1494SOL    HW216116   4.301   2.481   5.188  0.2502 -1.6168  1.5120
 1495SOL     OW16117   1.650   3.112   2.024  0.0858  0.0873  1.0432
 1495SOL    HW116118   1.723   3.169   2.000 -0.1004 -0.4605 -0.8558
 1495SOL    HW216119   1.671   3.078   2.110  1.5487  1.4493  1.2258
 1496SOL     OW16120   4.518   0.508   3.026 -0.3814  0.2508  0.2255
 1496SOL    HW116121   4.482   0.449   3.093 -0.1510  0.4847  0.5567
 1496SOL    HW216122   4.436   0.542   2.991 -1.1296  0.6872  2.4177
 1497SOL     OW16123   3.562   0.705   7.682 -0.1280  0.0657  0.4625
 1497SOL    HW116124   3.565   0.674   7.772  1.1141 -1.9797 -0.2760
 1497SOL    HW216125   3.467   0.700   7.668 -0.1983  0.1466  0.9194
 1498SOL     OW16126   0.030   3.056  17.159 -0.2180  0.2414  0.2819
 1498SOL    HW116127   0.042   3.149  17.174  0.1819  0.0896  0.9042
 1498SOL    HW216128   4.727   3.056  17.073  0.5268 -0.1682 -0.0821
 1499SOL     OW16129   1.458   3.603   9.069 -0.3197  0.5812  0.0686
 1499SOL    HW116130   1.457   3.535   9.136 -1.1861  1.5163  0.9995
 1499SOL    HW216131   1.370   3.579   9.039 -1.1089  1.3165  1.7902
 1500SOL     OW16132   4.641   0.011   8.995 -0.3889  0.4563  0.0216
 1500SOL    HW116133   4.672   0.031   9.083 -1.5202 -2.0519  1.0014
 1500SOL    HW216134   4.688   0.066   8.932 -1.0460  1.2413  0.2232
 1501SOL     OW16135   0.147   3.861   0.896  0.0720 -0.0753 -0.7006
 1501SOL    HW116136   0.067   3.884   0.943  0.6094 -0.2113  0.2708
 1501SOL    HW216137   0.224   3.868   0.951  0.2768  1.9175 -1.2393
 1502SOL     OW16138   2.360   3.304   5.624  0.2575 -0.3847 -0.2797
 1502SOL    HW116139   2.328   3.339   5.540  0.6935 -0.4334 -0.4656
 1502SOL    HW216140   2.434   3.364   5.632 -0.3666  0.3084  0.4020
 1503SOL     OW16141   0.401   0.112   0.425 -0.0457  0.0095 -0.1249
 1503SOL    HW116142   0.377   0.085   0.513 -0.4075  1.2043  0.1461
 1503SOL    HW216143   0.488   0.147   0.445  1.3103 -2.5553 -1.5275
 1504SOL     OW16144   2.480   0.776   0.119 -0.2655  0.1151  0.6330
 1504SOL    HW116145   2.392   0.812   0.128 -0.4725 -0.0080 -0.8894
 1504SOL    HW216146   2.490   0.719   0.196  0.3362 -1.8442 -0.9073
 1505SOL     OW16147   1.535   3.361   4.668  0.0155  0.4916  0.0848
 1505SOL    HW116148   1.484   3.434   4.702  0.1848 -0.6999  2.9152
 1505SOL    HW216149   1.470   3.292   4.660  0.2342  0.1051  1.5671
 1506SOL     OW16150   3.874   1.175   8.919 -0.0052 -0.1581 -0.0919
 1506SOL    HW116151   3.909   1.103   8.865  0.1699 -0.6160  0.6307
 1506SOL    HW216152   3.782   1.168   8.893  0.2393  0.4699 -1.1324
 1507SOL     OW16153   2.340   1.886   6.973  0.0566  0.2057 -0.2980
 1507SOL    HW116154   2.274   1.933   7.023 -0.1724 -0.0323 -0.3745
 1507SOL    HW216155   2.339   1.799   7.012 -0.0762  0.8411  1.1026
 1508SOL     OW16156   2.720   4.087   4.429  0.5187  0.4327  0.0610
 1508SOL    HW116157   2.635   4.128   4.440 -1.3300 -3.3511 -0.1315
 1508SOL    HW216158   2.765   4.113   4.510  0.4966  0.4279  0.0748
 1509SOL     OW16159   2.016   2.666   4.023 -0.2989  0.0140  0.3171
 1509SOL    HW116160   2.076   2.606   4.068 -0.1842 -0.5002 -0.5168
 1509SOL    HW216161   1.941   2.607   4.030 -1.8511  1.6437 -2.6016
 1510SOL     OW16162   2.562   2.184   2.522  0.6135 -0.4472  0.2964
 1510SOL    HW116163   2.551   2.182   2.617  0.0440 -0.2819  0.2310
 1510SOL    HW216164   2.654   2.163   2.505  0.7076 -0.4874  0.8787
 1511SOL     OW16165   3.311   2.092  10.753 -0.1236 -0.1946  0.4712
 1511SOL    HW116166   3.381   2.141  10.710 -1.4988 -0.5588 -2.1926
 1511SOL    HW216167   3.360   2.021  10.793  1.8590  0.9152 -0.0241
 1512SOL     OW16168   3.056   2.607   0.822  0.0195 -0.0569  0.3216
 1512SOL    HW116169   3.044   2.586   0.729 -0.9532 -2.8656  1.0723
 1512SOL    HW216170   3.141   2.565   0.838  0.1086 -0.4109 -1.1120
 1513SOL     OW16171   3.433   4.655   1.145 -0.2396  0.2068 -0.0215
 1513SOL    HW116172   3.437   4.575   1.093  0.5713  0.9700 -1.1399
 1513SOL    HW216173   3.511   4.641   1.199 -0.3444 -0.8453 -0.1428
 1514SOL     OW16174   0.776   1.136  11.430 -0.7797  0.7169  0.0706
 1514SOL    HW116175   0.802   1.226  11.412 -3.1195  1.6644  1.4387
 1514SOL    HW216176   0.866   1.102  11.428 -1.1426 -0.2585  0.3470
 1515SOL     OW16177   0.599   3.613   9.739 -0.6805  0.1486  0.3504
 1515SOL    HW116178   0.592   3.705   9.714 -2.4400  0.1141  0.7199
 1515SOL    HW216179   0.694   3.617   9.748 -0.5897  1.0093 -1.0100
 1516SOL     OW16180   3.791   4.235   1.844  0.5516 -0.2153 -0.0629
 1516SOL    HW116181   3.805   4.141   1.852 -0.1107 -0.3935 -0.9475
 1516SOL    HW216182   3.729   4.253   1.915  2.2651 -2.7682  2.0559
 1517SOL     OW16183   0.380   4.280   2.772  0.0509 -0.2338  0.0201
 1517SOL    HW116184   0.403   4.304   2.682  0.1906  0.2118  0.1777
 1517SOL    HW216185   0.395   4.185   2.776 -0.7265 -0.3543 -0.0572
 1518SOL     OW16186   0.428   1.363   2.595  0.1118 -0.2478 -0.8477
 1518SOL    HW116187   0.357   1.423   2.573  0.4069  0.6926  0.7486
 1518SOL    HW216188   0.389   1.306   2.661  0.8196  0.8535  0.5185
 1519SOL     OW16189   2.963   4.086   1.235  0.1571  0.2740  0.0840
 1519SOL    HW116190   3.006   4.017   1.284 -0.4812  1.9873  3.0302
 1519SOL    HW216191   2.929   4.139   1.307  1.9199 -0.0963  1.1636
 1520SOL     OW16192   2.462   3.458   3.343 -0.1539 -0.0272  0.0674
 1520SOL    HW116193   2.529   3.519   3.373  1.3042 -1.4781 -0.2445
 1520SOL    HW216194   2.405   3.442   3.418 -0.5945  0.2050 -0.2129
 1521SOL     OW16195   1.532   2.467   2.688  0.4147  0.1864  0.4098
 1521SOL    HW116196   1.474   2.506   2.753  0.3848  0.4670  0.2136
 1521SOL    HW216197   1.516   2.373   2.693 -1.0049  0.3903 -0.1555
 1522SOL     OW16198   4.489   3.718   0.922  0.6051 -0.0235 -0.2688
 1522SOL    HW116199   4.459   3.645   0.977 -0.7385 -1.1666 -2.4979
 1522SOL    HW216200   4.484   3.668   0.840 -1.3362  1.2036 -0.8971
 1523SOL     OW16201   3.699   1.115   3.316 -0.4804  0.1942  0.0845
 1523SOL    HW116202   3.771   1.091   3.257 -0.7937 -0.4924 -0.0235
 1523SOL    HW216203   3.638   1.042   3.305  0.7316 -0.6036 -1.3307
 1524SOL     OW16204   1.409   1.158  16.516  0.4453  0.5408 -0.5009
 1524SOL    HW116205   1.407   1.203  16.432  3.2192 -1.9218 -1.8555
 1524SOL    HW216206   1.496   1.122  16.502 -0.0726 -0.9443 -0.0117
 1525SOL     OW16207   1.369   1.040   9.537  0.2390  0.5000  0.3618
 1525SOL    HW116208   1.409   1.081   9.460 -1.3675 -0.5910 -1.0546
 1525SOL    HW216209   1.332   1.117   9.580  1.4902  1.3824 -0.1383
 1526SOL     OW16210   0.281   2.928   3.183 -0.4454 -0.1044 -0.1766
 1526SOL    HW116211   0.197   2.893   3.213  0.3187  0.1830  2.2469
 1526SOL    HW216212   0.257   2.979   3.105  0.6598  1.2323  0.3553
 1527SOL     OW16213   1.701   4.659   2.556  0.3949 -0.5920 -0.4794
 1527SOL    HW116214   1.666   4.571   2.574  1.1340 -0.8904 -0.5041
 1527SOL    HW216215   1.794   4.636   2.554  0.7123  0.4288  1.7467
 1528SOL     OW16216   2.017   2.240   2.651  0.1330 -0.7898  0.0408
 1528SOL    HW116217   1.981   2.271   2.734  2.2734 -0.0877  0.6840
 1528SOL    HW216218   2.111   2.247   2.663 -0.2618  1.3447  1.6738
 1529SOL     OW16219   3.883   4.476   1.391  0.4212  0.3028 -0.6936
 1529SOL    HW116220   3.835   4.393   1.391  0.2097  0.4287  0.1201
 1529SOL    HW216221   3.968   4.441   1.364 -0.6020 -2.0903 -0.8538
 1530SOL     OW16222   4.293   2.841   1.607 -0.4993 -0.5469 -0.2481
 1530SOL    HW116223   4.292   2.868   1.515  1.7096 -0.0304 -0.1050
 1530SOL    HW216224   4.218   2.784   1.623 -0.0319 -1.1755 -0.2963
 1531SOL     OW16225   0.288   3.927   6.333 -0.1600  0.3954 -0.4639
 1531SOL    HW116226   0.266   3.953   6.243 -0.3505 -1.0633 -0.8393
 1531SOL    HW216227   0.363   3.986   6.343 -0.0088  0.4744 -2.0221
 1532SOL     OW16228   2.246   3.137   0.602 -0.1037 -0.3280 -0.0524
 1532SOL    HW116229   2.185   3.177   0.664  1.7929 -0.2484  1.7756
 1532SOL    HW216230   2.258   3.206   0.537  1.0948  0.4155  0.9722
 1533SOL     OW16231   0.660   2.225   0.871  0.4643  0.0880 -0.1129
 1533SOL    HW116232   0.646   2.252   0.781  0.2979  1.8768  0.4504
 1533SOL    HW216233   0.691   2.137   0.849 -1.2310 -0.2159 -1.2348
 1534SOL     OW16234   3.453   3.666   3.640  0.0944 -0.6304 -0.3536
 1534SOL    HW116235   3.549   3.662   3.633  0.3169  0.8226  1.6952
 1534SOL    HW216236   3.439   3.585   3.689 -1.2235 -1.2652 -1.7874
 1535SOL     OW16237   1.002   3.847  15.544 -0.2253  0.6609 -0.2771
 1535SOL    HW116238   0.921   3.837  15.594 -0.9577  0.6319 -1.4799
 1535SOL    HW216239   1.017   3.776  15.481 -0.9868 -0.4012  0.7445
 1536SOL     OW16240   1.007   1.986   5.295 -0.2175 -0.4882 -0.0629
 1536SOL    HW116241   1.023   1.919   5.229  1.3251 -1.2302  1.0697
 1536SOL    HW216242   0.949   1.942   5.357 -1.4105  1.1006 -0.0354
 1537SOL     OW16243   0.934   0.712   8.308 -0.0042  0.3717 -0.7159
 1537SOL    HW116244   0.845   0.676   8.310  0.0619  0.3889  2.0823
 1537SOL    HW216245   0.920   0.793   8.259 -1.7149  1.4235  1.4904
 1538SOL     OW16246   1.696   1.174   4.323  0.6398 -0.0847 -0.0346
 1538SOL    HW116247   1.785   1.208   4.332  0.3659  0.6578 -0.1675
 1538SOL    HW216248   1.713   1.114   4.249 -1.6512 -0.7631 -0.0181
 1539SOL     OW16249   1.692   4.621   2.960  0.3458 -0.2160  0.4494
 1539SOL    HW116250   1.649   4.573   3.029  0.3719  1.2444  1.4875
 1539SOL    HW216251   1.640   4.601   2.882 -0.9410 -3.3939  2.1601
 1540SOL     OW16252   2.776   2.143   4.718 -0.3843  0.4495  0.0169
 1540SOL    HW116253   2.797   2.212   4.781  1.5252  0.3362 -0.4712
 1540SOL    HW216254   2.863   2.102   4.713  0.5518  2.6842 -1.9713
 1541SOL     OW16255   1.294   0.127   3.201  0.3076  0.1651  0.4974
 1541SOL    HW116256   1.298   0.206   3.255  0.5356 -0.2833  1.1397
 1541SOL    HW216257   1.390   0.123   3.193  0.3253  0.2252  0.6812
 1542SOL     OW16258   2.346   0.055   5.837  0.2015  0.4343 -0.2547
 1542SOL    HW116259   2.417   0.111   5.869  1.6190 -2.6774  2.0056
 1542SOL    HW216260   2.380   0.033   5.750  3.6567  1.9341  0.6927
 1543SOL     OW16261   1.734   2.679   0.233 -0.1425  0.0685  0.7986
 1543SOL    HW116262   1.690   2.612   0.285  0.4246 -0.1233  1.0355
 1543SOL    HW216263   1.765   2.618   0.167 -1.7610 -0.7745  0.8236
 1544SOL     OW16264   3.330   1.328   2.768  0.4488 -0.2282 -0.4761
 1544SOL    HW116265   3.300   1.284   2.847 -0.0334  0.3693 -0.3301
 1544SOL    HW216266   3.421   1.299   2.758  0.2856 -0.8061 -0.2629
 1545SOL     OW16267   0.390   3.433   2.816  0.3477 -0.0824 -0.3352
 1545SOL    HW116268   0.447   3.470   2.749  1.4141 -0.6063  0.2787
 1545SOL    HW216269   0.394   3.340   2.796  3.2092  0.6180 -2.8557
 1546SOL     OW16270   2.113   4.149  11.790 -0.7741  0.1998 -0.9247
 1546SOL    HW116271   2.103   4.237  11.827  1.1833  1.1738 -2.6879
 1546SOL    HW216272   2.208   4.136  11.795 -0.7073 -0.1018 -2.9440
 1547SOL     OW16273   0.231   0.098   9.023  0.6036  0.1476 -0.1909
 1547SOL    HW116274   0.173   0.166   8.989 -1.4627 -1.5644 -0.1486
 1547SOL    HW216275   0.240   0.123   9.115 -0.1471 -2.9440  0.7368
 1548SOL     OW16276   3.558   1.376  14.179  0.4864  0.2456 -0.4051
 1548SOL    HW116277   3.622   1.390  14.109 -0.8044  2.9366 -1.0624
 1548SOL    HW216278   3.607   1.355  14.258 -2.1471 -1.6558  0.7031
 1549SOL     OW16279   1.144   1.831   1.307 -0.7527 -0.0152 -0.0348
 1549SOL    HW116280   1.226   1.787   1.331 -1.3588 -0.4521  1.1979
 1549SOL    HW216281   1.180   1.906   1.259  1.6393 -1.8716 -1.2167
 1550SOL     OW16282   3.382   1.889  13.467 -0.3558 -0.4460  0.1932
 1550SOL    HW116283   3.413   1.799  13.456 -0.7818 -0.5494 -0.1699
 1550SOL    HW216284   3.290   1.872  13.491 -0.4983  0.0243 -0.0324
 1551SOL     OW16285   4.575   0.124  15.366  0.6213  0.3036  0.5037
 1551SOL    HW116286   4.530   0.045  15.397  1.1459  0.1554  0.8812
 1551SOL    HW216287   4.637   0.136  15.438 -0.9630 -0.0767  1.9511
 1552SOL     OW16288   2.405   0.125   8.369  0.5132  0.0999 -0.1649
 1552SOL    HW116289   2.352   0.204   8.371 -0.3051 -0.4903  1.0373
 1552SOL    HW216290   2.353   0.069   8.312  0.6461 -0.8268  0.6154
 1553SOL     OW16291   0.855   3.033   7.518 -0.4832 -0.4290 -0.1582
 1553SOL    HW116292   0.896   3.056   7.435 -0.0319  2.1801  0.7836
 1553SOL    HW216293   0.896   3.095   7.578 -0.7974 -0.2812 -0.0993
 1554SOL     OW16294   0.504   1.729   2.618 -0.1374  0.1049  0.0016
 1554SOL    HW116295   0.432   1.721   2.680 -1.9231 -1.7414 -2.3298
 1554SOL    HW216296   0.465   1.701   2.535 -0.1681  0.8367 -0.2244
 1555SOL     OW16297   0.218   1.895   8.647  0.2304 -0.3436  0.4002
 1555SOL    HW116298   0.181   1.933   8.567  1.3705  0.3646  0.2189
 1555SOL    HW216299   0.262   1.971   8.683  0.0922  0.0716 -0.2974
 1556SOL     OW16300   3.432   3.335  11.767  0.0570  0.1611 -0.5134
 1556SOL    HW116301   3.491   3.409  11.775  2.1996 -1.9136  2.4805
 1556SOL    HW216302   3.379   3.343  11.846  1.4218 -1.4114  0.5425
 1557SOL     OW16303   4.286   1.426   8.248 -0.2491  0.1369  0.1087
 1557SOL    HW116304   4.336   1.484   8.190  1.8747 -1.5799  0.1961
 1557SOL    HW216305   4.367   1.383   8.276  0.3928  1.0477 -0.3418
 1558SOL     OW16306   3.687   0.318   6.053 -0.3640  0.3261  0.2434
 1558SOL    HW116307   3.765   0.301   6.105 -1.6243 -0.5630  1.8392
 1558SOL    HW216308   3.718   0.368   5.977 -2.3867  2.2140  0.6650
 1559SOL     OW16309   1.670   1.348   2.078  0.2211 -0.4244 -0.2341
 1559SOL    HW116310   1.751   1.374   2.121  1.7837 -1.4241 -2.5791
 1559SOL    HW216311   1.696   1.364   1.987  0.1375 -1.4967 -0.4467
 1560SOL     OW16312   4.597   0.003  13.228 -0.1353  0.2814 -0.1495
 1560SOL    HW116313   4.660   0.075  13.230  0.6180 -0.4043  0.8731
 1560SOL    HW216314   4.507   0.033  13.213 -0.5452 -0.2783  1.1726
 1561SOL     OW16315   3.795   1.008  10.152  0.5892 -0.1781 -0.2115
 1561SOL    HW116316   3.889   1.012  10.170  0.1420 -2.2987  2.5286
 1561SOL    HW216317   3.781   0.915  10.165 -1.2941  0.5491  2.8063
 1562SOL     OW16318   2.709   0.298   8.072 -0.9654  0.3267 -0.0444
 1562SOL    HW116319   2.643   0.368   8.075 -0.1921  1.2015 -3.3559
 1562SOL    HW216320   2.714   0.273   7.980  0.2765 -0.6090  0.2869
 1563SOL     OW16321   1.746   0.294   2.164  0.1329  0.5747  0.1594
 1563SOL    HW116322   1.762   0.298   2.258 -2.0405  1.2624  0.5026
 1563SOL    HW216323   1.756   0.381   2.126 -1.0560  0.9828  0.7734
 1564SOL     OW16324   0.048   4.532   4.628  0.0329  0.1571 -0.0348
 1564SOL    HW116325   4.710   4.533   4.570  0.2872 -0.0033 -0.3760
 1564SOL    HW216326   0.124   4.556   4.575 -0.4191 -0.7566 -1.1013
 1565SOL     OW16327   3.966   2.420   3.906  0.2357  0.0984  0.3654
 1565SOL    HW116328   4.030   2.455   3.844 -0.7294 -0.6761 -1.0649
 1565SOL    HW216329   3.903   2.392   3.840 -0.0921 -1.5839  1.3901
 1566SOL     OW16330   4.374   2.457   4.282 -0.1294 -0.0124 -0.0599
 1566SOL    HW116331   4.309   2.386   4.289 -0.4295  0.4835  2.1947
 1566SOL    HW216332   4.455   2.417   4.314  1.2003  2.6096 -0.1717
 1567SOL     OW16333   0.688   0.058   4.330 -0.4491 -0.0695  0.1456
 1567SOL    HW116334   0.649   0.033   4.247  0.4927  0.1282 -0.3549
 1567SOL    HW216335   0.636   0.010   4.395  0.5972 -0.3815  0.7581
 1568SOL     OW16336   2.356   4.031  10.928 -0.1711  0.7804  0.0162
 1568SOL    HW116337   2.314   4.117  10.921  1.1374  1.4674  0.5905
 1568SOL    HW216338   2.333   3.996  11.014  0.2693 -0.9303 -0.5604
 1569SOL     OW16339   0.587   1.653   3.107 -0.3350  0.4725  0.1461
 1569SOL    HW116340   0.582   1.656   3.012 -1.8868 -0.4590  0.1957
 1569SOL    HW216341   0.506   1.698   3.133 -0.1308  0.6642  0.4590
 1570SOL     OW16342   2.137   3.874   8.309 -0.3075 -0.2487  0.0405
 1570SOL    HW116343   2.064   3.896   8.367  0.0091 -0.3718  0.4841
 1570SOL    HW216344   2.082   3.860   8.231 -1.4392 -0.6886  0.9067
 1571SOL     OW16345   0.552   4.640   4.473  0.7806 -0.0131 -0.5618
 1571SOL    HW116346   0.502   4.716   4.502 -1.4553 -2.2388  1.4198
 1571SOL    HW216347   0.604   4.625   4.552 -0.4730 -1.8243 -0.0991
 1572SOL     OW16348   1.542   1.932   4.646 -0.3053  0.1689 -0.0778
 1572SOL    HW116349   1.449   1.953   4.649  0.2859  2.8208 -0.7534
 1572SOL    HW216350   1.558   1.914   4.739  2.8984 -0.1190 -0.6673
 1573SOL     OW16351   0.977   3.221   7.696  0.8483 -0.3266  0.4566
 1573SOL    HW116352   0.987   3.234   7.790  0.2302 -0.9030  0.6031
 1573SOL    HW216353   0.928   3.303   7.691  0.3994 -0.4865  2.1276
 1574SOL     OW16354   2.728   1.340   8.984  0.1252  0.1461 -0.2356
 1574SOL    HW116355   2.777   1.304   9.058  0.7302  0.3929 -0.5227
 1574SOL    HW216356   2.696   1.419   9.029  0.0455  0.1816 -0.3556
 1575SOL     OW16357   2.788   2.668  11.805  0.2773  0.0454 -0.1771
 1575SOL    HW116358   2.847   2.712  11.744  0.1686 -0.1232 -0.4038
 1575SOL    HW216359   2.809   2.578  11.780 -1.1748  0.0336 -1.4048
 1576SOL     OW16360   3.943   3.954   5.550  0.3326  0.4465 -0.4330
 1576SOL    HW116361   3.925   4.009   5.626  2.1117  0.0639  0.2377
 1576SOL    HW216362   3.990   3.886   5.596 -2.3947 -0.5366  0.9021
 1577SOL     OW16363   1.136   0.021   9.356 -0.0062 -0.2080 -0.3102
 1577SOL    HW116364   1.070   0.084   9.386 -0.8216 -0.2864 -1.9641
 1577SOL    HW216365   1.208   0.082   9.366  1.3770 -1.8626 -0.1726
 1578SOL     OW16366   3.357   4.610   6.348  0.3686 -0.6537  0.1811
 1578SOL    HW116367   3.361   4.622   6.442  2.9494  0.4545 -0.0655
 1578SOL    HW216368   3.280   4.554   6.337  1.6324 -2.0400 -1.7695
 1579SOL     OW16369   1.605   0.597   8.680  0.4477  0.1538  0.0587
 1579SOL    HW116370   1.608   0.602   8.775  0.9297  0.7378  0.0160
 1579SOL    HW216371   1.569   0.509   8.676  2.4929 -0.8448  3.5484
 1580SOL     OW16372   2.065   0.539   6.784  0.2909  0.4757 -0.0193
 1580SOL    HW116373   2.028   0.479   6.720 -1.4833 -0.0357  1.4746
 1580SOL    HW216374   2.067   0.476   6.857 -1.0898  0.5421  0.0752
 1581SOL     OW16375   1.284   3.965   6.024 -0.0095  0.4089 -0.0439
 1581SOL    HW116376   1.225   3.969   5.948 -1.5300 -2.1515  1.0050
 1581SOL    HW216377   1.368   3.952   5.980 -1.3070  0.2992 -2.4913
 1582SOL     OW16378   0.455   3.783   6.879 -0.3361 -0.1069 -0.5025
 1582SOL    HW116379   0.392   3.724   6.921 -0.3256  1.8238  2.1776
 1582SOL    HW216380   0.513   3.802   6.953 -1.0775 -2.2475  0.6112
 1583SOL     OW16381   3.999   0.714   2.656  0.3850  0.1628  0.0382
 1583SOL    HW116382   4.088   0.743   2.634  0.6345 -1.2217 -0.7703
 1583SOL    HW216383   4.004   0.630   2.611 -2.9015  0.2171 -0.3913
 1584SOL     OW16384   1.672   1.407   4.095 -0.3821  0.0544 -0.4443
 1584SOL    HW116385   1.700   1.476   4.034 -2.7410  0.2890 -1.3061
 1584SOL    HW216386   1.737   1.347   4.059  0.4867  1.4395 -1.2112
 1585SOL     OW16387   3.182   0.576   2.642 -0.1867  0.0117  0.1911
 1585SOL    HW116388   3.159   0.490   2.605  3.3865 -0.6736 -0.4690
 1585SOL    HW216389   3.272   0.589   2.611 -0.2304  0.8791  0.4501
 1586SOL     OW16390   3.878   2.056   1.613 -0.2226 -0.4003  0.0344
 1586SOL    HW116391   3.836   1.982   1.568  2.5439 -0.7150 -2.0386
 1586SOL    HW216392   3.919   2.094   1.535  0.2139  3.1330  2.0012
 1587SOL     OW16393   1.894   0.747   8.941  0.0184  0.6310  0.5190
 1587SOL    HW116394   1.950   0.674   8.967  0.5286  0.9978  0.4613
 1587SOL    HW216395   1.832   0.702   8.883 -0.4406  0.2174  1.3417
 1588SOL     OW16396   1.611   1.629   3.541 -0.4277 -0.2287  0.3962
 1588SOL    HW116397   1.650   1.667   3.462 -1.1091  1.3048  0.7884
 1588SOL    HW216398   1.527   1.598   3.507  0.4202 -2.1357  0.0361
 1589SOL     OW16399   4.232   2.565  12.012 -0.0047 -0.5587 -0.4808
 1589SOL    HW116400   4.229   2.501  12.083 -2.7931  2.1690  1.8473
 1589SOL    HW216401   4.210   2.507  11.938  0.3814  0.7678 -1.6307
 1590SOL     OW16402   3.374   1.924   9.160 -0.2341  0.1230  0.4757
 1590SOL    HW116403   3.309   1.887   9.220 -1.2724  2.9241  1.0389
 1590SOL    HW216404   3.404   1.842   9.121 -2.2909 -0.4759  0.1705
 1591SOL     OW16405   2.693   3.068   3.911 -0.3849 -0.2306 -0.2640
 1591SOL    HW116406   2.728   3.105   3.992 -3.0546 -2.3215  1.8760
 1591SOL    HW216407   2.603   3.102   3.904  1.0110  2.8269 -3.2771
 1592SOL     OW16408   1.380   0.352  13.784 -0.3586 -0.3312 -0.4387
 1592SOL    HW116409   1.318   0.402  13.732  1.7673  1.6040 -1.0903
 1592SOL    HW216410   1.340   0.265  13.790  0.2523 -0.5799  0.1353
 1593SOL     OW16411   4.394   3.191   7.766  0.1736 -0.4869  0.5952
 1593SOL    HW116412   4.331   3.261   7.781 -0.1155 -0.8357  1.0178
 1593SOL    HW216413   4.470   3.233   7.726  0.2954 -0.2714  1.0581
 1594SOL     OW16414   3.785   2.054   0.646  0.2744  0.0491 -1.0422
 1594SOL    HW116415   3.699   2.094   0.637 -0.2978 -0.8576  0.2854
 1594SOL    HW216416   3.754   1.964   0.659  0.2835  0.0647 -0.9144
 1595SOL     OW16417   1.112   3.991   3.721  0.5906  0.2044 -0.1537
 1595SOL    HW116418   1.120   3.945   3.805 -2.1450 -0.2877 -0.1710
 1595SOL    HW216419   1.180   3.952   3.665 -1.7213 -0.3205 -2.5909
 1596SOL     OW16420   0.414   1.304   7.489  0.8804  0.3320 -0.2658
 1596SOL    HW116421   0.498   1.346   7.507  1.0634 -1.8237  4.0962
 1596SOL    HW216422   0.413   1.308   7.394  1.2199  0.8095 -0.2467
 1597SOL     OW16423   3.079   1.680   0.460 -0.1699 -0.6096 -0.0882
 1597SOL    HW116424   3.164   1.722   0.466 -0.2863 -0.2822 -0.6957
 1597SOL    HW216425   3.105   1.588   0.467  0.0590 -0.4463  1.1587
 1598SOL     OW16426   3.470   3.791  16.689  0.0415  0.1870 -0.4238
 1598SOL    HW116427   3.565   3.788  16.701 -0.3244 -0.3781  2.2176
 1598SOL    HW216428   3.460   3.883  16.664 -1.1851  0.1596 -0.0186
 1599SOL     OW16429   0.388   0.628   7.328 -0.4790 -0.4042  0.7255
 1599SOL    HW116430   0.409   0.715   7.360 -0.8723 -0.1315  0.2419
 1599SOL    HW216431   0.384   0.649   7.235 -0.7612 -0.2639  0.7703
 1600SOL     OW16432   1.928   1.335   6.723  0.1016  0.1463 -0.4851
 1600SOL    HW116433   1.917   1.379   6.639 -0.2578  1.2343  0.1268
 1600SOL    HW216434   1.862   1.266   6.713  0.7971 -0.6670  0.4564
 1601SOL     OW16435   3.527   2.545   8.069  0.1860  0.1202 -0.2408
 1601SOL    HW116436   3.517   2.598   7.990  0.6998  0.4870 -0.0653
 1601SOL    HW216437   3.437   2.516   8.082  0.3824 -0.2393  0.2997
 1602SOL     OW16438   3.141   0.310  12.131 -0.1806  0.6696 -0.2940
 1602SOL    HW116439   3.213   0.284  12.074  0.2741 -0.5331  0.8463
 1602SOL    HW216440   3.195   0.301  12.210 -1.2773  0.9609  0.4957
 1603SOL     OW16441   2.343   0.149   3.309  0.0450  0.3601  0.1136
 1603SOL    HW116442   2.438   0.161   3.312 -0.0310  0.5989  1.7911
 1603SOL    HW216443   2.323   0.242   3.296 -1.0925 -0.0064 -0.7544
 1604SOL     OW16444   4.565   4.684   7.478  0.0047  0.0475 -0.2212
 1604SOL    HW116445   4.654   4.650   7.487  0.0601 -0.6552 -3.3645
 1604SOL    HW216446   4.570   0.036   7.450  0.0034  1.1263  3.2542
 1605SOL     OW16447   3.441   4.327  15.075 -0.2441 -0.1091  0.1794
 1605SOL    HW116448   3.348   4.307  15.067 -0.0561 -0.7015 -0.4788
 1605SOL    HW216449   3.442   4.365  15.163 -1.3187  1.6343 -0.5492
 1606SOL     OW16450   0.415   2.892   8.172 -0.4549 -0.3111 -0.6390
 1606SOL    HW116451   0.356   2.872   8.245  1.4243  0.0906  0.9932
 1606SOL    HW216452   0.346   2.907   8.107  0.9247 -0.0081 -2.0169
 1607SOL     OW16453   4.648   0.131   5.961 -0.3332 -0.1144  0.1725
 1607SOL    HW116454   4.680   0.182   6.035 -2.0475 -2.1483  2.3283
 1607SOL    HW216455   4.611   0.209   5.921  0.9957  0.2529 -0.3664
 1608SOL     OW16456   3.931   0.022   2.257 -0.0383  0.4687 -0.0509
 1608SOL    HW116457   3.937   0.040   2.350 -0.8486  1.3955 -0.1857
 1608SOL    HW216458   3.894   0.104   2.225 -0.5614  0.1738 -0.2222
 1609SOL     OW16459   1.287   3.871  11.835  0.4327 -0.2525 -0.0712
 1609SOL    HW116460   1.199   3.909  11.838 -0.7358 -2.8352 -2.0570
 1609SOL    HW216461   1.307   3.875  11.741 -2.3412 -1.0837 -0.6909
 1610SOL     OW16462   1.562   2.491   3.238 -0.1399 -0.9572 -0.2119
 1610SOL    HW116463   1.627   2.461   3.301  0.4470  0.4535 -0.1504
 1610SOL    HW216464   1.521   2.562   3.288  1.9434  0.8865 -1.1469
 1611SOL     OW16465   1.799   2.498   5.343 -0.0879  0.0699  0.2617
 1611SOL    HW116466   1.837   2.510   5.430  0.6588 -0.9076  0.0652
 1611SOL    HW216467   1.774   2.586   5.312 -1.0364 -1.3378 -2.8935
 1612SOL     OW16468   3.338   1.685   4.235  0.3855 -0.5506  0.4848
 1612SOL    HW116469   3.357   1.598   4.202 -0.0535 -1.1896  1.9248
 1612SOL    HW216470   3.259   1.679   4.289 -0.0006  1.6837  0.1700
 1613SOL     OW16471   1.003   0.158  15.618 -0.3493  0.2072  0.0071
 1613SOL    HW116472   0.983   0.193  15.705 -2.0397  0.3601 -0.4616
 1613SOL    HW216473   0.935   0.092  15.609 -2.5442  2.0568  2.9327
 1614SOL     OW16474   3.025   4.380  10.289 -0.6090 -0.0664  0.3064
 1614SOL    HW116475   3.068   4.309  10.242  0.3870  0.1325  0.9064
 1614SOL    HW216476   2.966   4.325  10.341  1.4231 -2.7350 -0.1880
 1615SOL     OW16477   2.777   3.883   1.814 -0.8053  0.0231  0.3063
 1615SOL    HW116478   2.816   3.917   1.895  0.2303 -3.7102  1.3880
 1615SOL    HW216479   2.807   3.792   1.819 -3.0709 -0.7589 -0.5862
 1616SOL     OW16480   1.596   0.142   8.365 -0.2959 -0.1246 -0.8609
 1616SOL    HW116481   1.642   0.226   8.364  2.6062 -1.6804  2.3081
 1616SOL    HW216482   1.509   0.166   8.398  0.0390 -0.4053  0.2498
 1617SOL     OW16483   1.207   3.965   6.323 -0.1445 -0.3900  0.1899
 1617SOL    HW116484   1.295   3.973   6.360 -0.0896 -1.6377  0.3590
 1617SOL    HW216485   1.216   3.978   6.229 -0.2150 -1.9457 -0.0364
 1618SOL     OW16486   0.267   3.220   6.885  0.1995  0.1885  0.5408
 1618SOL    HW116487   0.319   3.300   6.893  0.5008  0.0861 -0.3919
 1618SOL    HW216488   0.180   3.256   6.868  0.4630 -0.4629 -2.1301
 1619SOL     OW16489   2.123   1.119   6.701 -0.2936  0.0354  0.6309
 1619SOL    HW116490   2.072   1.189   6.741 -0.2855 -0.4347  1.4566
 1619SOL    HW216491   2.192   1.177   6.668  1.3216 -1.4567  1.3693
 1620SOL     OW16492   1.915   1.240   5.078  0.2128 -0.1166 -0.2222
 1620SOL    HW116493   1.917   1.333   5.101 -1.6259  0.0287 -0.6452
 1620SOL    HW216494   1.919   1.246   4.983  4.1417 -0.9847 -0.1107
 1621SOL     OW16495   2.413   3.102   5.996  0.5099 -0.7113  0.5254
 1621SOL    HW116496   2.446   3.025   6.043  1.1715 -0.0825  1.0848
 1621SOL    HW216497   2.475   3.102   5.923  0.4331  0.6619  0.4645
 1622SOL     OW16498   0.136   1.607  14.242 -0.3110 -0.3034 -0.0532
 1622SOL    HW116499   0.195   1.611  14.168  2.2625 -1.5696  1.9372
 1622SOL    HW216500   0.187   1.547  14.296 -2.3610 -2.1996 -0.2101
 1623SOL     OW16501   3.095   4.586   4.296  0.0391  0.3446  0.2722
 1623SOL    HW116502   3.088   4.517   4.230  0.6584  0.0440  0.5259
 1623SOL    HW216503   3.022   4.643   4.273 -0.2133  0.5192  1.4940
 1624SOL     OW16504   1.621   2.381   0.677  0.1001 -0.4678 -0.4551
 1624SOL    HW116505   1.642   2.347   0.590  2.6806  0.3071 -0.1434
 1624SOL    HW216506   1.596   2.300   0.721 -0.2872  0.1111  0.3818
 1625SOL     OW16507   2.350   0.988   6.468  0.0296  0.5992 -0.1009
 1625SOL    HW116508   2.353   0.976   6.563 -1.9714  1.7540  0.1070
 1625SOL    HW216509   2.406   0.917   6.434  0.3704  0.1120  1.4798
 1626SOL     OW16510   3.613   2.198  11.415 -0.0224 -0.0579 -0.4794
 1626SOL    HW116511   3.556   2.235  11.482  0.3251 -0.3676 -0.0151
 1626SOL    HW216512   3.655   2.276  11.379  1.0095  0.0924  1.0758
 1627SOL     OW16513   0.013   0.949  14.721  0.4923  0.1904  0.0652
 1627SOL    HW116514   4.665   0.909  14.732 -0.0596  0.9540 -1.5569
 1627SOL    HW216515   0.060   0.917  14.798  0.0292  0.1199  0.3238
 1628SOL     OW16516   3.489   2.868   5.025  0.0944  0.4334  0.0541
 1628SOL    HW116517   3.438   2.932   4.975  1.2758  1.0227 -0.4013
 1628SOL    HW216518   3.550   2.842   4.956 -0.9206  0.1723 -0.7474
 1629SOL     OW16519   1.244   3.652   5.246 -0.2038 -0.1574 -0.7097
 1629SOL    HW116520   1.186   3.599   5.301 -4.5005  1.5763 -3.6340
 1629SOL    HW216521   1.326   3.602   5.251 -0.2118 -0.1645 -0.6441
 1630SOL     OW16522   1.872   3.574   4.573 -0.6461  0.3097  0.0549
 1630SOL    HW116523   1.844   3.484   4.589  1.2025 -0.8639 -3.3709
 1630SOL    HW216524   1.957   3.545   4.540  0.0568  1.5328  0.7970
 1631SOL     OW16525   1.508   2.804   5.491  0.0052 -0.2165 -0.4498
 1631SOL    HW116526   1.538   2.761   5.570 -1.6688  1.4425  1.1101
 1631SOL    HW216527   1.563   2.781   5.417 -0.4079  1.7419 -1.3857
 1632SOL     OW16528   3.393   2.541   1.517  0.1457  0.5304 -0.4501
 1632SOL    HW116529   3.462   2.565   1.579  0.8473 -0.6948 -0.7555
 1632SOL    HW216530   3.405   2.446   1.516 -1.0554  0.3752  0.2166
 1633SOL     OW16531   0.262   4.299   5.353  0.4894  0.1495 -0.3910
 1633SOL    HW116532   0.326   4.247   5.402  1.1478  2.5760  1.3319
 1633SOL    HW216533   0.241   4.230   5.291  0.0129 -0.8552  0.8953
 1634SOL     OW16534   0.356   0.273   9.861  0.8408  0.4775  0.0507
 1634SOL    HW116535   0.408   0.314   9.792 -0.4877  0.1776 -1.1284
 1634SOL    HW216536   0.271   0.312   9.843 -0.5409 -2.4621  0.1263
 1635SOL     OW16537   2.885   2.800  11.064 -0.1898 -0.1518  0.5430
 1635SOL    HW116538   2.866   2.733  10.999 -0.4959  0.0600  0.4104
 1635SOL    HW216539   2.882   2.873  11.001 -1.9558 -1.9429 -1.4595
 1636SOL     OW16540   3.689   0.502   5.565  0.2492  0.5889  0.3113
 1636SOL    HW116541   3.656   0.541   5.484 -0.1390 -0.1426  0.1156
 1636SOL    HW216542   3.783   0.483   5.559  0.2986  0.2369  2.2351
 1637SOL     OW16543   3.322   4.582   5.964  0.5997  0.2652 -0.5287
 1637SOL    HW116544   3.300   4.489   5.973 -0.2230  0.8566  3.9170
 1637SOL    HW216545   3.406   4.575   5.920  0.3089 -0.7683 -0.9212
 1638SOL     OW16546   2.397   4.376  14.704  0.7201 -0.3628 -0.1654
 1638SOL    HW116547   2.438   4.439  14.645 -2.3077  0.5425 -1.3150
 1638SOL    HW216548   2.319   4.355  14.652 -0.5988  1.9583  0.8282
 1639SOL     OW16549   1.314   0.068   2.234  0.4473  0.4376  0.1195
 1639SOL    HW116550   1.351   0.137   2.179  1.9039 -0.0572  0.4776
 1639SOL    HW216551   1.384   0.048   2.296 -0.7589  0.5638  1.5213
 1640SOL     OW16552   1.477   2.370  13.298  0.1669 -0.3071 -0.3869
 1640SOL    HW116553   1.502   2.457  13.329  1.5046 -0.4017 -1.1829
 1640SOL    HW216554   1.567   2.344  13.277  0.9906  2.6849 -0.5900
 1641SOL     OW16555   2.925   0.857  12.220 -0.4394 -0.2926 -0.6931
 1641SOL    HW116556   2.947   0.938  12.175 -0.8393  0.9406  1.3570
 1641SOL    HW216557   2.974   0.796  12.164 -2.0839 -2.4484  0.2182
 1642SOL     OW16558   3.604   0.278   8.188 -0.2532 -0.3914 -0.6870
 1642SOL    HW116559   3.643   0.332   8.257  1.0083 -0.0303 -1.6619
 1642SOL    HW216560   3.534   0.243   8.242 -0.4521  0.6249 -0.2689
 1643SOL     OW16561   0.743   1.085  17.700  0.0147  0.1281 -0.0236
 1643SOL    HW116562   0.681   1.086   0.019 -0.0642  2.0840 -0.1173
 1643SOL    HW216563   0.727   1.000  17.659 -1.8769  0.3862  0.1996
 1644SOL     OW16564   3.819   4.655  14.136  0.1753  0.1481  0.3677
 1644SOL    HW116565   3.886   4.689  14.076 -1.7184  0.7580 -1.3669
 1644SOL    HW216566   3.749   4.624  14.080  1.3549 -3.2265  0.7233
 1645SOL     OW16567   0.261   4.329   8.518 -0.2002 -0.1827  0.3580
 1645SOL    HW116568   0.257   4.403   8.457 -0.5574 -0.4255  0.0866
 1645SOL    HW216569   0.324   4.267   8.484 -1.1142 -1.0873  0.3124
 1646SOL     OW16570   4.684   4.202   6.865  0.3587  0.1086 -0.2015
 1646SOL    HW116571   4.735   4.191   6.946  1.3605  0.0958 -0.8350
 1646SOL    HW216572   4.636   4.120   6.854 -1.3432  1.0615  0.1387
 1647SOL     OW16573   0.260   2.945   7.548  0.2749  0.2476 -0.6623
 1647SOL    HW116574   0.353   2.961   7.532  0.9232 -1.4699  1.3874
 1647SOL    HW216575   0.220   3.016   7.498  1.2881  0.5683 -1.0139
 1648SOL     OW16576   3.697   0.970   8.667  0.1598  0.8706 -0.3576
 1648SOL    HW116577   3.758   0.978   8.594 -0.0589  0.9821 -0.5268
 1648SOL    HW216578   3.682   0.876   8.660  0.1776  0.8398  0.0080
 1649SOL     OW16579   0.003   1.476   2.376 -0.1672  0.3470 -0.1181
 1649SOL    HW116580   4.710   1.409   2.315 -1.8210  1.7858 -0.8322
 1649SOL    HW216581   0.006   1.557   2.327  2.4385 -0.0894 -0.6630
 1650SOL     OW16582   2.036   2.776   7.599  0.3124  0.1260 -0.6116
 1650SOL    HW116583   2.087   2.830   7.659 -1.2520  0.5304  0.3517
 1650SOL    HW216584   1.975   2.841   7.565  2.1783  1.7270 -0.8558
 1651SOL     OW16585   3.412   0.184   5.354 -0.1070 -0.6772 -0.4097
 1651SOL    HW116586   3.486   0.163   5.298  2.7297  0.9518  2.6757
 1651SOL    HW216587   3.453   0.249   5.411 -1.0180 -0.3931 -0.0857
 1652SOL     OW16588   2.040   2.776   2.789  0.0278 -0.1976 -0.1680
 1652SOL    HW116589   1.966   2.741   2.839  2.9256 -2.5390  2.4510
 1652SOL    HW216590   1.991   2.815   2.716 -1.1882 -2.1914 -0.4267
 1653SOL     OW16591   4.664   0.086   8.153  0.1377  0.0401 -0.1399
 1653SOL    HW116592   4.659   0.180   8.171  0.1938 -0.4765  2.6410
 1653SOL    HW216593   4.670   0.091   8.058 -0.4628 -0.5890 -0.2155
 1654SOL     OW16594   1.962   2.548   6.739  0.0336 -0.4482 -0.2427
 1654SOL    HW116595   1.944   2.577   6.828  0.3202  0.3176 -0.4348
 1654SOL    HW216596   1.911   2.467   6.731 -1.7919  0.6506  0.3267
 1655SOL     OW16597   2.016   2.550   1.281  0.5543  0.7622  0.1582
 1655SOL    HW116598   2.112   2.551   1.288  0.6866 -0.0172 -1.3456
 1655SOL    HW216599   2.010   2.538   1.186 -2.6037  2.3585  0.1604
 1656SOL     OW16600   4.562   2.770   8.406  0.8590  0.5000  0.3957
 1656SOL    HW116601   4.516   2.814   8.335  0.2685 -1.8364 -0.6573
 1656SOL    HW216602   4.558   2.681   8.372  0.0798  0.7645 -0.2058
 1657SOL     OW16603   2.726   3.208   4.152 -0.3414  0.0575 -0.1812
 1657SOL    HW116604   2.750   3.133   4.207  1.2889  1.0281  0.4409
 1657SOL    HW216605   2.642   3.238   4.187  0.1528  1.5500 -0.2517
 1658SOL     OW16606   2.672   3.120   5.861  0.2390 -0.8552  0.2149
 1658SOL    HW116607   2.725   3.143   5.785 -0.9578 -2.1746 -1.0021
 1658SOL    HW216608   2.720   3.144   5.941 -0.4514 -1.0837  0.7027
 1659SOL     OW16609   0.988   3.189  16.485 -0.1663 -0.0658  0.4527
 1659SOL    HW116610   0.917   3.126  16.497  0.1193 -0.3393  0.7409
 1659SOL    HW216611   1.005   3.213  16.576 -0.9568 -2.1996  1.1579
 1660SOL     OW16612   3.532   2.430   6.799  0.8669 -0.1957 -0.0002
 1660SOL    HW116613   3.525   2.512   6.847 -2.3515 -0.6159  0.2204
 1660SOL    HW216614   3.627   2.433   6.786  0.7581  2.8772 -0.0067
 1661SOL     OW16615   1.793   4.490   2.240  0.0817 -0.1011  0.1105
 1661SOL    HW116616   1.850   4.441   2.300 -0.3124 -0.3801  0.2589
 1661SOL    HW216617   1.713   4.454   2.278  0.0608  0.5805  0.7210
 1662SOL     OW16618   4.580   3.809   5.898  0.1014  0.6053 -0.4996
 1662SOL    HW116619   4.589   3.759   5.817  0.9427  1.2692 -0.8042
 1662SOL    HW216620   4.484   3.804   5.904  0.2033 -1.2236 -0.1271
 1663SOL     OW16621   0.514   3.296  12.197  0.1330 -0.7391  0.5419
 1663SOL    HW116622   0.575   3.289  12.124  0.0942 -0.4733  0.4834
 1663SOL    HW216623   0.526   3.391  12.207  1.3811 -0.7402 -0.9048
 1664SOL     OW16624   1.594   1.543   2.754 -0.3852  0.1625 -0.3806
 1664SOL    HW116625   1.675   1.593   2.767 -0.6917  0.2520  1.1110
 1664SOL    HW216626   1.539   1.619   2.734  0.0077  0.2677 -1.0899
 1665SOL     OW16627   0.705   0.338   5.443  0.0458 -0.2959  0.2250
 1665SOL    HW116628   0.626   0.307   5.487  0.6005 -2.7261 -0.4437
 1665SOL    HW216629   0.714   0.431   5.463 -0.8813 -0.2485  0.4097
 1666SOL     OW16630   1.103   2.893   3.203 -1.1778  0.3697  0.0995
 1666SOL    HW116631   1.080   2.826   3.140  1.5267 -0.2979 -0.1727
 1666SOL    HW216632   1.021   2.935   3.227 -1.3465 -0.6671  1.3249
 1667SOL     OW16633   3.338   3.170   5.477  0.0723  0.3958 -0.0099
 1667SOL    HW116634   3.398   3.228   5.429  1.0517  0.2354  1.0239
 1667SOL    HW216635   3.276   3.234   5.511  1.1242  0.6032  1.5061
 1668SOL     OW16636   0.584   0.915   4.050 -0.8115  0.6343 -0.4269
 1668SOL    HW116637   0.605   0.824   4.030  1.6766  1.6974 -2.6438
 1668SOL    HW216638   0.565   0.910   4.144 -1.2031  5.3824 -0.2685
 1669SOL     OW16639   1.959   0.709   5.845 -0.2494  0.3675 -0.2491
 1669SOL    HW116640   2.000   0.759   5.916 -0.6010 -2.2837  1.8122
 1669SOL    HW216641   2.023   0.639   5.834 -0.8414 -0.0723 -0.8492
 1670SOL     OW16642   4.216   2.035  13.224  0.6509  0.5155  0.2927
 1670SOL    HW116643   4.132   1.992  13.240  0.5529 -0.3904 -2.6749
 1670SOL    HW216644   4.239   2.056  13.315  0.9507  0.7993  0.1497
 1671SOL     OW16645   1.175   0.857   1.966 -0.6737  0.2540  0.3729
 1671SOL    HW116646   1.105   0.815   2.016  1.5686 -2.3316  1.3896
 1671SOL    HW216647   1.154   0.825   1.878  1.4762  1.7771 -0.6853
 1672SOL     OW16648   3.364   4.329   4.814  0.6856  0.8527  0.7994
 1672SOL    HW116649   3.352   4.420   4.789  1.4196  1.3045  2.0877
 1672SOL    HW216650   3.410   4.342   4.898  0.6657  2.9294  0.4674
 1673SOL     OW16651   0.299   0.597   9.073 -0.1658 -0.2151  0.4257
 1673SOL    HW116652   0.379   0.647   9.087  0.0593 -0.0155 -1.5101
 1673SOL    HW216653   0.293   0.603   8.977  1.9601 -1.6104  0.2211
 1674SOL     OW16654   0.418   0.096   1.905 -0.1169  0.1465 -0.2749
 1674SOL    HW116655   0.394   0.078   1.996  1.5002 -0.3373  0.0554
 1674SOL    HW216656   0.452   0.010   1.882 -1.2975 -0.2627 -0.4988
 1675SOL     OW16657   1.125   0.882   8.541 -0.9201  0.7321 -0.5158
 1675SOL    HW116658   1.088   0.910   8.625 -0.4863  1.4768 -0.5745
 1675SOL    HW216659   1.119   0.791   8.569  0.9002  1.0504  0.9200
 1676SOL     OW16660   0.962   3.227   5.338 -0.5839 -0.0130  0.1562
 1676SOL    HW116661   0.979   3.154   5.279 -2.6712  0.0815 -0.5444
 1676SOL    HW216662   0.867   3.217   5.340 -0.6245  0.6314  1.4044
 1677SOL     OW16663   2.251   0.793   8.684 -0.4707  0.0387  0.0265
 1677SOL    HW116664   2.276   0.841   8.763 -1.5957  1.3458 -0.4107
 1677SOL    HW216665   2.208   0.862   8.633  0.4027  0.2043 -0.4873
 1678SOL     OW16666   1.570   2.538   8.708 -0.2544  0.2252  0.2124
 1678SOL    HW116667   1.582   2.603   8.639  1.2122  0.3258  0.5665
 1678SOL    HW216668   1.478   2.512   8.705  0.1025 -1.1306  1.1548
 1679SOL     OW16669   3.514   4.389   8.334 -0.2965  0.0139 -0.1926
 1679SOL    HW116670   3.486   4.298   8.337  0.1453 -0.1118  0.0907
 1679SOL    HW216671   3.448   4.431   8.389  1.0619  1.9500 -0.0249
 1680SOL     OW16672   0.237   0.997   8.907 -0.3507 -0.3713 -0.2200
 1680SOL    HW116673   0.323   0.991   8.950 -0.9555  0.4573  1.0941
 1680SOL    HW216674   0.202   0.946   8.980 -1.9033  0.1680 -0.5997
 1681SOL     OW16675   2.372   1.092   8.461 -0.0423 -0.5357 -0.5481
 1681SOL    HW116676   2.347   1.157   8.527  1.6833 -0.0687 -0.3382
 1681SOL    HW216677   2.413   1.155   8.401 -2.9122  1.1432 -0.7560
 1682SOL     OW16678   1.483   2.749   8.540  0.2498 -0.0798 -0.7797
 1682SOL    HW116679   1.401   2.772   8.584 -1.0977 -1.3643 -2.6129
 1682SOL    HW216680   1.449   2.725   8.454  1.5872 -0.0821 -1.3015
 1683SOL     OW16681   2.424   2.581   2.205 -0.0876  0.1246 -0.4742
 1683SOL    HW116682   2.496   2.634   2.238  0.2033 -1.2595  1.1014
 1683SOL    HW216683   2.415   2.514   2.272  0.4312  0.6147  0.0734
 1684SOL     OW16684   4.535   0.528   0.896  0.4195  0.1626 -0.1271
 1684SOL    HW116685   4.497   0.474   0.965  0.2280  1.0286  0.4360
 1684SOL    HW216686   4.500   0.614   0.918  0.9759  0.2951  0.2318
 1685SOL     OW16687   1.224   3.639   3.382  0.5697 -0.1072  0.4360
 1685SOL    HW116688   1.225   3.730   3.353 -1.6763 -0.7604 -1.7155
 1685SOL    HW216689   1.178   3.658   3.464 -1.6527  0.8307 -1.0222
 1686SOL     OW16690   3.942   4.048   0.734 -0.0878 -0.1014 -0.2247
 1686SOL    HW116691   3.915   3.970   0.783 -0.0325 -1.7097 -2.7397
 1686SOL    HW216692   3.878   4.046   0.663 -2.2324  1.3080  1.6881
 1687SOL     OW16693   0.545   2.996   3.061 -0.5688 -0.1398 -0.2754
 1687SOL    HW116694   0.472   2.995   3.122  1.1206  0.1004  1.7308
 1687SOL    HW216695   0.550   3.086   3.028 -1.2096 -0.1657 -0.4452
 1688SOL     OW16696   2.132   3.959   5.247 -0.5170 -0.5365 -0.3190
 1688SOL    HW116697   2.064   4.027   5.245 -3.0992 -3.1268 -0.1932
 1688SOL    HW216698   2.208   4.005   5.211 -1.0131  2.1391  2.0855
 1689SOL     OW16699   0.965   2.236   6.046  0.0752 -0.2513  0.3811
 1689SOL    HW116700   1.057   2.210   6.038 -0.2504 -1.5137  0.8138
 1689SOL    HW216701   0.970   2.329   6.072 -0.7734  0.1819 -1.0227
 1690SOL     OW16702   4.042   1.349   3.872 -0.0470 -0.4227 -0.5422
 1690SOL    HW116703   4.005   1.381   3.790  0.9865  1.7138 -0.1646
 1690SOL    HW216704   4.128   1.311   3.851  0.2049 -1.6426  2.7493
 1691SOL     OW16705   0.383   2.167   5.981  0.3332  0.0726  0.2227
 1691SOL    HW116706   0.451   2.100   5.987  0.2539 -0.0578 -0.3970
 1691SOL    HW216707   0.404   2.214   6.062 -0.2049 -0.9804  0.9737
 1692SOL     OW16708   1.575   3.194   3.148 -0.0389 -0.2732 -0.3035
 1692SOL    HW116709   1.574   3.240   3.232  0.7106  0.1584 -0.5383
 1692SOL    HW216710   1.493   3.146   3.162  0.2888 -0.2718  1.6468
 1693SOL     OW16711   2.205   0.900   2.769 -0.0005 -0.0708 -0.4294
 1693SOL    HW116712   2.241   0.970   2.825  1.1134 -1.4788  0.6114
 1693SOL    HW216713   2.257   0.825   2.797 -0.8201 -0.3726  0.2661
 1694SOL     OW16714   4.642   1.037   5.865  0.4096 -0.0957 -0.2646
 1694SOL    HW116715   4.670   0.972   5.800  1.6538 -0.7024  0.8803
 1694SOL    HW216716   4.577   1.083   5.812 -0.2459  1.0005  1.4942
 1695SOL     OW16717   2.018   2.469   3.205  0.3862 -0.1675 -0.1855
 1695SOL    HW116718   2.110   2.455   3.230 -0.3149 -0.3103  2.3132
 1695SOL    HW216719   1.994   2.377   3.193 -2.1919  0.3825  0.8448
 1696SOL     OW16720   0.434   3.204   3.552  0.4541 -0.2267  0.2457
 1696SOL    HW116721   0.479   3.122   3.532  1.2782  0.5086 -0.9334
 1696SOL    HW216722   0.445   3.201   3.647  1.6634  1.0793  0.1378
 1697SOL     OW16723   1.433   4.565  11.387  0.2076  0.5809 -0.1120
 1697SOL    HW116724   1.450   4.621  11.463  1.7440  0.9581 -0.7299
 1697SOL    HW216725   1.513   4.515  11.369 -1.3414 -2.0281  0.3476
 1698SOL     OW16726   0.582   1.656  13.642  0.1876 -0.0938 -0.1541
 1698SOL    HW116727   0.529   1.583  13.673 -0.8315  0.4607 -0.6188
 1698SOL    HW216728   0.575   1.716  13.716  0.4487 -0.8683  0.5029
 1699SOL     OW16729   4.462   1.773   1.170  0.4906  0.3721 -0.1741
 1699SOL    HW116730   4.452   1.678   1.166  0.5911  0.3417  0.3557
 1699SOL    HW216731   4.488   1.783   1.078  3.6330  0.8328  0.7877
 1700SOL     OW16732   1.845   1.365  13.823 -0.2248  0.0630 -0.1290
 1700SOL    HW116733   1.764   1.351  13.775  0.1804  0.5917 -0.9724
 1700SOL    HW216734   1.826   1.336  13.912 -0.9464  0.7554 -0.0572
 1701SOL     OW16735   3.532   2.344   7.333  0.0243  0.3199 -0.0979
 1701SOL    HW116736   3.559   2.266   7.382 -0.7565 -0.1802 -0.4707
 1701SOL    HW216737   3.515   2.403   7.407  0.6925 -0.4950  0.7132
 1702SOL     OW16738   0.123   0.392   7.569  0.8135  0.0281  0.4735
 1702SOL    HW116739   0.102   0.368   7.659 -1.1847 -0.2025 -0.0524
 1702SOL    HW216740   0.044   0.364   7.523  0.2369  1.5568  0.5309
 1703SOL     OW16741   3.376   3.477  11.382 -0.0590  0.8955  0.4290
 1703SOL    HW116742   3.295   3.474  11.433 -1.1046  1.0547 -1.1890
 1703SOL    HW216743   3.347   3.535  11.311 -0.0753 -1.4744 -1.5010
 1704SOL     OW16744   1.487   1.138   9.309 -0.1460 -0.1570 -0.4819
 1704SOL    HW116745   1.553   1.114   9.244  0.4262  1.7116 -0.6021
 1704SOL    HW216746   1.421   1.180   9.254 -0.4941 -3.3504 -2.4716
 1705SOL     OW16747   3.994   0.063   1.824 -0.0670 -0.4462 -0.5400
 1705SOL    HW116748   4.076   0.023   1.855 -0.9137 -2.2382 -0.6370
 1705SOL    HW216749   3.948   4.729   1.783 -1.6008 -0.5355  1.3276
 1706SOL     OW16750   0.197   2.279  15.638 -0.5950  0.1393  0.1703
 1706SOL    HW116751   0.247   2.234  15.569 -1.0862  1.6705 -1.1977
 1706SOL    HW216752   0.232   2.240  15.718  0.1682  2.4393  0.9458
 1707SOL     OW16753   3.471   3.624  11.614 -0.2759  0.0437  0.1027
 1707SOL    HW116754   3.377   3.614  11.598 -0.4874  0.0226  1.3121
 1707SOL    HW216755   3.497   3.603  11.525  0.1704 -1.6999  0.6291
 1708SOL     OW16756   3.313   2.435   8.537 -0.3664  0.1049  0.3613
 1708SOL    HW116757   3.238   2.378   8.521  2.2677 -2.6655 -2.0317
 1708SOL    HW216758   3.371   2.411   8.465 -1.2323 -0.5121 -0.1377
 1709SOL     OW16759   3.001   2.335   1.040  0.2206 -0.2217  0.5054
 1709SOL    HW116760   2.911   2.362   1.062 -1.3406 -4.3831 -0.8183
 1709SOL    HW216761   3.058   2.396   1.087 -0.9124  1.0891  0.1653
 1710SOL     OW16762   0.792   3.807   6.226 -0.1037 -0.3288 -0.4304
 1710SOL    HW116763   0.858   3.875   6.216 -0.0158 -0.6734 -2.1562
 1710SOL    HW216764   0.743   3.836   6.304 -2.1025  0.4621 -1.9849
 1711SOL     OW16765   1.951   0.715   6.179 -0.3504 -0.1429 -0.5479
 1711SOL    HW116766   1.900   0.679   6.252  2.3436 -0.0307  1.3845
 1711SOL    HW216767   1.971   0.802   6.214 -0.1995 -0.4910  0.2372
 1712SOL     OW16768   0.531   3.449   1.610  0.3867  0.1601  0.2645
 1712SOL    HW116769   0.442   3.461   1.578  0.9012  0.3961 -1.1165
 1712SOL    HW216770   0.517   3.419   1.699  0.2805  1.5934  0.7358
 1713SOL     OW16771   2.695   4.525   2.182 -0.3265  0.0082 -0.2333
 1713SOL    HW116772   2.638   4.563   2.115 -0.2616  0.8591  0.1999
 1713SOL    HW216773   2.631   4.525   2.254  1.7093 -0.3521  1.5586
 1714SOL     OW16774   4.568   0.711   6.718  0.0486 -0.1169 -0.4791
 1714SOL    HW116775   4.475   0.690   6.722 -0.0178  0.4448  1.0403
 1714SOL    HW216776   4.569   0.800   6.683 -0.4943  0.0475 -0.0689
 1715SOL     OW16777   0.351   2.848   7.197  0.7727  0.1985 -0.1172
 1715SOL    HW116778   0.272   2.841   7.251  1.1792 -1.0133  0.3100
 1715SOL    HW216779   0.357   2.944   7.191  0.1389  0.3148  1.1885
 1716SOL     OW16780   3.765   3.890   7.233  0.0485  0.2381  0.1432
 1716SOL    HW116781   3.769   3.952   7.160  1.0993  1.1088  0.9326
 1716SOL    HW216782   3.709   3.937   7.295  1.1544  1.4676  0.2105
 1717SOL     OW16783   4.562   4.483   8.857 -0.2699  0.6409  0.4255
 1717SOL    HW116784   4.566   4.566   8.905  0.1269  1.8879 -1.7692
 1717SOL    HW216785   4.494   4.513   8.797 -1.0918  1.8182  1.9329
 1718SOL     OW16786   1.016   3.710   7.296  0.3973  0.5401 -0.1450
 1718SOL    HW116787   1.042   3.800   7.275 -1.1452  1.2012  0.8027
 1718SOL    HW216788   1.065   3.657   7.232 -0.2830 -0.5087  0.1996
 1719SOL     OW16789   3.299   3.941   3.288  0.2919 -0.1714  0.3864
 1719SOL    HW116790   3.232   3.962   3.352 -0.2787  0.0081 -0.2693
 1719SOL    HW216791   3.284   4.015   3.229  0.4214 -0.3482  0.1313
 1720SOL     OW16792   1.878   3.338   0.685  0.1411  0.1689 -0.0865
 1720SOL    HW116793   1.898   3.406   0.620 -1.8698 -0.3822 -1.2784
 1720SOL    HW216794   1.964   3.327   0.726  0.3045  0.3538 -0.3837
 1721SOL     OW16795   3.151   0.812   6.252  0.2492 -0.2116  0.5205
 1721SOL    HW116796   3.180   0.722   6.247 -0.2208 -0.3923  1.0491
 1721SOL    HW216797   3.164   0.825   6.346 -1.1048  1.7236  0.4678
 1722SOL     OW16798   1.045   0.958   9.577  0.0782  0.0348 -0.2775
 1722SOL    HW116799   1.010   1.034   9.529 -0.8129 -0.9865 -1.2499
 1722SOL    HW216800   1.136   0.954   9.549  0.3155  1.9617  0.2028
 1723SOL     OW16801   0.789   4.321   5.013  0.1255  0.3119 -0.0300
 1723SOL    HW116802   0.839   4.241   5.032 -0.8590  0.2204  2.1353
 1723SOL    HW216803   0.728   4.327   5.087 -1.0514  0.4515 -1.0164
 1724SOL     OW16804   3.245   0.380   5.117 -0.3258  0.0830 -0.0313
 1724SOL    HW116805   3.170   0.430   5.084 -1.9417 -0.8363  2.2672
 1724SOL    HW216806   3.247   0.418   5.205 -1.1948 -0.0510  0.0531
 1725SOL     OW16807   0.914   1.708   1.913 -0.1548 -0.7190  0.1161
 1725SOL    HW116808   0.922   1.761   1.833  2.3254 -0.8380  0.2757
 1725SOL    HW216809   0.882   1.785   1.960  0.1542  0.5947 -1.8071
 1726SOL     OW16810   4.528   3.612   8.750 -0.0342 -0.0193  0.0882
 1726SOL    HW116811   4.596   3.553   8.717 -0.6435 -1.4388  1.3317
 1726SOL    HW216812   4.457   3.575   8.698  1.4926 -1.0907 -1.2384
 1727SOL     OW16813   2.406   1.283   4.355  0.6229 -0.5991 -0.2322
 1727SOL    HW116814   2.400   1.223   4.281  0.1897 -0.4936 -0.2873
 1727SOL    HW216815   2.416   1.367   4.310  1.1545 -1.1022 -1.0469
 1728SOL     OW16816   3.766   2.290   0.387 -0.0820  0.8018  0.1686
 1728SOL    HW116817   3.808   2.250   0.311 -1.0033 -0.9976  0.6219
 1728SOL    HW216818   3.682   2.244   0.387  0.3203  0.0724  1.1960
 1729SOL     OW16819   0.045   4.412   8.315 -0.1213 -0.6338  0.2917
 1729SOL    HW116820   0.125   4.461   8.297  0.4320 -0.6139  2.8481
 1729SOL    HW216821   0.028   4.448   8.402 -0.7732  0.8894 -0.4677
 1730SOL     OW16822   0.610   1.800   8.801  0.0399 -0.2500 -1.0146
 1730SOL    HW116823   0.543   1.764   8.858 -0.3539  0.4333 -1.0515
 1730SOL    HW216824   0.562   1.879   8.777  0.9803  0.4970 -0.4757
 1731SOL     OW16825   1.205   0.301   3.436  0.6463  0.3085 -0.3093
 1731SOL    HW116826   1.296   0.273   3.436  1.0304  1.5426  0.1133
 1731SOL    HW216827   1.226   0.391   3.462 -1.9959  0.3948  1.5818
 1732SOL     OW16828   1.363   0.484   3.034  0.2929  0.1268  0.2370
 1732SOL    HW116829   1.291   0.529   3.077 -0.5104 -0.9798  0.0656
 1732SOL    HW216830   1.402   0.433   3.105 -1.6534 -0.3299  0.9791
 1733SOL     OW16831   0.468   3.980   3.234 -0.6903 -0.0901 -0.0033
 1733SOL    HW116832   0.537   4.043   3.214  0.4401 -1.0909  0.7493
 1733SOL    HW216833   0.512   3.910   3.186 -0.3663 -0.2961  0.5933
 1734SOL     OW16834   1.957   4.103  10.081 -0.2378  0.3819 -0.5207
 1734SOL    HW116835   1.893   4.045  10.122  0.3945 -0.1700 -0.3204
 1734SOL    HW216836   2.013   4.120  10.156  2.8712 -3.1337 -2.0652
 1735SOL     OW16837   2.172   4.129   4.639  0.1966  0.3274 -0.3852
 1735SOL    HW116838   2.188   4.199   4.702 -0.2020 -0.6862  0.8374
 1735SOL    HW216839   2.083   4.150   4.614  0.2690  1.0817  0.0113
 1736SOL     OW16840   0.880   2.369   5.622  0.1679  0.5421  0.0398
 1736SOL    HW116841   0.888   2.340   5.531  0.2211 -1.3621  0.6592
 1736SOL    HW216842   0.870   2.280   5.656 -0.9772  0.4264 -0.5997
 1737SOL     OW16843   3.940   1.186   1.820  0.2264  0.2753  0.2317
 1737SOL    HW116844   3.913   1.106   1.866  0.8961  1.3478  2.4434
 1737SOL    HW216845   3.879   1.249   1.859 -1.2062  1.5618 -4.0899
 1738SOL     OW16846   3.932   2.470   2.896  0.1617  0.3132 -0.5203
 1738SOL    HW116847   4.021   2.504   2.891  1.0535 -2.0413 -0.1925
 1738SOL    HW216848   3.887   2.521   2.828 -0.4818  0.4054 -0.0309
 1739SOL     OW16849   3.751   1.567   6.047  0.5652 -0.1300  0.2907
 1739SOL    HW116850   3.657   1.554   6.055  0.2499 -0.2863 -3.4647
 1739SOL    HW216851   3.747   1.623   5.969 -2.0201 -0.4110  0.2082
 1740SOL     OW16852   3.482   0.128   8.823 -0.6190 -0.4877  0.5993
 1740SOL    HW116853   3.510   0.160   8.909 -1.8968  1.1646  0.4161
 1740SOL    HW216854   3.396   0.169   8.812  0.8879  2.0417 -1.8744
 1741SOL     OW16855   0.434   1.206   8.112 -0.6028  0.0316 -0.1125
 1741SOL    HW116856   0.387   1.180   8.033  2.5918 -0.3801 -1.8585
 1741SOL    HW216857   0.474   1.121   8.128 -0.7114 -0.1009 -0.5355
 1742SOL     OW16858   1.219   1.323   2.642  0.0090 -0.1285  0.3379
 1742SOL    HW116859   1.215   1.395   2.579 -0.2093 -0.8240 -0.4379
 1742SOL    HW216860   1.131   1.344   2.674 -0.4210 -1.0273 -0.2568
 1743SOL     OW16861   1.758   4.276   1.409  0.3160 -0.1796 -0.4740
 1743SOL    HW116862   1.760   4.339   1.337 -1.6659  0.4852  0.0451
 1743SOL    HW216863   1.839   4.228   1.396  0.4817 -0.4120  1.5288
 1744SOL     OW16864   4.546   1.721   3.376  0.3778 -0.3911  0.1267
 1744SOL    HW116865   4.618   1.671   3.415  0.7473  0.5468  0.6520
 1744SOL    HW216866   4.530   1.661   3.303  0.7117  1.0709 -1.1474
 1745SOL     OW16867   2.442   4.691   3.780  0.0731 -1.0493  0.2357
 1745SOL    HW116868   2.399   0.038   3.786 -0.1694 -0.8848 -3.6943
 1745SOL    HW216869   2.531   4.724   3.771  0.9083 -3.2158  0.6711
 1746SOL     OW16870   1.629   2.934   4.718  0.3169 -0.2402 -1.2005
 1746SOL    HW116871   1.590   2.867   4.662 -0.1299 -0.8023 -0.2118
 1746SOL    HW216872   1.560   3.001   4.718  0.6569  0.1098 -0.6298
 1747SOL     OW16873   0.237   1.814   7.981 -0.7427 -0.1376 -0.1640
 1747SOL    HW116874   0.321   1.767   7.988 -1.5111 -1.5426 -0.4088
 1747SOL    HW216875   0.185   1.751   8.031 -0.6372 -0.6422 -0.6912
 1748SOL     OW16876   4.717   4.324   5.051 -0.7797 -0.4883 -0.6246
 1748SOL    HW116877   4.734   4.241   5.096 -3.0107 -1.0258 -0.7626
 1748SOL    HW216878   4.622   4.314   5.040 -0.8092 -1.0478  0.1079
 1749SOL     OW16879   1.120   3.550   7.103 -0.3242 -0.0469  0.4924
 1749SOL    HW116880   1.073   3.508   7.031  2.3089  0.5679 -1.5567
 1749SOL    HW216881   1.159   3.478   7.154  0.4792 -0.1191 -0.2357
 1750SOL     OW16882   4.171   3.050  10.291 -0.0150 -0.1312  0.1312
 1750SOL    HW116883   4.159   2.955  10.296 -1.0792 -0.0432 -0.7323
 1750SOL    HW216884   4.209   3.062  10.378  0.9926 -0.5073 -0.2594
 1751SOL     OW16885   1.423   3.830   8.405 -0.2831  0.3815  0.2171
 1751SOL    HW116886   1.357   3.898   8.396  1.8256  2.5263  1.0291
 1751SOL    HW216887   1.505   3.878   8.417  0.2674 -0.0620 -1.7701
 1752SOL     OW16888   1.783   3.283   9.418 -0.6067 -0.1804 -0.4037
 1752SOL    HW116889   1.834   3.317   9.492 -0.4560  1.3406 -1.1942
 1752SOL    HW216890   1.693   3.309   9.435 -0.2078  1.3722 -0.6405
 1753SOL     OW16891   1.204   0.121   4.207  0.2320 -0.0900 -0.4493
 1753SOL    HW116892   1.183   0.091   4.118 -2.6475  1.3865 -0.2682
 1753SOL    HW216893   1.122   0.153   4.244  1.1787  1.5820  0.1479
 1754SOL     OW16894   3.442   0.807   2.993 -0.8318 -0.9235  0.2300
 1754SOL    HW116895   3.525   0.761   2.980 -1.3766 -1.8523  0.0257
 1754SOL    HW216896   3.381   0.734   2.988 -1.2215 -0.3783 -2.9619
 1755SOL     OW16897   0.069   2.004   2.983  0.0377 -0.0093  0.4961
 1755SOL    HW116898   0.146   1.957   2.952  0.2099 -0.3712  1.4972
 1755SOL    HW216899   4.733   1.945   2.985 -0.3068  0.3974 -0.1799
 1756SOL     OW16900   1.695   0.498   3.051  1.0763 -0.1315  0.7396
 1756SOL    HW116901   1.672   0.416   3.095  4.5105 -0.8468  1.1952
 1756SOL    HW216902   1.725   0.461   2.968 -0.8800 -0.1978  0.0598
 1757SOL     OW16903   1.001   3.577   2.191  0.1799 -0.7532  0.0250
 1757SOL    HW116904   0.934   3.634   2.153  0.1620 -0.6432  0.2236
 1757SOL    HW216905   0.943   3.520   2.242  0.9895 -0.9072  0.7574
 1758SOL     OW16906   1.765   0.034   6.011 -0.2587 -0.6292  0.1335
 1758SOL    HW116907   1.732   0.123   6.019 -1.7084 -1.1600 -0.0762
 1758SOL    HW216908   1.854   0.053   6.040  0.9211 -1.8264 -2.6794
 1759SOL     OW16909   0.839   4.150   4.020  0.5239  0.4629 -0.0567
 1759SOL    HW116910   0.915   4.153   4.079 -2.2301  0.6858  3.5431
 1759SOL    HW216911   0.831   4.242   3.993  1.5715  0.2474 -1.0488
 1760SOL     OW16912   0.814   1.510   6.881  0.1465 -0.1314 -0.8778
 1760SOL    HW116913   0.780   1.533   6.794  0.5892 -3.7552 -2.0025
 1760SOL    HW216914   0.862   1.590   6.903  2.7395 -2.2453  1.1848
 1761SOL     OW16915   0.061   1.392   3.318  0.0085 -0.9440 -0.2558
 1761SOL    HW116916   0.150   1.364   3.300  0.3546 -0.7205  1.0683
 1761SOL    HW216917   0.025   1.396   3.229  0.0203 -0.6266 -0.2466
 1762SOL     OW16918   3.278   2.875  16.948 -0.5755 -0.5872  0.1789
 1762SOL    HW116919   3.330   2.796  16.961 -2.1057 -1.3971  1.3871
 1762SOL    HW216920   3.194   2.854  16.989 -0.6062 -0.0411  0.4025
 1763SOL     OW16921   1.393   3.774   9.287 -0.4110  0.1936  0.2249
 1763SOL    HW116922   1.331   3.839   9.254  1.8630  2.6102  0.7173
 1763SOL    HW216923   1.417   3.734   9.203 -1.2822 -1.2264  0.6501
 1764SOL     OW16924   2.453   2.881   0.627 -0.0379 -0.1832 -0.1460
 1764SOL    HW116925   2.399   2.960   0.633  0.9245  0.2827  2.2866
 1764SOL    HW216926   2.436   2.850   0.538 -0.7879  1.6416 -0.6448
 1765SOL     OW16927   3.723   3.063   8.945  0.9914 -0.2023 -0.4635
 1765SOL    HW116928   3.705   2.970   8.929 -1.1187  0.3209 -1.0811
 1765SOL    HW216929   3.744   3.069   9.038 -0.3721  1.1617 -0.2378
 1766SOL     OW16930   0.316   4.525   0.854 -0.0956 -0.3362 -0.2940
 1766SOL    HW116931   0.277   4.521   0.941 -0.8564 -1.2539 -0.6788
 1766SOL    HW216932   0.407   4.516   0.882 -0.4785 -4.1013 -0.3615
 1767SOL     OW16933   4.584   3.285   7.582 -0.2170  0.0753 -0.1118
 1767SOL    HW116934   4.531   3.363   7.595  0.2445  0.5902 -1.3534
 1767SOL    HW216935   4.543   3.244   7.505  0.3988 -1.0120  0.1318
 1768SOL     OW16936   2.930   0.107   3.210  0.0935  0.2579  0.0338
 1768SOL    HW116937   2.861   0.130   3.147  0.8481 -3.1273 -2.0406
 1768SOL    HW216938   3.006   0.139   3.162 -0.6859 -0.0204 -1.3742
 1769SOL     OW16939   1.042   4.441   6.512 -0.4548 -0.1195  0.1654
 1769SOL    HW116940   1.022   4.407   6.599 -3.4177 -0.0754 -0.4767
 1769SOL    HW216941   0.996   4.525   6.501 -0.9939 -0.4310  0.0213
 1770SOL     OW16942   2.045   3.394  12.446 -0.1163 -0.3327  0.1676
 1770SOL    HW116943   1.989   3.385  12.523  0.2087 -1.7056  0.2491
 1770SOL    HW216944   2.070   3.306  12.418  1.1960 -0.0862  0.5438
 1771SOL     OW16945   1.811   3.312  10.042  0.5963  0.8350 -0.4085
 1771SOL    HW116946   1.753   3.248  10.084  0.3589  1.3536  0.0484
 1771SOL    HW216947   1.782   3.314   9.950 -0.2264  0.5773 -0.1598
 1772SOL     OW16948   4.024   1.361   5.801 -0.3265 -0.4526 -0.0760
 1772SOL    HW116949   3.982   1.402   5.725  0.8356 -1.2917 -1.1679
 1772SOL    HW216950   3.975   1.283   5.825  1.5029 -1.0357  1.7769
 1773SOL     OW16951   0.648   2.966   7.797  0.1777 -0.6937 -0.0626
 1773SOL    HW116952   0.647   2.871   7.785 -0.7154 -0.4597 -1.8453
 1773SOL    HW216953   0.633   2.998   7.708 -0.1039 -0.5000  0.0544
 1774SOL     OW16954   1.574   4.314   5.270 -0.2124 -0.2594  0.7943
 1774SOL    HW116955   1.591   4.254   5.343  0.8279  1.1168  1.7022
 1774SOL    HW216956   1.588   4.389   5.328 -0.4580  1.2864 -1.1764
 1775SOL     OW16957   4.628   0.962   8.934 -0.7200 -0.4369  0.5790
 1775SOL    HW116958   4.592   0.888   8.983  0.0022 -0.2783  1.3408
 1775SOL    HW216959   4.552   1.017   8.913  0.2902  0.5063 -0.5614
 1776SOL     OW16960   4.270   1.677   5.891  0.0714  0.2879 -0.4024
 1776SOL    HW116961   4.252   1.755   5.840 -1.5242 -0.0504 -0.3425
 1776SOL    HW216962   4.241   1.699   5.980 -0.3528 -0.9208 -0.2356
 1777SOL     OW16963   0.367   4.236  10.052  0.1654  0.9109 -0.1944
 1777SOL    HW116964   0.312   4.173  10.099  0.2835  0.2635 -0.9139
 1777SOL    HW216965   0.356   4.303  10.119  1.1073  0.0187  0.8611
 1778SOL     OW16966   1.504   4.215   9.123 -0.1028  0.5147 -0.2098
 1778SOL    HW116967   1.521   4.307   9.101  1.8180  0.5069  1.2801
 1778SOL    HW216968   1.458   4.229   9.206 -0.1499 -2.0067  0.1672
 1779SOL     OW16969   4.054   3.166  11.880  0.4556 -0.1523  0.2796
 1779SOL    HW116970   4.055   3.077  11.916  2.1476  0.5217  1.9323
 1779SOL    HW216971   4.130   3.160  11.823  0.1341  1.6293 -0.3397
 1780SOL     OW16972   3.367   3.412   3.763 -0.1192  0.5746  0.2326
 1780SOL    HW116973   3.289   3.378   3.807  1.0376 -0.5173  1.4217
 1780SOL    HW216974   3.408   3.333   3.728 -0.2571  0.3435  0.5931
 1781SOL     OW16975   0.125   4.729   7.530  0.3407 -0.0380 -0.8289
 1781SOL    HW116976   0.136   0.049   7.455  1.1978  1.1280  0.2146
 1781SOL    HW216977   0.189   0.027   7.592 -1.4683  0.3866  0.7701
 1782SOL     OW16978   1.188   1.084   5.327  0.3049  0.5290  0.6576
 1782SOL    HW116979   1.097   1.111   5.318  0.5696  1.7840  1.7744
 1782SOL    HW216980   1.178   1.020   5.398 -1.5036 -0.2912 -0.3234
 1783SOL     OW16981   1.103   0.456   6.706  0.3394 -0.1908  0.1813
 1783SOL    HW116982   1.075   0.376   6.751  1.3741 -0.3068  0.6400
 1783SOL    HW216983   1.159   0.422   6.636  0.1287 -0.9871  0.3975
 1784SOL     OW16984   4.606   0.720  14.069 -0.2672  0.2543 -0.1065
 1784SOL    HW116985   4.531   0.755  14.116  1.0454 -0.6759  2.6801
 1784SOL    HW216986   4.637   0.801  14.027 -1.3697  0.0134 -1.3796
 1785SOL     OW16987   4.422   1.038  12.661 -0.2571 -0.2158 -0.2892
 1785SOL    HW116988   4.479   1.109  12.632 -2.0089  0.7842 -1.2906
 1785SOL    HW216989   4.451   0.971  12.599 -1.3095  0.8329 -1.9154
 1786SOL     OW16990   2.776   3.816   3.999 -0.3348 -0.5787 -0.4866
 1786SOL    HW116991   2.867   3.803   3.973  0.0386  1.8770 -0.3961
 1786SOL    HW216992   2.774   3.782   4.088 -0.8350  3.3257  0.9793
 1787SOL     OW16993   0.553   4.018   7.335  0.6949  0.7036 -0.3062
 1787SOL    HW116994   0.521   3.971   7.412  0.9120 -0.6851 -1.0719
 1787SOL    HW216995   0.613   4.081   7.375 -1.1178  1.2566  1.5619
 1788SOL     OW16996   1.462   0.321  11.741  0.2023 -0.1740 -0.8508
 1788SOL    HW116997   1.532   0.381  11.714 -1.9134  2.7981  0.2600
 1788SOL    HW216998   1.411   0.311  11.661 -1.4638  0.9471  0.0789
 1789SOL     OW16999   2.480   3.345   1.892  0.6911 -0.0603 -0.2938
 1789SOL    HW117000   2.493   3.345   1.987 -0.0227  1.5044 -0.1887
 1789SOL    HW217001   2.386   3.329   1.900  0.5666  1.6524  1.7863
 1790SOL     OW17002   2.893   3.863   8.957 -0.2718 -0.6476 -0.0460
 1790SOL    HW117003   2.965   3.916   8.991 -0.3437 -0.4345 -0.2262
 1790SOL    HW217004   2.852   3.847   9.042 -1.9976 -1.4292 -1.0284
 1791SOL     OW17005   2.398   1.384   1.946  0.1571  0.3277  0.1120
 1791SOL    HW117006   2.424   1.471   1.976  1.7035 -0.7163  1.7244
 1791SOL    HW217007   2.360   1.349   2.026 -1.3042 -3.4177 -2.2407
 1792SOL     OW17008   3.350   2.811   4.629  0.0898 -0.5443 -0.3666
 1792SOL    HW117009   3.314   2.726   4.653  1.7695 -1.4102 -0.9434
 1792SOL    HW217010   3.266   2.858   4.620  0.5018  0.4150  0.7991
 1793SOL     OW17011   0.877   0.952  16.741  0.1630 -0.4494  0.4005
 1793SOL    HW117012   0.970   0.934  16.727 -0.2391 -1.6301 -0.7197
 1793SOL    HW217013   0.857   0.885  16.806  0.3008 -1.1830 -0.3095
 1794SOL     OW17014   4.660   2.648  14.137  0.1352  0.8290 -0.1709
 1794SOL    HW117015   0.012   2.639  14.110  0.4597 -0.1909  1.2576
 1794SOL    HW217016   4.684   2.700  14.214  1.3687  0.2466 -0.1583
 1795SOL     OW17017   1.126   0.793   2.377  0.3854  0.0633 -0.3126
 1795SOL    HW117018   1.115   0.722   2.440 -0.7435  0.5407  0.0410
 1795SOL    HW217019   1.120   0.750   2.292 -2.2571 -2.1650  1.0366
 1796SOL     OW17020   0.132   1.333   6.944 -0.7197 -0.1970 -0.1904
 1796SOL    HW117021   0.163   1.331   6.853 -0.6958  0.8046 -0.2091
 1796SOL    HW217022   0.038   1.348   6.929 -0.9870 -0.6575  1.0342
 1797SOL     OW17023   2.634   4.150   7.996  0.2976 -0.1113 -0.1777
 1797SOL    HW117024   2.646   4.210   7.922 -1.1839 -0.1749 -0.4745
 1797SOL    HW217025   2.699   4.188   8.055  0.6903  2.0134 -1.9647
 1798SOL     OW17026   2.271   0.683   9.472 -0.0572 -0.4077  0.0843
 1798SOL    HW117027   2.228   0.601   9.449  0.1408 -0.4564 -0.1126
 1798SOL    HW217028   2.350   0.660   9.423  1.2554  2.9049  0.6334
 1799SOL     OW17029   1.495   3.910   6.348  0.4610  0.3922  0.5430
 1799SOL    HW117030   1.553   3.986   6.341  1.2768 -0.3222 -0.4908
 1799SOL    HW217031   1.546   3.838   6.311 -2.0589 -0.4759 -1.1995
 1800SOL     OW17032   4.394   2.445   8.838  0.5109  0.1311 -0.2063
 1800SOL    HW117033   4.328   2.410   8.897 -1.2095  0.5527 -1.8952
 1800SOL    HW217034   4.467   2.462   8.897  0.7884 -0.3912 -0.3946
 1801SOL     OW17035   0.451   2.533   6.372 -0.0607 -0.3882 -0.6407
 1801SOL    HW117036   0.476   2.558   6.283  0.9426 -4.8859 -1.6425
 1801SOL    HW217037   0.357   2.518   6.359 -0.1840 -0.7724  0.6641
 1802SOL     OW17038   2.232   2.458   7.292 -0.0619  0.2595  0.4357
 1802SOL    HW117039   2.312   2.441   7.243  1.0628  1.9703  1.6746
 1802SOL    HW217040   2.237   2.382   7.350 -1.5102 -0.8706 -0.9297
 1803SOL     OW17041   1.787   0.215   6.823  0.1245  0.3750 -0.1710
 1803SOL    HW117042   1.710   0.233   6.769  0.3248  1.3820 -0.1214
 1803SOL    HW217043   1.750   0.190   6.907 -0.2407  0.1154 -0.4077
 1804SOL     OW17044   3.685   0.687   2.958  0.3480  0.2356 -0.2591
 1804SOL    HW117045   3.680   0.634   2.879 -0.1361  0.4263 -0.3545
 1804SOL    HW217046   3.724   0.622   3.017  0.5407 -0.7684 -1.5103
 1805SOL     OW17047   1.343   1.236   9.101 -0.1427 -0.1893 -0.2672
 1805SOL    HW117048   1.320   1.323   9.131 -2.2263 -1.1236  0.8380
 1805SOL    HW217049   1.389   1.261   9.020  0.4349 -2.9721 -0.7987
 1806SOL     OW17050   2.429   4.224   3.864 -0.3284  0.6469 -0.4872
 1806SOL    HW117051   2.524   4.221   3.878 -0.3152  1.9004 -0.2883
 1806SOL    HW217052   2.399   4.154   3.922  1.0817  0.6970  0.2865
 1807SOL     OW17053   1.385   2.119  12.304  0.2536  0.4849  0.0663
 1807SOL    HW117054   1.381   2.116  12.209 -1.3502  2.0516  0.0720
 1807SOL    HW217055   1.345   2.036  12.331 -0.1203  0.4359 -0.6451
 1808SOL     OW17056   2.373   1.450   8.381  0.0524 -0.5852 -0.0565
 1808SOL    HW117057   2.381   1.544   8.399 -1.5302 -0.6772  1.1728
 1808SOL    HW217058   2.295   1.450   8.326  0.7429 -0.9532 -1.0259
 1809SOL     OW17059   3.973   2.988   0.872  0.2504 -0.5344  0.1440
 1809SOL    HW117060   3.979   3.030   0.786 -0.2535  1.6648  1.1864
 1809SOL    HW217061   4.058   3.012   0.909 -0.0335  0.9055 -0.1622
 1810SOL     OW17062   3.426   1.490   9.345 -0.6382  0.2490  0.6075
 1810SOL    HW117063   3.521   1.489   9.333 -1.0824 -2.2721 -2.5624
 1810SOL    HW217064   3.406   1.430   9.274  0.7002  1.4734 -0.7903
 1811SOL     OW17065   4.438   2.721   3.525  0.1587  0.1998  0.1691
 1811SOL    HW117066   4.346   2.696   3.531 -0.0594  0.5455 -1.7074
 1811SOL    HW217067   4.461   2.741   3.616 -3.7283 -0.6155  1.3321
 1812SOL     OW17068   2.957   3.343   4.310 -0.4090 -0.3258 -0.0895
 1812SOL    HW117069   2.928   3.334   4.219 -1.2168 -1.3823  0.2788
 1812SOL    HW217070   2.995   3.257   4.327 -0.6021  0.0214  2.0285
 1813SOL     OW17071   3.702   0.419  13.786  0.2716  0.2437  0.6210
 1813SOL    HW117072   3.751   0.389  13.709  0.1938 -0.5659  0.8920
 1813SOL    HW217073   3.735   0.509  13.782  1.1015  0.0038  2.0612
 1814SOL     OW17074   0.807   0.487   2.188 -0.2532  0.0694 -0.1037
 1814SOL    HW117075   0.807   0.552   2.258  0.7095  0.7546 -0.7308
 1814SOL    HW217076   0.786   0.531   2.105  1.9113 -1.6010 -1.5672
 1815SOL     OW17077   4.519   2.697  15.074  0.1276 -0.5675 -0.1093
 1815SOL    HW117078   4.574   2.643  15.018 -1.5491  0.9395 -3.2311
 1815SOL    HW217079   4.444   2.637  15.078  0.0209 -0.5409 -1.6749
 1816SOL     OW17080   3.483   3.801  14.085 -0.4103 -0.1958  0.0584
 1816SOL    HW117081   3.426   3.822  14.160  0.8603  0.2356  0.9054
 1816SOL    HW217082   3.419   3.788  14.015 -0.7914 -1.3973  0.6391
 1817SOL     OW17083   2.874   1.531   2.714 -0.3401 -0.1661 -0.2359
 1817SOL    HW117084   2.945   1.467   2.711  0.2060  0.5167 -1.8220
 1817SOL    HW217085   2.801   1.480   2.748 -1.0142  0.2648 -1.0403
 1818SOL     OW17086   0.441   3.359   0.488  0.2582  0.2598  0.3078
 1818SOL    HW117087   0.377   3.289   0.500 -0.8560  1.0435 -1.2483
 1818SOL    HW217088   0.389   3.433   0.517  0.3453 -0.0438  1.2800
 1819SOL     OW17089   2.923   3.602   8.456 -0.2532 -0.0060  0.1864
 1819SOL    HW117090   2.928   3.605   8.552 -0.6022 -0.7344  0.2241
 1819SOL    HW217091   2.885   3.515   8.443 -0.0943 -0.1018  0.3541
 1820SOL     OW17092   2.296   3.091   4.310  0.1282  0.2894  0.1204
 1820SOL    HW117093   2.369   3.151   4.328  1.1358 -1.1293  0.8256
 1820SOL    HW217094   2.350   3.012   4.305 -0.1572  0.0524  0.7648
 1821SOL     OW17095   1.363   0.015   4.893  0.3249 -0.3179 -0.6217
 1821SOL    HW117096   1.380   4.678   4.949 -1.1373 -1.1513 -1.3012
 1821SOL    HW217097   1.284   4.726   4.846  0.4197  1.8789 -2.0656
 1822SOL     OW17098   3.882   0.665   6.717 -0.5282 -0.0325  0.0994
 1822SOL    HW117099   3.902   0.705   6.632 -2.1139  1.1889  0.3037
 1822SOL    HW217100   3.934   0.585   6.720 -2.2414 -1.0412  2.2014
 1823SOL     OW17101   2.477   4.652   2.708 -0.3172 -0.3126 -0.0636
 1823SOL    HW117102   2.422   4.579   2.679  1.0325 -1.3946  0.1198
 1823SOL    HW217103   2.547   4.608   2.756 -0.0351  1.3118  0.9937
 1824SOL     OW17104   1.990   1.291   8.052 -0.0253 -0.8553  0.0032
 1824SOL    HW117105   2.049   1.302   7.977  1.0805 -5.9300  0.1604
 1824SOL    HW217106   1.908   1.297   8.005  0.9987 -3.2520 -2.0596
 1825SOL     OW17107   0.971   2.238   5.375 -0.2056  0.5775  0.5117
 1825SOL    HW117108   0.922   2.267   5.298  0.4039 -0.1714 -0.1643
 1825SOL    HW217109   0.985   2.146   5.351  0.8695  1.2418 -1.3375
 1826SOL     OW17110   1.970   2.680  10.332  0.4707  0.2604 -0.1544
 1826SOL    HW117111   2.051   2.632  10.349 -0.4416 -0.0168  3.3827
 1826SOL    HW217112   1.917   2.604  10.310  1.3043  0.0720 -1.5276
 1827SOL     OW17113   4.130   2.783   3.538 -0.0530  0.7702 -0.0420
 1827SOL    HW117114   4.093   2.698   3.516 -1.8684  1.1773  1.4215
 1827SOL    HW217115   4.094   2.781   3.627 -0.6254 -1.0132 -0.3145
 1828SOL     OW17116   2.070   0.572   3.355 -0.1592  0.3968  0.4589
 1828SOL    HW117117   1.987   0.573   3.307 -0.4265  0.4836  0.9210
 1828SOL    HW217118   2.043   0.532   3.437  1.8099  0.0690  0.9233
 1829SOL     OW17119   4.626   2.029   1.565  0.1231  0.4155  0.5565
 1829SOL    HW117120   4.577   2.110   1.549  2.0750  1.6432  0.7756
 1829SOL    HW217121   4.640   2.003   1.474 -2.2481 -0.0932  0.3375
 1830SOL     OW17122   1.881   0.174   9.313  0.0588  0.0688 -0.3818
 1830SOL    HW117123   1.959   0.200   9.361  0.3885 -0.4170 -0.6548
 1830SOL    HW217124   1.808   0.215   9.360 -1.5731 -1.7242 -1.3278
 1831SOL     OW17125   1.331   1.598   6.402  0.0550  0.4181  0.0122
 1831SOL    HW117126   1.316   1.641   6.318 -0.5922 -0.6769 -0.4370
 1831SOL    HW217127   1.353   1.669   6.462 -1.7337 -0.0630  1.2661
 1832SOL     OW17128   2.247   1.727   1.141 -0.0938 -0.3127  0.5860
 1832SOL    HW117129   2.232   1.649   1.195 -0.8746 -1.1940 -0.8882
 1832SOL    HW217130   2.342   1.719   1.142 -0.1186 -0.3386  2.0376
 1833SOL     OW17131   2.890   3.293   8.950 -0.1048 -0.8045 -0.3626
 1833SOL    HW117132   2.848   3.254   9.027 -1.1245  0.3673 -0.3221
 1833SOL    HW217133   2.921   3.371   8.997  0.7746 -1.0037 -0.6131
 1834SOL     OW17134   2.999   1.561  17.213 -0.4250 -1.1652  0.7449
 1834SOL    HW117135   2.997   1.538  17.120  1.1875  1.6355  0.0138
 1834SOL    HW217136   2.933   1.501  17.245 -2.4528  1.0794  0.7743
 1835SOL     OW17137   3.715   3.373   2.992  0.0316  0.1516 -0.2865
 1835SOL    HW117138   3.770   3.296   2.979 -0.0151 -0.1802  1.4953
 1835SOL    HW217139   3.634   3.322   2.984 -1.4276  2.9572 -3.4862
 1836SOL     OW17140   3.271   2.738   7.815  0.1293 -0.2686  0.0939
 1836SOL    HW117141   3.198   2.782   7.858 -0.8706 -0.6807 -1.1640
 1836SOL    HW217142   3.328   2.811   7.791  0.0959 -0.5400 -0.8176
 1837SOL     OW17143   2.241   3.228   3.302 -0.6335 -0.0336  0.0386
 1837SOL    HW117144   2.187   3.287   3.355 -0.1924 -0.5130  1.0236
 1837SOL    HW217145   2.197   3.143   3.306 -1.6441  0.5405  1.3698
 1838SOL     OW17146   0.541   2.388  10.266  0.4573 -0.4619 -0.0295
 1838SOL    HW117147   0.588   2.312  10.302 -1.8326 -2.3125 -0.9877
 1838SOL    HW217148   0.577   2.394  10.178  0.5263 -1.2339 -0.0546
 1839SOL     OW17149   2.250   3.824   9.935 -0.7111  0.7397 -0.2160
 1839SOL    HW117150   2.175   3.790   9.984 -1.8140  0.8070 -1.8507
 1839SOL    HW217151   2.318   3.828  10.002 -1.7814 -1.4745  1.0048
 1840SOL     OW17152   3.067   4.551   3.747 -0.4812 -0.0663  0.6603
 1840SOL    HW117153   3.071   4.645   3.731  0.9722 -0.2746 -0.1467
 1840SOL    HW217154   3.160   4.529   3.754  0.0093 -0.0382 -6.0910
 1841SOL     OW17155   2.912   3.842   6.625  0.2900 -0.3415 -0.1297
 1841SOL    HW117156   2.988   3.794   6.656  1.4275  1.0744 -0.7108
 1841SOL    HW217157   2.859   3.820   6.702  0.1166  0.6920  0.0580
 1842SOL     OW17158   1.008   4.307   6.730 -0.9497  0.5523 -0.0566
 1842SOL    HW117159   1.015   4.327   6.823 -3.3306 -0.3119  0.3151
 1842SOL    HW217160   1.047   4.220   6.723  1.2571  1.3611  2.1100
 1843SOL     OW17161   3.754   3.604   7.187 -0.1831  0.3129 -0.9923
 1843SOL    HW117162   3.774   3.697   7.197 -2.0031  0.6138 -0.1115
 1843SOL    HW217163   3.665   3.600   7.223  0.8343 -2.0625  1.2502
 1844SOL     OW17164   2.459   2.981  15.473  0.3852  0.0340  0.2197
 1844SOL    HW117165   2.402   2.925  15.420  1.4970 -1.5016  0.6377
 1844SOL    HW217166   2.411   2.983  15.556 -0.2929 -1.0910 -0.1417
 1845SOL     OW17167   3.104   4.294  14.461 -0.1273 -0.2043 -0.3680
 1845SOL    HW117168   3.080   4.201  14.464  0.6297 -0.3337  1.5450
 1845SOL    HW217169   3.046   4.328  14.529  0.9827 -0.0580  0.4942
 1846SOL     OW17170   0.444   3.920  11.654  0.4118 -0.2506 -0.5950
 1846SOL    HW117171   0.419   3.993  11.711  0.9917 -0.7021  0.2409
 1846SOL    HW217172   0.445   3.960  11.567  1.7472 -1.4992 -1.1381
 1847SOL     OW17173   2.367   1.217   3.332  0.2274  0.2900  0.5289
 1847SOL    HW117174   2.419   1.140   3.354 -1.4199 -1.0263 -0.1286
 1847SOL    HW217175   2.277   1.189   3.348  0.5839 -0.2733  1.5512
 1848SOL     OW17176   2.963   4.283  11.068  0.1040 -0.0775  0.0277
 1848SOL    HW117177   2.999   4.262  10.982  3.1296 -2.1014  1.7753
 1848SOL    HW217178   2.912   4.362  11.050  0.5563  0.1299 -0.3558
 1849SOL     OW17179   3.341   4.713   0.746  0.1167 -0.0430  0.0182
 1849SOL    HW117180   3.267   4.668   0.786 -1.3717  3.0738  0.7475
 1849SOL    HW217181   3.396   4.738   0.821 -0.5132  1.9621 -0.1833
 1850SOL     OW17182   1.228   2.824  11.373  0.9463  0.3670  0.3158
 1850SOL    HW117183   1.185   2.745  11.406  2.2123  0.4119  2.0937
 1850SOL    HW217184   1.262   2.847  11.459 -0.5047  0.6709  0.8128
 1851SOL     OW17185   3.333   3.760  13.361  0.5073  0.5509 -0.5251
 1851SOL    HW117186   3.278   3.685  13.341  2.2033 -0.2672 -2.0410
 1851SOL    HW217187   3.311   3.831  13.300 -2.3410 -1.0491 -1.3656
 1852SOL     OW17188   2.729   2.882   6.468  0.0827 -0.4042 -0.4576
 1852SOL    HW117189   2.701   2.831   6.544 -0.2434  0.5148  0.0319
 1852SOL    HW217190   2.814   2.920   6.488  0.6608 -2.0424  0.2663
 1853SOL     OW17191   3.279   4.277   2.774 -0.6286  0.2439  0.0784
 1853SOL    HW117192   3.284   4.337   2.849  0.8833 -0.3265  0.4251
 1853SOL    HW217193   3.372   4.270   2.755 -1.5683 -2.7717 -3.2937
 1854SOL     OW17194   4.503   2.831   2.909  0.3369  0.6050 -0.0627
 1854SOL    HW117195   4.422   2.882   2.911 -1.6151 -2.4682 -0.0072
 1854SOL    HW217196   4.476   2.766   2.843 -0.2233 -0.1070  0.8747
 1855SOL     OW17197   0.591   3.939   8.571  0.5052 -0.2294 -0.6054
 1855SOL    HW117198   0.564   3.975   8.656 -1.5409 -1.5356 -0.7077
 1855SOL    HW217199   0.510   3.950   8.522  0.4430 -0.5404 -0.5740
 1856SOL     OW17200   0.843   0.829   3.234  0.0647 -0.3376 -0.2995
 1856SOL    HW117201   0.857   0.813   3.327 -1.8678  0.9247  0.1975
 1856SOL    HW217202   0.752   0.856   3.242  0.2485 -0.2985  1.6211
 1857SOL     OW17203   1.405   3.169   6.360 -0.0948  0.1346 -0.7575
 1857SOL    HW117204   1.459   3.096   6.390 -3.5645 -1.8689  0.6091
 1857SOL    HW217205   1.440   3.178   6.271  0.4125  1.0204 -0.4745
 1858SOL     OW17206   0.509   0.571   5.096  0.0106  0.1610 -0.1078
 1858SOL    HW117207   0.521   0.560   5.191 -0.1765 -0.1393 -0.1228
 1858SOL    HW217208   0.424   0.614   5.100 -1.6374 -3.0655 -1.2027
 1859SOL     OW17209   2.239   1.000  11.807  0.3379 -0.3974  0.4715
 1859SOL    HW117210   2.307   0.958  11.859  1.9889  0.7415 -0.7589
 1859SOL    HW217211   2.163   0.965  11.855 -0.1093  0.4644  0.4030
 1860SOL     OW17212   1.237   0.564   3.474 -0.4022 -0.4595  0.8335
 1860SOL    HW117213   1.163   0.576   3.534 -2.6881 -3.1591 -1.4723
 1860SOL    HW217214   1.314   0.570   3.530  1.0586 -0.8886 -1.1319
 1861SOL     OW17215   2.522   0.058   0.803 -0.0636 -0.0356  0.1912
 1861SOL    HW117216   2.499   4.737   0.732 -1.5827  0.7890  0.0013
 1861SOL    HW217217   2.551   4.728   0.863  1.8990 -1.9325 -2.9508
 1862SOL     OW17218   4.483   0.230   6.904 -0.2434  0.3749 -0.0558
 1862SOL    HW117219   4.449   0.141   6.897 -0.6738  0.6069 -0.8916
 1862SOL    HW217220   4.575   0.208   6.889 -0.4931 -1.9228  1.6768
 1863SOL     OW17221   1.536   2.913   6.415 -0.3567 -0.2673 -0.3867
 1863SOL    HW117222   1.494   2.846   6.469  1.8815 -1.2508  0.1167
 1863SOL    HW217223   1.593   2.956   6.478  0.5027  2.0939 -2.7450
 1864SOL     OW17224   3.398   2.285   5.396 -0.5315 -0.3391 -0.0931
 1864SOL    HW117225   3.329   2.241   5.346  0.6081 -0.9704 -1.1114
 1864SOL    HW217226   3.350   2.318   5.472 -3.2155  0.6823 -2.2293
 1865SOL     OW17227   0.264   3.090  11.414  0.1707 -0.0384 -0.3119
 1865SOL    HW117228   0.330   3.146  11.454 -2.0033  1.4758  1.1660
 1865SOL    HW217229   0.228   3.054  11.495  1.2604 -1.0840 -0.2843
 1866SOL     OW17230   4.122   3.021   6.012 -0.1692 -0.0392  0.3182
 1866SOL    HW117231   4.093   2.963   5.942 -0.0055 -0.9492  1.0044
 1866SOL    HW217232   4.126   2.967   6.091  1.8174 -0.0174  0.2111
 1867SOL     OW17233   4.304   3.910   7.185  0.1903 -0.1374  0.6729
 1867SOL    HW117234   4.220   3.899   7.230  0.5052 -0.4739  1.1709
 1867SOL    HW217235   4.318   3.817   7.168 -0.4558 -0.0766 -0.2402
 1868SOL     OW17236   3.523   2.866   6.382 -0.2801 -0.5116 -0.0243
 1868SOL    HW117237   3.442   2.877   6.433  0.7977  2.0647  1.1077
 1868SOL    HW217238   3.503   2.931   6.315 -1.8081 -0.6834  0.2640
 1869SOL     OW17239   0.206   1.604   3.010  0.3111 -0.0991 -0.3147
 1869SOL    HW117240   0.213   1.512   3.036 -0.4191 -0.0646  0.0047
 1869SOL    HW217241   0.245   1.654   3.082 -0.1078  1.4121 -1.1373
 1870SOL     OW17242   3.467   1.950   5.407  0.3430 -0.3019  0.1179
 1870SOL    HW117243   3.377   1.974   5.387  0.5200  0.6263  0.4370
 1870SOL    HW217244   3.522   2.021   5.373  0.9260  0.1667  2.0870
 1871SOL     OW17245   2.408   1.554   1.706 -0.1260  0.6716 -0.0307
 1871SOL    HW117246   2.419   1.507   1.789  2.3693  2.1538  0.4769
 1871SOL    HW217247   2.360   1.630   1.739  1.7446  2.4726 -1.5385
 1872SOL     OW17248   3.845   0.296  12.419 -0.3505 -0.6363  0.7341
 1872SOL    HW117249   3.882   0.333  12.339 -1.8444 -2.4591 -0.8246
 1872SOL    HW217250   3.866   0.362  12.485  1.4878 -0.5003 -0.0147
 1873SOL     OW17251   2.947   3.236  11.560  0.0349 -0.0931 -0.0557
 1873SOL    HW117252   2.897   3.169  11.606 -0.5524 -0.9270 -1.8973
 1873SOL    HW217253   2.874   3.269  11.507 -1.0154 -2.5179 -0.1242
 1874SOL     OW17254   4.091   2.575   6.574  0.3856 -0.2604  0.1420
 1874SOL    HW117255   4.182   2.601   6.591 -0.1494  0.3760  2.0364
 1874SOL    HW217256   4.044   2.657   6.590  0.0869 -0.6957  1.4190
 1875SOL     OW17257   1.457   2.408   4.746  0.3057 -0.3249  0.0663
 1875SOL    HW117258   1.388   2.434   4.685  0.9198  1.6864  0.2216
 1875SOL    HW217259   1.417   2.333   4.790  0.1719  0.2563  0.9330
 1876SOL     OW17260   4.708   1.312   5.710 -0.3686  0.1305  0.2952
 1876SOL    HW117261   4.693   1.404   5.691  1.5678  0.7604  1.8247
 1876SOL    HW217262   4.617   1.289   5.728 -0.8627  2.4800  0.6864
 1877SOL     OW17263   0.390   4.005   2.733 -0.3579  0.0528 -0.4553
 1877SOL    HW117264   0.373   3.949   2.809  1.6547  0.1784  0.0831
 1877SOL    HW217265   0.304   4.008   2.692 -0.3247 -0.0233 -0.5295
 1878SOL     OW17266   0.542   3.209   9.209 -0.1559  0.2832  0.7401
 1878SOL    HW117267   0.561   3.145   9.278  0.9318  0.3966  0.5431
 1878SOL    HW217268   0.541   3.149   9.134  2.1857 -1.1193  1.8188
 1879SOL     OW17269   1.611   4.185   9.545 -0.5329 -0.3626  0.0102
 1879SOL    HW117270   1.585   4.093   9.543  2.2528 -1.1451  0.4513
 1879SOL    HW217271   1.678   4.183   9.614 -0.4338  0.7955 -0.0477
 1880SOL     OW17272   3.258   4.627   3.187 -0.1204 -0.0363 -0.3624
 1880SOL    HW117273   3.213   4.609   3.269 -0.5613  0.4824 -0.4901
 1880SOL    HW217274   3.327   4.681   3.226 -0.8105  0.9484 -0.4972
 1881SOL     OW17275   3.877   3.197   6.725  0.2177 -0.3126 -0.0013
 1881SOL    HW117276   3.820   3.173   6.652 -1.7344 -1.5505  1.9472
 1881SOL    HW217277   3.835   3.272   6.766 -0.0651 -0.5295  0.1067
 1882SOL     OW17278   1.502   1.272  10.864 -0.9384  0.0442 -0.0087
 1882SOL    HW117279   1.443   1.341  10.831  1.2988  1.9955  0.0607
 1882SOL    HW217280   1.494   1.210  10.792  1.7905  1.4881 -1.5751
 1883SOL     OW17281   3.486   3.291   6.088 -0.0712 -0.2105 -0.2964
 1883SOL    HW117282   3.443   3.371   6.118  0.3488  0.0377 -0.3580
 1883SOL    HW217283   3.579   3.303   6.104 -0.0391 -1.0848  0.2014
 1884SOL     OW17284   1.261   2.805  11.664 -0.0025  0.8589 -0.0070
 1884SOL    HW117285   1.239   2.712  11.673  0.4450  0.5394 -2.4229
 1884SOL    HW217286   1.350   2.806  11.698 -0.3612  0.4403  0.9561
 1885SOL     OW17287   3.315   0.597   8.547  0.0156  0.3454  0.3417
 1885SOL    HW117288   3.315   0.560   8.459  1.7692  0.7446  0.1643
 1885SOL    HW217289   3.390   0.543   8.573  1.2596  2.2918  0.8151
 1886SOL     OW17290   1.720   3.657  13.243  0.2872  0.1317  0.1824
 1886SOL    HW117291   1.731   3.566  13.270 -0.4601 -0.3087 -0.9956
 1886SOL    HW217292   1.700   3.708  13.322  2.7790  0.2950  0.6919
 1887SOL     OW17293   2.290   2.629   1.291 -0.1817  0.3785  0.4483
 1887SOL    HW117294   2.348   2.563   1.254 -0.2617  1.1863 -1.1152
 1887SOL    HW217295   2.285   2.696   1.223 -0.1393 -0.0500  0.0278
 1888SOL     OW17296   4.197   1.548   1.091  0.8687  0.5253  0.7103
 1888SOL    HW117297   4.250   1.509   1.022 -0.3034 -1.3884  0.8862
 1888SOL    HW217298   4.110   1.546   1.050  0.4211  1.3233  1.6086
 1889SOL     OW17299   2.216   1.731   9.376 -0.2380  0.2272  0.2146
 1889SOL    HW117300   2.283   1.772   9.431 -0.4288 -0.1995  0.7740
 1889SOL    HW217301   2.147   1.796   9.382 -0.1145  0.3619  0.1764
 1890SOL     OW17302   4.349   2.177   6.471  0.4915 -0.3062  0.2699
 1890SOL    HW117303   4.389   2.130   6.544 -0.9695 -2.8717 -0.5905
 1890SOL    HW217304   4.315   2.256   6.514  0.4247 -0.1510 -0.0701
 1891SOL     OW17305   2.298   2.488   0.639 -0.0597 -0.1279 -0.1053
 1891SOL    HW117306   2.210   2.451   0.638 -0.6168  1.2860 -3.0800
 1891SOL    HW217307   2.350   2.415   0.674 -0.9721 -0.5205  0.4232
 1892SOL     OW17308   4.289   3.044   8.858  0.2775 -0.4168  0.7934
 1892SOL    HW117309   4.256   3.068   8.944  0.8056 -1.0328  1.1712
 1892SOL    HW217310   4.207   3.018   8.817 -1.0437  1.9114  1.9498
 1893SOL     OW17311   4.318   2.344   6.957 -0.2364 -0.5644 -0.3326
 1893SOL    HW117312   4.356   2.259   6.932  2.1010  0.3545  0.0543
 1893SOL    HW217313   4.394   2.403   6.952 -0.7414  0.0520 -0.6746
 1894SOL     OW17314   3.344   0.682   5.884 -0.2346  0.0438 -0.3798
 1894SOL    HW117315   3.330   0.771   5.916 -0.9558 -0.7003  1.4088
 1894SOL    HW217316   3.381   0.641   5.962  0.2343  0.0841 -0.5832
 1895SOL     OW17317   4.637   3.037   4.004 -0.4741 -0.1297  0.4476
 1895SOL    HW117318   4.570   3.094   3.966 -0.8804 -2.4115 -2.2750
 1895SOL    HW217319   4.711   3.054   3.946 -1.1329  0.3091 -0.2674
 1896SOL     OW17320   0.815   3.884  12.011 -0.3055 -0.1652  0.3808
 1896SOL    HW117321   0.739   3.839  12.048  0.6039  0.4489  3.0376
 1896SOL    HW217322   0.769   3.965  11.989  0.6468  0.7098  1.6083
 1897SOL     OW17323   3.717   2.992   6.505  0.1208 -0.5904  0.3038
 1897SOL    HW117324   3.763   3.002   6.422 -2.4645  0.8751 -0.9385
 1897SOL    HW217325   3.642   2.939   6.479 -0.6474  0.6553 -0.0074
 1898SOL     OW17326   3.612   1.588   5.620  0.0871  0.3872  0.3260
 1898SOL    HW117327   3.635   1.500   5.648 -0.4487  1.2146  3.3270
 1898SOL    HW217328   3.671   1.644   5.670  0.0439 -0.8512  1.7552
 1899SOL     OW17329   3.458   1.873   5.994 -0.5151 -0.1686 -0.0491
 1899SOL    HW117330   3.365   1.869   6.017 -0.4678  0.7819  0.3034
 1899SOL    HW217331   3.471   1.781   6.018 -0.9967 -0.8777 -2.4194
 1900SOL     OW17332   4.299   0.414   3.709  0.6986 -0.3042  0.2556
 1900SOL    HW117333   4.303   0.461   3.793  0.1129  0.2180 -0.0060
 1900SOL    HW217334   4.208   0.387   3.708  0.5025  0.3889 -2.3579
 1901SOL     OW17335   1.887   1.131  10.578 -0.7666 -0.0505 -0.1549
 1901SOL    HW117336   1.892   1.049  10.628 -0.8339  0.9742  1.5528
 1901SOL    HW217337   1.959   1.176  10.621  0.9343 -1.2046 -1.8106
 1902SOL     OW17338   3.443   2.404   2.844  0.2641 -0.3036  0.7148
 1902SOL    HW117339   3.351   2.400   2.867  0.0119 -3.1936 -0.8180
 1902SOL    HW217340   3.480   2.472   2.901 -2.1508  1.5265  0.1150
 1903SOL     OW17341   0.997   2.446   4.004 -0.0828 -0.2529 -0.0971
 1903SOL    HW117342   0.946   2.503   3.948  1.9620  0.9219 -0.7678
 1903SOL    HW217343   0.930   2.382   4.027 -0.5159 -0.3578 -1.6301
 1904SOL     OW17344   1.584   0.527   2.329  0.3020  0.1546 -0.5567
 1904SOL    HW117345   1.553   0.541   2.239 -1.4281 -2.4177 -0.3814
 1904SOL    HW217346   1.600   0.616   2.359 -5.2958  0.8855  0.2569
 1905SOL     OW17347   4.277   3.123  10.517 -0.2601 -0.2504  0.4034
 1905SOL    HW117348   4.310   3.053  10.573 -1.4051  0.8726  2.4797
 1905SOL    HW217349   4.240   3.165  10.595  0.2327  0.2981  0.3360
 1906SOL     OW17350   1.671   1.898   8.695 -0.2802 -0.1309  0.0274
 1906SOL    HW117351   1.714   1.814   8.711 -0.1901 -0.3371 -1.2595
 1906SOL    HW217352   1.741   1.961   8.710  0.6358 -0.9338 -0.8041
 1907SOL     OW17353   1.518   3.893   1.687 -0.8171 -0.6688  0.1603
 1907SOL    HW117354   1.511   3.978   1.644 -3.2496 -1.0564 -0.2237
 1907SOL    HW217355   1.608   3.873   1.663 -1.0219 -1.3946 -0.0228
 1908SOL     OW17356   3.942   4.419  10.778  0.1034 -0.3318 -0.3623
 1908SOL    HW117357   3.914   4.378  10.860  3.4392  0.0796  0.9529
 1908SOL    HW217358   3.855   4.416  10.737  0.9696 -2.7126 -2.0147
 1909SOL     OW17359   2.494   3.473  10.187 -0.1681 -0.3781  0.0473
 1909SOL    HW117360   2.414   3.511  10.224 -1.7312 -0.2865 -3.3763
 1909SOL    HW217361   2.466   3.389  10.151 -1.1583 -0.7330  1.6313
 1910SOL     OW17362   0.184   3.388   2.171  0.4550 -0.5285 -0.3051
 1910SOL    HW117363   0.243   3.431   2.109 -0.6441  0.2566 -0.8096
 1910SOL    HW217364   0.249   3.360   2.236  0.8785 -0.5819 -0.7577
 1911SOL     OW17365   0.145   3.935  13.352 -0.2969  0.0656 -0.1920
 1911SOL    HW117366   0.088   3.884  13.409 -0.5835 -0.5539 -1.0334
 1911SOL    HW217367   0.156   4.019  13.396  0.2222 -0.1845  0.1646
 1912SOL     OW17368   2.516   0.554   5.227 -0.8243  0.5024 -0.5408
 1912SOL    HW117369   2.463   0.474   5.233 -0.2852  0.2003  0.3211
 1912SOL    HW217370   2.475   0.591   5.149 -1.0306  2.3895  0.4596
 1913SOL     OW17371   3.691   1.781   2.155 -0.2859 -0.0100  0.4661
 1913SOL    HW117372   3.616   1.757   2.100  0.6471 -1.2078 -0.2809
 1913SOL    HW217373   3.742   1.850   2.113 -1.7294  1.1357  0.5918
 1914SOL     OW17374   0.695   2.710   4.080 -0.3068  0.6511  0.6021
 1914SOL    HW117375   0.602   2.733   4.075 -0.2447  0.4588 -1.6209
 1914SOL    HW217376   0.684   2.616   4.091  1.7685  0.4927  1.1392
 1915SOL     OW17377   3.489   3.127   2.283 -0.2511  0.0494 -0.6470
 1915SOL    HW117378   3.482   3.165   2.370  3.3822 -0.8667  0.0428
 1915SOL    HW217379   3.429   3.053   2.292 -0.3676 -0.0075 -1.9057
 1916SOL     OW17380   0.458   4.457   8.897  0.3229  0.4901 -0.4333
 1916SOL    HW117381   0.391   4.494   8.840 -1.6713  0.5348  1.9784
 1916SOL    HW217382   0.420   4.373   8.920 -1.2739  0.4720 -3.1677
 1917SOL     OW17383   3.093   2.922   0.845  0.5765 -0.1414 -0.1885
 1917SOL    HW117384   3.154   2.852   0.869 -1.0667 -2.4067 -2.5611
 1917SOL    HW217385   3.023   2.895   0.904  1.1903  0.5923  0.8650
 1918SOL     OW17386   2.846   3.655  11.360  0.0485  0.7211 -0.5945
 1918SOL    HW117387   2.754   3.683  11.361  0.1987  1.2637 -2.6119
 1918SOL    HW217388   2.890   3.714  11.299 -0.0433 -0.7906 -2.0902
 1919SOL     OW17389   1.945   2.579   1.533  0.2347  0.4753 -0.3556
 1919SOL    HW117390   2.027   2.621   1.558  0.5439 -0.9057  0.9806
 1919SOL    HW217391   1.960   2.549   1.443  0.5288 -0.1120 -0.1162
 1920SOL     OW17392   1.109   1.559  11.009 -0.0376  0.0836 -0.0357
 1920SOL    HW117393   1.093   1.653  11.003 -0.8724 -0.1158 -0.8241
 1920SOL    HW217394   1.193   1.556  11.056  0.3977  1.5442 -0.7247
 1921SOL     OW17395   3.322   0.303   3.871 -0.3053 -0.5629 -0.3556
 1921SOL    HW117396   3.273   0.361   3.929 -0.1421  0.1747 -0.9458
 1921SOL    HW217397   3.400   0.278   3.920  1.0575  3.2096 -0.5635
 1922SOL     OW17398   3.355   3.588  11.134 -0.1127  0.1352  0.3980
 1922SOL    HW117399   3.313   3.533  11.068 -1.5962  1.6005  0.1097
 1922SOL    HW217400   3.416   3.638  11.080  0.1462 -0.4156  0.1770
 1923SOL     OW17401   1.809   2.037   6.756 -0.1150 -0.1243  0.6047
 1923SOL    HW117402   1.867   1.971   6.717 -2.4762 -1.4257 -0.6538
 1923SOL    HW217403   1.841   2.020   6.844  0.1157 -0.2740  0.4942
 1924SOL     OW17404   3.240   2.496   7.036 -0.8012 -0.0014 -0.0597
 1924SOL    HW117405   3.256   2.469   6.945  0.5123  2.8678 -0.6844
 1924SOL    HW217406   3.188   2.577   7.032 -0.7159  0.1435  1.9246
 1925SOL     OW17407   1.307   4.192  10.594 -0.3490  0.0410  0.0164
 1925SOL    HW117408   1.237   4.252  10.569 -0.7764 -0.8335 -0.9055
 1925SOL    HW217409   1.377   4.247  10.558 -0.9587  1.7935  1.5377
 1926SOL     OW17410   3.060   0.157   1.213 -0.2413  0.5820 -0.0482
 1926SOL    HW117411   3.102   0.083   1.169  0.7089 -1.2579  4.0068
 1926SOL    HW217412   2.988   0.117   1.263  1.8079 -2.2398  0.6623
 1927SOL     OW17413   4.729   2.376   9.077  0.0212 -0.2386  0.0381
 1927SOL    HW117414   4.661   2.361   9.143 -0.2348 -1.2825 -0.4555
 1927SOL    HW217415   4.718   2.471   9.071  1.0952 -0.0974  0.4566
 1928SOL     OW17416   3.004   3.679   4.906 -0.2474  0.2931 -0.1007
 1928SOL    HW117417   2.952   3.603   4.934  0.5351 -0.3686 -0.4376
 1928SOL    HW217418   2.985   3.676   4.812 -0.8281 -1.4577  0.0561
 1929SOL     OW17419   2.007   2.978   8.946 -0.2089  0.5244 -0.2574
 1929SOL    HW117420   2.049   3.055   8.985 -0.1373  0.4818 -0.2501
 1929SOL    HW217421   1.939   3.015   8.889  1.1275 -0.9243 -2.8320
 1930SOL     OW17422   3.019   0.507   7.654  0.1962  0.3021  0.0016
 1930SOL    HW117423   3.006   0.444   7.726  0.0668 -2.0491 -2.0624
 1930SOL    HW217424   2.946   0.565   7.675 -0.1144 -0.1765  0.2617
 1931SOL     OW17425   2.640   2.138   2.076  0.3898 -0.3345 -0.2446
 1931SOL    HW117426   2.670   2.196   2.007  3.1261 -0.2546  1.0084
 1931SOL    HW217427   2.560   2.187   2.097  1.5573  0.2384  3.0061
 1932SOL     OW17428   3.403   1.707   8.986  0.0338  0.0908  0.6954
 1932SOL    HW117429   3.391   1.762   8.908 -0.8086  0.4231  1.0583
 1932SOL    HW217430   3.403   1.620   8.947 -0.2699  0.1757  0.5087
 1933SOL     OW17431   1.463   3.673   0.734 -0.0139 -0.2075  0.2598
 1933SOL    HW117432   1.543   3.717   0.762 -1.0773  1.8540  0.0852
 1933SOL    HW217433   1.488   3.588   0.770 -0.2365 -1.3001 -2.1505
 1934SOL     OW17434   1.244   3.871   8.226  0.4377  0.2840  0.9062
 1934SOL    HW117435   1.168   3.857   8.281  0.9564  2.1393  2.0928
 1934SOL    HW217436   1.317   3.820   8.263  0.4680  0.1348  0.6443
 1935SOL     OW17437   4.390   4.410   5.265 -0.0262 -0.1580  0.4176
 1935SOL    HW117438   4.436   4.354   5.203 -1.2996 -2.8495  1.9209
 1935SOL    HW217439   4.402   4.493   5.219 -0.8726  0.4205  1.2365
 1936SOL     OW17440   4.363   4.698   3.454  0.4093 -0.4717 -0.5376
 1936SOL    HW117441   4.291   4.687   3.392 -0.3708 -0.4844  0.3646
 1936SOL    HW217442   4.369   0.051   3.479  0.6191 -0.6408  0.0568
 1937SOL     OW17443   1.001   2.588  13.068 -0.4540 -0.5627  0.1042
 1937SOL    HW117444   1.064   2.530  13.023 -0.8118  0.3691 -1.6049
 1937SOL    HW217445   1.059   2.650  13.111 -0.5337 -0.4824  0.0953
 1938SOL     OW17446   3.487   2.463   4.867 -0.3223 -0.7451  0.5842
 1938SOL    HW117447   3.430   2.540   4.860 -1.9562 -1.9828  0.2457
 1938SOL    HW217448   3.455   2.416   4.790  0.8280 -0.0082 -0.3440
 1939SOL     OW17449   2.297   1.655   8.606 -0.3436 -0.3586  0.4405
 1939SOL    HW117450   2.313   1.687   8.695 -0.5842 -0.5557  0.5549
 1939SOL    HW217451   2.319   1.563   8.622  3.3734 -0.0544 -2.9019
 1940SOL     OW17452   4.481   2.206   2.382  0.1447 -0.1640  0.1514
 1940SOL    HW117453   4.575   2.196   2.396 -0.2616 -0.8891  2.2739
 1940SOL    HW217454   4.470   2.128   2.328 -0.1918 -0.0493  0.0501
 1941SOL     OW17455   0.655   3.843   6.714  0.2404 -0.1440  0.2287
 1941SOL    HW117456   0.716   3.769   6.709  0.6099  0.1449  0.4658
 1941SOL    HW217457   0.584   3.808   6.768 -0.5204 -1.8225 -1.8581
 1942SOL     OW17458   3.850   0.547   6.998  0.7220  0.0600  0.5008
 1942SOL    HW117459   3.768   0.557   6.950  0.5414 -0.2081  0.7551
 1942SOL    HW217460   3.890   0.634   6.990  0.9202 -0.0784 -0.0170
 1943SOL     OW17461   0.413   0.937   2.842  0.1266 -0.3714  0.3397
 1943SOL    HW117462   0.494   0.887   2.843 -0.4424 -1.3398 -1.0595
 1943SOL    HW217463   0.392   0.936   2.748  1.3730  0.0030  0.0609
 1944SOL     OW17464   4.069   1.203   6.615  0.3059  0.2680  0.1660
 1944SOL    HW117465   4.082   1.297   6.599 -1.1270  0.7436  1.8302
 1944SOL    HW217466   3.995   1.200   6.676  0.5128 -1.0261  0.3553
 1945SOL     OW17467   2.738   1.430   3.673  0.2828  0.6958 -0.3453
 1945SOL    HW117468   2.743   1.522   3.700  2.0098  1.5074 -3.3914
 1945SOL    HW217469   2.826   1.413   3.638  0.5746  0.6582  0.3906
 1946SOL     OW17470   2.174   2.039   5.436  0.2352 -0.8156  0.3743
 1946SOL    HW117471   2.213   2.053   5.522 -0.8523  2.0236  0.3976
 1946SOL    HW217472   2.171   2.130   5.405  0.6726 -1.1573 -0.7010
 1947SOL     OW17473   3.873   4.064   5.826 -0.0845 -0.3541 -0.0921
 1947SOL    HW117474   3.889   4.074   5.919 -2.1344  1.6006  0.0475
 1947SOL    HW217475   3.918   4.141   5.791 -0.5932  0.5739  1.3409
 1948SOL     OW17476   2.603   0.808   2.415  0.3929 -0.7153 -0.5101
 1948SOL    HW117477   2.639   0.734   2.367 -0.0456 -0.6931 -0.8754
 1948SOL    HW217478   2.667   0.879   2.421 -0.7472  0.1617  1.2918
 1949SOL     OW17479   0.645   0.138  11.941  0.0547  0.5981 -0.4382
 1949SOL    HW117480   0.664   0.169  11.852 -2.5885  0.1383 -1.1768
 1949SOL    HW217481   0.598   0.056  11.925  1.7587 -0.3534 -0.5209
 1950SOL     OW17482   1.899   4.261  14.954 -0.3043 -0.0161  0.5774
 1950SOL    HW117483   1.901   4.229  14.863  1.3261  2.1214 -0.1146
 1950SOL    HW217484   1.862   4.349  14.947  0.3874  0.1718 -0.7027
 1951SOL     OW17485   4.670   4.697   5.610  0.4071  0.3858 -0.2225
 1951SOL    HW117486   4.692   4.622   5.554 -0.4613  0.2271 -0.3500
 1951SOL    HW217487   4.576   4.703   5.592  0.1388 -0.5190  0.8949
 1952SOL     OW17488   4.370   3.352   9.068  0.3488  0.6025 -0.6287
 1952SOL    HW117489   4.277   3.376   9.066 -0.4940 -2.7099 -1.3386
 1952SOL    HW217490   4.408   3.439   9.055  0.3506  0.6682 -0.1636
 1953SOL     OW17491   4.413   4.596   7.858  0.2940  0.1735 -0.0627
 1953SOL    HW117492   4.415   4.530   7.789 -1.6941 -0.7501  0.7473
 1953SOL    HW217493   4.356   4.560   7.926 -0.0411  0.1123 -0.3784
 1954SOL     OW17494   3.456   4.660   2.760  0.0736  0.1673 -0.2157
 1954SOL    HW117495   3.395   4.642   2.688  1.5795 -0.3744 -1.3716
 1954SOL    HW217496   3.502   4.577   2.748  0.3321  0.3266 -0.3391
 1955SOL     OW17497   1.676   0.914   7.503  0.5799  0.4594 -0.2048
 1955SOL    HW117498   1.604   0.975   7.486  0.6484  0.8088  0.7538
 1955SOL    HW217499   1.633   0.829   7.494  0.3247  0.7795 -1.8933
 1956SOL     OW17500   3.961   1.553   2.495  0.8162  0.4169  0.2936
 1956SOL    HW117501   3.977   1.547   2.589  2.2995 -0.8535 -0.0386
 1956SOL    HW217502   3.897   1.624   2.499  1.0945  0.8314 -2.4849
 1957SOL     OW17503   2.414   1.464   0.779 -0.2580  0.3821  0.2400
 1957SOL    HW117504   2.334   1.516   0.783 -0.2084  0.4745  0.0297
 1957SOL    HW217505   2.463   1.499   0.854 -2.0707 -0.5864  1.8620
 1958SOL     OW17506   3.922   0.389   4.157 -0.0904 -0.5215  0.0295
 1958SOL    HW117507   3.927   0.379   4.252 -1.1795  0.9679  0.2416
 1958SOL    HW217508   3.831   0.360   4.149 -0.3599  0.4094 -0.2641
 1959SOL     OW17509   2.110   1.879  11.879 -0.0729 -0.4452  0.1809
 1959SOL    HW117510   2.135   1.793  11.845 -1.1952 -0.2410 -1.1654
 1959SOL    HW217511   2.192   1.919  11.905  0.6888 -0.4813 -2.2044
 1960SOL     OW17512   0.813   1.527   9.104  0.2661  0.5287  0.2575
 1960SOL    HW117513   0.889   1.575   9.072  2.1351 -2.3735  0.2981
 1960SOL    HW217514   0.749   1.594   9.125 -1.1460 -0.0271 -2.2245
 1961SOL     OW17515   0.990   2.405   0.308  0.6308 -0.2629  0.1317
 1961SOL    HW117516   1.084   2.402   0.291  0.0978 -1.8562 -2.5507
 1961SOL    HW217517   0.949   2.465   0.246  2.2351  0.6892  0.0043
 1962SOL     OW17518   2.349   0.364   5.618  0.5406 -0.5211  0.2175
 1962SOL    HW117519   2.353   0.287   5.562 -0.7377 -0.3012 -0.1897
 1962SOL    HW217520   2.443   0.377   5.624  0.4822 -0.8003  1.6796
 1963SOL     OW17521   0.701   1.166  13.822 -0.2853 -0.6662  0.8964
 1963SOL    HW117522   0.674   1.090  13.771 -0.1147 -0.4115  0.4279
 1963SOL    HW217523   0.783   1.126  13.850  0.8857  1.1929  0.1384
 1964SOL     OW17524   3.000   3.313   8.030  0.7664  0.0484 -0.3000
 1964SOL    HW117525   2.918   3.296   8.076 -0.0664 -0.0948 -1.8321
 1964SOL    HW217526   3.025   3.398   8.066 -0.9982  0.9603 -1.2232
 1965SOL     OW17527   4.306   2.622   0.846  0.6283  0.7260 -0.4536
 1965SOL    HW117528   4.368   2.683   0.808 -0.9164  2.7972  0.3275
 1965SOL    HW217529   4.366   2.549   0.863 -1.0172 -1.1759 -2.7258
 1966SOL     OW17530   1.816   1.414   1.435  0.3131  0.5167  0.2909
 1966SOL    HW117531   1.731   1.396   1.475 -0.1823  0.0779 -0.9403
 1966SOL    HW217532   1.870   1.352   1.485  0.5485  0.5154  0.0323
 1967SOL     OW17533   1.061   2.706   9.533 -0.3184  0.1327 -0.3082
 1967SOL    HW117534   1.114   2.763   9.477  0.0502 -0.4108 -0.5115
 1967SOL    HW217535   0.984   2.703   9.477 -0.3120  0.4135 -0.3339
 1968SOL     OW17536   2.769   1.020  13.856  0.5354  0.4759  0.2359
 1968SOL    HW117537   2.846   1.017  13.800 -0.6432 -1.6614 -1.2717
 1968SOL    HW217538   2.705   1.050  13.791  0.5252  1.3231  0.6322
 1969SOL     OW17539   2.252   0.120   1.371  0.2140 -0.4517  0.2396
 1969SOL    HW117540   2.231   0.077   1.288 -0.3621 -0.5413  0.4327
 1969SOL    HW217541   2.194   0.062   1.420 -0.7172 -0.2248 -0.5862
 1970SOL     OW17542   1.557   3.384  16.067  0.0782 -0.4321 -0.9805
 1970SOL    HW117543   1.616   3.453  16.036 -0.5298  0.9573  1.0063
 1970SOL    HW217544   1.617   3.342  16.127  0.5425  2.5058  0.6086
 1971SOL     OW17545   1.526   4.476   1.470  0.0197 -0.0444 -0.5969
 1971SOL    HW117546   1.509   4.483   1.564  0.3957  0.3003 -0.5554
 1971SOL    HW217547   1.607   4.427   1.457  0.0909  0.0524 -0.5227
 1972SOL     OW17548   0.376   4.217   9.075 -0.2460 -0.2865 -0.0887
 1972SOL    HW117549   0.459   4.253   9.106  0.5147 -1.1115 -1.1716
 1972SOL    HW217550   0.406   4.132   9.043  0.1785 -0.6026  1.1372
 1973SOL     OW17551   4.038   0.280   3.736 -0.2896  0.3065 -0.1601
 1973SOL    HW117552   3.971   0.338   3.772  0.3992  0.5263  0.7731
 1973SOL    HW217553   4.008   0.261   3.647 -2.2822  2.2844  0.0859
 1974SOL     OW17554   2.874   4.263   8.100 -0.4117  0.2233 -0.6252
 1974SOL    HW117555   2.820   4.341   8.111 -1.1617 -0.0451 -2.3291
 1974SOL    HW217556   2.906   4.245   8.188 -2.1336  0.4942  0.0615
 1975SOL     OW17557   1.349   3.793   7.297  0.1466 -0.6279 -0.1885
 1975SOL    HW117558   1.376   3.861   7.359  1.4604 -0.4858 -0.9174
 1975SOL    HW217559   1.290   3.842   7.240  1.9565 -0.8997 -2.2918
 1976SOL     OW17560   4.733   3.338   3.151  0.6974  0.3774 -0.1364
 1976SOL    HW117561   4.681   3.301   3.222  0.9178 -1.8761 -1.1214
 1976SOL    HW217562   4.702   3.427   3.166 -2.4521 -0.8398  0.5673
 1977SOL     OW17563   0.902   3.401  10.557 -0.6268 -0.0334  0.0014
 1977SOL    HW117564   0.829   3.385  10.617 -1.9639 -1.8961 -2.1114
 1977SOL    HW217565   0.971   3.371  10.617 -0.5683  2.4327  1.1476
 1978SOL     OW17566   1.578   4.600   8.318 -0.7133  0.2703  0.2282
 1978SOL    HW117567   1.564   4.583   8.412 -2.7577 -1.4068 -0.3923
 1978SOL    HW217568   1.577   4.696   8.324 -1.6913  0.2696  0.0468
 1979SOL     OW17569   0.971   2.754  15.805 -0.0577  0.4152 -0.0768
 1979SOL    HW117570   1.036   2.811  15.763 -1.0859  0.0793 -2.0950
 1979SOL    HW217571   0.908   2.821  15.833 -0.4047  0.0850 -0.0748
 1980SOL     OW17572   2.678   3.857  14.320  0.4255  1.0742 -0.2739
 1980SOL    HW117573   2.622   3.933  14.335 -1.2448  0.4863 -3.5873
 1980SOL    HW217574   2.650   3.817  14.238 -0.6612 -1.2574  1.2274
 1981SOL     OW17575   4.038   3.823   6.075 -0.7958  0.1111  0.1209
 1981SOL    HW117576   4.062   3.914   6.058  0.0104 -0.2881 -0.8987
 1981SOL    HW217577   4.115   3.777   6.040 -0.0725  0.4672  1.2471
 1982SOL     OW17578   3.562   2.358   1.996  0.4785 -0.0339 -0.0298
 1982SOL    HW117579   3.640   2.413   1.993  1.6600 -1.6996  0.2830
 1982SOL    HW217580   3.587   2.300   1.924 -1.0098 -0.8455  0.1139
 1983SOL     OW17581   2.993   1.529  15.015  0.2679 -0.1852 -0.2596
 1983SOL    HW117582   3.006   1.573  14.931  3.5371  0.2000  0.4267
 1983SOL    HW217583   3.075   1.481  15.025 -0.4238 -1.1852  0.5478
 1984SOL     OW17584   1.365   2.677  15.191 -0.4162  0.2839 -0.0116
 1984SOL    HW117585   1.422   2.693  15.266  0.0029  1.5447 -0.6067
 1984SOL    HW217586   1.278   2.673  15.229 -0.9863 -0.9368 -1.4245
 1985SOL     OW17587   1.623   4.408  17.512 -0.4854 -0.6873  0.3078
 1985SOL    HW117588   1.578   4.429  17.430 -0.7977 -1.9653  0.1531
 1985SOL    HW217589   1.634   4.313  17.518  1.5122 -0.3141  2.5551
 1986SOL     OW17590   4.022   3.859   3.700  0.1200 -0.3958  0.0562
 1986SOL    HW117591   4.099   3.814   3.737  0.8007 -1.2903 -2.4492
 1986SOL    HW217592   4.064   3.942   3.677  0.8645 -0.1019  2.3998
 1987SOL     OW17593   2.758   0.839   1.966 -0.2286 -0.3305  0.3559
 1987SOL    HW117594   2.697   0.819   2.037 -1.8993 -2.7154 -1.7887
 1987SOL    HW217595   2.816   0.763   1.964  2.9320  2.0361  0.4501
 1988SOL     OW17596   4.283   0.647   3.017 -0.2234  0.0109 -0.0412
 1988SOL    HW117597   4.241   0.603   3.091 -0.6043  2.2234  1.0276
 1988SOL    HW217598   4.209   0.702   2.991 -0.4024 -0.2775 -0.1466
 1989SOL     OW17599   2.854   4.080   4.189  0.1990 -0.3729 -0.1173
 1989SOL    HW117600   2.886   4.003   4.235  0.4252 -1.9460 -2.9096
 1989SOL    HW217601   2.798   4.124   4.253  0.6602 -2.1534  1.4838
 1990SOL     OW17602   2.716   4.221  12.019  0.1055 -0.2641 -0.5644
 1990SOL    HW117603   2.680   4.272  11.947  1.1024 -0.8393 -1.4759
 1990SOL    HW217604   2.677   4.135  12.006  1.4501 -0.5597 -2.7207
 1991SOL     OW17605   4.643   4.483   3.686  0.4623  0.0489 -0.5764
 1991SOL    HW117606   4.550   4.478   3.708  0.7348 -2.7872 -0.0049
 1991SOL    HW217607   4.645   4.578   3.681  1.7883  0.0163 -0.8783
 1992SOL     OW17608   3.276   2.937   3.896 -0.1380  0.1437 -0.5033
 1992SOL    HW117609   3.306   2.919   3.807  2.4301 -0.2997  0.4712
 1992SOL    HW217610   3.233   2.855   3.919 -0.5663  0.5980  0.3447
 1993SOL     OW17611   1.861   3.420  12.651  1.1942 -0.6283 -0.3305
 1993SOL    HW117612   1.768   3.428  12.674  1.9539  0.3793  2.2854
 1993SOL    HW217613   1.868   3.514  12.636 -0.3595 -0.1877  1.7089
 1994SOL     OW17614   3.436   0.142   8.376 -0.2264  0.5567 -0.6798
 1994SOL    HW117615   3.348   0.107   8.391  0.2474 -0.4211 -0.1761
 1994SOL    HW217616   3.482   0.078   8.431  1.9960  1.0037 -2.0203
 1995SOL     OW17617   0.893   3.569   5.656  0.1371  0.5056 -0.0756
 1995SOL    HW117618   0.953   3.628   5.610  1.0925 -0.7409 -0.4271
 1995SOL    HW217619   0.949   3.538   5.727 -0.9056  1.8256  1.3290
 1996SOL     OW17620   1.885   4.480   8.899  0.0269 -0.4787  0.4131
 1996SOL    HW117621   1.885   4.534   8.978 -0.4714  2.6597 -1.7221
 1996SOL    HW217622   1.820   4.411   8.917 -1.9556  1.3129  0.1261
 1997SOL     OW17623   0.153   3.149   9.297  0.3786  0.1145 -0.2788
 1997SOL    HW117624   0.237   3.108   9.277  1.0793  0.2440  2.3919
 1997SOL    HW217625   0.120   3.182   9.214 -1.5180  3.0444  1.6133
 1998SOL     OW17626   0.588   4.710   2.918 -0.4561 -0.3518  0.3893
 1998SOL    HW117627   0.676   4.708   2.880 -2.0521  1.9792 -3.3395
 1998SOL    HW217628   0.613   0.001   3.005  0.9505  1.2040 -0.5537
 1999SOL     OW17629   4.693   2.496   3.183  0.3925  0.1646  0.1539
 1999SOL    HW117630   4.617   2.438   3.188 -1.3177  2.4776  0.9098
 1999SOL    HW217631   4.688   2.521   3.091 -0.4183 -1.0031 -0.1086
 2000SOL     OW17632   3.085   1.108   6.030 -0.4471  0.2425 -0.4158
 2000SOL    HW117633   3.023   1.112   5.957  0.8631  1.1058 -1.4805
 2000SOL    HW217634   3.156   1.059   5.987  0.2138 -0.1922  1.1405
 2001SOL     OW17635   2.145   3.940  14.355  0.0309  0.3954 -0.2916
 2001SOL    HW117636   2.143   3.976  14.443  1.6979 -1.2548  0.4135
 2001SOL    HW217637   2.136   3.846  14.369 -0.8320  0.4337 -0.5524
 2002SOL     OW17638   2.649   1.727  14.870  0.1790 -0.5214 -0.0122
 2002SOL    HW117639   2.670   1.648  14.820 -0.9549 -1.9062  1.7016
 2002SOL    HW217640   2.557   1.744  14.850  0.2605  0.5496  0.5382
 2003SOL     OW17641   0.272   2.587  17.626  0.7628  0.6259 -0.4722
 2003SOL    HW117642   0.268   2.517  17.691 -0.4531  1.4295  0.3011
 2003SOL    HW217643   0.189   2.634  17.638  0.4452  0.5919 -2.4048
 2004SOL     OW17644   1.258   3.519  10.634 -0.3384  0.0167  0.2478
 2004SOL    HW117645   1.263   3.460  10.710 -2.0578 -0.6091 -0.1022
 2004SOL    HW217646   1.253   3.603  10.680 -0.5499  0.2624 -0.2243
 2005SOL     OW17647   3.052   3.198   1.080  0.8677 -0.0128 -0.5757
 2005SOL    HW117648   3.102   3.273   1.049 -1.0210  1.4677 -0.0736
 2005SOL    HW217649   3.121   3.149   1.124 -1.6955 -2.2251  1.0277
 2006SOL     OW17650   1.618   0.467   0.971  0.1563  0.4395 -0.0002
 2006SOL    HW117651   1.653   0.452   0.883 -0.6521 -2.4217  0.1726
 2006SOL    HW217652   1.528   0.499   0.961 -0.1208 -0.3471  0.0443
 2007SOL     OW17653   2.500   4.457  11.447 -0.2550 -0.2741  0.0883
 2007SOL    HW117654   2.583   4.409  11.451  0.0641  0.1516 -1.4871
 2007SOL    HW217655   2.466   4.420  11.366 -2.8221  1.3739  0.4178
 2008SOL     OW17656   1.297   3.321   6.549 -0.4743 -0.0764 -0.1417
 2008SOL    HW117657   1.317   3.410   6.518 -1.4427 -0.0296 -0.6152
 2008SOL    HW217658   1.319   3.266   6.474  0.3830  0.0472  0.0183
 2009SOL     OW17659   3.712   4.172   2.804 -0.1040  0.3305  0.1209
 2009SOL    HW117660   3.772   4.148   2.875  1.7743 -0.4227 -1.7084
 2009SOL    HW217661   3.652   4.098   2.809  0.0539  0.2518  0.8299
 2010SOL     OW17662   2.338   0.398   2.354 -0.4045 -0.8349 -0.0348
 2010SOL    HW117663   2.302   0.315   2.385 -0.9117 -0.9720 -1.0159
 2010SOL    HW217664   2.312   0.399   2.262 -0.6979  0.0334  0.0583
 2011SOL     OW17665   3.861   0.909   2.514 -0.2965  0.0994 -0.4061
 2011SOL    HW117666   3.770   0.884   2.499 -0.0074 -0.9057 -0.4968
 2011SOL    HW217667   3.892   0.847   2.580 -1.0182  2.5697  2.2595
 2012SOL     OW17668   0.468   0.940  10.184 -0.9011 -0.7924 -0.3828
 2012SOL    HW117669   0.482   0.888  10.263  2.4826  0.7893  0.0878
 2012SOL    HW217670   0.554   0.950  10.142 -2.7612  1.1656 -3.7360
 2013SOL     OW17671   3.865   4.593   5.843 -0.1969 -0.1256  0.1860
 2013SOL    HW117672   3.929   4.562   5.907 -1.7738  0.2455  1.9104
 2013SOL    HW217673   3.894   4.682   5.821 -0.6660  0.2621  1.1636
 2014SOL     OW17674   0.567   3.522   5.212  0.0768  0.3299  1.0116
 2014SOL    HW117675   0.543   3.576   5.137 -0.3360 -0.3291  0.6754
 2014SOL    HW217676   0.660   3.539   5.222  0.1010  0.5787  0.3712
 2015SOL     OW17677   1.177   1.444  11.667  0.0968  0.7435  0.1554
 2015SOL    HW117678   1.133   1.492  11.737 -1.6632 -2.9532  1.5794
 2015SOL    HW217679   1.148   1.353  11.668 -0.7393  0.9876 -2.1569
 2016SOL     OW17680   2.471   2.638  11.293 -1.0848  0.0731 -0.1205
 2016SOL    HW117681   2.385   2.672  11.316 -0.8085  0.2209  0.6857
 2016SOL    HW217682   2.484   2.573  11.363 -2.0738  0.2124  0.1926
 2017SOL     OW17683   3.768   3.295  16.780  0.4285 -0.4181  0.0269
 2017SOL    HW117684   3.731   3.355  16.845 -0.7347 -0.7964 -0.2792
 2017SOL    HW217685   3.704   3.298  16.709 -0.7339 -0.6051  1.0703
 2018SOL     OW17686   4.476   1.120  16.625  0.1647 -0.3600  0.1851
 2018SOL    HW117687   4.487   1.098  16.533  2.6883 -2.0730  0.8857
 2018SOL    HW217688   4.386   1.090  16.639 -0.6319  1.5665 -0.7735
 2019SOL     OW17689   3.217   2.201  17.680  0.2653 -0.4475 -0.0092
 2019SOL    HW117690   3.247   2.216   0.016 -2.2817 -0.0300  0.7796
 2019SOL    HW217691   3.231   2.291  17.651 -0.5394 -0.8121 -1.5150
 2020SOL     OW17692   3.163   3.094   8.050  0.1364  0.2863  0.5784
 2020SOL    HW117693   3.120   3.036   7.988 -0.5737  1.6633 -0.1964
 2020SOL    HW217694   3.113   3.174   8.034  1.6043  0.6740 -2.1211
 2021SOL     OW17695   3.300   3.395  17.633 -0.6402  0.0853 -0.2324
 2021SOL    HW117696   3.237   3.351  17.690 -1.0130  1.7890  0.6731
 2021SOL    HW217697   3.385   3.353  17.644  0.3609  2.4056  0.8734
 2022SOL     OW17698   0.837   0.871   4.222  0.2230  0.2563  0.4814
 2022SOL    HW117699   0.925   0.901   4.199  0.5187  0.5501  2.0228
 2022SOL    HW217700   0.838   0.879   4.317  1.2369 -0.2430  0.5107
 2023SOL     OW17701   2.917   2.878   3.887  0.0878 -0.2750  0.2149
 2023SOL    HW117702   2.922   2.832   3.971 -2.9488  1.9399  1.5998
 2023SOL    HW217703   2.825   2.901   3.893 -0.0221 -0.7285  0.2565
 2024SOL     OW17704   1.223   1.968   7.735 -0.7232  0.4061  0.2488
 2024SOL    HW117705   1.137   2.001   7.763 -0.2500  0.3529  1.7063
 2024SOL    HW217706   1.200   1.914   7.659 -0.0193  1.7005 -0.8971
 2025SOL     OW17707   0.998   4.656  15.408  0.2451  0.7311  0.3045
 2025SOL    HW117708   1.013   4.626  15.318  0.0552 -1.3442  0.9819
 2025SOL    HW217709   1.084   4.632  15.443  0.4701  1.7137  0.4460
 2026SOL     OW17710   1.220   1.803  13.276  0.4250  0.9060  0.0771
 2026SOL    HW117711   1.130   1.794  13.305  0.0808  0.6234 -1.0585
 2026SOL    HW217712   1.263   1.813  13.361 -0.6710  1.6614  0.5401
 2027SOL     OW17713   1.515   4.493   8.980  0.4861  0.1226  0.7123
 2027SOL    HW117714   1.432   4.541   8.973 -0.1074 -0.8971  0.7910
 2027SOL    HW217715   1.509   4.438   8.902  0.4482 -0.2767  0.9973
 2028SOL     OW17716   0.679   3.825  13.057  0.3612  0.4995  0.0243
 2028SOL    HW117717   0.690   3.919  13.072 -0.4032  0.6519 -0.3760
 2028SOL    HW217718   0.765   3.788  13.077 -0.3062 -1.6796 -1.1360
 2029SOL     OW17719   0.303   0.511   4.632  0.2825  0.1656 -0.2543
 2029SOL    HW117720   0.391   0.545   4.651  0.0507  0.0462  1.0227
 2029SOL    HW217721   0.310   0.416   4.644  0.0968  0.2311  0.3444
 2030SOL     OW17722   3.117   2.731   8.730  0.3847  1.0528  0.2513
 2030SOL    HW117723   3.067   2.649   8.725  1.2824  0.5713 -1.0436
 2030SOL    HW217724   3.104   2.761   8.820 -3.3035  0.5295 -0.0900
 2031SOL     OW17725   3.817   1.790   2.615  0.1426 -0.1995 -0.5490
 2031SOL    HW117726   3.892   1.817   2.668  0.2748  1.0377 -1.3677
 2031SOL    HW217727   3.756   1.786   2.689  2.2413 -1.7877  1.0976
 2032SOL     OW17728   1.691   4.649   1.057 -0.4750 -0.0073  0.3656
 2032SOL    HW117729   1.673   4.610   0.972  1.9302  0.7696 -0.4836
 2032SOL    HW217730   1.718   4.576   1.112 -1.0527  0.3572  1.1474
 2033SOL     OW17731   4.195   3.928  13.873 -0.7259 -0.1631  0.5579
 2033SOL    HW117732   4.282   3.961  13.855 -0.6755 -2.4491 -3.3128
 2033SOL    HW217733   4.141   3.982  13.815  1.6839  0.9594 -0.5990
 2034SOL     OW17734   1.621   2.766  10.716 -0.1465  0.0649 -0.2038
 2034SOL    HW117735   1.558   2.805  10.655  0.9397 -1.6393 -2.4140
 2034SOL    HW217736   1.699   2.774  10.661 -0.2953  0.8817 -0.2974
 2035SOL     OW17737   4.699   2.532  17.371  0.2550 -0.4177  0.1728
 2035SOL    HW117738   4.629   2.476  17.405  0.0817  1.9191  3.6622
 2035SOL    HW217739   0.004   2.466  17.317 -1.3390 -0.2254 -1.3644
 2036SOL     OW17740   2.857   3.046   8.634  0.0095 -0.3818  0.3085
 2036SOL    HW117741   2.846   2.954   8.655 -3.0982 -0.2182 -0.5332
 2036SOL    HW217742   2.786   3.089   8.682  1.0630  3.2779 -1.3988
 2037SOL     OW17743   4.330   3.990   2.311 -0.4741  0.5060 -0.3889
 2037SOL    HW117744   4.250   4.017   2.266 -0.1984  0.4686 -0.8990
 2037SOL    HW217745   4.291   3.906   2.333 -1.0812  0.6324 -0.9911
 2038SOL     OW17746   0.856   1.021   3.025  0.2430 -0.3301  0.0694
 2038SOL    HW117747   0.840   1.021   2.930 -1.9386 -0.8375  0.4343
 2038SOL    HW217748   0.765   1.042   3.048  0.2007 -2.2986  1.6636
 2039SOL     OW17749   0.328   2.342  16.780  0.0862  0.4760 -0.3188
 2039SOL    HW117750   0.236   2.320  16.795 -0.1017  0.9999 -0.6561
 2039SOL    HW217751   0.345   2.286  16.704  2.1101  0.0337  0.4803
 2040SOL     OW17752   0.883   4.593   6.901 -0.0431 -0.4485 -0.2277
 2040SOL    HW117753   0.935   4.639   6.835 -0.6967  1.1326  0.3652
 2040SOL    HW217754   0.886   4.660   6.969 -2.2010  0.2234 -0.7848
 2041SOL     OW17755   1.379   1.243   3.557  0.0134 -0.2429  0.1787
 2041SOL    HW117756   1.440   1.221   3.628  1.1829  2.0899 -0.0984
 2041SOL    HW217757   1.305   1.183   3.573  1.5250 -2.2774 -0.4625
 2042SOL     OW17758   0.999   0.042  13.823  0.5255  0.5619 -0.4909
 2042SOL    HW117759   0.913   0.062  13.860  1.8939  1.8485  2.0398
 2042SOL    HW217760   0.973   4.695  13.791 -2.3435  0.9026  0.8587
 2043SOL     OW17761   3.284   0.178   7.447  0.6949  0.7884  0.3543
 2043SOL    HW117762   3.316   0.166   7.357  1.6519  1.4751  0.6076
 2043SOL    HW217763   3.368   0.170   7.493  0.8679  1.3515  0.1363
 2044SOL     OW17764   1.916   1.525  17.190  0.0426  0.4273  0.2707
 2044SOL    HW117765   1.821   1.513  17.203 -0.0400 -0.7422 -1.4071
 2044SOL    HW217766   1.934   1.476  17.109 -2.3382  1.5631 -0.9588
 2045SOL     OW17767   1.665   4.614   7.011  0.3077  0.6873  0.6460
 2045SOL    HW117768   1.608   4.609   6.934  0.2674 -1.5296  0.8109
 2045SOL    HW217769   1.674   4.709   7.017  4.0562  0.4780 -1.0986
 2046SOL     OW17770   4.150   2.719   2.915 -0.0207 -0.3074  0.2053
 2046SOL    HW117771   4.185   2.795   2.962  0.0555 -0.7138  0.8116
 2046SOL    HW217772   4.216   2.653   2.935  0.7452 -0.2280 -2.0922
 2047SOL     OW17773   2.878   4.245   1.431 -0.4929  0.2579  0.0521
 2047SOL    HW117774   2.809   4.309   1.444 -2.2793 -1.8419  0.8727
 2047SOL    HW217775   2.850   4.171   1.485  1.8482 -0.9651 -0.3782
 2048SOL     OW17776   1.411   0.010   7.459 -0.5329  0.5938 -0.1777
 2048SOL    HW117777   1.374   4.702   7.385  0.5286  0.2644 -0.5093
 2048SOL    HW217778   1.346   0.079   7.471 -2.7690 -1.4055 -1.0245
 2049SOL     OW17779   1.158   1.901  16.606  0.1684  0.3352  0.7023
 2049SOL    HW117780   1.249   1.918  16.630  0.0534  1.2516  0.4903
 2049SOL    HW217781   1.156   1.958  16.529 -0.1900 -1.1798 -0.4058
 2050SOL     OW17782   0.346   4.669  17.315  0.0001  0.4291 -0.4454
 2050SOL    HW117783   0.416   4.691  17.376  1.0486 -2.2273 -0.6634
 2050SOL    HW217784   0.368   4.576  17.303 -0.2681  0.3500 -0.3361
 2051SOL     OW17785   1.955   0.045  12.888  0.2317  0.1011  0.0648
 2051SOL    HW117786   1.884   4.724  12.864 -0.2549 -0.6518  3.4277
 2051SOL    HW217787   2.020   4.735  12.937  1.3785  0.3171 -1.2511
 2052SOL     OW17788   2.889   1.262  14.992  0.4336 -0.0879  0.1828
 2052SOL    HW117789   2.903   1.347  15.033 -1.6485  0.3447 -0.0063
 2052SOL    HW217790   2.870   1.284  14.901  0.9111  2.4977  0.7017
 2053SOL     OW17791   2.701   4.433  14.509  0.0460 -0.2700 -0.0995
 2053SOL    HW117792   2.653   4.489  14.447 -0.2851  1.3389  1.6264
 2053SOL    HW217793   2.792   4.434  14.480  0.3234  1.3544  0.8625
 2054SOL     OW17794   2.275   4.409   5.719  0.6026  0.5336  0.0778
 2054SOL    HW117795   2.287   4.459   5.800  1.8627 -0.2265  0.3719
 2054SOL    HW217796   2.226   4.474   5.669 -0.2924 -0.0148  0.2330
 2055SOL     OW17797   4.623   2.626   0.014 -0.4609 -0.0472  0.1822
 2055SOL    HW117798   4.578   2.705   0.042 -1.3820 -0.6423  0.3653
 2055SOL    HW217799   4.671   2.654  17.690  1.2871 -0.4950  1.0967
 2056SOL     OW17800   4.497   2.715   6.353 -0.2976  0.4694  0.0569
 2056SOL    HW117801   4.585   2.750   6.370 -0.1796  1.2245 -2.1001
 2056SOL    HW217802   4.442   2.793   6.347  0.6908  1.0379 -1.7025
 2057SOL     OW17803   1.673   1.340  12.372  0.0035  0.3038 -0.2499
 2057SOL    HW117804   1.661   1.245  12.370 -2.1377  0.5431  1.1843
 2057SOL    HW217805   1.749   1.359  12.317 -0.0735  1.2948 -0.0201
 2058SOL     OW17806   2.469   1.773   9.466  0.1491 -0.0527 -0.6062
 2058SOL    HW117807   2.479   1.685   9.431 -2.0505 -0.8492  0.7645
 2058SOL    HW217808   2.474   1.743   9.557 -2.2765 -1.7042 -1.0084
 2059SOL     OW17809   1.426   0.377  12.141 -0.5030 -0.7364 -0.0709
 2059SOL    HW117810   1.517   0.368  12.112 -0.5856  1.3024 -0.9701
 2059SOL    HW217811   1.421   0.473  12.138 -0.7733 -0.6279  3.7505
 2060SOL     OW17812   1.144   4.474   7.670  0.7975  0.8805 -0.1628
 2060SOL    HW117813   1.110   4.429   7.591  0.2446  0.9830  0.0141
 2060SOL    HW217814   1.075   4.540   7.674 -1.6094 -1.8036  2.4651
 2061SOL     OW17815   2.300   3.866   8.863 -0.0765 -0.0021 -0.0491
 2061SOL    HW117816   2.300   3.800   8.794 -1.1881  1.0901 -1.1002
 2061SOL    HW217817   2.308   3.939   8.800 -1.5126 -0.7251 -1.0747
 2062SOL     OW17818   1.934   3.152   8.194 -0.4675  0.1411 -0.1106
 2062SOL    HW117819   1.903   3.168   8.283  1.1191 -1.3388  0.7124
 2062SOL    HW217820   2.029   3.144   8.203 -0.4773  2.3807  1.8670
 2063SOL     OW17821   0.742   1.805   7.132 -0.6480  0.4344 -0.1076
 2063SOL    HW117822   0.755   1.849   7.048 -1.4030 -2.0317 -1.5308
 2063SOL    HW217823   0.649   1.823   7.148 -0.4436  1.8606 -0.4860
 2064SOL     OW17824   4.171   2.672  11.436  0.4323  0.1619  0.6066
 2064SOL    HW117825   4.191   2.743  11.375  1.1394  0.2405  0.9240
 2064SOL    HW217826   4.145   2.599  11.380  0.8204  0.3442  0.1920
 2065SOL     OW17827   2.791   3.637   1.364 -0.4642 -0.3672 -0.0025
 2065SOL    HW117828   2.782   3.551   1.324  0.6057 -0.1118 -0.8047
 2065SOL    HW217829   2.844   3.611   1.440 -0.7886  0.2869  0.4494
 2066SOL     OW17830   3.787   0.281   2.958 -0.0904  0.5001 -0.5799
 2066SOL    HW117831   3.747   0.341   3.021 -0.2178 -0.7515  0.5271
 2066SOL    HW217832   3.717   0.222   2.931 -1.7912  1.5499  1.5245
 2067SOL     OW17833   2.879   2.042   7.960 -0.4415 -0.3538  0.2584
 2067SOL    HW117834   2.969   2.034   7.930 -0.4183  1.3512 -0.1440
 2067SOL    HW217835   2.840   1.960   7.929 -2.8208  0.3678  1.3582
 2068SOL     OW17836   0.688   1.422   3.452 -0.2527  0.7556  0.1030
 2068SOL    HW117837   0.780   1.395   3.454 -0.7752 -1.0690 -1.2460
 2068SOL    HW217838   0.655   1.359   3.517  2.3932 -1.7255 -0.9833
 2069SOL     OW17839   3.735   4.681   8.382 -0.2783 -0.2652 -0.2605
 2069SOL    HW117840   3.707   0.005   8.448  2.5052 -0.3562  1.0080
 2069SOL    HW217841   3.769   4.604   8.428  0.0125  0.4607  0.7409
 2070SOL     OW17842   3.408   3.260   2.956  0.1807  0.6966 -0.5454
 2070SOL    HW117843   3.329   3.302   2.990  0.0443 -1.4848  1.8572
 2070SOL    HW217844   3.402   3.275   2.862  2.7587  0.5379 -0.7363
 2071SOL     OW17845   1.308   2.564   5.291  0.0771 -0.3588  0.0284
 2071SOL    HW117846   1.309   2.643   5.237  0.0558  0.0431  0.6139
 2071SOL    HW217847   1.284   2.595   5.379 -0.7556 -0.8587 -0.0274
 2072SOL     OW17848   3.300   3.081   4.142 -0.4929  0.4840 -0.3890
 2072SOL    HW117849   3.301   3.052   4.051  1.3631  2.2718 -0.9437
 2072SOL    HW217850   3.373   3.038   4.186  1.5995  1.6740 -2.6772
 2073SOL     OW17851   3.244   2.452   6.718 -0.3907  0.8954 -0.5133
 2073SOL    HW117852   3.261   2.536   6.676 -2.0311  0.8255 -1.3206
 2073SOL    HW217853   3.331   2.418   6.740 -1.2254 -0.4627  0.6953
 2074SOL     OW17854   4.029   4.591   1.128 -0.0372 -0.2234 -0.3811
 2074SOL    HW117855   3.962   4.523   1.120  0.1990 -0.6204  1.0073
 2074SOL    HW217856   4.029   4.606   1.222  0.8576  1.8901 -0.7135
 2075SOL     OW17857   0.699   3.467  15.945 -0.2417  0.3506 -0.6640
 2075SOL    HW117858   0.618   3.458  15.896 -0.7471 -1.8893  0.5477
 2075SOL    HW217859   0.693   3.555  15.980  1.9168  0.1290  0.2531
 2076SOL     OW17860   2.264   3.860   3.790  0.0452  0.6113 -0.2549
 2076SOL    HW117861   2.304   3.816   3.715  0.7179  1.0219 -0.1386
 2076SOL    HW217862   2.342   3.869   3.844  1.9801 -2.9525 -2.4246
 2077SOL     OW17863   4.574   2.256  17.015 -0.0549  0.3724 -0.1911
 2077SOL    HW117864   4.536   2.168  17.010 -0.4262  0.6298 -2.2577
 2077SOL    HW217865   4.510   2.291  17.076 -1.3324  0.2946 -1.4669
 2078SOL     OW17866   4.510   2.967   8.608 -0.1894  0.5199  0.3704
 2078SOL    HW117867   4.541   2.906   8.541 -0.4650  0.0078  0.7151
 2078SOL    HW217868   4.418   2.941   8.608 -0.5657  1.8068 -3.6597
 2079SOL     OW17869   3.841   2.251  15.284 -0.4689 -0.2430 -0.1397
 2079SOL    HW117870   3.802   2.325  15.238 -2.1688 -1.0139  0.0837
 2079SOL    HW217871   3.796   2.240  15.367  2.1931  1.0814  1.4920
 2080SOL     OW17872   1.536   3.042   4.104  0.0548 -0.4561  0.1074
 2080SOL    HW117873   1.601   2.975   4.126 -0.3208 -0.2698  1.8499
 2080SOL    HW217874   1.571   3.111   4.160  0.3879 -0.3832 -0.1909
 2081SOL     OW17875   0.769   0.658   8.977  0.2750 -0.0373 -0.0665
 2081SOL    HW117876   0.692   0.606   8.953  0.6451  0.1041 -1.5960
 2081SOL    HW217877   0.822   0.593   9.022 -2.0687 -1.5213  0.5561
 2082SOL     OW17878   1.289   1.996  16.955  0.3119  0.3302  0.0525
 2082SOL    HW117879   1.352   2.007  17.026  0.2435  2.2846 -0.1974
 2082SOL    HW217880   1.292   2.082  16.915 -0.8466  0.2405 -0.2254
 2083SOL     OW17881   0.881   3.501   7.379  0.0425  0.1319  0.0819
 2083SOL    HW117882   0.832   3.483   7.299  1.2984  1.5443 -0.9977
 2083SOL    HW217883   0.926   3.579   7.346 -0.0359  1.3000  2.7495
 2084SOL     OW17884   3.637   1.110   7.068  0.1666  0.1855  0.0221
 2084SOL    HW117885   3.695   1.037   7.089 -0.3641 -0.8364 -2.0164
 2084SOL    HW217886   3.558   1.081   7.114 -1.1894  4.0301  0.1436
 2085SOL     OW17887   2.181   4.574   1.861 -0.8803  0.0723  0.0165
 2085SOL    HW117888   2.249   4.569   1.927 -0.4598  1.3087 -0.3279
 2085SOL    HW217889   2.107   4.554   1.918  0.6287 -0.1770  1.8662
 2086SOL     OW17890   1.076   0.998   5.840  0.3074 -0.2808  0.2983
 2086SOL    HW117891   1.074   0.954   5.925  0.4017 -0.8956 -0.0156
 2086SOL    HW217892   0.986   1.026   5.822 -0.3563 -1.4976  1.6757
 2087SOL     OW17893   4.323   1.770   6.901 -0.3460  0.4626 -0.0212
 2087SOL    HW117894   4.417   1.751   6.900  0.1174  2.9955 -1.4771
 2087SOL    HW217895   4.314   1.789   6.808  1.4473 -0.2548 -0.3608
 2088SOL     OW17896   1.920   1.742   1.585 -0.0853  0.0873  0.7475
 2088SOL    HW117897   1.957   1.808   1.526  0.6423 -1.3850 -0.4357
 2088SOL    HW217898   1.983   1.671   1.574 -0.5299  0.1215 -2.0759
 2089SOL     OW17899   1.373   2.488   7.026 -0.7986  0.5476  0.0558
 2089SOL    HW117900   1.448   2.465   6.972 -1.9111 -1.2789 -0.7155
 2089SOL    HW217901   1.416   2.492   7.112  1.0213  0.1562 -0.8405
 2090SOL     OW17902   4.250   1.781   6.626  0.4472 -0.3098 -0.5842
 2090SOL    HW117903   4.182   1.840   6.661  0.1901  0.3274 -2.1599
 2090SOL    HW217904   4.223   1.782   6.534 -1.9194  0.1964  0.1012
 2091SOL     OW17905   1.422   3.797   4.260 -0.3411 -0.3073 -0.3540
 2091SOL    HW117906   1.416   3.733   4.331 -0.3881  0.3181  0.2087
 2091SOL    HW217907   1.351   3.859   4.275 -0.5988 -0.7730  0.3501
 2092SOL     OW17908   2.490   2.877   4.272  0.1592 -0.2633 -0.2727
 2092SOL    HW117909   2.408   2.829   4.259  0.0816 -0.1233 -0.2993
 2092SOL    HW217910   2.532   2.820   4.337 -1.5240 -1.2525 -0.0663
 2093SOL     OW17911   3.834   1.443  10.896 -0.6125  0.2091  0.4126
 2093SOL    HW117912   3.808   1.523  10.851 -2.0250  1.4537  3.4546
 2093SOL    HW217913   3.928   1.446  10.875 -0.0098 -0.7166  2.8983
 2094SOL     OW17914   2.060   2.577   6.305  0.1809 -0.7471 -0.4675
 2094SOL    HW117915   2.091   2.668   6.309 -1.5295 -0.0832 -2.3334
 2094SOL    HW217916   2.103   2.548   6.386 -3.0977 -1.4985  1.0263
 2095SOL     OW17917   2.516   3.301   4.291 -0.4945  0.4086 -0.2587
 2095SOL    HW117918   2.592   3.346   4.327  0.7882 -1.7114 -0.3175
 2095SOL    HW217919   2.458   3.376   4.278  0.2923  0.9023 -0.8798
 2096SOL     OW17920   1.441   0.343   5.374 -0.7082 -0.4058 -0.0428
 2096SOL    HW117921   1.375   0.405   5.344 -1.1861 -0.2023  1.4278
 2096SOL    HW217922   1.385   0.268   5.358 -1.0614  0.2899 -2.0664
 2097SOL     OW17923   0.074   1.969   4.231 -0.1435 -0.0847 -0.0046
 2097SOL    HW117924   0.120   1.907   4.174  0.9656 -0.8816  1.7827
 2097SOL    HW217925   0.145   2.011   4.280 -0.8787 -2.0276  2.7043
 2098SOL     OW17926   1.378   3.920   2.997  0.1623  0.5549  0.2044
 2098SOL    HW117927   1.454   3.899   2.943 -1.2110 -0.5893 -1.2834
 2098SOL    HW217928   1.325   3.840   2.998  1.5539 -0.3525  0.2739
 2099SOL     OW17929   1.927   3.406  17.736  0.8539  0.2239 -0.3536
 2099SOL    HW117930   1.887   3.450   0.057 -1.5740  0.1205 -1.6024
 2099SOL    HW217931   1.965   3.481  17.691  0.0244  1.0745  0.3611
 2100SOL     OW17932   3.746   2.648  11.432  0.2855 -0.0080  0.2055
 2100SOL    HW117933   3.686   2.587  11.388  0.1151  0.6363 -0.4496
 2100SOL    HW217934   3.689   2.668  11.507 -0.8691  1.6245 -1.1205
 2101SOL     OW17935   2.821   1.491  14.745 -0.2936 -0.4882 -0.4457
 2101SOL    HW117936   2.862   1.405  14.754  2.8442  0.9257 -1.0727
 2101SOL    HW217937   2.892   1.550  14.770 -1.1573  1.0205 -1.5875
 2102SOL     OW17938   0.917   1.877   7.327  0.0091  1.2300  0.5284
 2102SOL    HW117939   0.852   1.839   7.268  1.4415 -0.6874  0.1678
 2102SOL    HW217940   0.995   1.868   7.273 -1.6562 -1.9550 -1.3469
 2103SOL     OW17941   3.380   1.096   8.124  0.0967 -0.1565  0.1976
 2103SOL    HW117942   3.435   1.170   8.098 -0.4667 -0.8107 -2.8527
 2103SOL    HW217943   3.361   1.125   8.213  1.0302  0.3580  0.2324
 2104SOL     OW17944   3.035   3.197   5.872  0.3869  0.3655 -0.3253
 2104SOL    HW117945   2.987   3.161   5.798  0.5745 -0.3973 -0.0788
 2104SOL    HW217946   2.971   3.175   5.940 -0.0235  1.7413 -0.2685
 2105SOL     OW17947   1.407   0.330  16.753  0.1090  0.1642  0.0244
 2105SOL    HW117948   1.331   0.342  16.695  0.0339 -1.1401 -0.1430
 2105SOL    HW217949   1.447   0.414  16.775  1.5483 -0.3587 -0.5775
 2106SOL     OW17950   1.717   3.037   5.739  0.2075  0.5888  0.4740
 2106SOL    HW117951   1.799   3.055   5.692 -0.0767  0.7683  0.0413
 2106SOL    HW217952   1.729   3.110   5.800  2.3973  0.8053 -0.2255
 2107SOL     OW17953   0.174   2.873   9.640  0.0782  0.2987 -0.8701
 2107SOL    HW117954   0.234   2.945   9.660 -1.2090  1.1871 -0.2202
 2107SOL    HW217955   0.103   2.919   9.596  0.5825  2.1955  0.3011
 2108SOL     OW17956   1.260   0.483   7.588  0.1317  0.1400  0.2012
 2108SOL    HW117957   1.185   0.479   7.647 -0.2308 -0.7196 -0.3065
 2108SOL    HW217958   1.335   0.463   7.644  0.7400 -0.9880 -1.0225
 2109SOL     OW17959   2.403   1.797   3.885 -0.0881 -0.4056  0.2504
 2109SOL    HW117960   2.496   1.774   3.893 -0.0581 -0.6585 -0.8595
 2109SOL    HW217961   2.389   1.764   3.797  1.1704  2.3266 -0.9704
 2110SOL     OW17962   0.828   1.245   2.328  0.4320 -0.0298 -0.0669
 2110SOL    HW117963   0.867   1.170   2.374  0.7060 -0.4069 -0.9101
 2110SOL    HW217964   0.735   1.239   2.348  0.5057 -0.9821  0.0136
 2111SOL     OW17965   4.521   2.054  17.282  1.0953 -0.2169  0.8063
 2111SOL    HW117966   4.432   2.089  17.276  1.1896 -0.0318  0.5345
 2111SOL    HW217967   4.513   1.960  17.264  0.0492  0.0557 -0.1356
 2112SOL     OW17968   1.591   0.485   6.677 -0.0295  0.6918 -0.4610
 2112SOL    HW117969   1.570   0.512   6.588  0.1647  0.8996 -0.4452
 2112SOL    HW217970   1.525   0.525   6.735  0.1473  1.7880 -1.0056
 2113SOL     OW17971   1.219   3.123   2.416 -0.0937 -0.0930 -0.2097
 2113SOL    HW117972   1.273   3.166   2.482 -1.3049 -0.9991  1.3474
 2113SOL    HW217973   1.176   3.055   2.468 -2.0270  0.8006 -0.6598
 2114SOL     OW17974   2.747   3.327  17.414 -0.5363  0.7787  0.0303
 2114SOL    HW117975   2.745   3.261  17.346 -0.8121  1.5576 -0.7143
 2114SOL    HW217976   2.798   3.281  17.481 -0.2270  1.2858  0.1506
 2115SOL     OW17977   3.220   3.328   5.704  0.1228  0.7705 -0.1341
 2115SOL    HW117978   3.307   3.325   5.743  1.0845 -1.0925 -2.4207
 2115SOL    HW217979   3.171   3.255   5.741  1.7712  0.8409  2.1829
 2116SOL     OW17980   3.650   4.663  13.209 -0.2899 -0.2797 -0.5789
 2116SOL    HW117981   3.604   4.735  13.252 -0.2436 -1.0750  0.8064
 2116SOL    HW217982   3.742   4.679  13.230 -0.8930  3.5638 -0.8400
 2117SOL     OW17983   4.017   3.546   6.696  0.1213  0.5407  0.2977
 2117SOL    HW117984   3.994   3.494   6.772  0.4646 -2.6029 -1.7545
 2117SOL    HW217985   3.985   3.499   6.619  0.2479  2.1722 -0.7671
 2118SOL     OW17986   2.187   4.225   0.466  0.1210  0.4325  0.1937
 2118SOL    HW117987   2.243   4.235   0.389 -0.0366 -2.2139 -0.2621
 2118SOL    HW217988   2.256   4.238   0.530  1.1271  2.0948 -1.2178
 2119SOL     OW17989   4.645   2.607   9.388  0.5427  0.1670 -0.5034
 2119SOL    HW117990   4.655   2.606   9.483  0.6771  1.1614 -0.5098
 2119SOL    HW217991   4.732   2.634   9.362  0.5633  0.9452  0.3812
 2120SOL     OW17992   3.215   0.479   8.955  0.0275 -0.0929 -0.7502
 2120SOL    HW117993   3.219   0.385   8.938  3.2070 -0.0519 -0.3625
 2120SOL    HW217994   3.289   0.489   9.015 -0.5158  0.0443 -0.1075
 2121SOL     OW17995   1.112   1.437   8.903  0.5458 -0.4485 -0.1634
 2121SOL    HW117996   1.101   1.532   8.900  0.0433 -0.6113 -2.9438
 2121SOL    HW217997   1.152   1.429   8.990  0.6954 -1.2245 -0.3031
 2122SOL     OW17998   3.957   0.914   6.921  0.1742  0.2875 -0.2246
 2122SOL    HW117999   4.019   0.868   6.865 -1.6350 -1.3211 -0.9093
 2122SOL    HW218000   3.982   0.885   7.009  0.4637  1.9593  0.2378
 2123SOL     OW18001   1.741   4.417   6.364  0.6171  0.0529  0.4993
 2123SOL    HW118002   1.687   4.424   6.442  0.4830  0.6987  0.3491
 2123SOL    HW218003   1.725   4.498   6.315 -1.8889 -0.5325  0.3631
 2124SOL     OW18004   0.217   0.082   5.441  0.1072 -0.3530  0.0593
 2124SOL    HW118005   0.206   4.726   5.438  0.1790 -0.4095  1.6736
 2124SOL    HW218006   0.222   0.100   5.347 -0.9818 -1.0984 -0.1293
 2125SOL     OW18007   4.437   1.848   8.993  0.1972  0.3692  0.0211
 2125SOL    HW118008   4.372   1.781   9.011  0.9634 -0.3055  0.2905
 2125SOL    HW218009   4.518   1.799   9.004 -0.2917 -1.0319 -2.6659
 2126SOL     OW18010   1.474   0.782   3.365  0.1386  0.1856 -0.1206
 2126SOL    HW118011   1.455   0.758   3.274 -0.2998 -2.8890  0.7797
 2126SOL    HW218012   1.565   0.755   3.374  0.3506  0.9204 -0.0361
 2127SOL     OW18013   4.005   3.050  14.120 -0.0925 -0.4190 -0.1907
 2127SOL    HW118014   3.910   3.049  14.110 -0.1144  0.9487 -0.1526
 2127SOL    HW218015   4.037   3.004  14.043 -2.5197  0.9235 -1.9930
 2128SOL     OW18016   2.817   3.262  11.982  0.6415 -0.1721  0.1300
 2128SOL    HW118017   2.878   3.237  12.051  1.3055  1.7587  0.2170
 2128SOL    HW218018   2.744   3.305  12.027 -1.3205 -0.0289 -3.1207
 2129SOL     OW18019   2.856   1.703  11.300 -0.0447 -0.0337 -0.3714
 2129SOL    HW118020   2.782   1.714  11.241 -0.3034 -0.9923 -0.2250
 2129SOL    HW218021   2.922   1.705  11.231 -0.0213 -0.2609 -0.3554
 2130SOL     OW18022   1.926   2.922   2.590 -0.8218 -0.1745  0.1653
 2130SOL    HW118023   1.868   2.946   2.662 -1.0204 -0.7746  0.2058
 2130SOL    HW218024   1.856   2.896   2.530 -0.9517 -0.4643  0.4394
 2131SOL     OW18025   4.589   0.366   7.446  0.0185  0.0331 -0.4657
 2131SOL    HW118026   4.551   0.325   7.523  2.1585  2.4581  1.8814
 2131SOL    HW218027   4.517   0.414   7.405  0.3176  0.3137 -0.6652
 2132SOL     OW18028   3.308   3.497  15.272  0.3318 -0.0677  0.0719
 2132SOL    HW118029   3.289   3.446  15.351  1.6415 -0.8493 -0.1128
 2132SOL    HW218030   3.255   3.447  15.209  1.0847 -0.6243 -0.1190
 2133SOL     OW18031   4.507   2.009   3.688  0.3306 -0.0959 -0.0748
 2133SOL    HW118032   4.469   1.921   3.691 -1.5613  0.7660  1.2578
 2133SOL    HW218033   4.491   2.030   3.780 -0.8285 -3.2293  0.4496
 2134SOL     OW18034   2.254   3.134  10.199 -0.0339 -0.2482 -0.0468
 2134SOL    HW118035   2.320   3.153  10.132  0.9730  1.2293  1.3712
 2134SOL    HW218036   2.304   3.078  10.258 -0.3927 -1.3635 -0.8108
 2135SOL     OW18037   0.695   1.508   4.072 -0.5502  0.2464  0.7536
 2135SOL    HW118038   0.689   1.562   4.151 -0.6891  1.7388 -0.2803
 2135SOL    HW218039   0.775   1.457   4.084 -0.6038 -0.0821 -0.2699
 2136SOL     OW18040   1.737   1.591   7.952 -0.0715  0.5317 -0.1375
 2136SOL    HW118041   1.701   1.617   7.867  0.6214  2.4221  0.1382
 2136SOL    HW218042   1.721   1.497   7.959 -0.3677  0.6174  0.3883
 2137SOL     OW18043   4.517   2.178  17.737  0.0998 -0.6157 -0.4809
 2137SOL    HW118044   4.491   2.140   0.067 -3.2711 -2.5902 -2.4276
 2137SOL    HW218045   4.564   2.105  17.696 -0.5339  0.1724 -2.5957
 2138SOL     OW18046   2.812   0.176  13.241 -0.2188  0.1437  0.0166
 2138SOL    HW118047   2.882   0.218  13.291 -1.0377  1.2279  0.2538
 2138SOL    HW218048   2.753   0.167  13.316 -0.4512 -0.5423 -0.2518
 2139SOL     OW18049   1.245   0.394  12.354  0.3841 -0.1888  0.2290
 2139SOL    HW118050   1.290   0.385  12.438  0.5579 -3.0188 -0.1796
 2139SOL    HW218051   1.303   0.335  12.307  0.7202 -0.5210  1.0663
 2140SOL     OW18052   3.160   1.693   0.750  0.0772  0.4340  0.4016
 2140SOL    HW118053   3.134   1.624   0.811  1.2914  1.2238  1.8134
 2140SOL    HW218054   3.246   1.666   0.719  0.6464  2.6167  0.1127
 2141SOL     OW18055   2.591   3.283  12.508  0.6974  0.3185  0.3193
 2141SOL    HW118056   2.636   3.353  12.461  1.3501  0.0004  0.4628
 2141SOL    HW218057   2.544   3.233  12.441 -0.0020 -0.0369  1.0783
 2142SOL     OW18058   2.768   1.905  10.714 -0.4675  0.2832  0.2486
 2142SOL    HW118059   2.684   1.935  10.679 -1.8827 -3.1102  0.7915
 2142SOL    HW218060   2.762   1.943  10.802 -0.8801 -0.2076  0.4302
 2143SOL     OW18061   3.232   2.016  16.421 -0.4050 -0.1845 -0.4329
 2143SOL    HW118062   3.149   2.035  16.465 -1.2246  0.7220 -2.3650
 2143SOL    HW218063   3.297   2.035  16.489 -1.6883  0.7514  0.5290
 2144SOL     OW18064   1.418   0.182   7.172  0.7291  0.5640  0.6744
 2144SOL    HW118065   1.432   0.103   7.225 -0.2646  1.1889  1.8568
 2144SOL    HW218066   1.365   0.238   7.228 -1.1368 -0.2904 -0.2099
 2145SOL     OW18067   3.919   2.843   4.769 -0.0932  0.2286 -0.0609
 2145SOL    HW118068   3.971   2.835   4.689 -1.4045  0.6527 -0.9639
 2145SOL    HW218069   3.915   2.937   4.787  1.6850  0.3885 -0.4957
 2146SOL     OW18070   3.863   4.360  12.083  0.0744 -0.6937  0.1280
 2146SOL    HW118071   3.806   4.415  12.029 -0.8049 -0.5603  1.1973
 2146SOL    HW218072   3.824   4.275  12.065 -1.3958 -0.4157  1.9929
 2147SOL     OW18073   2.035   4.093   7.111 -0.3314 -0.5079  0.0536
 2147SOL    HW118074   2.010   4.117   7.021  1.5284  1.2987  0.0156
 2147SOL    HW218075   2.105   4.030   7.100  0.6133  0.6303 -0.5099
 2148SOL     OW18076   2.936   1.582   3.098 -0.7322  0.8616  0.3179
 2148SOL    HW118077   2.920   1.668   3.061 -0.5438 -0.0443 -1.8721
 2148SOL    HW218078   2.925   1.519   3.026 -1.1290 -0.4456  1.5094
 2149SOL     OW18079   2.484   1.921   5.215 -0.8873  0.3582 -0.0411
 2149SOL    HW118080   2.484   1.825   5.218  0.7086  0.2862 -2.2696
 2149SOL    HW218081   2.495   1.940   5.308 -5.0173  0.3747  0.4213
 2150SOL     OW18082   2.390   4.737   8.735 -0.2386  0.6411  0.0961
 2150SOL    HW118083   2.441   0.074   8.762  0.5717 -1.1352  3.5458
 2150SOL    HW218084   2.456   4.673   8.709 -1.1640 -0.3248  0.0956
 2151SOL     OW18085   2.410   3.284  10.033  0.3239 -0.6209 -0.2355
 2151SOL    HW118086   2.412   3.371   9.994 -1.0318  0.2518  1.6506
 2151SOL    HW218087   2.446   3.234   9.960 -1.2954 -0.8595 -0.8611
 2152SOL     OW18088   3.460   1.386  15.324  0.0874 -0.1266 -0.1851
 2152SOL    HW118089   3.398   1.456  15.302 -2.6540 -2.2517  0.7737
 2152SOL    HW218090   3.506   1.369  15.242  4.0926  2.6321  1.4720
 2153SOL     OW18091   3.076   1.371   2.625  0.3286  0.2020 -0.0419
 2153SOL    HW118092   3.163   1.373   2.665  0.1522 -0.3034  0.3778
 2153SOL    HW218093   3.058   1.279   2.643  2.7632  0.0211  1.4034
 2154SOL     OW18094   2.147   1.346   4.521  0.3663  0.1809 -0.2634
 2154SOL    HW118095   2.236   1.314   4.504  0.3364  0.7052 -1.3886
 2154SOL    HW218096   2.177   1.393   4.598  1.5673 -2.4223  0.8653
 2155SOL     OW18097   3.836   0.823   4.171  0.0990 -0.3501  0.1193
 2155SOL    HW118098   3.764   0.886   4.169  0.8857  0.4676 -2.8123
 2155SOL    HW218099   3.894   0.853   4.240  1.5038 -3.8717  0.4624
 2156SOL     OW18100   4.655   2.148  12.261 -0.2459 -0.0051  0.2188
 2156SOL    HW118101   4.716   2.091  12.215 -0.6254 -1.3305  1.3770
 2156SOL    HW218102   4.594   2.168  12.190  0.8625 -3.1771 -1.5960
 2157SOL     OW18103   0.479   1.719   2.146 -0.6932 -0.1126  0.5017
 2157SOL    HW118104   0.494   1.639   2.095 -0.6061  0.6678 -0.7031
 2157SOL    HW218105   0.572   1.741   2.155 -0.6532  0.9910 -2.7712
 2158SOL     OW18106   3.526   0.978   4.964 -0.0688  0.4421  0.5997
 2158SOL    HW118107   3.471   1.040   5.012  0.2116  0.7403  0.5322
 2158SOL    HW218108   3.612   0.987   5.004  0.6237 -1.3965 -0.4496
 2159SOL     OW18109   1.654   3.185   0.366  0.0124  0.0490 -0.1650
 2159SOL    HW118110   1.673   3.180   0.460 -4.3074 -1.2973  0.6154
 2159SOL    HW218111   1.738   3.221   0.337  0.3782 -0.4676  0.2382
 2160SOL     OW18112   0.503   4.315   4.523 -0.2462  0.0441 -0.2575
 2160SOL    HW118113   0.421   4.331   4.475 -0.5450 -0.2683  0.1536
 2160SOL    HW218114   0.471   4.332   4.611 -0.9473 -1.8670 -0.1457
 2161SOL     OW18115   0.621   3.342   7.434 -0.3262  0.7663 -0.1985
 2161SOL    HW118116   0.617   3.382   7.521 -0.7146  1.8238 -0.6981
 2161SOL    HW218117   0.703   3.377   7.400  0.0991  1.6437  1.7505
 2162SOL     OW18118   4.381   2.545   3.271  0.2756  0.3262 -0.1104
 2162SOL    HW118119   4.420   2.631   3.283 -0.1270  0.6239 -0.9292
 2162SOL    HW218120   4.327   2.554   3.192  0.6099 -0.0964 -0.3876
 2163SOL     OW18121   1.258   1.585  14.583  0.1253  0.1873  0.0284
 2163SOL    HW118122   1.176   1.632  14.597  0.3616  1.2302 -2.1073
 2163SOL    HW218123   1.305   1.638  14.518 -1.0398  1.1265 -0.0406
 2164SOL     OW18124   4.093   1.851   4.098 -0.6212  0.1484  0.2988
 2164SOL    HW118125   4.076   1.788   4.028 -1.4364  0.4195  0.2613
 2164SOL    HW218126   4.041   1.819   4.172  0.5343 -0.0794  1.0298
 2165SOL     OW18127   4.032   2.021   5.487  0.6456 -0.0879  0.0759
 2165SOL    HW118128   4.104   1.993   5.430  0.1978 -3.0868  0.9985
 2165SOL    HW218129   4.038   2.116   5.477 -0.5838  0.1822  1.9834
 2166SOL     OW18130   1.968   0.415  12.110 -0.7079  0.1658 -0.3664
 2166SOL    HW118131   2.019   0.439  12.033  0.7761  1.2962  0.9645
 2166SOL    HW218132   1.981   0.489  12.169  1.4300  0.7296 -1.5498
 2167SOL     OW18133   0.134   0.436   5.120  0.0708  0.0317  0.8043
 2167SOL    HW118134   0.205   0.395   5.070  0.4731  0.9888  0.5860
 2167SOL    HW218135   0.064   0.372   5.106 -0.6911  0.6335  1.8896
 2168SOL     OW18136   1.737   1.926   9.546 -0.5217  0.4021  0.0907
 2168SOL    HW118137   1.770   2.012   9.518 -0.3876  0.3531  0.0991
 2168SOL    HW218138   1.652   1.928   9.501 -0.7730 -0.4318  0.5411
 2169SOL     OW18139   4.500   3.975   4.645  0.8823  0.2250  0.7429
 2169SOL    HW118140   4.565   3.942   4.708  1.5293  0.5962  0.2655
 2169SOL    HW218141   4.434   4.006   4.707  2.3152 -0.8336  2.8172
 2170SOL     OW18142   3.772   0.717  16.333 -0.7208  0.6912 -0.4510
 2170SOL    HW118143   3.731   0.791  16.288 -0.7181  0.1374 -1.3587
 2170SOL    HW218144   3.705   0.648  16.336 -1.4220  1.4322  1.6458
 2171SOL     OW18145   3.058   2.335   1.607  0.1754  0.2711  0.1717
 2171SOL    HW118146   3.096   2.417   1.576  0.9998  0.1832  0.9341
 2171SOL    HW218147   2.984   2.319   1.549  0.8735  0.8445 -0.8679
 2172SOL     OW18148   4.264   0.185  15.904 -0.1505  0.3720  0.3505
 2172SOL    HW118149   4.276   0.269  15.860  0.2795  0.4702  0.6645
 2172SOL    HW218150   4.228   0.209  15.990  0.8325 -0.0443  0.8794
 2173SOL     OW18151   3.537   3.958   2.819 -0.1332 -0.4310 -0.1315
 2173SOL    HW118152   3.471   3.957   2.749 -2.3218 -1.6314  1.9610
 2173SOL    HW218153   3.486   3.970   2.899 -0.1533  1.6360 -0.4594
 2174SOL     OW18154   3.854   3.772   7.975  0.1158  0.3062 -0.1035
 2174SOL    HW118155   3.849   3.677   7.981 -1.2097  0.2361 -2.2691
 2174SOL    HW218156   3.761   3.794   7.961 -0.8489 -3.9206 -0.3821
 2175SOL     OW18157   4.641   2.607   1.738 -0.4031 -0.2569 -0.3740
 2175SOL    HW118158   4.606   2.518   1.728  2.3167 -1.1748 -1.6639
 2175SOL    HW218159   4.685   2.600   1.823 -0.6522 -2.0172 -0.3810
 2176SOL     OW18160   4.678   4.024   3.853  1.1108  0.1734  0.6978
 2176SOL    HW118161   4.583   4.014   3.853  1.2550 -1.1785 -0.6322
 2176SOL    HW218162   4.696   4.075   3.774  1.4596  0.5792  1.0367
 2177SOL     OW18163   0.697   1.344   8.430 -0.0169  0.1071  0.2899
 2177SOL    HW118164   0.682   1.389   8.347 -0.3132 -1.6290 -0.5964
 2177SOL    HW218165   0.706   1.417   8.492  0.6973 -2.3367  3.1082
 2178SOL     OW18166   0.379   1.864  12.599 -0.3561  0.0354 -0.0725
 2178SOL    HW118167   0.410   1.928  12.663  0.7352 -0.0361 -0.5333
 2178SOL    HW218168   0.286   1.885  12.590 -0.4725  0.7433  2.6417
 2179SOL     OW18169   0.980   0.210  11.678  0.1217  0.5674 -0.4966
 2179SOL    HW118170   0.987   0.194  11.772  0.2365  0.5745 -0.5040
 2179SOL    HW218171   1.013   0.300  11.679 -0.3585  0.7272  1.1297
 2180SOL     OW18172   2.815   3.905  11.550 -0.3088  0.4208 -0.0734
 2180SOL    HW118173   2.884   3.958  11.589  0.1485 -0.6162  0.5195
 2180SOL    HW218174   2.872   3.830  11.533 -0.7451  0.4600 -1.7273
 2181SOL     OW18175   3.225   1.842  10.302 -0.2249  0.0652 -0.2502
 2181SOL    HW118176   3.187   1.896  10.371 -1.6827 -1.6013  0.2551
 2181SOL    HW218177   3.275   1.798  10.371  2.4238 -0.5133 -2.5280
 2182SOL     OW18178   4.149   1.699   4.461 -0.5957 -0.0127  0.1697
 2182SOL    HW118179   4.183   1.681   4.374  2.3987  0.9814  1.1376
 2182SOL    HW218180   4.223   1.711   4.519  0.0616 -1.4744 -0.3554
 2183SOL     OW18181   2.002   0.306   8.316  0.8239  0.9273 -0.1080
 2183SOL    HW118182   2.062   0.308   8.241  1.9492 -1.0270  0.7431
 2183SOL    HW218183   2.075   0.322   8.376  0.4025 -1.7779  1.1139
 2184SOL     OW18184   1.564   4.147   2.744 -0.3206 -0.2767  0.3517
 2184SOL    HW118185   1.500   4.083   2.715 -0.6029 -0.9053  2.3851
 2184SOL    HW218186   1.553   4.136   2.839 -0.2336  0.4552  0.4489
 2185SOL     OW18187   4.266   3.559   4.668 -0.2705 -0.2717 -0.0169
 2185SOL    HW118188   4.185   3.594   4.706 -0.4657  1.7432 -2.2710
 2185SOL    HW218189   4.327   3.632   4.677 -0.0383 -0.6383  1.2636
 2186SOL     OW18190   4.178   4.201  12.919  0.3847 -0.2385 -0.5660
 2186SOL    HW118191   4.190   4.257  12.842  0.1608 -0.0074 -0.4337
 2186SOL    HW218192   4.148   4.120  12.880 -0.1655 -2.0838  3.7197
 2187SOL     OW18193   3.887   2.070   7.189 -0.1169 -0.2763 -0.1714
 2187SOL    HW118194   3.886   2.142   7.125  0.3322  0.7572  0.9850
 2187SOL    HW218195   3.942   2.112   7.256 -2.7966  1.0690  1.1867
 2188SOL     OW18196   1.265   3.811  16.058 -0.2989  0.4623  0.1651
 2188SOL    HW118197   1.314   3.734  16.029  0.2978  0.8183  0.2198
 2188SOL    HW218198   1.187   3.821  16.003  0.3264  1.2489 -0.5877
 2189SOL     OW18199   4.237   0.702  14.486 -0.0450 -0.0260  0.3641
 2189SOL    HW118200   4.271   0.788  14.510 -2.0145  0.3134  1.8684
 2189SOL    HW218201   4.313   0.646  14.473 -2.3819 -2.3480 -3.3867
 2190SOL     OW18202   1.653   2.655   2.261 -0.4918 -0.4417  0.2682
 2190SOL    HW118203   1.677   2.563   2.259 -0.5782 -0.4449 -0.5578
 2190SOL    HW218204   1.583   2.662   2.197 -1.5973  1.3754  1.6390
 2191SOL     OW18205   2.181   0.631  16.093  0.4706  0.6448 -0.2420
 2191SOL    HW118206   2.259   0.653  16.144 -0.7247  0.5488  1.6574
 2191SOL    HW218207   2.113   0.595  16.150  0.8814 -0.7281 -0.6189
 2192SOL     OW18208   1.757   1.838   4.878  0.2042  0.0996 -0.4209
 2192SOL    HW118209   1.827   1.829   4.813 -1.5198  0.2074 -2.2796
 2192SOL    HW218210   1.804   1.896   4.938 -0.9587 -0.8789  1.4329
 2193SOL     OW18211   0.428   3.447   6.954 -0.1950 -1.0890  0.1019
 2193SOL    HW118212   0.419   3.518   7.018 -1.0821 -1.2580  0.1671
 2193SOL    HW218213   0.523   3.444   6.940  0.2228  1.2748  2.3995
 2194SOL     OW18214   1.140   2.898   9.354  0.4909  0.0907 -0.7472
 2194SOL    HW118215   1.057   2.915   9.310  1.7756  1.6079 -2.5794
 2194SOL    HW218216   1.199   2.904   9.279  1.8825  0.2455  0.3537
 2195SOL     OW18217   3.197   3.696  15.062 -0.0492  0.3979  0.4998
 2195SOL    HW118218   3.179   3.606  15.035  2.3279  0.9089 -2.7552
 2195SOL    HW218219   3.249   3.669  15.137  0.0297 -2.9706 -0.7533
 2196SOL     OW18220   0.921   3.593  11.003 -0.2019  0.8441  0.2378
 2196SOL    HW118221   0.995   3.559  10.953 -2.1489  1.2562 -2.9095
 2196SOL    HW218222   0.865   3.619  10.930 -0.3013 -0.0331  0.0047
 2197SOL     OW18223   2.455   0.867  11.941 -0.4721  0.3082 -0.2260
 2197SOL    HW118224   2.550   0.876  11.930 -0.4651 -0.4918 -0.8584
 2197SOL    HW218225   2.444   0.773  11.958 -0.6990  0.2427 -0.7469
 2198SOL     OW18226   0.301   2.400   4.473  0.1722  0.4121  0.8135
 2198SOL    HW118227   0.292   2.443   4.558 -2.7398  0.0794  0.6650
 2198SOL    HW218228   0.301   2.311   4.509 -0.6788  0.4026  0.7795
 2199SOL     OW18229   0.422   3.214   2.258  0.5987 -0.2380 -0.5887
 2199SOL    HW118230   0.488   3.240   2.322  3.2804 -0.8425 -3.0609
 2199SOL    HW218231   0.478   3.238   2.183  1.6088 -2.1880 -0.4682
 2200SOL     OW18232   1.485   4.018  11.365 -0.3157  0.3804 -0.2531
 2200SOL    HW118233   1.508   4.110  11.379  1.0361 -0.1245  0.9257
 2200SOL    HW218234   1.487   4.007  11.270 -0.4810 -0.1655 -0.1900
 2201SOL     OW18235   2.079   1.146  13.919  0.3038 -0.3053  0.2624
 2201SOL    HW118236   2.000   1.149  13.866  0.9122  1.7673 -0.5394
 2201SOL    HW218237   2.107   1.056  13.904 -1.0378 -0.9531  1.6744
 2202SOL     OW18238   4.388   4.646   8.706  0.1830  0.1289 -0.1146
 2202SOL    HW118239   4.344   4.576   8.658 -0.2902  1.2890 -1.3634
 2202SOL    HW218240   4.443   4.693   8.644  1.0995  0.0002  0.6029
 2203SOL     OW18241   0.832   3.476  11.969  0.0353  0.3834 -0.0593
 2203SOL    HW118242   0.872   3.503  11.886 -0.9102 -0.9858 -0.9538
 2203SOL    HW218243   0.908   3.501  12.021 -0.7140 -1.4217  1.9097
 2204SOL     OW18244   2.206   1.835  14.723 -0.3124  0.7181  0.0391
 2204SOL    HW118245   2.278   1.775  14.741  0.5693  1.3757 -1.3266
 2204SOL    HW218246   2.222   1.901  14.791  1.5725  0.8512 -0.5395
 2205SOL     OW18247   0.956   0.557  13.701 -0.2355  0.1071  0.6171
 2205SOL    HW118248   1.044   0.540  13.669 -0.4799  1.5823 -0.8536
 2205SOL    HW218249   0.946   0.480  13.757  2.2123  0.3763  1.4136
 2206SOL     OW18250   1.998   0.518   8.774  0.1684  0.4422  0.2454
 2206SOL    HW118251   2.087   0.485   8.760  0.0632 -0.5599  1.8965
 2206SOL    HW218252   1.989   0.467   8.855 -2.4371 -0.4220 -0.5968
 2207SOL     OW18253   1.307   4.283   3.250  0.0147  0.0569  0.1571
 2207SOL    HW118254   1.332   4.237   3.330 -1.6247 -0.8829  0.1197
 2207SOL    HW218255   1.238   4.233   3.207  1.0077  0.0081 -1.3846
 2208SOL     OW18256   4.292   1.518   2.202  0.0852 -0.0779 -0.0813
 2208SOL    HW118257   4.281   1.606   2.237 -1.4826 -0.0462 -0.6631
 2208SOL    HW218258   4.213   1.471   2.227  0.3093 -2.0874 -3.0687
 2209SOL     OW18259   4.730   4.721   1.944  0.3143 -0.5906  0.2754
 2209SOL    HW118260   0.043   4.689   2.017  0.4161 -1.3279 -0.1086
 2209SOL    HW218261   4.652   0.002   1.996  0.3150  0.3603 -0.0846
 2210SOL     OW18262   0.070   3.626   4.228  0.0631  0.3395 -0.1349
 2210SOL    HW118263   0.134   3.679   4.180  1.4605  0.6203  2.0504
 2210SOL    HW218264   4.734   3.686   4.219  0.1815  0.6068  0.6675
 2211SOL     OW18265   3.505   2.447  13.377 -0.3608 -0.3822  0.4005
 2211SOL    HW118266   3.471   2.534  13.401 -3.7556 -1.0889 -1.7523
 2211SOL    HW218267   3.460   2.401  13.448  0.4560 -1.9417 -0.1181
 2212SOL     OW18268   2.942   1.063  14.466 -0.4508  0.1630 -0.0087
 2212SOL    HW118269   2.861   1.102  14.432 -1.0848 -2.3613 -1.4917
 2212SOL    HW218270   3.015   1.116  14.434 -2.7550  3.3693  0.0324
 2213SOL     OW18271   4.401   0.721   4.589  0.0410 -0.7470 -0.1246
 2213SOL    HW118272   4.358   0.730   4.504 -1.5003  1.2912  0.8897
 2213SOL    HW218273   4.447   0.642   4.561  1.8544  0.1446  0.3152
 2214SOL     OW18274   4.505   4.048   5.602  0.1672 -0.0231  0.2295
 2214SOL    HW118275   4.479   4.100   5.678 -2.0635  0.1100 -0.5991
 2214SOL    HW218276   4.582   4.094   5.568  1.0889 -0.6555  1.4805
 2215SOL     OW18277   3.766   0.355   4.813 -0.1299 -0.4510  0.1204
 2215SOL    HW118278   3.838   0.359   4.750 -0.8531 -0.8906 -0.7299
 2215SOL    HW218279   3.784   0.421   4.880  2.6942 -1.0695 -0.0330
 2216SOL     OW18280   2.302   2.095  15.180  0.5694  0.3726  0.2496
 2216SOL    HW118281   2.378   2.100  15.123  0.7796  2.8138  0.7398
 2216SOL    HW218282   2.242   2.152  15.132 -3.0746 -2.9424  0.8120
 2217SOL     OW18283   2.599   1.243   2.269  0.0442  0.3243 -0.2377
 2217SOL    HW118284   2.691   1.223   2.251 -0.1008  0.8798 -1.5587
 2217SOL    HW218285   2.582   1.309   2.201 -1.3427 -0.1466 -0.3424
 2218SOL     OW18286   3.026   3.504   7.704 -0.5451 -0.1040 -0.9189
 2218SOL    HW118287   2.996   3.479   7.792 -1.6325 -0.6872 -1.4546
 2218SOL    HW218288   3.021   3.417   7.664 -2.5752 -0.3861 -0.0460
 2219SOL     OW18289   2.302   2.547   5.308 -0.0441  0.1420 -0.5346
 2219SOL    HW118290   2.360   2.574   5.379  0.6043 -2.2980 -0.1474
 2219SOL    HW218291   2.359   2.549   5.232  1.0542 -1.0169  0.2717
 2220SOL     OW18292   1.955   2.505   9.854  0.5787  0.2303 -0.8425
 2220SOL    HW118293   1.917   2.549   9.777 -2.7747 -1.1837  0.0121
 2220SOL    HW218294   1.874   2.477   9.896  0.6124  0.6423 -0.5090
 2221SOL     OW18295   1.774   2.383   5.683 -0.1264 -0.5449  0.1892
 2221SOL    HW118296   1.724   2.462   5.700  1.0281 -0.0987  1.4573
 2221SOL    HW218297   1.717   2.306   5.679 -0.5605 -0.1457 -1.3262
 2222SOL     OW18298   3.203   0.180   8.874  0.0840 -0.1518 -0.3219
 2222SOL    HW118299   3.213   0.126   8.796 -1.2338 -0.3849 -0.3242
 2222SOL    HW218300   3.180   0.110   8.935 -0.0797  2.4061  2.5598
 2223SOL     OW18301   4.362   3.899  14.664 -0.3416  0.2663  0.4218
 2223SOL    HW118302   4.417   3.912  14.741  1.2435  0.5375 -0.7555
 2223SOL    HW218303   4.276   3.897  14.705 -0.8746  2.2151 -0.6355
 2224SOL     OW18304   1.133   3.978  10.489 -0.0998  0.1384  0.4781
 2224SOL    HW118305   1.042   3.990  10.515 -0.4473  1.2749 -1.2859
 2224SOL    HW218306   1.164   4.068  10.495  0.2057  0.1861 -1.8184
 2225SOL     OW18307   3.886   2.252   9.934 -0.4159 -0.0949  0.4765
 2225SOL    HW118308   3.911   2.344   9.944 -1.7985  0.2770  0.5393
 2225SOL    HW218309   3.804   2.259   9.885  0.8083  1.2786 -1.3759
 2226SOL     OW18310   3.551   2.520   9.188  0.2175  0.2833 -0.0905
 2226SOL    HW118311   3.526   2.612   9.190  1.1919  0.5367  1.1037
 2226SOL    HW218312   3.647   2.524   9.198  0.2555 -0.6407 -0.1248
 2227SOL     OW18313   2.866   1.790  17.569 -0.2208 -0.2879 -0.3935
 2227SOL    HW118314   2.894   1.849  17.639 -2.1151  2.0408 -1.5688
 2227SOL    HW218315   2.951   1.761  17.537 -1.8664 -0.6807 -4.4114
 2228SOL     OW18316   2.614   3.687   9.197 -0.1979 -0.6609 -0.5935
 2228SOL    HW118317   2.601   3.688   9.292 -0.3985  0.1420 -0.6248
 2228SOL    HW218318   2.676   3.759   9.184  1.1102 -1.4224  1.3887
 2229SOL     OW18319   0.608   3.556   2.627  0.0719  0.2461  0.0963
 2229SOL    HW118320   0.615   3.637   2.677  1.4383 -0.0944  0.4707
 2229SOL    HW218321   0.611   3.587   2.536  2.2579  1.2158  0.4943
 2230SOL     OW18322   4.206   0.866  14.832  0.8028  0.4418  0.3120
 2230SOL    HW118323   4.123   0.858  14.785  0.5699 -1.3959  1.0120
 2230SOL    HW218324   4.257   0.897  14.758  2.9873  0.1383  1.6606
 2231SOL     OW18325   3.258   0.433   5.951 -0.1788  0.0529  0.4114
 2231SOL    HW118326   3.265   0.512   5.899 -0.3177 -1.6662 -2.1917
 2231SOL    HW218327   3.338   0.385   5.927  0.9802  1.9948  0.4448
 2232SOL     OW18328   3.295   4.352  10.802  0.2906 -0.3160  0.2487
 2232SOL    HW118329   3.315   4.333  10.711 -1.5893 -4.0983  0.6045
 2232SOL    HW218330   3.206   4.387  10.803  0.5420  0.3357 -0.2242
 2233SOL     OW18331   2.189   0.875   8.406 -0.3406 -0.2642 -0.4009
 2233SOL    HW118332   2.259   0.939   8.421 -0.3363 -0.4289  0.2656
 2233SOL    HW218333   2.243   0.801   8.379  1.3475  0.4713  0.9182
 2234SOL     OW18334   3.139   3.668   6.723 -0.3932 -0.0132 -0.1039
 2234SOL    HW118335   3.222   3.709   6.701  0.7671 -2.2294  0.1102
 2234SOL    HW218336   3.143   3.671   6.819  3.6785  0.0014 -0.2902
 2235SOL     OW18337   1.944   3.576   6.598 -0.4272  0.5618  0.3674
 2235SOL    HW118338   1.854   3.605   6.582 -0.7015  0.6602  2.0911
 2235SOL    HW218339   1.992   3.653   6.568 -0.2774 -0.1008 -1.0771
 2236SOL     OW18340   3.252   0.313   2.877  0.1752  0.1801  0.4546
 2236SOL    HW118341   3.329   0.290   2.825 -0.3172 -0.0769 -0.1635
 2236SOL    HW218342   3.253   0.408   2.877 -1.4627  0.1872  0.2135
 2237SOL     OW18343   0.749   1.374  13.606 -0.2647  0.4461 -0.5137
 2237SOL    HW118344   0.827   1.403  13.653  0.6869 -3.6549  0.4480
 2237SOL    HW218345   0.710   1.313  13.669  0.2688  0.9889  0.3418
 2238SOL     OW18346   1.222   3.393   4.994  0.2717  0.3262  0.1468
 2238SOL    HW118347   1.247   3.334   5.065 -1.1390  0.9118  1.1511
 2238SOL    HW218348   1.142   3.430   5.033  0.7083  2.0054 -0.5221
 2239SOL     OW18349   2.710   2.079  11.972  0.4510  0.0155 -0.3144
 2239SOL    HW118350   2.799   2.057  11.945 -0.2417 -1.6675 -1.2253
 2239SOL    HW218351   2.662   2.120  11.901  0.7821 -0.7699 -0.9945
 2240SOL     OW18352   0.715   1.064   6.233 -0.0285 -0.3541 -0.3170
 2240SOL    HW118353   0.759   1.031   6.154 -1.8703  1.9631 -2.3052
 2240SOL    HW218354   0.624   1.041   6.214 -0.5182 -0.6370  2.3588
 2241SOL     OW18355   4.254   2.020  11.432 -0.1201  0.6542 -0.3464
 2241SOL    HW118356   4.308   1.989  11.506 -0.0458  1.7509  0.0677
 2241SOL    HW218357   4.255   2.114  11.454  4.2415  0.4675  0.4023
 2242SOL     OW18358   4.233   3.175  17.332  0.7988 -0.4909 -0.2695
 2242SOL    HW118359   4.306   3.125  17.295 -0.3451 -0.4571 -2.5864
 2242SOL    HW218360   4.232   3.246  17.268 -1.1593 -0.9725 -0.7857
 2243SOL     OW18361   1.349   1.963   6.857 -0.1876  0.2427 -0.3195
 2243SOL    HW118362   1.415   2.014   6.904  0.5504 -1.5901  0.5987
 2243SOL    HW218363   1.309   2.027   6.798  0.1883  0.8021  0.0358
 2244SOL     OW18364   4.310   2.920   5.512 -0.5587  0.8672 -0.4324
 2244SOL    HW118365   4.380   2.863   5.480  0.5232  1.4512  0.9273
 2244SOL    HW218366   4.295   2.959   5.426  0.3355 -0.8670 -1.3824
 2245SOL     OW18367   1.381   4.071  10.098  0.2079  0.0273 -0.1339
 2245SOL    HW118368   1.395   4.145  10.156  2.9728 -1.3576  0.9667
 2245SOL    HW218369   1.370   4.013  10.173 -0.8643  1.2043  0.6226
 2246SOL     OW18370   3.052   0.694   1.306 -0.0019 -0.5819 -0.0273
 2246SOL    HW118371   3.126   0.634   1.296  1.7924  1.4930  0.6185
 2246SOL    HW218372   3.029   0.709   1.215 -0.4439  0.0345  0.1823
 2247SOL     OW18373   4.385   0.783   8.725  0.5740  0.0866 -0.5728
 2247SOL    HW118374   4.364   0.875   8.713  0.1162  0.0165 -0.3169
 2247SOL    HW218375   4.351   0.764   8.813  0.1780  1.7981 -0.3583
 2248SOL     OW18376   0.022   3.541   2.375 -0.2321 -0.3796 -0.4000
 2248SOL    HW118377   0.072   3.538   2.456  0.5733  0.5457 -0.8595
 2248SOL    HW218378   0.073   3.472   2.334 -0.1808 -1.7498  1.9715
 2249SOL     OW18379   3.559   1.798   7.398 -0.3004  0.5899  0.0066
 2249SOL    HW118380   3.471   1.772   7.425  0.2410  0.9133  2.1363
 2249SOL    HW218381   3.598   1.776   7.483 -1.3536  3.3365  1.2073
 2250SOL     OW18382   4.134   1.376  16.137  0.4979  0.0868  0.9147
 2250SOL    HW118383   4.107   1.365  16.046 -0.8771 -1.6593  1.5325
 2250SOL    HW218384   4.214   1.324  16.136  0.5183  0.1524 -0.6734
 2251SOL     OW18385   2.091   1.300   8.852  0.0440  0.1771 -0.0619
 2251SOL    HW118386   2.164   1.297   8.790  0.1324  1.3766 -0.0263
 2251SOL    HW218387   2.077   1.207   8.864 -0.4668  0.0874 -1.2754
 2252SOL     OW18388   1.792   3.072   7.555  0.2029 -0.7378 -0.0957
 2252SOL    HW118389   1.803   3.037   7.466  0.9834 -1.1858  0.1781
 2252SOL    HW218390   1.819   3.160   7.529  0.0849 -1.3296 -2.2399
 2253SOL     OW18391   0.085   0.171  16.894 -0.8040 -0.4631  0.3090
 2253SOL    HW118392   0.119   0.082  16.899  1.8992  0.5968  0.7304
 2253SOL    HW218393   4.736   0.155  16.859 -1.2939  0.7912  0.9452
 2254SOL     OW18394   4.567   3.378  14.564  0.0111 -0.4835  0.0421
 2254SOL    HW118395   4.557   3.347  14.654  0.3072  0.1257  0.2797
 2254SOL    HW218396   4.645   3.329  14.537  0.1473 -0.7335  0.8876
 2255SOL     OW18397   0.319   4.724   5.827 -0.3082 -0.0321  0.6865
 2255SOL    HW118398   0.249   4.671   5.865  0.3220 -1.8296 -0.6447
 2255SOL    HW218399   0.294   0.064   5.875  0.1202  0.5419 -0.0342
 2256SOL     OW18400   3.307   4.142   2.360  0.1671  0.2571 -0.2355
 2256SOL    HW118401   3.288   4.087   2.284 -2.3485 -0.8628  1.2074
 2256SOL    HW218402   3.364   4.210   2.324 -0.1701  0.2143 -0.8427
 2257SOL     OW18403   0.068   3.246   8.291 -0.0705 -0.5539  0.1856
 2257SOL    HW118404   0.001   3.217   8.229 -2.3181  1.2786  1.7538
 2257SOL    HW218405   0.036   3.331   8.323  2.0036  0.4021 -0.2537
 2258SOL     OW18406   4.132   3.250  17.009 -0.4885 -0.3826 -0.6028
 2258SOL    HW118407   4.073   3.308  17.057 -1.6780 -2.1321  0.0499
 2258SOL    HW218408   4.078   3.213  16.939  0.6169  0.1365 -1.7380
 2259SOL     OW18409   2.904   4.201   2.710 -0.1069 -0.0880 -0.1873
 2259SOL    HW118410   2.825   4.204   2.657 -0.1180 -2.2948 -0.3087
 2259SOL    HW218411   2.975   4.235   2.655  1.2826 -1.0712  0.9682
 2260SOL     OW18412   0.017   4.600  14.488  0.0016 -0.3835  0.4923
 2260SOL    HW118413   4.693   4.529  14.501  1.8734 -2.4053 -1.3941
 2260SOL    HW218414   0.080   4.557  14.430  0.1166  0.1019  0.2524
 2261SOL     OW18415   3.797   0.653   7.904  0.3157 -0.3942 -0.0429
 2261SOL    HW118416   3.709   0.683   7.929 -0.1530  0.2507 -2.4149
 2261SOL    HW218417   3.839   0.722   7.853  0.6130 -1.7010 -1.5582
 2262SOL     OW18418   1.795   1.363   8.423 -0.1273  0.3898 -1.0358
 2262SOL    HW118419   1.884   1.333   8.443  0.6963  3.1751 -0.6030
 2262SOL    HW218420   1.792   1.453   8.455 -1.7582 -0.4073  1.0206
 2263SOL     OW18421   4.151   2.646  11.700  0.2829  0.3245 -0.6923
 2263SOL    HW118422   4.132   2.557  11.730  2.8495  0.7707  2.1579
 2263SOL    HW218423   4.142   2.649  11.604 -1.5871 -0.0534 -0.5391
 2264SOL     OW18424   4.008   1.936   3.701  0.2760 -0.5056  0.3944
 2264SOL    HW118425   4.073   1.919   3.633 -1.3780 -1.0246 -1.0602
 2264SOL    HW218426   3.926   1.911   3.659  0.3613  2.9515 -1.8968
 2265SOL     OW18427   4.218   0.572   5.151 -0.4889 -0.0811  0.4028
 2265SOL    HW118428   4.263   0.648   5.187 -0.9273 -0.4779  1.8007
 2265SOL    HW218429   4.286   0.522   5.106 -0.6905  0.9749 -1.0716
 2266SOL     OW18430   4.340   2.140   8.331  0.0780  0.3372 -0.1463
 2266SOL    HW118431   4.405   2.075   8.302  0.1665 -0.4022  1.7445
 2266SOL    HW218432   4.368   2.160   8.420 -2.2602 -0.0957  0.6639
 2267SOL     OW18433   1.562   0.560  16.493 -1.0079 -0.2189 -0.1944
 2267SOL    HW118434   1.637   0.514  16.533 -0.3357 -0.4276 -1.7168
 2267SOL    HW218435   1.577   0.546  16.400 -0.5999  1.0933 -0.3183
 2268SOL     OW18436   0.076   3.261   5.427  0.1672 -0.1285 -0.1114
 2268SOL    HW118437   0.163   3.281   5.460 -0.1272  1.5349 -0.3554
 2268SOL    HW218438   0.053   3.175   5.462  0.5548  0.5096  1.6609
 2269SOL     OW18439   0.514   4.075   1.850 -0.4117  0.2488  0.1692
 2269SOL    HW118440   0.528   3.997   1.797  0.9513  0.6819 -0.0917
 2269SOL    HW218441   0.557   4.051   1.931 -1.5712  0.8715  0.9730
 2270SOL     OW18442   3.620   2.047   3.039  0.3553  0.1708 -0.0334
 2270SOL    HW118443   3.624   2.036   2.945 -0.4133  0.0867 -0.0554
 2270SOL    HW218444   3.566   1.972   3.061  0.5438 -0.7318 -2.7035
 2271SOL     OW18445   3.654   3.342  10.279  0.1569 -0.2514  0.5720
 2271SOL    HW118446   3.697   3.401  10.217 -0.7000 -0.3720 -0.1382
 2271SOL    HW218447   3.612   3.284  10.215  0.2014  0.1829  0.1523
 2272SOL     OW18448   4.077   0.366   8.470 -0.0243 -0.2704  0.6373
 2272SOL    HW118449   4.050   0.437   8.412  1.0339  0.3741  0.9301
 2272SOL    HW218450   4.144   0.419   8.513 -1.5265  2.3421 -0.2723
 2273SOL     OW18451   4.532   0.193   1.237  0.0589  0.0295  0.1333
 2273SOL    HW118452   4.455   0.186   1.294  0.9337 -0.5341  1.2331
 2273SOL    HW218453   4.503   0.260   1.175  0.7896  0.7282  0.5479
 2274SOL     OW18454   4.570   2.583   8.092  0.4051  0.0273 -0.3171
 2274SOL    HW118455   4.493   2.618   8.047 -0.4510 -1.0795  0.2859
 2274SOL    HW218456   4.530   2.523   8.155  0.1100 -0.2610 -0.7770
 2275SOL     OW18457   2.921   4.129   9.149 -0.6650  0.9857 -0.5054
 2275SOL    HW118458   2.878   4.182   9.083  1.9103  2.7653 -0.7601
 2275SOL    HW218459   3.010   4.164   9.149 -0.9538  1.7000 -0.1173
 2276SOL     OW18460   4.624   4.239   0.879  0.2076 -0.5374  0.2131
 2276SOL    HW118461   4.666   4.260   0.795 -3.1089  0.9258 -1.1082
 2276SOL    HW218462   4.699   4.244   0.937  0.1201  2.4120  0.0574
 2277SOL     OW18463   0.389   3.918   8.062 -0.4059  0.5108 -0.0252
 2277SOL    HW118464   0.400   3.830   8.097 -1.4387  0.4492  0.1513
 2277SOL    HW218465   0.324   3.948   8.126  0.3404 -0.8170  1.3481
 2278SOL     OW18466   3.482   3.523   0.509 -0.4869 -0.3961  0.1732
 2278SOL    HW118467   3.434   3.589   0.559 -1.0243  0.1311 -1.0331
 2278SOL    HW218468   3.493   3.567   0.425  0.9385 -3.9666 -1.5286
 2279SOL     OW18469   0.292   2.672  16.697 -0.5592  0.3712  0.1666
 2279SOL    HW118470   0.338   2.634  16.772  0.0569  0.0800 -0.3567
 2279SOL    HW218471   0.373   2.706  16.659  0.1197  1.1079  2.2808
 2280SOL     OW18472   3.991   4.672  10.697 -0.1149 -0.5733 -0.6587
 2280SOL    HW118473   3.962   4.598  10.751 -0.3774  1.9208  2.6341
 2280SOL    HW218474   4.071   4.640  10.657  1.4066  1.4711  0.7922
 2281SOL     OW18475   0.670   2.335  16.008 -0.4739  0.5521 -0.5928
 2281SOL    HW118476   0.585   2.341  16.052 -0.4368 -0.9567 -0.3241
 2281SOL    HW218477   0.692   2.424  15.982  0.4137  0.8437  1.1585
 2282SOL     OW18478   3.932   0.696   8.709 -0.1047  0.5130  0.2943
 2282SOL    HW118479   3.966   0.611   8.735 -0.6044 -0.1371 -1.1641
 2282SOL    HW218480   3.845   0.682   8.674 -0.0687  0.6677  0.1436
 2283SOL     OW18481   2.700   1.239   7.863 -0.2521 -0.2971  0.3276
 2283SOL    HW118482   2.728   1.298   7.933 -0.7332  0.7919 -0.3867
 2283SOL    HW218483   2.606   1.236   7.881 -0.2180 -0.3699  0.4952
 2284SOL     OW18484   3.898   2.703  12.146  0.2594 -0.8107 -0.2538
 2284SOL    HW118485   3.981   2.744  12.119 -0.5822  1.9030  1.3015
 2284SOL    HW218486   3.927   2.673  12.232  1.8189  2.5936  0.4177
 2285SOL     OW18487   4.599   1.668  12.799  0.1899 -0.2117 -0.0302
 2285SOL    HW118488   4.558   1.717  12.870  1.2729  2.6805 -1.4282
 2285SOL    HW218489   4.679   1.631  12.838 -1.5131 -1.6306  2.1117
 2286SOL     OW18490   0.074   4.149   4.327  0.2759 -0.2501 -0.4675
 2286SOL    HW118491   0.020   4.158   4.406 -0.9114 -0.7726 -1.2194
 2286SOL    HW218492   0.017   4.102   4.267 -1.2732 -0.5106  1.2119
 2287SOL     OW18493   4.396   1.165   0.622 -0.0470 -0.1383  0.2291
 2287SOL    HW118494   4.317   1.111   0.616  0.1895 -0.6367  1.5852
 2287SOL    HW218495   4.431   1.137   0.707 -0.0876 -2.8113 -0.6403
 2288SOL     OW18496   2.936   2.474   3.699 -0.2512 -0.1021  0.3783
 2288SOL    HW118497   2.920   2.568   3.690  0.9621 -0.0250 -0.9933
 2288SOL    HW218498   3.031   2.470   3.694 -0.0893  2.1738  1.5805
 2289SOL     OW18499   3.556   4.397   2.802  0.4606  0.2657  0.2875
 2289SOL    HW118500   3.598   4.314   2.779  2.0732  1.0236  0.5040
 2289SOL    HW218501   3.638   4.445   2.812  0.2958  0.5390  0.3077
 2290SOL     OW18502   4.227   0.661   8.954 -0.0486 -0.0777 -0.1257
 2290SOL    HW118503   4.142   0.672   8.998  1.3081  0.7574  2.2943
 2290SOL    HW218504   4.234   0.566   8.959  0.9252 -0.1513 -2.7281
 2291SOL     OW18505   0.433   3.633  14.188 -0.3011 -0.2690 -0.0278
 2291SOL    HW118506   0.501   3.699  14.196 -0.9681  0.7042 -2.3656
 2291SOL    HW218507   0.483   3.553  14.207  0.7211  0.2009 -0.7659
 2292SOL     OW18508   3.620   4.707   4.801  0.1767 -0.1074 -0.2714
 2292SOL    HW118509   3.636   4.637   4.737 -1.6945 -1.0314  0.3026
 2292SOL    HW218510   3.608   0.040   4.739  0.5498 -0.1339 -0.3788
 2293SOL     OW18511   0.332   0.516   4.017 -0.0790 -0.4476  0.7577
 2293SOL    HW118512   0.290   0.507   3.932 -2.0792 -0.9982  1.7983
 2293SOL    HW218513   0.304   0.435   4.060  0.2742 -1.0074 -0.0775
 2294SOL     OW18514   2.624   0.507   6.771 -0.3621 -0.0567  0.2387
 2294SOL    HW118515   2.557   0.490   6.837  1.2886 -2.3190  1.3576
 2294SOL    HW218516   2.578   0.525   6.689 -0.5344 -0.9917  0.1281
 2295SOL     OW18517   3.247   3.758  11.771 -0.6815  0.4644 -0.5119
 2295SOL    HW118518   3.295   3.813  11.833 -0.7984  0.2861 -0.2667
 2295SOL    HW218519   3.289   3.673  11.758  0.7784  0.9749  0.8477
 2296SOL     OW18520   0.746   3.336  10.913 -0.6400 -0.4275  0.1621
 2296SOL    HW118521   0.709   3.297  10.833  0.3135  1.6478 -1.2914
 2296SOL    HW218522   0.840   3.331  10.896 -0.9174 -1.0651 -1.2562
 2297SOL     OW18523   4.385   1.250  14.001 -0.0993 -0.1723 -0.2139
 2297SOL    HW118524   4.331   1.243  13.922  2.5254  2.0045 -2.2232
 2297SOL    HW218525   4.354   1.325  14.051  0.1560 -0.2656  0.0846
 2298SOL     OW18526   0.704   1.522   5.472  0.3941 -0.3964 -0.1933
 2298SOL    HW118527   0.701   1.558   5.560  1.1496  1.6018 -0.9609
 2298SOL    HW218528   0.652   1.581   5.416  1.0619  0.8786  0.5212
 2299SOL     OW18529   2.249   3.558  12.499 -0.0924 -0.0296  0.0611
 2299SOL    HW118530   2.174   3.500  12.486 -0.2805 -0.1203  1.5269
 2299SOL    HW218531   2.257   3.565  12.594 -0.8427  1.0852  0.0325
 2300SOL     OW18532   2.286   0.218  14.578  0.0694  0.0080  0.5055
 2300SOL    HW118533   2.293   0.125  14.597 -0.3804 -0.2502 -0.5698
 2300SOL    HW218534   2.192   0.216  14.558  0.0993  1.0357  0.2364
 2301SOL     OW18535   0.741   1.044   2.751 -0.2480  0.1282  0.3315
 2301SOL    HW118536   0.680   0.976   2.779  0.2911 -0.1939  0.7100
 2301SOL    HW218537   0.810   0.982   2.725  0.1441  0.8856 -0.4525
 2302SOL     OW18538   2.199   0.073   6.420 -0.8410  0.0741  0.0232
 2302SOL    HW118539   2.177   4.719   6.426 -0.5618  0.0097  0.0344
 2302SOL    HW218540   2.206   0.090   6.514 -0.2135  2.9875 -0.5461
 2303SOL     OW18541   2.580   3.013   1.218  0.2035 -0.1664 -0.2626
 2303SOL    HW118542   2.655   3.041   1.271  0.4978 -2.6413  0.6408
 2303SOL    HW218543   2.532   3.095   1.206  1.6326  0.9290  1.5078
 2304SOL     OW18544   3.929   2.828   6.624 -0.4506 -0.4520  0.1956
 2304SOL    HW118545   3.854   2.854   6.572 -0.0870  2.3247  1.0973
 2304SOL    HW218546   3.976   2.910   6.608 -2.6396  1.0341  1.5032
 2305SOL     OW18547   1.104   4.292  10.437  0.5831  0.0230 -0.0254
 2305SOL    HW118548   1.040   4.311  10.506  0.6321  1.1156 -0.2777
 2305SOL    HW218549   1.069   4.329  10.356 -1.4693 -3.2216 -0.5918
 2306SOL     OW18550   0.971   1.815  12.454  0.0294 -0.2474 -0.5878
 2306SOL    HW118551   0.909   1.861  12.397 -1.7188 -0.2442  1.3205
 2306SOL    HW218552   0.938   1.827  12.543 -0.4328  0.0291 -0.7948
 2307SOL     OW18553   4.585   3.434   6.003  0.4590  0.0163 -0.2752
 2307SOL    HW118554   4.520   3.397   5.944  0.8695 -1.2246  0.0606
 2307SOL    HW218555   4.592   3.364   6.067  0.0813  0.5423  0.3417
 2308SOL     OW18556   1.948   3.487   2.432  0.3397  0.0932 -0.6127
 2308SOL    HW118557   1.957   3.576   2.466 -1.6972  0.3050 -0.6505
 2308SOL    HW218558   2.021   3.441   2.473  0.3162  0.8654  0.2832
 2309SOL     OW18559   1.535   4.690   1.947 -0.2982 -0.1890  0.4780
 2309SOL    HW118560   1.506   0.041   1.955  0.1052 -0.0652  0.5481
 2309SOL    HW218561   1.587   4.676   2.027  0.6433 -0.1163 -0.1315
 2310SOL     OW18562   2.102   4.523   4.369 -0.3415 -0.3229 -0.1594
 2310SOL    HW118563   2.078   4.504   4.279 -1.2336  1.0207 -0.1912
 2310SOL    HW218564   2.020   4.570   4.383 -1.2656 -1.2892 -2.5085
 2311SOL     OW18565   4.177   4.211  14.844 -0.5126  0.1358  0.5575
 2311SOL    HW118566   4.093   4.251  14.823 -0.3654  0.9511  1.5130
 2311SOL    HW218567   4.154   4.120  14.825  0.6348 -0.1789  0.6874
 2312SOL     OW18568   1.367   3.667   2.712  0.2631 -0.7690  0.2169
 2312SOL    HW118569   1.393   3.586   2.669  1.3487 -0.9242  1.1916
 2312SOL    HW218570   1.273   3.650   2.721  0.0532  0.5581  0.5363
 2313SOL     OW18571   3.860   0.762   3.228  0.2665 -0.2611 -0.4152
 2313SOL    HW118572   3.943   0.809   3.221  1.6279 -2.8085 -1.2237
 2313SOL    HW218573   3.874   0.724   3.142 -1.2897 -0.6599 -0.4874
 2314SOL     OW18574   1.793   2.415   2.338  0.3246 -0.3229 -0.5929
 2314SOL    HW118575   1.828   2.332   2.369  1.4074  0.7264  1.0358
 2314SOL    HW218576   1.819   2.469   2.413  0.7975 -1.0551 -0.2282
 2315SOL     OW18577   1.091   2.994  13.810  0.1050 -0.0225 -0.5846
 2315SOL    HW118578   1.177   2.988  13.852 -0.1355  0.7076 -0.0086
 2315SOL    HW218579   1.070   3.087  13.816 -1.2852 -0.4479  0.9701
 2316SOL     OW18580   4.262   2.955   3.012  0.9558  0.3788 -0.2404
 2316SOL    HW118581   4.231   3.045   3.006  2.3978  0.9623  1.3564
 2316SOL    HW218582   4.318   2.960   3.089  1.8171  1.3204 -0.9207
 2317SOL     OW18583   2.257   3.548   1.492  0.9663 -0.4816 -0.0057
 2317SOL    HW118584   2.347   3.579   1.478  0.5072  1.0287  0.3972
 2317SOL    HW218585   2.222   3.623   1.540  1.0928  0.4335 -1.3607
 2318SOL     OW18586   0.417   3.300   4.327  0.3226  0.7195  0.4503
 2318SOL    HW118587   0.356   3.373   4.316 -0.9149 -0.1133  1.8165
 2318SOL    HW218588   0.489   3.336   4.380  1.3473 -0.2240 -0.3005
 2319SOL     OW18589   1.332   2.824   3.789 -0.4269  0.0724 -0.4139
 2319SOL    HW118590   1.254   2.769   3.784 -0.8956  0.6245  0.8653
 2319SOL    HW218591   1.392   2.779   3.730 -0.8575 -2.4759  1.0839
 2320SOL     OW18592   3.504   4.123   8.380  0.5938  0.2027 -0.8381
 2320SOL    HW118593   3.571   4.122   8.448 -0.4609  1.7833  0.1996
 2320SOL    HW218594   3.465   4.038   8.401  0.8488  0.1184 -0.7000
 2321SOL     OW18595   0.123   1.977   6.089 -0.1656  0.0172  0.4603
 2321SOL    HW118596   0.155   1.923   6.016 -1.6759  0.6881 -0.7144
 2321SOL    HW218597   0.066   2.036   6.041 -1.2714 -0.5364  1.0896
 2322SOL     OW18598   1.209   4.236   7.230 -0.0699  0.5736 -0.1069
 2322SOL    HW118599   1.139   4.218   7.167  0.6876  0.5467 -0.9511
 2322SOL    HW218600   1.284   4.209   7.176  1.1362 -0.9002  2.3263
 2323SOL     OW18601   1.514   3.365   8.608  0.0813 -0.0753 -0.1166
 2323SOL    HW118602   1.454   3.438   8.594  1.9642  1.9225  2.1738
 2323SOL    HW218603   1.595   3.393   8.565 -0.0480  0.3485 -0.0879
 2324SOL     OW18604   0.622   4.656   3.695  1.1111 -0.1746 -0.4062
 2324SOL    HW118605   0.673   4.575   3.686 -0.9737 -1.7362  1.8677
 2324SOL    HW218606   0.582   4.650   3.609 -0.3116 -0.4038  0.2806
 2325SOL     OW18607   1.772   1.347   1.831  0.1873  0.0400  0.1185
 2325SOL    HW118608   1.798   1.256   1.845  1.0839  0.3347  0.3498
 2325SOL    HW218609   1.729   1.349   1.745 -0.6872  3.0193  0.6399
 2326SOL     OW18610   0.069   0.170   2.378 -0.0339  0.4632 -0.1191
 2326SOL    HW118611   0.013   0.245   2.355 -1.7453 -0.8489 -0.2885
 2326SOL    HW218612   0.034   0.141   2.462 -0.0791  1.5370  0.2320
 2327SOL     OW18613   1.070   2.463   4.273  0.4927  0.0254  0.4386
 2327SOL    HW118614   1.065   2.431   4.183  1.3152  1.1136 -0.0066
 2327SOL    HW218615   1.099   2.554   4.261 -1.5640  0.1629 -3.5814
 2328SOL     OW18616   1.901   0.784   1.759 -0.2550  0.7575  0.4537
 2328SOL    HW118617   1.895   0.695   1.794  1.0341  1.3384  2.1128
 2328SOL    HW218618   1.965   0.773   1.688 -1.1296  0.7519 -0.3411
 2329SOL     OW18619   3.110   2.704  16.721  0.0351 -0.3224 -0.0717
 2329SOL    HW118620   3.118   2.784  16.772 -2.8587 -1.1542  1.7019
 2329SOL    HW218621   3.129   2.734  16.632  1.4329  0.4631  0.4828
 2330SOL     OW18622   3.073   0.600   4.290  0.7066 -0.0895 -0.3135
 2330SOL    HW118623   3.029   0.616   4.206  0.2889  2.3868  0.3813
 2330SOL    HW218624   2.996   0.575   4.342  1.0411  0.0222  0.2394
 2331SOL     OW18625   0.868   1.746   3.133  0.2623  0.0576  0.2055
 2331SOL    HW118626   0.908   1.720   3.216  0.1192  2.3409  1.0053
 2331SOL    HW218627   0.786   1.781   3.167  1.0632  0.9110  1.2644
 2332SOL     OW18628   0.357   2.586  12.422 -0.3638 -0.1442 -0.0950
 2332SOL    HW118629   0.345   2.667  12.372  3.1448  0.3833 -0.1045
 2332SOL    HW218630   0.277   2.549  12.386 -0.5628  1.8980 -1.7906
 2333SOL     OW18631   1.950   4.675   6.318 -0.2185  0.7866 -0.2903
 2333SOL    HW118632   2.019   4.705   6.260  0.6371 -2.6327 -1.0626
 2333SOL    HW218633   1.977   4.583   6.326 -2.2725  0.1430 -0.8963
 2334SOL     OW18634   0.340   0.123   7.366  0.3424 -0.1901 -0.1431
 2334SOL    HW118635   0.413   0.062   7.367 -0.8800 -1.6619 -0.5728
 2334SOL    HW218636   0.376   0.199   7.411  1.0823 -1.1906  0.9712
 2335SOL     OW18637   0.192   2.626   5.536 -0.3929  0.0742  0.3293
 2335SOL    HW118638   0.178   2.720   5.523 -1.8026 -0.0449  0.8942
 2335SOL    HW218639   0.286   2.621   5.550 -0.2748  1.7204  0.1872
 2336SOL     OW18640   2.330   2.018   4.330 -0.1463  0.3488  0.0669
 2336SOL    HW118641   2.363   1.933   4.299 -0.3000  1.4089 -2.9275
 2336SOL    HW218642   2.323   1.999   4.424 -1.4088 -1.0609 -0.3175
 2337SOL     OW18643   0.661   3.020  16.364 -0.1471  0.9376 -0.0572
 2337SOL    HW118644   0.678   2.929  16.338  0.5669  1.3729 -1.1247
 2337SOL    HW218645   0.706   3.024  16.449 -0.8688 -1.7416  0.4499
 2338SOL     OW18646   4.534   3.739   4.174 -0.6038 -0.2301  0.4911
 2338SOL    HW118647   4.541   3.648   4.145 -0.4502 -0.1727  0.3432
 2338SOL    HW218648   4.467   3.739   4.242 -0.1012  1.3737  0.9915
 2339SOL     OW18649   1.042   1.241   3.983  0.2413  0.0509  0.1542
 2339SOL    HW118650   1.077   1.154   3.965 -3.0620 -1.5955  1.6905
 2339SOL    HW218651   0.946   1.236   3.985  0.3393  0.0617  4.4433
 2340SOL     OW18652   0.409   0.336   5.403  0.3229  0.2459  0.5158
 2340SOL    HW118653   0.375   0.256   5.441 -0.0954  0.6754  1.0518
 2340SOL    HW218654   0.394   0.322   5.309  0.3180  0.6672  0.4515
 2341SOL     OW18655   2.817   4.215   0.482  0.3691 -0.5225  0.3700
 2341SOL    HW118656   2.782   4.296   0.517  2.2609  0.2372  0.5092
 2341SOL    HW218657   2.909   4.243   0.489  0.4388 -0.5146 -0.5206
 2342SOL     OW18658   2.197   0.302   4.063 -0.6739  0.0296  0.5312
 2342SOL    HW118659   2.183   0.226   4.119 -0.7822  1.7132  2.7815
 2342SOL    HW218660   2.218   0.367   4.130 -2.7124 -0.5955  1.7379
 2343SOL     OW18661   1.668   1.241   8.231 -0.1647  0.0627 -0.2835
 2343SOL    HW118662   1.709   1.304   8.291 -1.7238 -0.2944  1.1751
 2343SOL    HW218663   1.659   1.166   8.291  2.5413  0.5844  0.7545
 2344SOL     OW18664   3.821   2.384  14.492  0.3162 -0.2500 -0.0698
 2344SOL    HW118665   3.777   2.347  14.415 -0.8637 -1.5125  1.2132
 2344SOL    HW218666   3.764   2.461  14.493  1.8549  0.8732  1.0895
 2345SOL     OW18667   4.621   0.120   0.966 -0.1359  0.6073  0.2407
 2345SOL    HW118668   4.656   0.104   1.053  0.2114  2.2467  0.4017
 2345SOL    HW218669   4.565   0.043   0.956  0.4374  0.1956  0.2201
 2346SOL     OW18670   4.424   1.823  13.760  0.8835 -0.6875  0.6890
 2346SOL    HW118671   4.472   1.844  13.679  0.3753 -2.6651 -0.1278
 2346SOL    HW218672   4.477   1.753  13.797  2.8894  0.2912 -0.3287
 2347SOL     OW18673   2.019   2.180   3.755  0.1089  0.0320 -0.4199
 2347SOL    HW118674   2.005   2.237   3.830  0.7548 -2.2661  1.4353
 2347SOL    HW218675   2.010   2.096   3.800  4.6437 -0.0036  0.3681
 2348SOL     OW18676   1.000   2.419   3.618 -0.0805 -0.3689 -0.3835
 2348SOL    HW118677   1.076   2.405   3.675  0.6174  1.1988 -0.9404
 2348SOL    HW218678   0.937   2.355   3.652 -0.5600  0.4490  0.2805
 2349SOL     OW18679   3.894   3.670   4.957  0.0745  0.1292 -0.1635
 2349SOL    HW118680   3.960   3.733   4.984  1.0380 -0.5610 -0.8690
 2349SOL    HW218681   3.881   3.629   5.043  1.3491 -1.8869 -0.9076
 2350SOL     OW18682   0.291   0.713   8.349  0.1313  0.1883 -0.2739
 2350SOL    HW118683   0.233   0.670   8.411 -1.6843 -1.2088 -2.9588
 2350SOL    HW218684   0.276   0.807   8.360  0.6942  0.4937 -2.1283
 2351SOL     OW18685   2.726   2.872  16.786 -0.3182  0.2679  0.3379
 2351SOL    HW118686   2.719   2.809  16.858  1.0344 -0.1959  0.0687
 2351SOL    HW218687   2.687   2.821  16.716  0.5522  2.8963 -2.0477
 2352SOL     OW18688   4.015   3.717  13.668 -0.6666 -0.5499 -0.2666
 2352SOL    HW118689   4.080   3.778  13.705  0.6004 -1.6223 -0.7253
 2352SOL    HW218690   3.933   3.728  13.717 -0.2477  0.4298  0.2099
 2353SOL     OW18691   2.449   0.198  11.808 -0.0237  0.2427  0.4427
 2353SOL    HW118692   2.371   0.143  11.804  1.7450 -2.3021  1.1478
 2353SOL    HW218693   2.419   0.277  11.762  0.5615 -0.4675 -1.1693
 2354SOL     OW18694   3.421   0.945   5.574 -0.0343  0.2402 -0.1099
 2354SOL    HW118695   3.425   1.022   5.630  0.8979 -0.0859  0.2598
 2354SOL    HW218696   3.473   0.886   5.628  0.2298  0.2075 -0.4014
 2355SOL     OW18697   1.335   4.375  11.049 -0.1877 -0.0484 -0.0734
 2355SOL    HW118698   1.370   4.457  11.084 -0.1000  0.4972 -1.4554
 2355SOL    HW218699   1.402   4.341  10.990 -2.9756 -3.5451 -1.2694
 2356SOL     OW18700   3.497   1.268  14.997 -0.3723 -0.0621  0.5155
 2356SOL    HW118701   3.410   1.301  15.016 -0.4819 -0.1764  0.2017
 2356SOL    HW218702   3.475   1.175  14.991 -0.0212 -0.1837  1.1021
 2357SOL     OW18703   2.872   4.293   4.781  0.0586  0.1704 -0.2527
 2357SOL    HW118704   2.798   4.324   4.833  1.5882  1.7610  0.9742
 2357SOL    HW218705   2.896   4.383   4.756  1.2445 -0.1816 -0.3804
 2358SOL     OW18706   1.220   3.990   4.355 -0.4574 -0.3766 -0.1391
 2358SOL    HW118707   1.205   3.953   4.442 -0.9658  1.8378  0.7231
 2358SOL    HW218708   1.134   4.021   4.326  0.6607  0.2710 -2.7911
 2359SOL     OW18709   1.786   1.351   3.107 -0.0763 -0.3157 -0.2101
 2359SOL    HW118710   1.824   1.402   3.179  1.2608 -0.8559 -0.5384
 2359SOL    HW218711   1.729   1.421   3.075 -0.6983  0.2749  2.1675
 2360SOL     OW18712   2.205   1.354  14.410  0.2943  0.4432 -0.0299
 2360SOL    HW118713   2.177   1.345  14.319  1.3127 -0.2391 -0.2795
 2360SOL    HW218714   2.170   1.268  14.436  1.3375 -0.1488 -0.5547
 2361SOL     OW18715   1.724   3.534   0.100 -0.0807 -0.5809 -0.1886
 2361SOL    HW118716   1.631   3.528   0.079 -0.2184 -1.4431  0.6631
 2361SOL    HW218717   1.717   3.579   0.184  0.2935 -0.9468  0.0438
 2362SOL     OW18718   0.146   1.796   2.483 -0.0547 -0.4719  0.1814
 2362SOL    HW118719   0.166   1.806   2.576 -1.2476  2.0587  0.1619
 2362SOL    HW218720   0.051   1.789   2.479  0.0372 -0.4572 -2.2608
 2363SOL     OW18721   0.415   2.707   4.040 -0.1770  0.0700  0.6059
 2363SOL    HW118722   0.338   2.672   3.996 -0.1970  1.6194 -0.5786
 2363SOL    HW218723   0.374   2.725   4.124  1.3974  0.1173  1.3743
 2364SOL     OW18724   2.115   1.619   7.560  0.5122  0.9410  0.2523
 2364SOL    HW118725   2.189   1.679   7.554 -0.8558  2.6469  0.7554
 2364SOL    HW218726   2.041   1.675   7.584 -1.4750 -0.0126 -3.6435
 2365SOL     OW18727   0.878   2.083  16.243 -0.1108 -0.2339 -0.0602
 2365SOL    HW118728   0.870   1.988  16.235 -1.8539 -0.1047  0.2209
 2365SOL    HW218729   0.941   2.101  16.173  0.0064  2.3678  0.7442
 2366SOL     OW18730   4.052   1.783   1.640 -0.6747  0.0033  0.2550
 2366SOL    HW118731   4.038   1.689   1.632  0.2678 -0.4411  3.6248
 2366SOL    HW218732   3.974   1.810   1.591 -1.8738 -0.5859  1.8357
 2367SOL     OW18733   1.626   0.399   4.795 -0.4435  0.1236  0.6617
 2367SOL    HW118734   1.605   0.492   4.803  1.4123  0.5484  0.7088
 2367SOL    HW218735   1.537   0.372   4.774 -0.2170  0.7957 -1.1295
 2368SOL     OW18736   0.187   0.164   3.263  0.0728 -0.6242  0.1109
 2368SOL    HW118737   0.250   0.234   3.249 -0.7934  0.2892  0.8674
 2368SOL    HW218738   0.177   0.125   3.176  0.9667 -1.4258  0.3632
 2369SOL     OW18739   3.897   4.279  10.075 -0.2311  0.6902  0.3624
 2369SOL    HW118740   3.850   4.306   9.996 -2.6595 -3.1094  0.5029
 2369SOL    HW218741   3.976   4.330  10.055  0.5103 -0.6105 -0.0261
 2370SOL     OW18742   3.675   3.863   3.884 -0.0990  0.0576 -0.5130
 2370SOL    HW118743   3.722   3.830   3.808  0.1002 -0.6741 -0.0746
 2370SOL    HW218744   3.706   3.808   3.956 -0.4099  0.2837 -0.2062
 2371SOL     OW18745   1.949   1.626   1.097 -0.3361 -0.3465 -0.0165
 2371SOL    HW118746   2.028   1.607   1.148  0.7346 -0.0052 -1.5365
 2371SOL    HW218747   1.909   1.692   1.154 -0.4201  2.1430 -2.9662
 2372SOL     OW18748   2.367   3.818   5.926 -0.1548  0.0413 -0.4576
 2372SOL    HW118749   2.295   3.756   5.919 -0.7329  0.5031  1.1498
 2372SOL    HW218750   2.418   3.796   5.849  1.8859 -1.0607  1.1957
 2373SOL     OW18751   2.356   1.239   5.151 -0.6706  0.0942 -0.0659
 2373SOL    HW118752   2.440   1.283   5.139  0.5049 -1.7429  1.5243
 2373SOL    HW218753   2.312   1.307   5.100 -0.3152 -0.9799 -1.8055
 2374SOL     OW18754   3.156   2.943  11.401 -0.0755  0.5070 -0.2189
 2374SOL    HW118755   3.178   3.037  11.400 -2.5023  1.0918  1.9570
 2374SOL    HW218756   3.237   2.902  11.370 -2.1302 -1.7259 -2.5747
 2375SOL     OW18757   0.241   4.229   8.760 -0.0442 -0.4141 -0.1267
 2375SOL    HW118758   0.174   4.189   8.704 -1.0945 -0.1352  0.9319
 2375SOL    HW218759   0.264   4.307   8.711 -1.7732  0.8745  1.1273
 2376SOL     OW18760   2.665   3.171   8.753 -0.2482 -0.2680 -0.1879
 2376SOL    HW118761   2.707   3.246   8.795 -2.5553  0.5949  0.5910
 2376SOL    HW218762   2.575   3.200   8.741  0.4854  2.4899  0.8414
 2377SOL     OW18763   0.731   0.134  15.756  0.1028  0.5416  0.1936
 2377SOL    HW118764   0.723   0.062  15.694  2.7014  1.0090 -0.7206
 2377SOL    HW218765   0.651   0.116  15.805  0.8021 -0.0090  1.1231
 2378SOL     OW18766   2.383   3.653  16.844  0.0523  0.3008  0.1834
 2378SOL    HW118767   2.405   3.615  16.759 -0.3400 -0.7773  0.5640
 2378SOL    HW218768   2.289   3.638  16.847  0.5860 -3.0532 -0.1442
 2379SOL     OW18769   4.503   3.240   6.785  0.4472 -0.0659 -0.1437
 2379SOL    HW118770   4.428   3.191   6.818  0.2851 -0.0421 -0.4851
 2379SOL    HW218771   4.460   3.319   6.753  0.5658  0.7371  1.6355
 2380SOL     OW18772   0.135   2.634  16.480 -0.4306  0.5123 -0.4783
 2380SOL    HW118773   0.180   2.654  16.562  0.0910  1.3564 -0.9674
 2380SOL    HW218774   0.092   2.718  16.462  2.0623  1.9433  0.2487
 2381SOL     OW18775   2.857   0.952   7.923  0.4694 -0.3111  0.5926
 2381SOL    HW118776   2.822   0.994   8.001  0.2210  0.2072  0.2038
 2381SOL    HW218777   2.950   0.935   7.937  0.9354  1.7182  0.0269
 2382SOL     OW18778   1.487   3.441   3.765  0.6509 -0.2332 -0.7146
 2382SOL    HW118779   1.531   3.367   3.723  0.2945 -1.1495  0.5213
 2382SOL    HW218780   1.497   3.395   3.849 -0.5013 -0.4241 -0.6846
 2383SOL     OW18781   4.150   1.332  17.591 -0.4134  0.7409 -0.2914
 2383SOL    HW118782   4.121   1.242  17.581  0.9115  0.4701 -1.7199
 2383SOL    HW218783   4.240   1.328  17.625 -0.4902  2.3124  0.1360
 2384SOL     OW18784   4.263   2.654   8.644 -0.2483 -0.1556  0.3712
 2384SOL    HW118785   4.197   2.699   8.697  0.1167  0.0879  0.6143
 2384SOL    HW218786   4.234   2.563   8.636 -1.1334  0.2770 -1.4089
 2385SOL     OW18787   2.081   2.807   2.395 -0.3980  0.3512 -0.0059
 2385SOL    HW118788   2.023   2.794   2.320  0.2772 -0.3955 -0.4000
 2385SOL    HW218789   2.060   2.887   2.443 -1.2809 -0.1243  0.4081
 2386SOL     OW18790   3.305   2.796   6.773 -0.2348 -0.1286  0.5326
 2386SOL    HW118791   3.261   2.736   6.833 -2.2014  1.7195  0.9611
 2386SOL    HW218792   3.387   2.799   6.821  0.9752 -1.2526 -1.4504
 2387SOL     OW18793   3.384   0.371  15.510  0.1216  0.0965 -0.4944
 2387SOL    HW118794   3.429   0.396  15.429  2.1688  0.0381  0.6135
 2387SOL    HW218795   3.337   0.452  15.531 -0.1869  0.2303 -1.6992
 2388SOL     OW18796   1.552   3.561  13.064  0.3637 -0.0143  0.2191
 2388SOL    HW118797   1.607   3.626  13.109 -0.1274 -0.6567  1.7646
 2388SOL    HW218798   1.613   3.493  13.035 -1.2750 -1.3806  0.0311
 2389SOL     OW18799   0.906   2.090   5.679 -0.7169  0.6244 -0.0972
 2389SOL    HW118800   0.842   2.021   5.662  0.1284 -0.6169  1.7120
 2389SOL    HW218801   0.963   2.031   5.730  1.7999  2.6951 -0.5088
 2390SOL     OW18802   3.020   3.410   1.773 -0.3375 -0.1106 -0.1064
 2390SOL    HW118803   3.022   3.316   1.758  1.9830 -0.3690  1.7596
 2390SOL    HW218804   3.054   3.420   1.862 -0.9621 -2.9149  0.4411
 2391SOL     OW18805   4.621   3.330   4.835  0.5644  0.8341  0.2728
 2391SOL    HW118806   4.560   3.403   4.832 -0.5491 -0.2054 -3.4907
 2391SOL    HW218807   4.701   3.372   4.867  1.6275 -1.0791  0.1501
 2392SOL     OW18808   1.288   1.641   6.877  0.0692  0.9007 -0.3263
 2392SOL    HW118809   1.324   1.726   6.903 -1.2222  1.2523  0.3265
 2392SOL    HW218810   1.287   1.649   6.782 -0.6733  1.1960 -0.2929
 2393SOL     OW18811   2.160   3.655   4.230 -0.4291 -0.5993  0.1701
 2393SOL    HW118812   2.152   3.710   4.152 -4.1513 -0.2135  0.8121
 2393SOL    HW218813   2.083   3.597   4.226  0.7265 -2.1447  0.3381
 2394SOL     OW18814   1.085   3.575   8.716  0.2514  0.0888  0.0930
 2394SOL    HW118815   1.107   3.668   8.713 -0.8445  0.3758  0.7907
 2394SOL    HW218816   1.174   3.540   8.720  0.7257  1.3446  0.8148
 2395SOL     OW18817   0.873   0.224   8.276  0.0723 -0.3626 -0.1455
 2395SOL    HW118818   0.862   0.140   8.319 -0.5895  0.5255  1.3987
 2395SOL    HW218819   0.915   0.264   8.352  1.1211  0.4450 -1.1297
 2396SOL     OW18820   3.028   1.194   4.336  0.3187  0.2386  0.1015
 2396SOL    HW118821   3.073   1.168   4.416  0.5683  1.3019  0.3027
 2396SOL    HW218822   3.010   1.287   4.347 -1.6845 -0.0708 -0.6529
 2397SOL     OW18823   1.193   1.929   7.150  0.5261 -0.1960  0.2681
 2397SOL    HW118824   1.146   1.977   7.082  0.0865  0.1697  0.8274
 2397SOL    HW218825   1.272   1.914   7.098 -0.5939  1.2649 -1.8461
 2398SOL     OW18826   2.308   4.361   3.669  0.0685 -0.3466 -0.1530
 2398SOL    HW118827   2.385   4.394   3.623  1.1471 -1.1943  1.0809
 2398SOL    HW218828   2.357   4.309   3.733  0.1885 -0.0745 -0.0278
 2399SOL     OW18829   1.634   2.515   4.881  0.2136 -0.3252 -0.2127
 2399SOL    HW118830   1.591   2.500   4.966 -2.6206  0.3441 -1.5282
 2399SOL    HW218831   1.559   2.492   4.827 -1.4162  0.6332  1.6240
 2400SOL     OW18832   2.539   1.886   7.382  0.2019  0.6061 -0.2959
 2400SOL    HW118833   2.611   1.875   7.320  0.1519 -1.3601 -0.0190
 2400SOL    HW218834   2.537   1.980   7.397  2.1598  0.2671  1.9565
 2401SOL     OW18835   2.996   4.625   1.470 -0.0140 -0.4690 -0.2235
 2401SOL    HW118836   3.013   4.563   1.400  2.0501 -0.4109  0.2248
 2401SOL    HW218837   2.919   4.667   1.432 -0.2746  0.6246  1.5067
 2402SOL     OW18838   1.641   1.778   6.732  0.4408  0.0925  0.5137
 2402SOL    HW118839   1.706   1.840   6.763  1.2771 -1.4342  1.8639
 2402SOL    HW218840   1.630   1.723   6.810 -1.4669  0.9045  0.8144
 2403SOL     OW18841   3.099   2.097   8.156  0.4728 -0.1401  0.3571
 2403SOL    HW118842   3.125   2.008   8.182 -0.1354 -0.6563 -0.7739
 2403SOL    HW218843   3.110   2.090   8.061 -0.6189 -1.4747  0.3165
 2404SOL     OW18844   4.100   0.399  13.223  0.7838  0.4383 -0.5417
 2404SOL    HW118845   4.055   0.320  13.252  2.3448  1.0935  3.6367
 2404SOL    HW218846   4.028   0.460  13.207  1.4771  0.6729 -2.7516
 2405SOL     OW18847   0.801   3.323  14.058 -0.1185  0.0757 -0.0965
 2405SOL    HW118848   0.879   3.269  14.058 -0.1173  0.0652  3.5159
 2405SOL    HW218849   0.805   3.359  13.970  1.0611 -0.5016 -0.2719
 2406SOL     OW18850   3.078   3.146   2.550  0.0434  0.2529  0.4498
 2406SOL    HW118851   3.121   3.207   2.610  1.6419 -0.1328 -0.3002
 2406SOL    HW218852   3.140   3.155   2.477  0.8573  1.7459  1.3170
 2407SOL     OW18853   3.240   2.238   7.329  0.3625 -0.4971  0.3380
 2407SOL    HW118854   3.325   2.274   7.352 -0.5176  0.9671  1.3401
 2407SOL    HW218855   3.268   2.154   7.292 -1.6071 -0.6595 -0.7976
 2408SOL     OW18856   1.854   1.718   0.153 -0.5009 -0.0452 -0.3356
 2408SOL    HW118857   1.862   1.643   0.212 -1.6649  0.8252  0.9239
 2408SOL    HW218858   1.919   1.777   0.193  1.4661 -1.4017 -1.5282
 2409SOL     OW18859   3.691   2.651   9.419 -0.4251 -0.0769  0.0109
 2409SOL    HW118860   3.644   2.596   9.482  0.3753 -0.8050 -0.0144
 2409SOL    HW218861   3.724   2.587   9.356  0.6613  0.8498 -0.3537
 2410SOL     OW18862   1.306   0.611  17.554  0.1360  0.4042  0.4315
 2410SOL    HW118863   1.301   0.547  17.483 -1.2529 -1.0498  1.8309
 2410SOL    HW218864   1.323   0.561  17.634  0.5798 -2.4935 -1.4792
 2411SOL     OW18865   4.333   0.587   6.825 -0.3178  0.1998 -0.4190
 2411SOL    HW118866   4.256   0.630   6.787 -1.2770 -1.4067 -0.2488
 2411SOL    HW218867   4.326   0.500   6.786  4.2085  0.0543 -0.9058
 2412SOL     OW18868   3.386   2.056   1.059  0.4955 -0.5426  0.1904
 2412SOL    HW118869   3.363   2.088   1.147 -1.3307 -0.7594 -0.1928
 2412SOL    HW218870   3.477   2.030   1.071  0.1099 -0.9204  2.2723
 2413SOL     OW18871   2.193   2.260  16.043  0.3356  0.4916  0.1908
 2413SOL    HW118872   2.188   2.298  16.130 -0.5637 -0.3905  0.5277
 2413SOL    HW218873   2.185   2.340  15.991 -0.0130  0.0088 -0.5078
 2414SOL     OW18874   4.569   0.993   4.015 -0.4166 -0.8535  0.2662
 2414SOL    HW118875   4.536   1.020   4.101 -0.8838  0.0615 -0.1948
 2414SOL    HW218876   4.499   1.036   3.965 -0.8090 -0.7265  0.9125
 2415SOL     OW18877   0.583   3.205  14.370  0.1485 -0.1765 -0.1421
 2415SOL    HW118878   0.626   3.263  14.309  1.0034  0.2629  0.8834
 2415SOL    HW218879   0.526   3.150  14.315 -0.2664 -1.8937  1.9628
 2416SOL     OW18880   3.814   1.625   3.141 -0.0065  0.1183  0.1178
 2416SOL    HW118881   3.766   1.606   3.060 -0.0084 -1.1591  0.4165
 2416SOL    HW218882   3.899   1.648   3.104  0.7321 -1.2511  0.9675
 2417SOL     OW18883   0.002   0.140   6.866 -0.0542 -0.6914  0.3757
 2417SOL    HW118884   4.708   0.090   6.940 -0.0203 -0.2471  0.6933
 2417SOL    HW218885   0.065   0.077   6.832  1.9851  0.4087  2.0784
 2418SOL     OW18886   3.249   2.490   3.116  0.1224 -0.2846  0.4890
 2418SOL    HW118887   3.299   2.465   3.193 -0.1605 -0.0530  0.7472
 2418SOL    HW218888   3.253   2.586   3.121 -0.0452 -0.2442 -0.1056
 2419SOL     OW18889   0.180   2.720   2.189 -0.5814 -0.3965  0.6149
 2419SOL    HW118890   0.099   2.754   2.151 -0.2847  0.0574  0.3849
 2419SOL    HW218891   0.249   2.743   2.126 -0.6980  0.0357  0.6454
 2420SOL     OW18892   0.136   0.413  15.161 -0.0606 -0.9121  0.8873
 2420SOL    HW118893   0.066   0.347  15.156  0.1408 -1.0725  0.2746
 2420SOL    HW218894   0.203   0.350  15.187  0.1536 -0.2214  2.0002
 2421SOL     OW18895   1.877   1.137   2.460 -0.0309  0.1131  0.0556
 2421SOL    HW118896   1.929   1.063   2.491  0.3797  1.0460  1.6320
 2421SOL    HW218897   1.801   1.135   2.519  0.3167  1.1020  0.5315
 2422SOL     OW18898   1.233   1.492   4.976 -0.0116  0.1969 -0.9001
 2422SOL    HW118899   1.210   1.447   4.894 -2.2403  0.3463 -0.3605
 2422SOL    HW218900   1.163   1.462   5.033  1.0794 -0.7589 -0.0612
 2423SOL     OW18901   3.204   1.610   6.155  0.1418  0.8938  0.3955
 2423SOL    HW118902   3.178   1.518   6.165 -2.0610  1.5511  0.7080
 2423SOL    HW218903   3.293   1.598   6.122  0.8452 -0.7067  2.8422
 2424SOL     OW18904   1.624   0.202   3.110  0.1267  0.2249 -0.0516
 2424SOL    HW118905   1.606   0.128   3.168  2.0002  0.5994  1.0028
 2424SOL    HW218906   1.552   0.197   3.046 -2.9512  1.2623  3.3236
 2425SOL     OW18907   2.419   3.332  12.718  0.2514  0.0253  0.1058
 2425SOL    HW118908   2.388   3.421  12.701  3.4002  1.1584  0.4378
 2425SOL    HW218909   2.485   3.315  12.651 -0.6786 -0.1522 -0.7722
 2426SOL     OW18910   1.310   0.615   8.108  0.1771 -0.4715 -0.1383
 2426SOL    HW118911   1.398   0.584   8.129 -0.1342 -0.1291  1.6350
 2426SOL    HW218912   1.312   0.711   8.104 -3.8322 -0.3573  0.4796
 2427SOL     OW18913   1.292   0.004  11.965  0.2035 -0.2950  0.5507
 2427SOL    HW118914   1.384   0.002  11.992  0.1378  2.4712  1.0241
 2427SOL    HW218915   1.306   4.730  11.871 -1.6963  0.2222  0.1911
 2428SOL     OW18916   1.674   4.371   4.379  0.0061  0.2962 -0.0248
 2428SOL    HW118917   1.605   4.316   4.415  2.3185 -2.0119  0.9321
 2428SOL    HW218918   1.737   4.303   4.356 -0.9119 -0.8456  0.8669
 2429SOL     OW18919   4.336   0.374   7.961  0.4678 -0.5214  0.1117
 2429SOL    HW118920   4.318   0.466   7.940  2.3504  0.1640  1.5479
 2429SOL    HW218921   4.260   0.337   7.916 -0.5739  1.7856 -0.0652
 2430SOL     OW18922   4.492   0.085   4.263  0.0776  0.4451  0.1734
 2430SOL    HW118923   4.411   0.134   4.279 -0.8911 -0.7027 -1.2351
 2430SOL    HW218924   4.532   0.130   4.189  0.9791  1.5036  1.2892
 2431SOL     OW18925   3.803   3.701   6.050 -0.2007 -0.0290 -0.2805
 2431SOL    HW118926   3.891   3.731   6.071 -0.8955  1.0139  1.1602
 2431SOL    HW218927   3.748   3.767   6.093  2.5090  1.7173  0.4491
 2432SOL     OW18928   4.114   2.307   0.111  0.3953  0.7123 -0.2693
 2432SOL    HW118929   4.023   2.279   0.099  0.5701  1.1867 -2.7964
 2432SOL    HW218930   4.135   2.256   0.189 -1.6482 -2.4122 -1.7648
 2433SOL     OW18931   1.448   3.003   0.401  0.0399  0.3214  0.2987
 2433SOL    HW118932   1.451   2.971   0.311  1.9811 -0.8832  0.8026
 2433SOL    HW218933   1.512   3.074   0.408  0.1986  0.1585  0.4851
 2434SOL     OW18934   3.099   3.970   9.660  0.4325  0.5028 -0.2544
 2434SOL    HW118935   3.133   3.882   9.646  1.5379  1.0489 -1.1279
 2434SOL    HW218936   3.135   3.996   9.745  0.4592 -0.5578  0.0505
 2435SOL     OW18937   4.179   0.526   3.235  0.0295  0.7256  0.2044
 2435SOL    HW118938   4.224   0.555   3.315 -2.1967 -0.2567  1.8280
 2435SOL    HW218939   4.225   0.448   3.204  0.4300  0.5285  1.2930
 2436SOL     OW18940   1.967   2.929  10.201 -0.5897 -0.0172  0.0727
 2436SOL    HW118941   1.941   2.853  10.253 -2.4683 -0.4740 -1.5172
 2436SOL    HW218942   2.031   2.969  10.260 -0.7319  1.9227 -1.0830
 2437SOL     OW18943   1.094   2.866  10.461  0.5682  0.2930 -0.2999
 2437SOL    HW118944   1.167   2.856  10.400  0.0937 -0.5166 -0.7358
 2437SOL    HW218945   1.027   2.870  10.393 -1.8935  0.7229  2.1565
 2438SOL     OW18946   4.604   1.800  12.543 -0.5678 -0.1243  0.1311
 2438SOL    HW118947   4.566   1.744  12.610 -2.4845 -0.3509 -1.1173
 2438SOL    HW218948   4.632   1.735  12.478  0.8653  2.4771 -1.8857
 2439SOL     OW18949   2.991   3.735   7.296  0.1614  0.2306 -0.6391
 2439SOL    HW118950   2.939   3.738   7.216 -0.8986  2.3065  0.1304
 2439SOL    HW218951   2.982   3.646   7.332 -1.8107  0.4776 -0.5036
 2440SOL     OW18952   1.963   0.969   7.139 -0.1556  0.0424  0.7733
 2440SOL    HW118953   1.919   0.964   7.223  0.6966  0.8226  1.2640
 2440SOL    HW218954   1.897   1.014   7.086 -0.0859 -0.4857  0.2353
 2441SOL     OW18955   3.767   4.294   5.380  0.1098 -0.0623  0.0040
 2441SOL    HW118956   3.860   4.282   5.359  0.0155 -0.0284 -0.4526
 2441SOL    HW218957   3.771   4.343   5.461 -3.0882  2.4911 -1.3561
 2442SOL     OW18958   0.518   1.761  12.359 -0.1805  0.3615 -0.1155
 2442SOL    HW118959   0.584   1.736  12.424 -0.3815 -0.2651 -0.1538
 2442SOL    HW218960   0.454   1.793  12.422 -0.7375  0.8107 -0.9080
 2443SOL     OW18961   0.713   3.314   3.622 -0.2109 -0.0201 -0.4078
 2443SOL    HW118962   0.652   3.388   3.621  0.1761  0.2746 -1.6534
 2443SOL    HW218963   0.752   3.312   3.709 -1.4072  0.6720  0.1473
 2444SOL     OW18964   0.265   1.348   4.515 -0.6751  0.1242 -0.2187
 2444SOL    HW118965   0.311   1.408   4.456 -1.1892  0.3012 -0.4412
 2444SOL    HW218966   0.183   1.397   4.524  0.1701  1.9850 -2.7713
 2445SOL     OW18967   2.838   2.878   0.999 -0.6660 -0.1055 -0.0010
 2445SOL    HW118968   2.861   2.935   0.925  0.6679  1.1179  1.3524
 2445SOL    HW218969   2.745   2.864   0.980 -0.1407 -2.1016 -1.0687
 2446SOL     OW18970   0.005   2.897  12.537 -0.5761  0.0521 -0.0459
 2446SOL    HW118971   4.735   2.826  12.601 -1.3938 -0.7133 -1.0252
 2446SOL    HW218972   0.048   2.962  12.593 -0.6469 -2.5808  3.1062
 2447SOL     OW18973   1.700   2.656   7.088 -0.0737  0.0373  0.0951
 2447SOL    HW118974   1.743   2.689   7.009  1.7683 -0.7654  0.7790
 2447SOL    HW218975   1.623   2.712   7.093  0.9567  1.4078  0.7941
 2448SOL     OW18976   1.036   3.260   7.413 -0.5914  0.5469 -0.1520
 2448SOL    HW118977   1.072   3.233   7.497  0.6415  1.7742 -0.2774
 2448SOL    HW218978   1.014   3.352   7.429 -0.5343  0.6449 -0.6314
 2449SOL     OW18979   4.416   1.637   2.493 -0.1345 -0.2666  0.7670
 2449SOL    HW118980   4.425   1.544   2.472  0.3162  0.1931 -1.0563
 2449SOL    HW218981   4.367   1.669   2.417 -1.5809 -0.9476  1.4034
 2450SOL     OW18982   2.490   0.508   9.652  0.3493 -0.2627 -0.3937
 2450SOL    HW118983   2.579   0.477   9.636  1.2256  1.0357  1.9782
 2450SOL    HW218984   2.470   0.526   9.560 -0.1813  0.4529 -0.1417
 2451SOL     OW18985   2.709   1.063   8.634  0.3630 -0.3207 -0.4545
 2451SOL    HW118986   2.717   1.012   8.715 -3.6894  1.2526  0.9056
 2451SOL    HW218987   2.630   1.115   8.652  0.4346 -0.9019  1.6352
 2452SOL     OW18988   3.490   1.818   0.276 -0.4852  0.0164  0.9606
 2452SOL    HW118989   3.427   1.777   0.217 -0.0569 -1.8345  1.8011
 2452SOL    HW218990   3.441   1.820   0.358  0.7020 -0.8037  1.6824
 2453SOL     OW18991   2.935   2.874   4.869  0.3240 -0.0075  0.4828
 2453SOL    HW118992   3.013   2.858   4.923 -1.5092 -0.5182  2.9620
 2453SOL    HW218993   2.905   2.954   4.911  0.4706 -0.1792  0.9115
 2454SOL     OW18994   4.181   4.091   5.994  0.0836  0.3549  0.1335
 2454SOL    HW118995   4.262   4.140   6.008 -0.5596  1.2182  0.8152
 2454SOL    HW218996   4.121   4.150   6.039 -2.2689 -1.7970 -0.1648
 2455SOL     OW18997   2.567   0.183   8.974 -0.1476 -0.3010  0.0436
 2455SOL    HW118998   2.535   0.124   9.042 -1.2637  0.2007 -0.0464
 2455SOL    HW218999   2.643   0.127   8.955  0.4216  0.1832  0.8591
 2456SOL     OW19000   2.136   0.098   4.252 -0.2495 -0.1007 -0.4088
 2456SOL    HW119001   2.176   0.106   4.339 -0.1185 -3.8935 -0.1256
 2456SOL    HW219002   2.047   0.109   4.288  0.1105  2.2264 -0.2347
 2457SOL     OW19003   4.581   2.392   6.389  0.1659 -0.1187  0.9192
 2457SOL    HW119004   4.576   2.398   6.484 -0.2962 -0.0030  0.8896
 2457SOL    HW219005   4.578   2.485   6.364 -2.8225 -0.2254  0.8294
 2458SOL     OW19006   0.133   0.815   5.325  0.8258  0.1467 -0.2144
 2458SOL    HW119007   0.103   0.891   5.275  1.4639 -0.0975 -0.9724
 2458SOL    HW219008   0.092   0.825   5.410 -0.9514 -1.0125 -0.9385
 2459SOL     OW19009   0.446   0.962   1.784 -0.2656 -0.0088 -0.5044
 2459SOL    HW119010   0.448   1.017   1.706  0.4956 -0.2140 -0.6344
 2459SOL    HW219011   0.352   0.946   1.784 -0.5571  1.7026  0.6682
 2460SOL     OW19012   0.640   1.484   8.682 -0.3173  0.3225  0.0037
 2460SOL    HW119013   0.731   1.462   8.701 -0.5721 -0.2503  0.5553
 2460SOL    HW219014   0.602   1.496   8.769 -0.5667  2.2484 -0.3858
 2461SOL     OW19015   3.908   1.578   5.642  0.1498 -0.1477  0.1185
 2461SOL    HW119016   3.908   1.645   5.573  1.2337 -0.5915 -0.3213
 2461SOL    HW219017   3.932   1.640   5.711 -2.5720 -1.1195  1.9106
 2462SOL     OW19018   0.848   2.399   7.336 -0.3367 -0.5583  0.4351
 2462SOL    HW119019   0.901   2.385   7.257 -1.9720  1.4828 -1.0158
 2462SOL    HW219020   0.774   2.339   7.331  1.4629 -2.7339 -0.4731
 2463SOL     OW19021   1.491   3.806   3.271  0.1996  0.0655 -0.6794
 2463SOL    HW119022   1.524   3.896   3.270 -0.8602  0.4629 -0.2116
 2463SOL    HW219023   1.405   3.831   3.236 -0.6013 -0.7236  0.7290
 2464SOL     OW19024   2.477   3.445  17.689  0.0490 -0.3580 -0.4025
 2464SOL    HW119025   2.408   3.412  17.746 -1.6977 -2.7792 -4.0045
 2464SOL    HW219026   2.429   3.432  17.608  0.0476  1.6912 -0.7343
 2465SOL     OW19027   1.355   2.015   6.500  0.5744  0.2280  0.1534
 2465SOL    HW119028   1.434   1.998   6.447  0.3215 -1.7213  0.3932
 2465SOL    HW219029   1.296   2.034   6.427 -1.1565  3.1529  2.3303
 2466SOL     OW19030   3.792   0.592   5.014 -0.1689  0.5708 -0.4514
 2466SOL    HW119031   3.859   0.632   4.957  1.2069  0.0181  0.7757
 2466SOL    HW219032   3.825   0.602   5.103  0.5896 -0.4961 -0.6119
 2467SOL     OW19033   3.523   4.258  11.888  0.0331 -0.6874 -0.0642
 2467SOL    HW119034   3.440   4.210  11.887 -0.4123  0.1456 -2.2351
 2467SOL    HW219035   3.541   4.274  11.796 -0.7701  1.0913  0.0911
 2468SOL     OW19036   2.532   1.147   1.847  0.3484  0.0690 -0.2368
 2468SOL    HW119037   2.501   1.188   1.766  2.0399 -1.4521 -1.6721
 2468SOL    HW219038   2.501   1.213   1.909 -0.5655  0.4328 -1.0892
 2469SOL     OW19039   2.370   3.053  12.406 -0.5094 -0.1910 -0.6611
 2469SOL    HW119040   2.307   3.071  12.476 -0.5943 -4.2089  0.3024
 2469SOL    HW219041   2.424   2.988  12.452  0.1420  0.8409  0.0219
 2470SOL     OW19042   1.985   2.496   2.141  0.1004 -0.0137 -0.1528
 2470SOL    HW119043   1.926   2.459   2.207  0.4290 -1.5922 -0.7562
 2470SOL    HW219044   2.067   2.478   2.187  0.2322 -2.3821 -1.3425
 2471SOL     OW19045   0.877   4.602   2.504 -0.4387 -0.2232 -0.4238
 2471SOL    HW119046   0.947   4.649   2.458 -1.8158  0.7209 -1.5302
 2471SOL    HW219047   0.802   4.604   2.446 -2.0380  1.3541  1.6785
 2472SOL     OW19048   1.722   4.159   6.645 -0.9055  0.3196  0.0692
 2472SOL    HW119049   1.722   4.243   6.599  2.4366 -0.1901 -0.8426
 2472SOL    HW219050   1.771   4.106   6.582  1.2153  1.9493  0.3208
 2473SOL     OW19051   3.625   0.221  10.625 -0.0302 -0.4693  0.3655
 2473SOL    HW119052   3.676   0.300  10.606  0.2095 -0.2152  2.0559
 2473SOL    HW219053   3.545   0.240  10.575 -0.7274 -0.6559  1.4152
 2474SOL     OW19054   0.014   3.926   6.504 -0.1659 -0.7005 -0.1863
 2474SOL    HW119055   0.107   3.916   6.527  0.2688 -0.8152 -1.9627
 2474SOL    HW219056   0.009   3.860   6.435  0.2701 -1.5337  0.5764
 2475SOL     OW19057   4.131   4.666   3.857 -0.5753  0.3763  0.7748
 2475SOL    HW119058   4.201   4.731   3.860 -1.2478  1.1738 -0.8346
 2475SOL    HW219059   4.109   4.661   3.950 -0.9569 -1.0691  0.6167
 2476SOL     OW19060   4.280   0.007   6.340 -0.1260 -0.5005 -0.5398
 2476SOL    HW119061   4.336   4.707   6.408 -1.0444 -0.3009  0.3388
 2476SOL    HW219062   4.267   4.671   6.283  0.7046 -1.5210  0.6055
 2477SOL     OW19063   2.649   0.107   8.654  0.5913  0.2497 -0.3312
 2477SOL    HW119064   2.618   0.197   8.667  1.8495  0.4318  1.4057
 2477SOL    HW219065   2.741   0.127   8.637  0.6310 -0.5394 -1.0154
 2478SOL     OW19066   3.675   4.471  11.915  0.2252 -0.1423 -0.1048
 2478SOL    HW119067   3.630   4.389  11.938  0.5556 -0.0106  0.9935
 2478SOL    HW219068   3.635   4.488  11.830  1.3473 -1.1409 -0.8311
 2479SOL     OW19069   0.559   3.662   8.619  0.4345  0.6200 -0.0610
 2479SOL    HW119070   0.466   3.680   8.634  0.2437  0.1715 -0.7042
 2479SOL    HW219071   0.580   3.752   8.592  0.1990  0.7776  0.2850
 2480SOL     OW19072   0.297   0.156   7.958 -0.1168  0.6197 -0.2192
 2480SOL    HW119073   0.336   0.242   7.973 -3.0049  1.8131  0.5315
 2480SOL    HW219074   0.337   0.109   8.031  0.9696 -0.3111 -1.4228
 2481SOL     OW19075   2.027   2.869   4.291  0.0236  0.0244  0.0475
 2481SOL    HW119076   2.012   2.809   4.364 -0.6313 -1.6896 -1.4932
 2481SOL    HW219077   1.962   2.838   4.228 -1.1713  3.6617 -0.4811
 2482SOL     OW19078   1.353   3.414   2.280 -0.0470 -0.7643 -0.0529
 2482SOL    HW119079   1.314   3.478   2.339 -1.5904 -0.5485 -1.2973
 2482SOL    HW219080   1.356   3.334   2.331  0.1714 -0.6369  0.1317
 2483SOL     OW19081   2.260   1.617  11.922 -0.0075  0.2901  0.0226
 2483SOL    HW119082   2.178   1.568  11.927 -0.8701  1.5812 -1.4351
 2483SOL    HW219083   2.304   1.585  12.000 -0.9609  1.1927  0.9263
 2484SOL     OW19084   3.325   0.911   6.070 -0.1108 -0.2519  0.1312
 2484SOL    HW119085   3.277   0.863   6.138  2.4913 -1.6375  0.9922
 2484SOL    HW219086   3.343   0.996   6.110 -1.6027  0.0192  0.2314
 2485SOL     OW19087   1.346   4.162   1.426 -0.2518  0.1981  0.2037
 2485SOL    HW119088   1.429   4.198   1.459  0.3100 -1.8711  1.0422
 2485SOL    HW219089   1.375   4.085   1.378 -0.5652  0.0512  0.2528
 2486SOL     OW19090   0.287   0.857  15.400 -0.1968  0.0947 -0.1217
 2486SOL    HW119091   0.244   0.772  15.394 -0.1119  0.1922 -2.0953
 2486SOL    HW219092   0.216   0.917  15.421 -1.8670 -1.4321 -1.3668
 2487SOL     OW19093   1.239   3.979  15.167  0.7493 -0.1968  0.1437
 2487SOL    HW119094   1.270   3.892  15.141 -0.7312 -0.4323 -0.8787
 2487SOL    HW219095   1.238   4.022  15.081  1.4531 -1.0084 -0.2628
 2488SOL     OW19096   4.480   3.116   2.039 -0.1717 -0.0893  0.1137
 2488SOL    HW119097   4.522   3.038   2.003  1.4832  0.7304  0.3190
 2488SOL    HW219098   4.551   3.179   2.045  0.2052 -0.3084 -1.9670
 2489SOL     OW19099   1.722   0.696   4.301 -0.6025  0.5386  0.3467
 2489SOL    HW119100   1.740   0.790   4.301  0.3987  0.3438 -1.7907
 2489SOL    HW219101   1.676   0.678   4.219  0.2021  0.3963 -0.0754
 2490SOL     OW19102   4.395   3.540   3.316 -0.0626 -0.1812  0.4829
 2490SOL    HW119103   4.421   3.576   3.231  1.5197  0.2367  1.1365
 2490SOL    HW219104   4.440   3.602   3.374  0.2400  0.3888 -0.3558
 2491SOL     OW19105   2.615   4.464   2.887  0.1412  0.0630 -0.3350
 2491SOL    HW119106   2.537   4.462   2.941  1.1302 -1.3646  1.0259
 2491SOL    HW219107   2.653   4.385   2.925  0.0921 -0.2084 -0.8476
 2492SOL     OW19108   2.960   3.266  14.507  0.3833 -0.0953  0.0379
 2492SOL    HW119109   3.019   3.305  14.443  0.6147  0.2783  0.4805
 2492SOL    HW219110   2.920   3.196  14.455 -1.3277 -0.6164  2.0652
 2493SOL     OW19111   3.066   1.410   5.267 -0.1057 -0.2095 -0.3723
 2493SOL    HW119112   3.153   1.380   5.239  0.9683  0.5723  2.1586
 2493SOL    HW219113   3.024   1.324   5.259  3.2066 -1.8334 -0.7075
 2494SOL     OW19114   2.249   1.814  15.022 -0.4991  0.4105 -0.6873
 2494SOL    HW119115   2.278   1.856  15.103 -1.5708 -2.0992  1.0159
 2494SOL    HW219116   2.154   1.806  15.035  0.0176 -0.4298  2.5820
 2495SOL     OW19117   1.912   4.532   9.544 -0.0327  0.4523  0.2268
 2495SOL    HW119118   1.881   4.483   9.468  1.7049  1.0885 -0.9062
 2495SOL    HW219119   1.857   4.496   9.614  0.3895 -1.8749 -0.6424
 2496SOL     OW19120   4.215   1.771   8.649  0.1956 -0.2666 -0.1816
 2496SOL    HW119121   4.200   1.829   8.574  0.5404  0.1457  0.0690
 2496SOL    HW219122   4.310   1.771   8.660 -0.1079 -0.3654  2.2825
 2497SOL     OW19123   1.880   3.059   4.737 -0.3648 -0.2570  0.6835
 2497SOL    HW119124   1.898   2.985   4.795 -2.1266 -1.9115 -0.8841
 2497SOL    HW219125   1.797   3.033   4.697  0.6544 -2.1367 -0.2285
 2498SOL     OW19126   3.129   0.748   7.852  0.3708 -0.1152 -1.0984
 2498SOL    HW119127   3.147   0.835   7.887  1.1802 -0.2970 -1.0700
 2498SOL    HW219128   3.121   0.698   7.933  0.1003 -0.9924 -1.6647
 2499SOL     OW19129   2.788   3.612   1.820  0.1261  0.1832  0.4905
 2499SOL    HW119130   2.802   3.571   1.735  1.9438  2.8685 -0.5404
 2499SOL    HW219131   2.857   3.574   1.875  0.6356  0.9756  0.4119
 2500SOL     OW19132   1.231   0.960  16.339  0.4874 -0.2010 -0.6198
 2500SOL    HW119133   1.299   0.923  16.396 -0.8665  0.6184  1.5266
 2500SOL    HW219134   1.148   0.966  16.385  0.7989 -0.1838 -0.0600
 2501SOL     OW19135   0.476   2.716   3.147 -0.3035 -0.2333  0.2851
 2501SOL    HW119136   0.454   2.807   3.166  0.5798  0.4458 -2.0661
 2501SOL    HW219137   0.424   2.700   3.068  2.0004 -0.7614 -1.0974
 2502SOL     OW19138   3.519   0.111   2.474 -0.6959 -0.2594 -0.0489
 2502SOL    HW119139   3.577   0.048   2.516 -1.2680 -1.2468 -0.7303
 2502SOL    HW219140   3.493   0.058   2.399 -0.4024  1.5329 -1.4257
 2503SOL     OW19141   4.220   3.697   3.761  0.2317 -0.4431 -0.3742
 2503SOL    HW119142   4.196   3.661   3.847 -2.7334  2.2553 -0.0705
 2503SOL    HW219143   4.311   3.665   3.760  0.2633 -0.4289  1.3593
 2504SOL     OW19144   0.634   2.109   7.060  0.0619  0.3131 -0.1901
 2504SOL    HW119145   0.583   2.189   7.053 -1.2735 -0.4422  0.9099
 2504SOL    HW219146   0.722   2.141   7.041  0.4949 -0.2104  0.9203
 2505SOL     OW19147   1.893   3.641  12.101  0.0843  0.0611 -0.4784
 2505SOL    HW119148   1.904   3.562  12.048 -0.7241  0.0424 -0.6190
 2505SOL    HW219149   1.801   3.637  12.128  0.1727  0.9346 -0.0525
 2506SOL     OW19150   0.346   0.482   0.062 -0.4678 -0.3305  0.1507
 2506SOL    HW119151   0.381   0.402   0.100  0.1757 -0.9189 -1.6752
 2506SOL    HW219152   0.376   0.547   0.125  3.1810 -1.2937 -0.6025
 2507SOL     OW19153   1.668   3.948   1.408 -0.2655 -0.1013  0.3860
 2507SOL    HW119154   1.717   3.905   1.478 -0.0490  0.1014  0.3581
 2507SOL    HW219155   1.674   4.040   1.435  0.1191 -0.1855  0.5883
 2508SOL     OW19156   4.178   0.060  16.573 -0.0528  0.1385 -0.0772
 2508SOL    HW119157   4.214   4.715  16.601  1.1766  0.4922 -0.6070
 2508SOL    HW219158   4.114   0.074  16.642 -0.1232 -0.6446  0.0150
 2509SOL     OW19159   0.770   2.209  16.453 -0.3879  0.2306  0.3538
 2509SOL    HW119160   0.802   2.163  16.376  4.1671 -0.9717  2.9556
 2509SOL    HW219161   0.797   2.152  16.525 -0.7282  0.8730  0.9933
 2510SOL     OW19162   3.504   4.596   6.912  0.3168  0.0147 -0.0218
 2510SOL    HW119163   3.590   4.629   6.886 -0.0112  0.1031 -1.0058
 2510SOL    HW219164   3.442   4.641   6.853  1.2889  0.5955 -0.6008
 2511SOL     OW19165   3.471   1.885   3.607  0.3556  0.5262 -0.1232
 2511SOL    HW119166   3.520   1.946   3.662 -0.6162  1.6203 -0.4743
 2511SOL    HW219167   3.506   1.909   3.521 -1.0126  1.9845 -0.2635
 2512SOL     OW19168   0.765   3.075  10.303  0.4714 -0.0215  0.0476
 2512SOL    HW119169   0.683   3.050  10.344  0.9152  2.1780  2.3611
 2512SOL    HW219170   0.815   2.994  10.311 -0.1133 -0.2033  1.9595
 2513SOL     OW19171   2.562   4.713   6.748 -0.2464 -0.4703  0.1463
 2513SOL    HW119172   2.636   0.032   6.759  0.8984 -2.2346  1.6793
 2513SOL    HW219173   2.525   4.700   6.835  1.3265 -0.9601  0.7272
 2514SOL     OW19174   0.208   3.776   4.920 -0.2508  0.4928 -0.0142
 2514SOL    HW119175   0.248   3.810   4.840 -1.3714 -0.2071 -0.8962
 2514SOL    HW219176   0.241   3.841   4.981 -0.0081 -1.4060  1.8509
 2515SOL     OW19177   0.312   1.037   5.681 -0.0841  0.5030 -0.1025
 2515SOL    HW119178   0.290   1.048   5.774  0.8915  1.9484 -0.0319
 2515SOL    HW219179   0.281   0.948   5.669 -1.2553  0.8933 -0.0257
 2516SOL     OW19180   1.720   1.219  17.041 -0.5259  0.1501  0.0105
 2516SOL    HW119181   1.656   1.155  17.072 -2.0828  0.7221 -2.0413
 2516SOL    HW219182   1.651   1.285  17.031  0.2778  0.9498 -0.2766
 2517SOL     OW19183   2.048   4.230   0.693  0.2231 -0.7056  0.1480
 2517SOL    HW119184   2.084   4.154   0.739  0.3643 -0.3510  0.6318
 2517SOL    HW219185   2.080   4.227   0.603 -2.1281 -3.1021 -0.5754
 2518SOL     OW19186   1.969   3.900   5.877 -0.0381 -0.0490 -0.0551
 2518SOL    HW119187   2.011   3.959   5.940  0.0129  1.0310 -1.0851
 2518SOL    HW219188   2.021   3.925   5.800  0.2405 -1.4760 -0.3296
 2519SOL     OW19189   2.806   1.135   4.543 -0.1518  0.8720 -0.2958
 2519SOL    HW119190   2.737   1.168   4.600 -2.2241 -1.3549 -1.4625
 2519SOL    HW219191   2.882   1.184   4.573  1.0085 -0.1011 -1.6795
 2520SOL     OW19192   1.897   4.216   7.304  0.3455 -1.1690  0.2237
 2520SOL    HW119193   1.856   4.290   7.259 -0.3751 -0.0740  2.6824
 2520SOL    HW219194   1.926   4.161   7.231  1.3268  0.1871 -0.4078
 2521SOL     OW19195   4.683   4.385   0.605  0.2425 -0.1939 -0.2409
 2521SOL    HW119196   4.708   4.438   0.681  0.8701 -1.3300  0.3372
 2521SOL    HW219197   4.736   4.413   0.531  0.8573  1.5535  0.8485
 2522SOL     OW19198   3.530   4.133  14.473 -0.0418  0.0015 -0.2866
 2522SOL    HW119199   3.577   4.180  14.542 -0.0712 -0.0065 -0.2611
 2522SOL    HW219200   3.601   4.140  14.411  0.1723 -1.0228 -0.1619
 2523SOL     OW19201   3.778   3.295   5.358  0.2118  0.3901 -0.2347
 2523SOL    HW119202   3.756   3.309   5.450 -0.5939  0.3826 -0.4326
 2523SOL    HW219203   3.766   3.201   5.348  0.3482  0.4032 -0.5246
 2524SOL     OW19204   4.414   4.687   6.579 -0.0053 -0.0059  0.1333
 2524SOL    HW119205   4.373   4.733   6.652  0.4256 -0.3375  0.5811
 2524SOL    HW219206   4.376   4.600   6.585 -0.2679  0.1064  0.1092
 2525SOL     OW19207   1.884   3.278   2.174 -0.3376  0.0667 -0.2004
 2525SOL    HW119208   1.921   3.263   2.261 -1.0549 -0.0326  0.0936
 2525SOL    HW219209   1.801   3.309   2.211  0.0118 -0.7384  1.2567
 2526SOL     OW19210   2.774   1.137  12.124 -0.4105  0.3494  0.4662
 2526SOL    HW119211   2.846   1.152  12.187 -3.0217  3.0342  2.8295
 2526SOL    HW219212   2.824   1.177  12.053 -0.7028  0.8744  0.5583
 2527SOL     OW19213   1.108   4.734   7.909 -0.5856 -0.4261 -0.2494
 2527SOL    HW119214   1.045   0.039   7.853  0.7024  0.8426 -0.7083
 2527SOL    HW219215   1.184   0.053   7.905  0.6868 -2.0399  0.3978
 2528SOL     OW19216   2.098   1.437   1.571 -0.0843 -0.5898  0.5457
 2528SOL    HW119217   2.128   1.451   1.660 -0.6125  2.0555  0.2954
 2528SOL    HW219218   2.040   1.361   1.571 -0.6024 -0.1922  1.0674
 2529SOL     OW19219   3.200   2.543  13.589 -0.5489  0.1302  0.7287
 2529SOL    HW119220   3.130   2.570  13.649 -0.6025  1.9150 -0.1471
 2529SOL    HW219221   3.258   2.488  13.641  0.5965  1.2243  0.6102
 2530SOL     OW19222   0.464   2.016  11.180 -0.4414  0.3028  0.3815
 2530SOL    HW119223   0.489   2.103  11.147  1.6162 -1.4557 -2.6727
 2530SOL    HW219224   0.398   2.059  11.235 -2.0971 -1.5261 -0.1809
 2531SOL     OW19225   0.551   0.979  11.424 -0.1401  0.0244  0.1283
 2531SOL    HW119226   0.516   0.960  11.337 -0.8183 -0.2079  0.4495
 2531SOL    HW219227   0.621   1.042  11.406 -1.4691  1.1502 -1.2112
 2532SOL     OW19228   3.074   0.883   6.963  0.1318  0.2630 -0.2712
 2532SOL    HW119229   3.066   0.932   7.045 -1.0821 -1.1221  0.4332
 2532SOL    HW219230   3.069   0.956   6.901 -1.0530  1.6447  1.4446
 2533SOL     OW19231   0.978   3.702   8.019 -0.5326  0.0847  0.1278
 2533SOL    HW119232   0.902   3.648   8.041 -0.4565  0.5918  1.6583
 2533SOL    HW219233   0.944   3.789   8.041 -0.2912  0.1463  0.2579
 2534SOL     OW19234   0.928   4.122   8.848 -0.7017 -0.0647  0.1959
 2534SOL    HW119235   0.850   4.172   8.870 -0.3574 -0.4926  2.3871
 2534SOL    HW219236   0.945   4.062   8.921  0.6485 -2.2080 -1.8647
 2535SOL     OW19237   2.006   1.070   6.010 -0.4363  0.2153  0.6198
 2535SOL    HW119238   1.962   1.108   6.087 -0.9325  0.0217  0.4340
 2535SOL    HW219239   1.927   1.054   5.958  1.3998  2.3682 -2.7830
 2536SOL     OW19240   3.698   3.177  17.099 -0.4406  0.3083  0.5052
 2536SOL    HW119241   3.701   3.099  17.043  1.6076  0.7729 -0.0565
 2536SOL    HW219242   3.656   3.141  17.177 -1.6529 -0.3017 -0.4291
 2537SOL     OW19243   3.312   1.688   1.549  0.4704  0.2559  0.7821
 2537SOL    HW119244   3.223   1.722   1.536  0.5890 -0.6101 -2.4106
 2537SOL    HW219245   3.300   1.639   1.630  0.1551  0.9005  1.1272
 2538SOL     OW19246   0.445   1.664   8.026 -0.2063 -0.0002 -0.1653
 2538SOL    HW119247   0.465   1.726   8.096  0.1709  1.1658 -1.3038
 2538SOL    HW219248   0.525   1.631   7.985  0.9877  2.6114  0.0360
 2539SOL     OW19249   0.554   0.353   2.100 -0.5660  0.1906  0.0267
 2539SOL    HW119250   0.635   0.319   2.138 -2.1210 -1.5670  1.7385
 2539SOL    HW219251   0.496   0.289   2.139 -0.0225 -0.7036 -0.6432
 2540SOL     OW19252   4.002   2.315   1.419  0.3488  1.1807  0.3850
 2540SOL    HW119253   4.051   2.317   1.502  1.0968 -0.4897 -0.0178
 2540SOL    HW219254   4.018   2.224   1.394 -0.3883  0.7091  1.5905
 2541SOL     OW19255   4.398   2.098   3.926  0.7630  0.0784  0.1716
 2541SOL    HW119256   4.319   2.103   3.981  0.7251  0.6299  0.0723
 2541SOL    HW219257   4.436   2.184   3.945 -0.1312  0.2686  1.1095
 2542SOL     OW19258   3.235   3.644   8.572  0.0064 -0.2074  0.0617
 2542SOL    HW119259   3.326   3.625   8.594  0.2357  0.2198 -0.5058
 2542SOL    HW219260   3.214   3.556   8.540 -0.3778 -0.6180  1.4747
 2543SOL     OW19261   0.237   1.301   5.679  0.1087  0.6814  0.7816
 2543SOL    HW119262   0.151   1.278   5.714  0.1628 -0.8803 -0.1235
 2543SOL    HW219263   0.268   1.211   5.676 -1.2631  0.2792 -1.2529
 2544SOL     OW19264   4.150   1.934   2.470  0.6405  0.5309 -0.6498
 2544SOL    HW119265   4.111   1.905   2.552  1.6742  0.7793 -0.0714
 2544SOL    HW219266   4.122   2.025   2.474  0.4174  0.5271 -2.0396
 2545SOL     OW19267   0.121   2.694   6.719  0.0786  0.5753  0.4184
 2545SOL    HW119268   0.177   2.721   6.646  1.7622  0.8828  1.8227
 2545SOL    HW219269   0.164   2.619   6.760 -0.7924  0.0243  0.3337
 2546SOL     OW19270   1.756   2.229  11.843 -0.1090 -0.1257 -0.4515
 2546SOL    HW119271   1.839   2.187  11.863 -0.0132  1.7930  3.1399
 2546SOL    HW219272   1.714   2.224  11.929 -0.3473 -0.3512 -0.5834
 2547SOL     OW19273   0.536   1.404   3.225 -0.2284 -0.0324 -0.6198
 2547SOL    HW119274   0.553   1.492   3.191  2.3978 -0.6374 -0.9299
 2547SOL    HW219275   0.585   1.411   3.307  0.6106  0.9535 -1.2041
 2548SOL     OW19276   0.431   1.070   9.216  0.1766  0.0096  0.1095
 2548SOL    HW119277   0.515   1.044   9.255  1.0783  0.0610 -1.7844
 2548SOL    HW219278   0.365   1.015   9.258  0.7871 -0.3429  0.6186
 2549SOL     OW19279   3.642   4.412   2.020 -0.0375  0.1490 -0.1257
 2549SOL    HW119280   3.720   4.468   2.019  0.5445 -0.5977  2.1252
 2549SOL    HW219281   3.614   4.442   1.934 -1.0777 -0.9176 -0.1518
 2550SOL     OW19282   0.318   2.134  16.602  0.3333 -0.1899 -0.2788
 2550SOL    HW119283   0.228   2.102  16.591  0.7139 -0.8791 -1.4439
 2550SOL    HW219284   0.358   2.070  16.660  1.3285 -0.1834 -0.9665
 2551SOL     OW19285   0.584   0.024   8.946 -0.4330 -0.1292  0.1367
 2551SOL    HW119286   0.532   4.684   8.934 -0.3429 -0.3970  1.4788
 2551SOL    HW219287   0.588   0.034   9.041 -3.6469 -0.6317  0.3397
 2552SOL     OW19288   4.029   0.456   4.747  0.5640  0.4737 -0.2491
 2552SOL    HW119289   4.084   0.378   4.741 -2.1381 -1.5909  1.2409
 2552SOL    HW219290   4.092   0.522   4.719  0.1502 -0.2490 -2.8475
 2553SOL     OW19291   3.212   0.886   6.509  0.1867 -0.3657 -0.5853
 2553SOL    HW119292   3.288   0.877   6.567  0.5425  0.7594 -0.8781
 2553SOL    HW219293   3.155   0.819   6.547  0.9269  0.7364  2.5285
 2554SOL     OW19294   4.506   0.836  14.799 -0.1646  0.2478 -0.0149
 2554SOL    HW119295   4.522   0.742  14.811  1.3958  0.6142  0.8601
 2554SOL    HW219296   4.479   0.845  14.891 -0.6142  1.7986 -0.3047
 2555SOL     OW19297   2.873   1.773  15.248 -0.0161 -0.4495 -0.2448
 2555SOL    HW119298   2.828   1.826  15.183 -0.1521 -0.0306  0.1867
 2555SOL    HW219299   2.828   1.690  15.233 -1.7347  0.3196  0.6196
 2556SOL     OW19300   2.269   2.775   1.844  0.3851  0.1199 -0.1116
 2556SOL    HW119301   2.358   2.774   1.809  0.0606 -0.6971 -0.9144
 2556SOL    HW219302   2.213   2.804   1.772  0.6366 -1.2924 -0.8765
 2557SOL     OW19303   0.237   4.000   0.645 -0.1632 -0.5023 -0.2448
 2557SOL    HW119304   0.287   4.046   0.712  0.6090 -2.4376  0.5179
 2557SOL    HW219305   0.172   3.960   0.703  0.0236 -0.3637  0.0576
 2558SOL     OW19306   2.759   0.564   7.709 -0.3679 -0.1528 -0.2709
 2558SOL    HW119307   2.736   0.596   7.796  1.2532  1.8246 -0.5750
 2558SOL    HW219308   2.691   0.498   7.697 -0.0057 -0.4799 -0.5325
 2559SOL     OW19309   1.127   0.818   2.983  0.6154 -0.5556 -0.3732
 2559SOL    HW119310   1.134   0.825   2.887  0.0118 -2.2337 -0.5516
 2559SOL    HW219311   1.034   0.792   2.984  0.1172  1.3554  1.7946
 2560SOL     OW19312   3.417   1.768   2.628 -0.5320 -0.1950 -0.3091
 2560SOL    HW119313   3.396   1.770   2.535  1.5822  0.0995 -0.7723
 2560SOL    HW219314   3.358   1.839   2.653  0.9666  0.5341  1.1615
 2561SOL     OW19315   3.405   3.101  13.714 -0.1956 -0.9566 -0.6283
 2561SOL    HW119316   3.427   3.194  13.715  0.1778 -1.0612  0.4904
 2561SOL    HW219317   3.317   3.108  13.750  0.3710  0.7278  0.4228
 2562SOL     OW19318   0.933   3.460   8.980 -0.3486 -0.5857  0.2771
 2562SOL    HW119319   0.881   3.437   8.904 -2.9151 -0.9448  2.1282
 2562SOL    HW219320   0.933   3.378   9.030  1.8589 -0.6242  0.2249
 2563SOL     OW19321   1.704   1.970  13.309 -0.0961 -0.3854  0.4394
 2563SOL    HW119322   1.709   2.061  13.281 -0.3947 -0.5656 -0.2093
 2563SOL    HW219323   1.615   1.950  13.279 -1.1721  0.1320  3.3375
 2564SOL     OW19324   1.769   2.868   3.823 -0.5285  0.1695  0.2025
 2564SOL    HW119325   1.819   2.890   3.745  1.5120  0.5151  1.6152
 2564SOL    HW219326   1.837   2.869   3.891 -3.0438 -1.5809  2.7506
 2565SOL     OW19327   2.510   0.610  17.670 -0.2445  0.0175 -0.0279
 2565SOL    HW119328   2.440   0.549  17.693  0.1328 -0.5682 -0.4544
 2565SOL    HW219329   2.505   0.669  17.746  1.2816 -0.2042  0.2577
 2566SOL     OW19330   1.205   1.664  14.118  0.4438 -0.3581  0.6908
 2566SOL    HW119331   1.247   1.664  14.204 -0.5397 -0.1159  1.1662
 2566SOL    HW219332   1.114   1.678  14.145  0.5624 -1.4062  1.5951
 2567SOL     OW19333   0.180   4.563   5.361 -0.2693  0.3905 -0.0583
 2567SOL    HW119334   0.126   4.560   5.282 -1.4649 -0.0148  0.7834
 2567SOL    HW219335   0.211   4.473   5.366  0.3108  0.3716 -4.3059
 2568SOL     OW19336   3.418   2.833   3.389  0.2813 -0.5468 -0.3383
 2568SOL    HW119337   3.393   2.925   3.395  2.1934 -0.2529  2.9887
 2568SOL    HW219338   3.328   2.804   3.404  1.1976 -3.1535  0.2091
 2569SOL     OW19339   0.139   3.452   1.861 -0.1338 -0.0481  0.0586
 2569SOL    HW119340   0.090   3.492   1.933 -0.2291 -2.6888  1.4499
 2569SOL    HW219341   0.228   3.443   1.895 -0.8393 -0.5115  1.7764
 2570SOL     OW19342   4.264   3.488  12.652 -0.2085  0.3983  0.1989
 2570SOL    HW119343   4.334   3.424  12.668 -1.3539 -1.2835 -1.4695
 2570SOL    HW219344   4.253   3.469  12.559 -0.2146 -0.2722  0.3322
 2571SOL     OW19345   2.787   0.849   1.058 -0.0844 -0.1770  0.5782
 2571SOL    HW119346   2.698   0.817   1.070 -0.9737  2.1908  0.1514
 2571SOL    HW219347   2.842   0.770   1.059  0.2060 -0.0049 -2.6000
 2572SOL     OW19348   4.289   1.898   2.904  0.3197  0.1433 -0.5464
 2572SOL    HW119349   4.353   1.833   2.874 -0.1372 -0.9885  0.9005
 2572SOL    HW219350   4.343   1.973   2.929  1.4935 -0.2728 -1.8033
 2573SOL     OW19351   2.223   1.050  11.365  0.0135 -0.7194  0.2297
 2573SOL    HW119352   2.239   1.097  11.447 -2.7361  1.2570 -0.3881
 2573SOL    HW219353   2.131   1.066  11.345  0.1794  1.7138  1.4887
 2574SOL     OW19354   2.522   1.592  15.345 -0.2878 -0.4781 -0.4759
 2574SOL    HW119355   2.502   1.519  15.402  0.7620  1.6057  2.5921
 2574SOL    HW219356   2.588   1.545  15.294 -1.9603  0.0889 -3.1549
 2575SOL     OW19357   2.212   1.174  11.602  0.0368  0.7917 -0.6902
 2575SOL    HW119358   2.236   1.117  11.675 -2.7535  0.3477 -0.1123
 2575SOL    HW219359   2.256   1.255  11.628  1.3399 -0.7237  1.8989
 2576SOL     OW19360   4.390   0.211   3.528 -0.5292  0.1878  0.4684
 2576SOL    HW119361   4.331   0.271   3.575 -0.5184  0.9079 -0.4387
 2576SOL    HW219362   4.421   0.273   3.462  0.7621 -0.8392  0.1289
 2577SOL     OW19363   1.701   1.292   8.848 -0.2963  0.4088  0.2845
 2577SOL    HW119364   1.708   1.202   8.880  0.9929  0.0440 -1.0431
 2577SOL    HW219365   1.607   1.311   8.851 -0.1678  1.2639 -1.4115
 2578SOL     OW19366   0.015   1.181   3.931 -0.4739 -0.8530  0.1746
 2578SOL    HW119367   0.019   1.268   3.970 -0.8654 -1.8006  2.3224
 2578SOL    HW219368   4.716   1.122   3.996  0.7524  0.3348  1.9657
 2579SOL     OW19369   1.915   2.917   1.864  0.4728 -0.3468 -0.7088
 2579SOL    HW119370   1.965   2.835   1.873  0.9713  0.0929  0.5586
 2579SOL    HW219371   1.962   2.979   1.921  0.1463 -0.9403  0.2079
 2580SOL     OW19372   0.900   3.506   3.297  0.0531 -0.2978 -0.1925
 2580SOL    HW119373   0.925   3.423   3.337 -0.0395 -1.5587 -2.8151
 2580SOL    HW219374   0.973   3.523   3.238 -0.4110 -0.0825 -0.6978
 2581SOL     OW19375   1.184   3.568   9.047 -0.3683 -0.5130  0.1995
 2581SOL    HW119376   1.138   3.572   9.131  0.5026 -1.7143  0.7361
 2581SOL    HW219377   1.114   3.524   8.998 -0.1679  0.2879 -0.7969
 2582SOL     OW19378   3.266   0.182   7.835  0.2738 -0.0311 -0.2368
 2582SOL    HW119379   3.315   0.258   7.802 -0.3092  0.5691  0.2631
 2582SOL    HW219380   3.180   0.225   7.840 -0.0868 -0.8091  0.1843
 2583SOL     OW19381   1.050   4.187   3.168  0.1009 -0.0430 -1.1202
 2583SOL    HW119382   0.992   4.146   3.102 -0.2772 -2.4939  0.7283
 2583SOL    HW219383   1.017   4.277   3.169  1.7402  0.5506 -0.9703
 2584SOL     OW19384   2.897   0.683   6.865  0.2135  0.3177 -0.1045
 2584SOL    HW119385   2.851   0.750   6.814  0.3281 -0.1877 -0.8817
 2584SOL    HW219386   2.936   0.741   6.930 -0.8328 -0.1834  0.9804
 2585SOL     OW19387   4.257   1.071   6.996 -0.0832  0.1562 -0.3608
 2585SOL    HW119388   4.260   1.043   6.904 -0.9254 -3.0716  0.5670
 2585SOL    HW219389   4.236   0.988   7.040  0.5009  0.9541  1.3920
 2586SOL     OW19390   3.638   3.491   2.206  0.5292  0.1565 -0.0550
 2586SOL    HW119391   3.626   3.570   2.258 -1.3912 -0.5711  0.6451
 2586SOL    HW219392   3.732   3.496   2.195  0.3747  1.7880 -0.5874
 2587SOL     OW19393   1.441   1.411   5.156 -0.2631  0.5727  0.2359
 2587SOL    HW119394   1.393   1.448   5.083  0.5564 -2.8151 -2.0351
 2587SOL    HW219395   1.400   1.463   5.226 -0.8388  0.8252 -0.2953
 2588SOL     OW19396   2.165   1.950  17.329  0.3906  0.3036 -0.0162
 2588SOL    HW119397   2.132   2.021  17.385  1.1315  0.2182  0.5190
 2588SOL    HW219398   2.086   1.910  17.291  1.4544 -0.6622 -1.1748
 2589SOL     OW19399   3.957   0.713   5.434 -0.0701 -0.0546 -0.7342
 2589SOL    HW119400   4.023   0.764   5.387  1.0832  1.7858  2.8344
 2589SOL    HW219401   4.009   0.703   5.514  0.0393 -0.2334 -0.8281
 2590SOL     OW19402   3.220   2.254   2.977 -0.7136  0.0771 -0.1896
 2590SOL    HW119403   3.201   2.336   3.024  0.2679  0.0404  0.2602
 2590SOL    HW219404   3.254   2.210   3.054  1.8350 -1.4631 -2.2238
 2591SOL     OW19405   3.236   3.929   2.213  0.0665  0.6230  0.7244
 2591SOL    HW119406   3.176   3.923   2.138  0.3770 -0.4042  0.5594
 2591SOL    HW219407   3.301   3.876   2.167 -2.0296 -1.3054 -0.0264
 2592SOL     OW19408   0.776   1.801   5.109  0.4612  0.3177  0.2022
 2592SOL    HW119409   0.758   1.889   5.142  1.9657 -0.0010  1.8594
 2592SOL    HW219410   0.720   1.749   5.166 -0.7084  0.1470 -1.0934
 2593SOL     OW19411   4.193   2.770  10.323  0.0073  0.4479  1.1975
 2593SOL    HW119412   4.251   2.709  10.277 -0.3658  1.3485 -0.4713
 2593SOL    HW219413   4.114   2.769  10.269  1.1321  1.0470 -0.4760
 2594SOL     OW19414   2.725   0.912  16.897 -0.2021  0.2449  0.3266
 2594SOL    HW119415   2.657   0.954  16.949 -1.3268 -2.1252  0.7861
 2594SOL    HW219416   2.784   0.877  16.964 -3.1885 -2.8116  1.3223
 2595SOL     OW19417   1.092   0.992   8.121  0.5293  0.4247  0.2890
 2595SOL    HW119418   1.186   1.004   8.105  0.4556 -1.7271 -1.7549
 2595SOL    HW219419   1.068   0.969   8.031 -0.9669 -3.5096  1.6895
 2596SOL     OW19420   1.668   3.570  10.437  0.1910  0.3018 -0.2354
 2596SOL    HW119421   1.732   3.630  10.475 -0.6535  0.2274  1.2760
 2596SOL    HW219422   1.713   3.486  10.448  0.6208  0.6307  0.4673
 2597SOL     OW19423   4.656   0.022   3.654  0.2822  0.0460  0.4823
 2597SOL    HW119424   4.660   0.069   3.738  0.3765  0.1568  0.4154
 2597SOL    HW219425   4.631   0.095   3.597 -1.2904 -1.1156 -0.3094
 2598SOL     OW19426   4.078   2.959  16.635  0.2281 -0.0151  0.3093
 2598SOL    HW119427   4.166   2.922  16.630 -1.1205 -3.2867  0.8517
 2598SOL    HW219428   4.041   2.929  16.552  0.7935 -0.2813  0.1543
 2599SOL     OW19429   2.920   4.461   1.732 -0.7482 -0.2571 -0.1458
 2599SOL    HW119430   3.009   4.442   1.702 -0.3418  1.5082 -0.0486
 2599SOL    HW219431   2.903   4.550   1.704  2.3494  0.2287 -0.4647
 2600SOL     OW19432   0.665   0.292   0.145 -0.1674 -0.4344 -0.3897
 2600SOL    HW119433   0.673   0.227   0.076  2.0489  0.3834 -0.9087
 2600SOL    HW219434   0.570   0.299   0.142 -0.0861 -0.4514 -2.6293
 2601SOL     OW19435   1.925   1.984  11.585  0.0218 -0.3250 -0.8574
 2601SOL    HW119436   1.994   1.919  11.598 -0.1784 -0.3462  0.1533
 2601SOL    HW219437   1.875   1.953  11.510  0.7827 -1.7524 -0.7905
 2602SOL     OW19438   2.233   4.693   8.941 -0.6932 -0.0815 -0.6753
 2602SOL    HW119439   2.258   4.602   8.956 -0.4894  0.0168 -0.4088
 2602SOL    HW219440   2.292   4.721   8.871  1.7304 -1.8584  0.6588
 2603SOL     OW19441   4.002   1.105   7.214 -0.2085  0.4295 -0.0311
 2603SOL    HW119442   4.025   1.130   7.304  0.1658 -2.9617  0.8340
 2603SOL    HW219443   4.028   1.013   7.207  0.1171  0.6094 -1.0762
 2604SOL     OW19444   0.746   1.867   1.524 -0.0410  0.4755  0.2711
 2604SOL    HW119445   0.837   1.881   1.551  0.7553  0.1999 -2.2287
 2604SOL    HW219446   0.708   1.888   1.609  1.0375  0.0121  0.8756
 2605SOL     OW19447   1.940   1.557   4.216  0.2102 -0.0404 -0.3970
 2605SOL    HW119448   1.873   1.500   4.253  0.3163  1.2031  1.7498
 2605SOL    HW219449   1.991   1.580   4.293  0.5061  0.8476 -0.8646
 2606SOL     OW19450   2.072   0.888  12.185  0.0030 -0.3113  0.2529
 2606SOL    HW119451   2.165   0.886  12.207  0.4882 -0.8776 -1.7957
 2606SOL    HW219452   2.053   0.982  12.183  1.5893  0.0021 -0.4258
 2607SOL     OW19453   2.004   0.643   9.277 -0.2076 -0.7547 -0.3536
 2607SOL    HW119454   2.021   0.551   9.298 -3.9214 -1.8253 -2.2166
 2607SOL    HW219455   1.967   0.666   9.362  1.2693  1.7243 -0.3711
 2608SOL     OW19456   3.459   2.104   2.787  0.1291  0.1014  0.5692
 2608SOL    HW119457   3.534   2.125   2.731 -0.5187 -0.1197 -0.3872
 2608SOL    HW219458   3.451   2.192   2.825 -1.6151 -0.0759  0.6025
 2609SOL     OW19459   0.950   1.804   3.667 -0.1543 -0.5423 -0.4837
 2609SOL    HW119460   0.876   1.748   3.688 -1.3522  0.9303 -0.7150
 2609SOL    HW219461   0.962   1.865   3.740  3.5104 -1.2115 -0.5414
 2610SOL     OW19462   4.313   1.443   0.628  0.2107 -0.2624  0.2107
 2610SOL    HW119463   4.359   1.362   0.605  3.0800  1.3949  0.1159
 2610SOL    HW219464   4.231   1.403   0.597  0.0001  1.5322 -1.5195
 2611SOL     OW19465   4.199   3.075  13.318  0.4768  0.2225 -0.2014
 2611SOL    HW119466   4.257   3.009  13.280  0.6719  0.5388 -0.4559
 2611SOL    HW219467   4.186   3.127  13.239 -2.0911 -0.6582 -0.3436
 2612SOL     OW19468   1.445   3.745  13.846  0.0835  0.0288 -0.1284
 2612SOL    HW119469   1.486   3.679  13.902 -0.2021  0.5848  0.7331
 2612SOL    HW219470   1.424   3.683  13.776 -2.4700  0.9564 -0.1609
 2613SOL     OW19471   1.597   4.669  11.601 -0.1770 -0.1079 -0.1483
 2613SOL    HW119472   1.633   4.713  11.525  0.7978 -1.2921 -0.3835
 2613SOL    HW219473   1.616   4.726  11.675  0.0197  1.0898 -1.1372
 2614SOL     OW19474   0.541   0.287  15.964  0.0083 -0.8029 -0.1168
 2614SOL    HW119475   0.496   0.259  16.044 -0.4786 -0.2667 -0.1983
 2614SOL    HW219476   0.465   0.266  15.910 -0.1625 -1.7408  0.4887
 2615SOL     OW19477   3.750   1.210   2.592  0.1620 -0.3942 -0.1336
 2615SOL    HW119478   3.769   1.228   2.500 -1.5266  0.1837 -0.3738
 2615SOL    HW219479   3.699   1.129   2.591  0.6647 -0.7104  0.0749
 2616SOL     OW19480   1.283   3.681   9.540  0.3199  0.1236  0.3253
 2616SOL    HW119481   1.321   3.709   9.457  1.9396 -1.3295  0.5951
 2616SOL    HW219482   1.189   3.680   9.519 -0.2859  2.2331  2.9768
 2617SOL     OW19483   2.786   1.604   5.870  0.1341 -0.3864 -0.2993
 2617SOL    HW119484   2.714   1.667   5.873  0.9521  0.6157 -2.2173
 2617SOL    HW219485   2.785   1.564   5.957  0.6798 -1.2836 -0.7042
 2618SOL     OW19486   3.437   3.605   4.413 -0.0423  0.4264 -0.0281
 2618SOL    HW119487   3.391   3.606   4.497 -0.2477 -0.7630 -0.1318
 2618SOL    HW219488   3.369   3.560   4.363 -1.0552 -0.4916  2.1830
 2619SOL     OW19489   3.766   2.370   2.357  0.2788 -0.4237  0.3059
 2619SOL    HW119490   3.775   2.386   2.451 -0.7254  2.5483 -0.0855
 2619SOL    HW219491   3.676   2.337   2.356 -0.2673  1.0307  0.8570
 2620SOL     OW19492   2.831   1.111   2.858 -0.4648 -0.0331 -0.5829
 2620SOL    HW119493   2.900   1.105   2.791  0.3894  0.3344  0.2598
 2620SOL    HW219494   2.832   1.025   2.899  1.8160 -0.2812 -1.1148
 2621SOL     OW19495   0.087   1.985  12.110  0.0750 -0.0701  0.4400
 2621SOL    HW119496   0.129   1.914  12.062  3.2287  0.1778  2.8424
 2621SOL    HW219497   0.159   2.006  12.169  0.8998  0.3916 -0.7389
 2622SOL     OW19498   4.362   0.821  16.191 -0.1869  0.4870  0.5200
 2622SOL    HW119499   4.294   0.875  16.232  0.3859 -0.0945  2.2337
 2622SOL    HW219500   4.424   0.884  16.156  0.7309  0.1783  1.5823
 2623SOL     OW19501   2.714   3.319   0.704 -0.0273 -0.0360 -0.4837
 2623SOL    HW119502   2.768   3.381   0.753 -2.0693  0.7675  0.7846
 2623SOL    HW219503   2.737   3.235   0.743  0.0312  1.0804  1.8823
 2624SOL     OW19504   0.197   2.096  13.030 -0.8896  0.2478 -0.6326
 2624SOL    HW119505   0.248   2.103  13.111  0.2083 -0.4926 -1.2661
 2624SOL    HW219506   0.184   2.187  13.003  0.1333  0.9166  1.0915
 2625SOL     OW19507   3.987   1.752   5.853  0.6151 -0.6131  0.0597
 2625SOL    HW119508   4.008   1.730   5.943  0.2657 -1.7889 -0.1453
 2625SOL    HW219509   4.063   1.803   5.825  0.0297  0.0558 -0.3223
 2626SOL     OW19510   3.589   3.263  16.118  0.0718 -0.0864 -0.0405
 2626SOL    HW119511   3.567   3.249  16.026 -2.2398 -0.6905  0.6234
 2626SOL    HW219512   3.556   3.352  16.125  2.3653  0.5735  2.1376
 2627SOL     OW19513   1.712   0.834   3.663  0.1154 -0.7385 -0.1344
 2627SOL    HW119514   1.708   0.919   3.619  0.5709 -0.9011 -0.4895
 2627SOL    HW219515   1.660   0.865   3.737  2.2679  0.1665  0.9944
 2628SOL     OW19516   4.419   0.618   8.379 -0.0103 -0.0050 -0.2643
 2628SOL    HW119517   4.474   0.688   8.343  0.8963 -0.1384  0.8462
 2628SOL    HW219518   4.483   0.560   8.421 -0.8634 -0.3859  0.5216
 2629SOL     OW19519   0.881   2.884   6.917  0.2808 -0.0034 -0.4118
 2629SOL    HW119520   0.796   2.902   6.877  0.9580 -0.6713 -2.1685
 2629SOL    HW219521   0.871   2.810   6.977 -0.6681  0.4303 -0.0419
 2630SOL     OW19522   1.237   1.259   7.252  0.0788 -0.4619  0.5105
 2630SOL    HW119523   1.272   1.173   7.277 -0.5624 -0.8119  0.2087
 2630SOL    HW219524   1.224   1.250   7.157 -2.1066  1.0676  0.6844
 2631SOL     OW19525   0.155   1.980   7.769 -0.7378  0.2002 -0.0592
 2631SOL    HW119526   0.192   1.915   7.828  2.0559  1.3589 -0.5177
 2631SOL    HW219527   0.153   2.065   7.814 -1.0555  0.4645 -0.5705
 2632SOL     OW19528   4.382   3.471   6.715 -0.2163  0.4584 -0.4434
 2632SOL    HW119529   4.292   3.504   6.713  0.0775  1.3224  1.1727
 2632SOL    HW219530   4.438   3.547   6.696 -2.4558  2.0932 -0.5567
 2633SOL     OW19531   1.470   3.399   9.264  0.0383  0.3971 -0.1232
 2633SOL    HW119532   1.493   3.445   9.344  0.2923  0.0341  0.0152
 2633SOL    HW219533   1.473   3.311   9.301 -1.8401  0.3820 -0.0364
 2634SOL     OW19534   4.575   2.049   6.651 -0.6462  0.7204  0.2624
 2634SOL    HW119535   4.587   1.955   6.640 -1.0241  0.8512 -1.2981
 2634SOL    HW219536   4.659   2.085   6.625  0.2665  0.4515  2.8314
 2635SOL     OW19537   0.917   0.177   5.555 -0.3307  0.0504 -0.0474
 2635SOL    HW119538   0.980   0.250   5.559  0.9831 -1.0336 -1.3316
 2635SOL    HW219539   0.846   0.215   5.503 -0.7132 -2.2736 -1.1995
 2636SOL     OW19540   1.294   4.638   6.360 -0.0933  0.4013  0.7012
 2636SOL    HW119541   1.373   4.623   6.309 -2.1990  0.8172 -2.6923
 2636SOL    HW219542   1.258   4.556   6.327 -1.1698  1.5863 -1.0848
 2637SOL     OW19543   0.570   2.360   6.574 -0.3480 -0.3513 -0.0018
 2637SOL    HW119544   0.554   2.288   6.512 -0.0298 -0.9471  0.6008
 2637SOL    HW219545   0.553   2.439   6.523 -0.2784  0.9105  1.9458
 2638SOL     OW19546   2.182   0.966  14.669 -0.1391  0.1085 -0.7027
 2638SOL    HW119547   2.139   0.893  14.713 -2.8847  0.6973 -2.4344
 2638SOL    HW219548   2.193   1.037  14.733  3.9966 -0.2748 -0.9926
 2639SOL     OW19549   4.000   0.680   9.080 -0.0880 -0.6731  0.5536
 2639SOL    HW119550   3.952   0.609   9.037 -1.1958 -0.9857  2.3099
 2639SOL    HW219551   3.933   0.707   9.143 -0.6555 -0.0515 -0.3161
 2640SOL     OW19552   3.795   0.409   2.531  0.1683 -0.0661 -0.2371
 2640SOL    HW119553   3.813   0.316   2.543 -0.8496 -0.5644 -2.5125
 2640SOL    HW219554   3.882   0.447   2.531  1.0063 -2.0064 -2.7113
 2641SOL     OW19555   3.727   3.658   1.913 -0.2888  0.3772 -0.7243
 2641SOL    HW119556   3.665   3.684   1.845 -0.3954  1.6827 -0.1460
 2641SOL    HW219557   3.662   3.607   1.961  1.2308 -1.0973 -0.2213
 2642SOL     OW19558   1.896   4.113  14.683 -0.1112  0.2570 -0.3082
 2642SOL    HW119559   1.851   4.147  14.606 -0.6016  0.8463  0.2402
 2642SOL    HW219560   1.987   4.138  14.667 -0.3761  2.7831  2.0475
 2643SOL     OW19561   0.763   4.029   2.418 -0.4558 -0.4377  0.2691
 2643SOL    HW119562   0.855   4.054   2.424 -0.8709  0.6556  2.0349
 2643SOL    HW219563   0.733   4.090   2.485 -0.3072 -0.4529  0.3486
 2644SOL     OW19564   3.429   0.536   3.252 -0.3843 -0.1108 -0.1839
 2644SOL    HW119565   3.346   0.562   3.211 -0.4569 -0.5886 -0.3396
 2644SOL    HW219566   3.462   0.479   3.182 -2.0231 -0.9991 -0.2360
 2645SOL     OW19567   0.298   1.105  14.700 -0.1686 -0.4729 -0.4251
 2645SOL    HW119568   0.214   1.136  14.667 -0.3718 -1.2242 -0.6079
 2645SOL    HW219569   0.346   1.089  14.619 -0.5931 -0.3777 -0.6952
 2646SOL     OW19570   2.675   0.933   3.509 -0.2760 -0.2737  0.0772
 2646SOL    HW119571   2.602   0.934   3.447  0.5728  2.4370 -0.8526
 2646SOL    HW219572   2.733   0.863   3.479  0.9345 -0.1626  2.1320
 2647SOL     OW19573   3.305   4.447   3.725  0.0992  0.2527 -0.1758
 2647SOL    HW119574   3.298   4.361   3.767 -1.0851  0.5705  0.2757
 2647SOL    HW219575   3.354   4.494   3.793 -2.0677  2.3336 -0.0742
 2648SOL     OW19576   0.570   0.490   8.907 -0.0496 -0.2134  0.3279
 2648SOL    HW119577   0.504   0.558   8.898 -2.4253 -2.4552  0.7687
 2648SOL    HW219578   0.536   0.427   8.844 -1.1896  0.4453  0.2930
 2649SOL     OW19579   3.081   1.354   5.560 -0.3142  1.0196 -0.2046
 2649SOL    HW119580   3.018   1.385   5.495  1.7392  0.6788 -2.3695
 2649SOL    HW219581   3.163   1.395   5.530  0.6990 -1.0343 -0.2372
 2650SOL     OW19582   3.103   2.764   7.264  0.0289  0.0581 -0.1033
 2650SOL    HW119583   3.120   2.853   7.295 -3.4863  0.7027 -0.0009
 2650SOL    HW219584   3.043   2.740   7.335  0.4053 -1.0280 -0.1515
 2651SOL     OW19585   0.447   2.288   3.194 -0.0681  0.3631  0.0905
 2651SOL    HW119586   0.506   2.232   3.144 -0.3786 -0.0754  0.2198
 2651SOL    HW219587   0.462   2.374   3.154  0.6341 -1.0367 -2.6467
 2652SOL     OW19588   3.683   2.272   9.323 -0.0901 -0.2429 -0.4094
 2652SOL    HW119589   3.770   2.265   9.362 -0.6307  0.9207  1.0309
 2652SOL    HW219590   3.686   2.209   9.251 -2.1823 -0.2201 -0.5233
 2653SOL     OW19591   1.332   4.180   5.795  0.0828  0.3052 -0.0472
 2653SOL    HW119592   1.394   4.244   5.760  3.2476 -1.5163  2.3513
 2653SOL    HW219593   1.377   4.096   5.802  0.2889  0.6117  2.1017
 2654SOL     OW19594   0.802   1.050   7.743 -0.0823 -0.0866 -0.1461
 2654SOL    HW119595   0.722   1.012   7.705 -0.6790  2.7565 -1.6839
 2654SOL    HW219596   0.820   1.132   7.699 -2.7749 -0.6524 -2.2881
 2655SOL     OW19597   0.253   4.204   7.913 -0.1932 -0.4101  0.8247
 2655SOL    HW119598   0.268   4.110   7.923  2.1030 -0.3942 -2.2811
 2655SOL    HW219599   0.158   4.198   7.920 -0.1975 -2.2057 -0.7856
 2656SOL     OW19600   4.711   0.302   1.397 -0.1180 -0.2754  0.1145
 2656SOL    HW119601   4.658   0.371   1.436 -1.5530 -1.3845  0.1276
 2656SOL    HW219602   4.645   0.251   1.349  0.1400  0.1958 -0.7366
 2657SOL     OW19603   2.694   1.840  14.243  0.2745 -0.6108 -0.4013
 2657SOL    HW119604   2.724   1.861  14.154 -0.6655 -2.7546 -1.2027
 2657SOL    HW219605   2.620   1.782  14.228  0.0154 -0.4754  0.3221
 2658SOL     OW19606   0.399   3.148   2.734  0.1641 -0.0323  0.1519
 2658SOL    HW119607   0.427   3.079   2.674 -0.3354  0.2164 -0.3636
 2658SOL    HW219608   0.338   3.104   2.793  0.3753  0.4942  0.7726
 2659SOL     OW19609   2.401   0.388   8.872  0.8678  0.0179 -0.0670
 2659SOL    HW119610   2.406   0.456   8.939 -0.5841  1.3227 -1.2720
 2659SOL    HW219611   2.453   0.315   8.905  3.3191  0.8491 -2.1029
 2660SOL     OW19612   0.552   1.773  15.264 -0.1195 -0.3116 -0.3260
 2660SOL    HW119613   0.531   1.817  15.182  3.7493 -1.2261 -1.7909
 2660SOL    HW219614   0.529   1.836  15.333  0.2718  1.0443 -1.4253
 2661SOL     OW19615   2.228   3.536   1.916  0.1467 -0.2425  0.1783
 2661SOL    HW119616   2.227   3.619   1.868 -3.6298 -0.7550 -0.6647
 2661SOL    HW219617   2.248   3.569   2.003  0.8964 -0.4013  0.0625
 2662SOL     OW19618   1.814   4.596  13.035  0.3349  0.5873  0.3775
 2662SOL    HW119619   1.739   4.555  12.991 -1.7043  2.8372  1.7812
 2662SOL    HW219620   1.773   4.628  13.115  1.5023  1.0678  0.7792
 2663SOL     OW19621   2.215   0.727   0.544 -0.4256 -0.4453 -0.0519
 2663SOL    HW119622   2.235   0.786   0.472 -1.3226  1.4194  1.2496
 2663SOL    HW219623   2.194   0.795   0.607 -0.4555 -1.1203  0.6730
 2664SOL     OW19624   3.995   3.086   9.199  0.1377  0.2572  0.2773
 2664SOL    HW119625   4.087   3.091   9.177 -0.3061  0.3930 -1.5167
 2664SOL    HW219626   4.002   3.084   9.295  0.1498 -0.1208  0.2681
 2665SOL     OW19627   0.865   0.827   4.512 -0.0244 -0.1926 -0.4839
 2665SOL    HW119628   0.843   0.771   4.586  0.5178  2.6764  1.8487
 2665SOL    HW219629   0.777   0.863   4.502  0.3408 -0.3157 -4.0737
 2666SOL     OW19630   2.878   3.626   8.760  0.6057  0.0074 -0.4289
 2666SOL    HW119631   2.943   3.592   8.821 -0.8818  3.7728  3.2719
 2666SOL    HW219632   2.860   3.710   8.802 -2.3358 -1.8591  1.9832
 2667SOL     OW19633   0.707   4.449   3.415  0.0723 -0.4588  0.6245
 2667SOL    HW119634   0.761   4.371   3.427  0.0877 -0.1833  2.3370
 2667SOL    HW219635   0.768   4.519   3.437  0.0978  0.0788 -1.1999
 2668SOL     OW19636   2.342   1.599   7.808  0.0987 -0.0998 -0.7362
 2668SOL    HW119637   2.319   1.633   7.722 -1.5753  1.9903  0.5259
 2668SOL    HW219638   2.269   1.541   7.830 -0.4330  0.8501  0.0149
 2669SOL     OW19639   2.692   0.723   7.949  0.1579 -0.1713  0.3555
 2669SOL    HW119640   2.750   0.799   7.944  0.2883 -0.2838  0.1528
 2669SOL    HW219641   2.612   0.766   7.920  0.9024 -0.9865 -2.9328
 2670SOL     OW19642   1.110   2.935   0.710  0.0885  0.2897 -0.4354
 2670SOL    HW119643   1.206   2.938   0.707  0.0633  2.0878  0.4613
 2670SOL    HW219644   1.084   2.882   0.635  0.3533 -0.6624  0.1526
 2671SOL     OW19645   0.682   0.211   6.245 -0.3049  0.3118 -0.5168
 2671SOL    HW119646   0.775   0.193   6.255 -0.6745 -2.2456 -1.5465
 2671SOL    HW219647   0.658   0.136   6.190 -0.2285 -1.1727  1.5068
 2672SOL     OW19648   1.220   4.713   2.621  0.3954 -0.6195 -0.5477
 2672SOL    HW119649   1.291   4.732   2.560  0.2005 -3.1472 -1.5364
 2672SOL    HW219650   1.183   4.628   2.597  0.6331 -1.6399  2.7127
 2673SOL     OW19651   0.147   4.507  13.130 -0.4853  0.3011  0.1029
 2673SOL    HW119652   0.237   4.520  13.159 -1.3907  3.0609  1.7135
 2673SOL    HW219653   0.096   4.558  13.193 -0.2182  1.7402 -0.8465
 2674SOL     OW19654   0.131   4.187   6.503 -0.2785 -0.1388 -0.4795
 2674SOL    HW119655   0.203   4.193   6.440  1.1629  1.0941  1.2546
 2674SOL    HW219656   0.096   4.105   6.470 -0.0201 -0.9250  1.1947
 2675SOL     OW19657   3.165   3.955   9.043  0.1004 -0.2533 -0.3476
 2675SOL    HW119658   3.184   3.951   8.950  2.5933  1.8393  0.0965
 2675SOL    HW219659   3.216   4.032   9.066 -0.7255  0.2882 -0.3475
 2676SOL     OW19660   1.816   1.023   5.706 -0.4620  0.3291  0.4838
 2676SOL    HW119661   1.747   0.963   5.731 -0.9607  0.5076 -0.4662
 2676SOL    HW219662   1.793   1.028   5.613  1.4967  2.0607  0.0705
 2677SOL     OW19663   2.076   4.249   3.749  0.3167  0.2763  0.4821
 2677SOL    HW119664   2.158   4.285   3.716 -0.1780 -1.6284 -2.7608
 2677SOL    HW219665   2.016   4.306   3.701  0.0400 -0.3936  0.0298
 2678SOL     OW19666   3.017   4.532   4.850  0.2339  0.3447  0.6263
 2678SOL    HW119667   3.020   4.622   4.884  0.6123  1.1905 -1.6443
 2678SOL    HW219668   3.062   4.551   4.768 -1.5015 -0.0532 -0.4266
 2679SOL     OW19669   4.188   3.064   1.906  0.3027  0.1518  0.1063
 2679SOL    HW119670   4.240   3.004   1.961  0.2098 -1.7042 -1.8144
 2679SOL    HW219671   4.241   3.074   1.827  0.5579  1.4121  0.4469
 2680SOL     OW19672   3.378   2.282  13.559  0.5591 -0.0638 -0.3122
 2680SOL    HW119673   3.434   2.206  13.574  2.2683  1.5965  1.6849
 2680SOL    HW219674   3.311   2.262  13.624 -0.8279 -3.2149 -2.7343
 2681SOL     OW19675   2.980   2.500  11.959  0.0485  0.4271 -0.2119
 2681SOL    HW119676   3.046   2.532  11.898 -1.2430  1.7927 -0.9106
 2681SOL    HW219677   2.932   2.438  11.904  2.3993 -1.0450 -0.5883
 2682SOL     OW19678   3.962   4.588  12.222 -1.0199 -0.2292  0.4621
 2682SOL    HW119679   3.879   4.636  12.229 -0.4945  0.4503  1.9831
 2682SOL    HW219680   3.937   4.503  12.184  0.7841 -0.5804  0.0704
 2683SOL     OW19681   4.703   3.858   1.490  0.1009 -0.1652  0.4713
 2683SOL    HW119682   4.699   3.814   1.405 -0.5292 -0.8995  0.8744
 2683SOL    HW219683   0.001   3.788   1.544 -1.4068  0.0308  1.7759
 2684SOL     OW19684   0.721   3.562  14.782  0.1252 -0.2688 -0.3440
 2684SOL    HW119685   0.633   3.600  14.779  0.3162  0.2404  0.7781
 2684SOL    HW219686   0.761   3.621  14.718  1.2844  0.3693  1.0022
 2685SOL     OW19687   2.422   2.551   5.538  0.0291 -0.2667  0.4950
 2685SOL    HW119688   2.488   2.618   5.558 -0.0393 -0.4083  1.2019
 2685SOL    HW219689   2.373   2.551   5.621 -0.6697  1.5989  0.0886
 2686SOL     OW19690   2.075   3.355   5.116  0.3884 -0.0833  0.8261
 2686SOL    HW119691   2.051   3.341   5.024  1.6589 -1.1854  0.6673
 2686SOL    HW219692   2.006   3.413   5.147  0.3694  1.1160 -1.4263
 2687SOL     OW19693   4.564   3.715   3.490 -0.5201 -0.4921  0.4112
 2687SOL    HW119694   4.539   3.798   3.532  3.3560  1.0436 -0.3103
 2687SOL    HW219695   4.659   3.721   3.481 -0.4125  0.7401  2.2210
 2688SOL     OW19696   2.600   2.308   6.805 -0.2149 -0.2424  0.5956
 2688SOL    HW119697   2.598   2.317   6.710  0.4625 -0.1432  0.5942
 2688SOL    HW219698   2.506   2.296   6.822 -0.4110  0.2328 -0.1751
 2689SOL     OW19699   0.095   3.079   6.109  0.5429 -0.4916 -0.1736
 2689SOL    HW119700   0.136   2.992   6.107 -1.7514 -1.5590 -1.4300
 2689SOL    HW219701   0.167   3.140   6.096  0.8314 -1.3041 -2.3644
 2690SOL     OW19702   1.497   2.761   3.325 -0.0593 -0.5143  0.1662
 2690SOL    HW119703   1.486   2.759   3.230  0.8675 -0.0846  0.0423
 2690SOL    HW219704   1.423   2.707   3.352 -0.1079 -0.7457 -0.4178
 2691SOL     OW19705   3.022   2.558   8.035 -0.3873 -0.4879  0.3395
 2691SOL    HW119706   3.040   2.530   7.945  0.1183 -1.9111  0.8895
 2691SOL    HW219707   2.956   2.628   8.033 -0.4521 -0.6367 -4.5817
 2692SOL     OW19708   0.704   0.442   6.868  0.1793  0.7356  0.1980
 2692SOL    HW119709   0.676   0.363   6.821  0.2753  0.4873  0.5678
 2692SOL    HW219710   0.671   0.511   6.809  1.6903 -0.5434 -2.1288
 2693SOL     OW19711   3.823   0.235  10.403  0.4919 -0.1230 -0.0723
 2693SOL    HW119712   3.778   0.151  10.397  2.8590 -1.3273 -0.6723
 2693SOL    HW219713   3.878   0.235  10.324  0.3740  0.9990 -0.1602
 2694SOL     OW19714   3.439   1.032   1.803 -0.1169  0.1984 -0.1666
 2694SOL    HW119715   3.469   1.116   1.771  0.6781  0.4035  1.1128
 2694SOL    HW219716   3.346   1.047   1.823 -0.7078 -1.7096 -1.4973
 2695SOL     OW19717   3.697   0.612   6.380 -0.8854  0.2890 -0.3247
 2695SOL    HW119718   3.665   0.633   6.468 -1.6093  2.1349 -1.0221
 2695SOL    HW219719   3.728   0.698   6.353  1.1759 -0.0173  1.0547
 2696SOL     OW19720   4.014   1.818   5.125  0.4934 -0.0182 -0.4819
 2696SOL    HW119721   3.986   1.835   5.035  0.4236 -1.1490 -0.6749
 2696SOL    HW219722   3.960   1.880   5.174  2.2614  2.1561 -1.3038
 2697SOL     OW19723   1.054   4.722   7.244 -0.0404 -0.1628 -0.0204
 2697SOL    HW119724   1.041   0.068   7.286  0.5410  0.4912 -1.1463
 2697SOL    HW219725   0.994   4.666   7.292 -0.6223  1.4017  1.0819
 2698SOL     OW19726   1.253   0.346  11.950  0.3260  0.3401  0.3389
 2698SOL    HW119727   1.328   0.347  11.891 -0.9416 -0.1718 -1.3034
 2698SOL    HW219728   1.292   0.350  12.037 -0.1985 -0.8375  0.6201
 2699SOL     OW19729   3.760   4.555   6.655 -0.5792  0.4574 -0.4106
 2699SOL    HW119730   3.762   4.644   6.690  0.9141  1.1677 -2.2611
 2699SOL    HW219731   3.855   4.545   6.644 -0.5926  2.8134 -2.7598
 2700SOL     OW19732   3.390   3.530   0.808  0.3860  0.2079 -0.1556
 2700SOL    HW119733   3.450   3.522   0.882 -1.0938  1.0568  1.1451
 2700SOL    HW219734   3.449   3.525   0.733 -1.1518 -1.3652 -1.2654
 2701SOL     OW19735   1.295   1.129  13.357  0.0092  0.1114  0.0148
 2701SOL    HW119736   1.238   1.201  13.332  0.0050 -0.4696 -1.6439
 2701SOL    HW219737   1.235   1.054  13.361  2.4613 -1.6983  3.0057
 2702SOL     OW19738   1.939   0.087   3.809 -0.1176  0.1338 -0.3128
 2702SOL    HW119739   1.913   0.052   3.895  0.4562  1.0977  0.2484
 2702SOL    HW219740   2.016   0.034   3.790  1.0317  0.1713  4.1613
 2703SOL     OW19741   0.171   3.649   0.334  0.3486  0.7394 -0.4030
 2703SOL    HW119742   0.211   3.732   0.311  1.2196 -0.5923 -3.7366
 2703SOL    HW219743   0.180   3.588   0.260  0.9038 -0.1458  0.3886
 2704SOL     OW19744   2.315   0.912   9.997  0.2131  0.2697  0.6030
 2704SOL    HW119745   2.306   0.993   9.946  1.7559 -0.3241 -0.6306
 2704SOL    HW219746   2.332   0.852   9.925  0.9647  2.6410 -1.2327
 2705SOL     OW19747   0.337   0.319   2.752  0.0550  0.1176  0.3537
 2705SOL    HW119748   0.338   0.413   2.773  0.0898  0.5312 -1.4971
 2705SOL    HW219749   0.411   0.307   2.693 -1.0268 -0.1225 -0.9527
 2706SOL     OW19750   3.312   2.115   8.873  0.0165  0.4256  0.0563
 2706SOL    HW119751   3.219   2.132   8.887 -0.0076  1.2398 -1.0864
 2706SOL    HW219752   3.306   2.089   8.781 -1.9439  1.1818 -0.0104
 2707SOL     OW19753   2.301   4.057   8.673 -0.4702 -0.1460 -0.0822
 2707SOL    HW119754   2.335   4.142   8.701 -1.4118  0.3872 -0.5401
 2707SOL    HW219755   2.360   4.040   8.600  0.4905 -2.0403  1.1449
 2708SOL     OW19756   2.855   1.340   2.123  0.2178 -0.4439 -0.1897
 2708SOL    HW119757   2.855   1.271   2.057 -1.0194 -1.1730  0.5708
 2708SOL    HW219758   2.921   1.313   2.188  1.1066  1.7356 -0.1750
 2709SOL     OW19759   1.498   3.984  11.096  0.2798 -0.1125 -0.1561
 2709SOL    HW119760   1.465   3.952  11.012 -0.9031 -0.4083  0.4350
 2709SOL    HW219761   1.581   4.025  11.071  0.3766 -1.5829 -2.2572
 2710SOL     OW19762   4.354   2.074  13.505  0.3140 -0.1149  0.0293
 2710SOL    HW119763   4.394   2.136  13.444 -0.1628 -1.1647 -1.3563
 2710SOL    HW219764   4.420   2.005  13.502 -0.9698 -1.3723  0.7715
 2711SOL     OW19765   3.525   1.415  11.020 -0.0285 -0.3071 -0.0025
 2711SOL    HW119766   3.613   1.389  10.994 -0.5884 -1.6405 -0.5766
 2711SOL    HW219767   3.497   1.335  11.064 -2.3249  0.3209 -0.3077
 2712SOL     OW19768   0.903   2.790   8.823 -0.4173 -0.1694 -0.2564
 2712SOL    HW119769   0.822   2.769   8.870 -0.6627 -0.2786 -0.7210
 2712SOL    HW219770   0.864   2.863   8.775  0.9395  1.0684  0.5412
 2713SOL     OW19771   0.397   2.695   2.886 -1.2404  0.0730  0.4895
 2713SOL    HW119772   0.323   2.754   2.874 -1.9993 -1.4760 -2.4279
 2713SOL    HW219773   0.449   2.738   2.818  2.5969 -2.5212  1.7681
 2714SOL     OW19774   0.754   1.070   4.711  0.2480  0.0001 -0.5838
 2714SOL    HW119775   0.704   1.104   4.785  1.1606 -1.1276  0.5505
 2714SOL    HW219776   0.828   1.036   4.762 -0.0638 -2.1211 -1.5394
 2715SOL     OW19777   4.169   2.233   2.102  0.4091 -0.0612  0.3040
 2715SOL    HW119778   4.161   2.174   2.027  0.2786  1.1617 -0.6426
 2715SOL    HW219779   4.083   2.228   2.144  0.9234 -0.6686  1.2969
 2716SOL     OW19780   4.552   3.946   1.684 -0.1059  0.1121 -0.0415
 2716SOL    HW119781   4.552   4.036   1.653  0.0230 -0.4781 -1.7646
 2716SOL    HW219782   4.620   3.908   1.629 -0.5976  0.5933 -0.9712
 2717SOL     OW19783   1.972   2.715   3.344 -0.7742 -0.0031  0.5287
 2717SOL    HW119784   1.895   2.706   3.400 -0.6027 -4.2872  0.0823
 2717SOL    HW219785   1.977   2.633   3.294 -3.5104  2.3273 -3.6013
 2718SOL     OW19786   4.712   0.087   2.599 -0.2013  0.3205 -0.4937
 2718SOL    HW119787   0.051   0.110   2.651  0.5548  1.2967 -2.0642
 2718SOL    HW219788   4.667   0.021   2.652 -0.9955  0.7788 -0.5941
 2719SOL     OW19789   0.659   3.472  17.467  0.2651  0.3243 -0.4859
 2719SOL    HW119790   0.574   3.513  17.479  1.0337  1.4878  1.0177
 2719SOL    HW219791   0.657   3.411  17.540 -1.5793 -0.4331 -1.1714
 2720SOL     OW19792   4.069   0.723   3.803  0.1593  0.1492  0.0698
 2720SOL    HW119793   4.013   0.687   3.872 -2.4132  0.3031 -1.9492
 2720SOL    HW219794   4.026   0.806   3.787  0.0254  0.5172  2.2671
 2721SOL     OW19795   4.371   0.102   2.440 -0.2982 -0.5589 -0.3983
 2721SOL    HW119796   4.449   0.058   2.405  0.7377  0.6099  0.4104
 2721SOL    HW219797   4.308   0.084   2.371  0.0549 -1.0187 -0.6045
 2722SOL     OW19798   2.480   0.030  16.861  0.1931 -0.4217 -0.2780
 2722SOL    HW119799   2.504   4.692  16.912  1.1054 -0.6288 -1.0091
 2722SOL    HW219800   2.530   0.097  16.908 -0.6320 -0.6532  0.9257
 2723SOL     OW19801   3.270   3.342   0.378 -0.3845 -0.0002 -0.1591
 2723SOL    HW119802   3.345   3.376   0.428  0.0525 -0.0938 -0.7477
 2723SOL    HW219803   3.201   3.389   0.425  0.6266  0.7849  0.5498
 2724SOL     OW19804   1.038   4.080   2.403  0.4689  0.4047  0.2622
 2724SOL    HW119805   1.133   4.096   2.404  0.5376 -0.0280  0.6885
 2724SOL    HW219806   1.005   4.169   2.396  0.7638  0.5716  0.9426
 2725SOL     OW19807   0.479   0.909  11.172  0.5974 -0.4390 -0.0677
 2725SOL    HW119808   0.444   0.918  11.083 -0.1697 -0.9559  0.1803
 2725SOL    HW219809   0.543   0.842  11.152 -0.6454 -1.6525  0.0230
 2726SOL     OW19810   1.752   2.755   1.371 -0.0296 -0.6568 -0.2097
 2726SOL    HW119811   1.779   2.710   1.451 -1.2100 -0.4828  0.2928
 2726SOL    HW219812   1.662   2.729   1.351 -1.0426  1.5043  1.5107
 2727SOL     OW19813   0.486   2.136   2.167  0.2760  0.3844 -0.1722
 2727SOL    HW119814   0.561   2.080   2.145  0.3202 -0.2224  1.5050
 2727SOL    HW219815   0.423   2.065   2.172  0.7610  0.0559  1.2688
 2728SOL     OW19816   0.690   2.596  15.928 -0.1768  0.2604  0.2471
 2728SOL    HW119817   0.633   2.642  15.990 -1.2162 -0.1854 -0.3648
 2728SOL    HW219818   0.684   2.636  15.842 -0.7289  2.0682  1.1164
 2729SOL     OW19819   1.379   1.195   2.811 -0.0575 -0.7778  0.2810
 2729SOL    HW119820   1.341   1.107   2.803 -2.1983  0.3256 -1.9626
 2729SOL    HW219821   1.325   1.251   2.755 -0.2062  2.1917  3.3832
 2730SOL     OW19822   1.295   1.010  11.804  0.0991  0.0559  0.1106
 2730SOL    HW119823   1.328   1.088  11.848 -1.4990  1.8907 -1.9241
 2730SOL    HW219824   1.370   1.003  11.744 -0.8378  1.2004 -1.1859
 2731SOL     OW19825   2.444   3.701  14.634  0.0525  0.1972  0.4191
 2731SOL    HW119826   2.459   3.794  14.615 -2.0443  0.2268 -1.0126
 2731SOL    HW219827   2.512   3.681  14.700  0.9529  0.4835 -0.4180
 2732SOL     OW19828   0.660   4.018   4.905 -0.1254  0.0010 -0.5511
 2732SOL    HW119829   0.670   3.937   4.856 -1.0133 -0.8209  0.6232
 2732SOL    HW219830   0.677   4.084   4.839  0.7330  0.8262  0.4938
 2733SOL     OW19831   3.125   2.123   9.673  0.2071 -0.4832  0.5063
 2733SOL    HW119832   3.061   2.152   9.608  0.5715  1.5965  1.0625
 2733SOL    HW219833   3.074   2.120   9.754 -0.3678 -1.6198  0.0970
 2734SOL     OW19834   4.304   0.187   7.717  0.4323 -0.0584  0.3768
 2734SOL    HW119835   4.289   0.148   7.803 -0.9774  2.1376  1.1451
 2734SOL    HW219836   4.399   0.199   7.717  0.4866 -0.3848 -1.7619
 2735SOL     OW19837   0.686   3.709  16.078 -0.0228  0.4245  0.0712
 2735SOL    HW119838   0.669   3.747  16.164 -0.6792 -1.0799  0.5930
 2735SOL    HW219839   0.598   3.711  16.041  0.4579 -0.4072 -1.1117
 2736SOL     OW19840   2.800   2.348   6.435 -0.1567  0.5719 -0.1166
 2736SOL    HW119841   2.712   2.316   6.412 -0.2243 -0.7694  2.0063
 2736SOL    HW219842   2.842   2.262   6.431  0.9143  0.9993  2.0758
 2737SOL     OW19843   2.543   1.671   2.439  0.2698  0.2048  0.1578
 2737SOL    HW119844   2.572   1.736   2.504  1.8921 -0.2874 -0.0759
 2737SOL    HW219845   2.503   1.728   2.373  1.1317 -0.1840 -0.6984
 2738SOL     OW19846   3.632   4.470   6.342 -0.0451  0.6309 -0.3937
 2738SOL    HW119847   3.610   4.535   6.408 -1.5658 -1.6453  1.3651
 2738SOL    HW219848   3.555   4.413   6.347  1.4470 -1.3575  0.3184
 2739SOL     OW19849   2.244   1.389   6.177  0.3276  0.8042  0.2073
 2739SOL    HW119850   2.184   1.325   6.214 -0.5608  1.9504  0.7488
 2739SOL    HW219851   2.329   1.351   6.201  0.0800 -0.4765 -0.9810
 2740SOL     OW19852   0.203   0.381   5.755 -0.7120  0.2881 -0.0285
 2740SOL    HW119853   0.183   0.300   5.707 -1.5873  0.2383  0.4335
 2740SOL    HW219854   0.217   0.441   5.682  1.3090  0.1076  0.2123
 2741SOL     OW19855   4.417   2.646  17.074  0.1794  0.4450 -0.2037
 2741SOL    HW119856   4.335   2.690  17.053 -1.8221 -2.8133  0.7819
 2741SOL    HW219857   4.476   2.710  17.034  2.5856 -0.8844  1.2287
 2742SOL     OW19858   2.097   4.328   2.750 -0.0306 -0.6350 -0.3144
 2742SOL    HW119859   2.045   4.260   2.792  0.3846 -1.4116 -1.0745
 2742SOL    HW219860   2.147   4.364   2.824 -1.5250  0.1666  0.3077
 2743SOL     OW19861   0.275   1.861  16.987 -0.0989 -0.0329  0.2603
 2743SOL    HW119862   0.342   1.813  17.036  0.7162  0.5253 -0.2960
 2743SOL    HW219863   0.216   1.789  16.964 -2.0520  1.8661 -0.6675
 2744SOL     OW19864   1.381   3.654  10.433  0.0069 -0.2179  0.0374
 2744SOL    HW119865   1.337   3.621  10.512 -0.6414  0.4012 -0.0617
 2744SOL    HW219866   1.469   3.623  10.454 -0.3845 -2.2837 -1.4092
 2745SOL     OW19867   0.034   2.403   2.568  0.1093  0.3997 -0.0649
 2745SOL    HW119868   4.725   2.376   2.646  1.8274  0.7517  1.1284
 2745SOL    HW219869   0.022   2.324   2.515  0.8979 -0.1924  0.6324
 2746SOL     OW19870   2.000   1.875   3.789 -0.0461  0.1798 -0.4265
 2746SOL    HW119871   1.940   1.846   3.857  2.3106 -1.3307  0.9654
 2746SOL    HW219872   1.942   1.900   3.716 -0.4883 -1.2594 -0.5791
 2747SOL     OW19873   0.532   2.288   5.667  0.7620 -0.2845  0.4449
 2747SOL    HW119874   0.556   2.368   5.714 -2.4628  0.1250  1.3816
 2747SOL    HW219875   0.581   2.224   5.719  1.5255 -0.5021 -0.5433
 2748SOL     OW19876   1.510   2.692   4.567 -0.2186  0.7333 -0.1357
 2748SOL    HW119877   1.591   2.642   4.554 -0.8593 -0.7412  1.6074
 2748SOL    HW219878   1.455   2.645   4.505 -1.0355  0.1719  1.0325
 2749SOL     OW19879   2.229   2.029   2.044  0.4543  0.0200 -0.3489
 2749SOL    HW119880   2.284   1.952   2.031 -0.7677 -1.0362  0.6307
 2749SOL    HW219881   2.150   1.993   2.084  0.3113  0.6150 -0.1072
 2750SOL     OW19882   2.337   0.339   6.127 -0.4887 -0.3841  0.5073
 2750SOL    HW119883   2.390   0.360   6.050 -2.5329  0.8669 -0.5566
 2750SOL    HW219884   2.270   0.406   6.115  0.1240  0.0773 -0.2846
 2751SOL     OW19885   3.664   2.918   7.302  0.3289 -0.2281  0.6477
 2751SOL    HW119886   3.575   2.935   7.269  0.4740  0.8861  0.8237
 2751SOL    HW219887   3.709   2.999   7.277  2.7033 -1.6558  0.3939
 2752SOL     OW19888   2.329   4.123   2.508  0.1202  0.3189  0.4856
 2752SOL    HW119889   2.378   4.056   2.554  2.9045  2.3555  0.4812
 2752SOL    HW219890   2.321   4.178   2.585 -1.1983  0.4918  0.2314
 2753SOL     OW19891   1.018   1.775   6.076 -0.2771 -0.1761 -0.4736
 2753SOL    HW119892   1.112   1.756   6.080 -0.6590 -1.5830  1.3366
 2753SOL    HW219893   0.992   1.702   6.132  1.5376 -0.2341  0.2858
 2754SOL     OW19894   1.416   2.762   8.233 -0.2299  0.3190  0.3658
 2754SOL    HW119895   1.474   2.703   8.185 -0.1091  2.0824 -1.6596
 2754SOL    HW219896   1.339   2.707   8.252 -1.0892  1.7823  1.1143
 2755SOL     OW19897   0.287   1.300  17.077 -0.1880  0.7018  0.9422
 2755SOL    HW119898   0.310   1.228  17.136  0.2199 -0.5842 -0.7620
 2755SOL    HW219899   0.258   1.254  16.998 -0.7644  0.2812  1.3997
 2756SOL     OW19900   0.820   4.448   3.689  0.1138  0.1906  0.3656
 2756SOL    HW119901   0.882   4.381   3.661  0.1744 -0.5736  2.3059
 2756SOL    HW219902   0.805   4.430   3.782 -0.4105 -0.8042  0.0836
 2757SOL     OW19903   3.162   1.002   7.956 -0.5450  0.2282 -0.1879
 2757SOL    HW119904   3.249   1.026   7.987  0.0760  1.8402 -3.1954
 2757SOL    HW219905   3.127   1.091   7.947 -1.4123  0.0179  1.1646
 2758SOL     OW19906   3.394   2.542   6.001  0.4875  0.0252  0.5402
 2758SOL    HW119907   3.476   2.509   6.040  0.9489 -1.1030 -1.4148
 2758SOL    HW219908   3.358   2.455   5.991  0.1672  0.3518 -1.0240
 2759SOL     OW19909   1.780   2.984  12.178  0.6929  0.3144 -0.1191
 2759SOL    HW119910   1.861   2.947  12.216  0.0230 -1.7656 -0.7077
 2759SOL    HW219911   1.810   3.072  12.156  2.0425 -0.3220 -0.8307
 2760SOL     OW19912   2.108   0.349  15.531  0.0952 -0.5749  0.1527
 2760SOL    HW119913   2.129   0.266  15.489 -2.3323 -1.1815  0.1260
 2760SOL    HW219914   2.176   0.368  15.595 -0.2687 -2.9920  1.2494
 2761SOL     OW19915   3.161   0.030   8.326 -0.2895  0.2381  0.0309
 2761SOL    HW119916   3.108   0.107   8.302 -2.1834 -0.8824  0.5724
 2761SOL    HW219917   3.169   4.737   8.236 -0.8729  1.1612 -0.3540
 2762SOL     OW19918   4.571   3.952   9.115  0.3585 -0.9391  0.4278
 2762SOL    HW119919   4.614   3.912   9.040  0.1140  0.3773 -0.4147
 2762SOL    HW219920   4.576   3.884   9.182 -1.3003  0.0953  1.6116
 2763SOL     OW19921   4.489   3.559   0.324 -0.1589  0.1846  0.2985
 2763SOL    HW119922   4.468   3.467   0.305  0.6106 -0.0937  0.8251
 2763SOL    HW219923   4.571   3.557   0.373  0.3065  0.3232 -0.4875
 2764SOL     OW19924   0.246   0.940  10.017  0.0982 -0.5818  0.1393
 2764SOL    HW119925   0.338   0.950  10.042  0.3282  1.1277 -1.3824
 2764SOL    HW219926   0.249   0.870   9.951  2.4428  0.2774 -0.6452
 2765SOL     OW19927   2.787   3.697   6.806  0.3491  0.4930 -0.3858
 2765SOL    HW119928   2.778   3.615   6.758  0.6077 -0.4128  1.1301
 2765SOL    HW219929   2.700   3.713   6.842 -0.8629 -0.9874 -2.6495
 2766SOL     OW19930   2.540   2.524   1.951  0.6625  0.0415 -0.0166
 2766SOL    HW119931   2.507   2.548   2.038  1.2586  1.0850 -0.0764
 2766SOL    HW219932   2.460   2.513   1.900 -0.6294  0.9758  1.7795
 2767SOL     OW19933   0.571   0.594   1.125 -0.2606  0.0412 -0.3113
 2767SOL    HW119934   0.523   0.547   1.056 -0.4967  0.6183 -0.5397
 2767SOL    HW219935   0.606   0.670   1.078 -0.3075 -0.4090 -1.0882
 2768SOL     OW19936   4.132   0.352   7.587 -0.0424 -0.1061 -0.0791
 2768SOL    HW119937   4.209   0.307   7.621  2.2090  4.9961  1.6853
 2768SOL    HW219938   4.074   0.281   7.614 -0.2484  1.0966  2.7089
 2769SOL     OW19939   2.702   3.432   8.391  0.7733  0.2637 -0.1902
 2769SOL    HW119940   2.618   3.443   8.435  0.3637  0.0301 -0.9223
 2769SOL    HW219941   2.719   3.341   8.414  0.8403  0.6605  1.3357
 2770SOL     OW19942   1.361   3.570   6.365 -0.4900  0.4153 -0.1234
 2770SOL    HW119943   1.410   3.619   6.299 -2.6091  4.2725  1.1568
 2770SOL    HW219944   1.434   3.519   6.400 -0.5221  1.9576  2.2647
 2771SOL     OW19945   4.435   4.725   5.485 -0.1965  0.2892 -0.1966
 2771SOL    HW119946   4.441   4.701   5.392 -0.3939  0.7921 -0.3358
 2771SOL    HW219947   4.341   0.001   5.493 -0.5593 -1.9911 -0.2310
 2772SOL     OW19948   1.698   3.160   4.949  0.0578  0.3509  0.1966
 2772SOL    HW119949   1.771   3.113   4.989  0.9486 -0.4361 -2.4205
 2772SOL    HW219950   1.717   3.149   4.856 -0.7321  0.0986  0.0582
 2773SOL     OW19951   0.262   2.650   8.945  0.3628  0.5008 -0.7809
 2773SOL    HW119952   0.276   2.686   8.857 -2.2755 -0.8344 -1.7536
 2773SOL    HW219953   0.236   2.725   8.999  1.5225  1.1585 -1.1357
 2774SOL     OW19954   1.863   1.170  14.304  0.1235  0.3568 -0.5880
 2774SOL    HW119955   1.781   1.164  14.353  1.8982 -2.2892  2.0037
 2774SOL    HW219956   1.918   1.102  14.342  0.6686  0.6401 -0.8682
 2775SOL     OW19957   4.423   1.467  15.367 -0.6210  0.7989 -0.0127
 2775SOL    HW119958   4.371   1.399  15.408 -1.0772  1.0596 -0.1542
 2775SOL    HW219959   4.464   1.504  15.445  1.0287 -1.2427  0.0648
 2776SOL     OW19960   2.928   1.244  14.694 -0.2632 -0.0188  0.7421
 2776SOL    HW119961   2.925   1.265  14.601  1.8915  1.1996  0.9449
 2776SOL    HW219962   2.974   1.161  14.684 -0.1474  0.4014 -2.2042
 2777SOL     OW19963   1.043   1.315   6.958  0.3054 -0.0342  0.2481
 2777SOL    HW119964   0.969   1.339   6.902  1.7544  1.4161 -1.0267
 2777SOL    HW219965   1.060   1.402   6.992  2.8712  1.1026 -3.9454
 2778SOL     OW19966   1.232   2.347   1.048  0.2345  0.4868 -0.0832
 2778SOL    HW119967   1.195   2.350   0.960  0.4876  0.3459 -0.1934
 2778SOL    HW219968   1.327   2.340   1.043  0.1754  0.4677 -1.0996
 2779SOL     OW19969   2.206   1.447   5.467 -0.1728 -0.3416 -0.4943
 2779SOL    HW119970   2.262   1.423   5.541  1.0374 -0.5347 -1.4844
 2779SOL    HW219971   2.264   1.474   5.396  0.7644  0.5475  0.6217
 2780SOL     OW19972   4.390   3.858   8.074  0.7874  0.2979 -0.2650
 2780SOL    HW119973   4.326   3.818   8.015  1.8392  0.8189 -1.7844
 2780SOL    HW219974   4.333   3.916   8.124  2.5303 -1.0314  3.2125
 2781SOL     OW19975   1.501   3.647   4.754  0.2374 -0.3289  0.4641
 2781SOL    HW119976   1.586   3.684   4.734 -1.0756  1.7015 -1.3717
 2781SOL    HW219977   1.451   3.726   4.732  0.2697 -0.5992 -0.6010
 2782SOL     OW19978   0.486   2.396   6.871  0.4263  0.0052 -0.5193
 2782SOL    HW119979   0.456   2.305   6.873  1.1782 -0.2103  1.5094
 2782SOL    HW219980   0.534   2.407   6.789 -0.2902  1.3031 -0.7646
 2783SOL     OW19981   4.515   3.962  14.427 -0.2395 -0.3727 -0.3569
 2783SOL    HW119982   4.458   3.971  14.503 -1.7328  0.2434 -1.5358
 2783SOL    HW219983   4.480   4.029  14.368 -1.1086 -0.0683  0.5051
 2784SOL     OW19984   1.015   3.485   5.890  0.3005  0.4664  0.4193
 2784SOL    HW119985   1.065   3.556   5.930 -0.0216  1.1143 -0.3153
 2784SOL    HW219986   0.987   3.439   5.968  1.7764 -1.4839 -0.2182
 2785SOL     OW19987   2.012   1.871   4.777 -0.0444  0.2254 -0.1577
 2785SOL    HW119988   2.083   1.837   4.723 -1.2103 -2.3977 -0.0113
 2785SOL    HW219989   2.038   1.837   4.863 -1.6435  2.0030  1.0581
 2786SOL     OW19990   4.376   3.454  12.296  0.6232 -0.0555 -0.4391
 2786SOL    HW119991   4.349   3.396  12.368  0.7574  0.2667 -0.1266
 2786SOL    HW219992   4.305   3.433  12.236  0.0517  2.0951 -0.5171
 2787SOL     OW19993   4.309   3.440   8.072 -0.1707  0.0161  0.2971
 2787SOL    HW119994   4.240   3.420   8.009 -1.7173 -0.7498  2.2319
 2787SOL    HW219995   4.263   3.462   8.153  0.6565  1.3183  0.4016
 2788SOL     OW19996   2.491   1.285  15.434 -0.3765  0.0465 -0.0487
 2788SOL    HW119997   2.451   1.210  15.477  0.1249  0.0540  0.4244
 2788SOL    HW219998   2.490   1.250  15.345 -2.7291 -2.0873  0.7964
 2789SOL     OW19999   1.501   2.225  11.960 -0.2848 -0.7112 -0.2958
 2789SOL    HW120000   1.472   2.234  11.869 -2.5879 -0.3666  0.4528
 2789SOL    HW220001   1.494   2.131  11.978 -1.1115 -0.5535  0.2469
 2790SOL     OW20002   2.560   4.132   5.087  0.1358  0.3424  0.1878
 2790SOL    HW120003   2.579   4.205   5.028  1.5769 -1.4592 -1.5840
 2790SOL    HW220004   2.648   4.098   5.104  0.6591  1.7449  0.2849
 2791SOL     OW20005   1.051   1.156  10.778 -0.0791  0.4920  0.4952
 2791SOL    HW120006   1.000   1.214  10.834 -0.3931 -0.5684  1.2991
 2791SOL    HW220007   0.981   1.123  10.722 -0.4726 -1.2969  2.0828
 2792SOL     OW20008   0.515   1.843   8.208  0.0035 -0.2402  0.4297
 2792SOL    HW120009   0.603   1.818   8.234  0.3257 -0.8980 -1.3265
 2792SOL    HW220010   0.500   1.921   8.262 -0.8079 -1.2661  1.6973
 2793SOL     OW20011   2.072   2.914   9.751 -0.1791  0.7593  0.3118
 2793SOL    HW120012   2.046   2.981   9.814 -3.0248 -1.4129  1.4931
 2793SOL    HW220013   1.996   2.860   9.775  0.4239  0.3964  1.4281
 2794SOL     OW20014   2.979   0.896   4.535 -0.5265  0.4350 -0.1200
 2794SOL    HW120015   2.920   0.870   4.606  0.4504  0.5553  0.7368
 2794SOL    HW220016   2.940   0.982   4.522  1.5894  1.3768 -0.2229
 2795SOL     OW20017   4.314   3.070   2.743 -0.5540  0.3662 -0.1861
 2795SOL    HW120018   4.360   3.133   2.798 -0.7142  1.2977 -1.1161
 2795SOL    HW220019   4.383   3.006   2.726  0.1644  1.1443 -0.1978
 2796SOL     OW20020   2.620   3.643   0.741  0.2977 -0.0856 -0.0459
 2796SOL    HW120021   2.649   3.633   0.650  2.1510  1.0088  0.4141
 2796SOL    HW220022   2.540   3.591   0.741  0.8180 -0.8965  2.9261
 2797SOL     OW20023   1.926   1.035  13.728  0.2420 -0.3866  0.0057
 2797SOL    HW120024   1.846   1.078  13.699 -1.0014 -1.8177  1.3025
 2797SOL    HW220025   1.887   0.963  13.778 -0.8689 -1.4736 -2.4127
 2798SOL     OW20026   3.758   2.569   0.396  0.3493 -0.1563  0.3430
 2798SOL    HW120027   3.852   2.584   0.405  0.3557 -1.8576  2.8356
 2798SOL    HW220028   3.757   2.474   0.402 -1.3562 -0.2537 -1.1610
 2799SOL     OW20029   4.698   3.769   8.388 -0.0158 -0.0898  0.5306
 2799SOL    HW120030   4.615   3.766   8.435 -2.1415  0.6543 -3.1338
 2799SOL    HW220031   4.657   3.774   8.301  0.9624 -1.0709  0.0188
 2800SOL     OW20032   3.206   1.944  10.557 -0.2136  0.4138 -0.3164
 2800SOL    HW120033   3.141   1.905  10.616  0.2057 -0.3461 -0.3573
 2800SOL    HW220034   3.225   2.021  10.610  0.7814 -0.1314  0.1154
 2801SOL     OW20035   0.188   0.739  10.517 -0.5601  0.5907 -0.1157
 2801SOL    HW120036   0.180   0.645  10.534  0.9635  0.2260 -1.3851
 2801SOL    HW220037   0.276   0.739  10.479 -0.9849 -1.4829 -1.0638
 2802SOL     OW20038   4.594   1.020   9.555  0.2293  0.1227 -0.1910
 2802SOL    HW120039   4.672   1.054   9.599  0.9439  0.2078 -1.5270
 2802SOL    HW220040   4.553   1.098   9.517  2.3027  1.9441  1.2641
 2803SOL     OW20041   1.942   2.681   7.967  0.1086  0.0296 -0.4771
 2803SOL    HW120042   1.871   2.668   7.905  1.1013 -1.3403 -1.3234
 2803SOL    HW220043   1.889   2.732   8.029  2.0341  1.4998 -0.0451
 2804SOL     OW20044   0.561   0.501   2.408  0.4635  0.2075 -0.0018
 2804SOL    HW120045   0.504   0.425   2.419 -0.6206  0.6323 -2.7915
 2804SOL    HW220046   0.516   0.537   2.332  0.2475  1.2991  0.6399
 2805SOL     OW20047   0.840   3.520   8.627 -0.2909 -0.4929  0.3170
 2805SOL    HW120048   0.815   3.603   8.586  4.6855  0.3464 -0.9844
 2805SOL    HW220049   0.931   3.535   8.651  0.0932 -2.0427 -0.1418
 2806SOL     OW20050   3.776   0.107  10.832 -0.2887 -0.0872 -0.7005
 2806SOL    HW120051   3.860   0.102  10.787  0.6524  0.7152  0.9604
 2806SOL    HW220052   3.728   0.146  10.759  0.3028 -1.1115 -1.6330
 2807SOL     OW20053   4.661   2.895   2.042  0.1032 -0.1219  0.0200
 2807SOL    HW120054   4.585   2.836   2.038 -0.7986  0.8241  3.3126
 2807SOL    HW220055   4.693   2.879   1.953  0.9108 -0.0832  0.3083
 2808SOL     OW20056   2.145   3.081   6.609  0.0546  0.2552  0.2647
 2808SOL    HW120057   2.240   3.068   6.610 -0.1766 -1.4176  0.7846
 2808SOL    HW220058   2.124   3.109   6.520 -1.5710 -0.0196  0.5570
 2809SOL     OW20059   1.894   2.754   0.646 -0.0922  0.2705  0.1815
 2809SOL    HW120060   1.865   2.777   0.734 -0.5540  1.3637 -0.2704
 2809SOL    HW220061   1.923   2.844   0.629 -0.2530  0.3453  0.3144
 2810SOL     OW20062   1.894   2.274   3.981  0.4875 -0.4477  0.1244
 2810SOL    HW120063   1.909   2.247   4.072 -1.4776 -2.4207 -0.1344
 2810SOL    HW220064   1.799   2.284   3.988  0.6886  0.5457  1.5509
 2811SOL     OW20065   3.397   4.224   9.666  0.1907 -0.3478 -0.0066
 2811SOL    HW120066   3.364   4.219   9.577  2.0639 -2.6936 -0.5529
 2811SOL    HW220067   3.321   4.210   9.723 -0.9037  0.0604 -1.3554
 2812SOL     OW20068   3.452   1.337   8.018 -0.7847  0.3261  0.1227
 2812SOL    HW120069   3.491   1.362   7.934  0.3427 -2.0899 -0.0852
 2812SOL    HW220070   3.363   1.342   7.985 -0.9687 -0.9664  0.3907
 2813SOL     OW20071   4.137   1.415   4.522  0.2992 -0.6366  0.0394
 2813SOL    HW120072   4.128   1.510   4.520 -2.9765 -0.9331  0.4704
 2813SOL    HW220073   4.186   1.415   4.604  0.0806  1.6458  0.1683
 2814SOL     OW20074   1.421   3.398   7.895 -0.5146  0.1731 -0.4627
 2814SOL    HW120075   1.414   3.331   7.964  0.8895  1.5793  1.0561
 2814SOL    HW220076   1.337   3.439   7.915 -2.3652 -2.8506 -1.9902
 2815SOL     OW20077   4.559   3.997   7.110 -0.4014  0.6624  0.2429
 2815SOL    HW120078   4.477   3.949   7.125 -0.1279  0.7205  1.8860
 2815SOL    HW220079   4.597   4.011   7.197 -0.6388  1.2252  0.2568
 2816SOL     OW20080   4.202   1.874   5.691  0.0009 -0.1054 -0.6367
 2816SOL    HW120081   4.264   1.944   5.710  1.0164 -1.9407  2.8861
 2816SOL    HW220082   4.133   1.909   5.635  1.5389  0.5445 -2.1092
 2817SOL     OW20083   1.076   1.537   5.881 -0.2388 -0.2398 -0.4115
 2817SOL    HW120084   1.097   1.444   5.879 -0.0412 -0.1311 -3.5560
 2817SOL    HW220085   1.130   1.554   5.958  0.7988  0.9529 -1.4024
 2818SOL     OW20086   3.375   1.275   4.597  0.1256  0.6145 -0.1629
 2818SOL    HW120087   3.355   1.323   4.516 -1.1967  2.4875  1.2944
 2818SOL    HW220088   3.455   1.238   4.561  0.2807 -0.7605  1.6222
 2819SOL     OW20089   2.286   0.766   7.037 -0.2222  0.1871  0.0081
 2819SOL    HW120090   2.213   0.815   6.999  1.0310  1.1722 -1.1879
 2819SOL    HW220091   2.339   0.845   7.047 -1.8577  1.6638 -2.7472
 2820SOL     OW20092   2.063   2.376  15.300  0.2296  0.3415 -0.3047
 2820SOL    HW120093   2.103   2.403  15.217  1.0547  1.3589  0.4145
 2820SOL    HW220094   1.970   2.366  15.280  0.1921  0.4581 -0.1860
 2821SOL     OW20095   4.166   4.022   6.374 -0.3819 -0.0617 -0.6292
 2821SOL    HW120096   4.073   4.000   6.372 -0.7485  1.3987  0.6317
 2821SOL    HW220097   4.170   4.030   6.470 -0.5689 -1.6819 -0.4695
 2822SOL     OW20098   4.213   1.628  12.240 -0.0226  0.7852  0.3877
 2822SOL    HW120099   4.151   1.658  12.306  1.4738  1.7679  1.3404
 2822SOL    HW220100   4.259   1.709  12.214  0.5974  0.1963 -0.3715
 2823SOL     OW20101   2.525   0.935   5.540 -0.5803  0.4802  0.0114
 2823SOL    HW120102   2.475   0.862   5.502  2.1592 -0.8869 -0.9750
 2823SOL    HW220103   2.466   1.006   5.513  1.4577  0.4771 -4.3486
 2824SOL     OW20104   3.630   3.779   7.644  0.1166 -0.2152  0.3759
 2824SOL    HW120105   3.669   3.834   7.577  3.1829 -0.4493  1.9357
 2824SOL    HW220106   3.654   3.694   7.608  2.5332  1.4192 -1.8443
 2825SOL     OW20107   1.393   2.990   6.758 -0.0697  0.4714 -0.2818
 2825SOL    HW120108   1.383   3.086   6.763  1.8724  0.6213  1.0790
 2825SOL    HW220109   1.309   2.962   6.723 -1.1800  1.3342  1.6609
 2826SOL     OW20110   1.977   2.507   7.634 -0.1253 -0.2062  0.5038
 2826SOL    HW120111   1.994   2.599   7.614 -0.3192 -0.4040 -0.5537
 2826SOL    HW220112   2.068   2.480   7.644  0.4063  0.4028 -2.9471
 2827SOL     OW20113   1.385   4.584   7.710  0.4346 -0.2142 -0.2020
 2827SOL    HW120114   1.311   4.526   7.728 -1.4161  2.2669  0.2274
 2827SOL    HW220115   1.354   4.625   7.629  2.4380  0.2428 -0.7478
 2828SOL     OW20116   0.834   1.568  17.397  0.7232  0.3273  0.1912
 2828SOL    HW120117   0.768   1.556  17.465  0.9002 -0.4596  0.2311
 2828SOL    HW220118   0.913   1.537  17.442 -0.2410 -1.9944  0.3037
 2829SOL     OW20119   2.303   1.780   6.059  0.4944 -0.3836 -0.1843
 2829SOL    HW120120   2.274   1.797   6.149 -0.0405  0.5546 -0.5330
 2829SOL    HW220121   2.385   1.829   6.062 -0.0742  0.6998 -2.1160
 2830SOL     OW20122   3.486   4.656   3.844  0.3508  0.1428 -0.5161
 2830SOL    HW120123   3.552   4.671   3.776  0.6864  0.7581 -0.0582
 2830SOL    HW220124   3.418   4.704   3.795 -0.8975  0.0100  1.0938
 2831SOL     OW20125   4.243   2.977   4.412  0.0856 -0.0543  0.1548
 2831SOL    HW120126   4.193   2.901   4.440 -0.4461  0.3529  0.3064
 2831SOL    HW220127   4.327   2.943   4.379 -0.3698 -0.6047 -0.4332
 2832SOL     OW20128   3.451   4.161   2.994  0.4587 -0.3950  0.8173
 2832SOL    HW120129   3.497   4.170   3.077 -2.5868  0.1153  2.4314
 2832SOL    HW220130   3.388   4.232   3.004  1.3935  0.7377 -1.4859
 2833SOL     OW20131   4.017   4.526   4.875 -0.0897 -0.0911 -0.5607
 2833SOL    HW120132   3.989   4.487   4.958 -3.1266  2.2378 -0.4974
 2833SOL    HW220133   4.013   4.446   4.823  1.4844 -1.5940  1.6019
 2834SOL     OW20134   4.491   0.374  14.979  0.2314 -0.0366 -0.0895
 2834SOL    HW120135   4.560   0.411  15.034  0.4503 -0.8303  0.1606
 2834SOL    HW220136   4.536   0.310  14.924 -0.3952  0.6590 -1.3951
 2835SOL     OW20137   3.320   2.076   4.994  0.2317 -0.1866  0.4254
 2835SOL    HW120138   3.370   2.017   4.938  1.2200 -0.3012  1.4277
 2835SOL    HW220139   3.389   2.142   5.000  1.0188 -1.2437  2.9096
 2836SOL     OW20140   3.973   1.246   4.128 -0.0211 -0.6112  0.1047
 2836SOL    HW120141   3.990   1.287   4.043  1.3428  0.2936  0.8036
 2836SOL    HW220142   4.038   1.295   4.179  0.0989 -1.0883  0.4104
 2837SOL     OW20143   1.225   1.282   5.859  0.4620  0.1325  0.2509
 2837SOL    HW120144   1.184   1.252   5.778  1.4228 -0.9124  0.1611
 2837SOL    HW220145   1.290   1.214   5.878 -1.4676 -1.2741  1.8263
 2838SOL     OW20146   3.281   1.772   7.497  0.4346 -0.2821  0.2954
 2838SOL    HW120147   3.263   1.695   7.443  0.1013  0.7051 -1.0081
 2838SOL    HW220148   3.200   1.772   7.549  0.9034 -0.0956  1.0311
 2839SOL     OW20149   3.553   1.097  16.882  0.4337  0.8344 -0.5473
 2839SOL    HW120150   3.480   1.036  16.896 -0.6025  2.0000 -0.9214
 2839SOL    HW220151   3.550   1.097  16.786  3.6318 -0.4971 -0.6376
 2840SOL     OW20152   2.610   2.623   4.332 -0.0931  0.2564  0.5043
 2840SOL    HW120153   2.560   2.637   4.413 -0.0505  0.6484  0.4614
 2840SOL    HW220154   2.552   2.556   4.297 -1.7501  0.6422  2.4980
 2841SOL     OW20155   3.595   2.848   4.541  0.1504  0.0645  0.0913
 2841SOL    HW120156   3.502   2.828   4.553  0.5336  0.6679  3.9378
 2841SOL    HW220157   3.619   2.936   4.569  1.1093 -0.0040 -0.5210
 2842SOL     OW20158   1.936   4.288   5.417  0.2135  0.1748 -0.1847
 2842SOL    HW120159   1.931   4.295   5.512  3.4207  1.2358 -0.1050
 2842SOL    HW220160   2.029   4.304   5.403  0.3489 -0.5954 -0.1288
 2843SOL     OW20161   1.228   1.685   7.298 -0.3448 -0.2761  0.0236
 2843SOL    HW120162   1.213   1.754   7.234  1.0708  1.3128  1.3946
 2843SOL    HW220163   1.188   1.729   7.374  2.3101 -0.2345  1.3970
 2844SOL     OW20164   3.532   1.081   4.487 -0.2200  0.3498 -0.0605
 2844SOL    HW120165   3.616   1.052   4.521 -0.4090  0.0216  0.1322
 2844SOL    HW220166   3.472   1.031   4.543  1.3446 -1.5662 -0.0719
 2845SOL     OW20167   2.016   3.572   0.877 -0.2853  0.0773 -0.3281
 2845SOL    HW120168   2.058   3.487   0.891 -0.9868 -0.3313 -0.7053
 2845SOL    HW220169   2.083   3.607   0.818  0.3359 -1.9439 -0.8339
 2846SOL     OW20170   4.031   0.112   6.886 -0.0466 -0.0388 -0.0661
 2846SOL    HW120171   4.021   0.176   6.956 -0.6135 -0.4553  0.2407
 2846SOL    HW220172   4.079   0.045   6.935 -1.3320 -0.6670  0.3382
 2847SOL     OW20173   3.775   1.237   2.339 -0.1743  0.0023 -0.5295
 2847SOL    HW120174   3.766   1.324   2.299 -1.9539  0.9581  1.9563
 2847SOL    HW220175   3.733   1.193   2.265  2.8919 -0.8924 -1.7281
 2848SOL     OW20176   1.703   4.027   9.148  0.0149 -0.1390  0.6093
 2848SOL    HW120177   1.681   3.970   9.222 -0.2358 -1.6676 -0.6234
 2848SOL    HW220178   1.627   4.084   9.148  0.9132  1.0445  1.1126
 2849SOL     OW20179   3.162   3.624   1.612 -0.2460 -0.4872 -0.6257
 2849SOL    HW120180   3.165   3.710   1.655 -0.5956 -1.6518  1.7662
 2849SOL    HW220181   3.121   3.568   1.679 -0.5233 -3.3773 -3.1899
 2850SOL     OW20182   3.028   2.008   9.915 -0.2397  0.3386  0.1109
 2850SOL    HW120183   3.008   1.998  10.008  2.7687  0.8007  0.8062
 2850SOL    HW220184   3.102   1.950   9.900  0.2999  0.9154  0.5327
 2851SOL     OW20185   0.176   0.203   4.659  0.4249 -0.1663 -0.2331
 2851SOL    HW120186   0.149   0.269   4.595 -0.1198 -0.3786 -0.2276
 2851SOL    HW220187   0.096   0.185   4.709  0.2618  1.1000 -0.0464
 2852SOL     OW20188   3.920   4.571   8.779  0.4384  0.4192  0.0723
 2852SOL    HW120189   3.965   4.487   8.774 -1.0762 -0.3344 -1.1274
 2852SOL    HW220190   3.845   4.542   8.830 -1.2985  2.6722 -1.1747
 2853SOL     OW20191   4.722   3.055   7.285 -0.0494 -0.1325  0.1641
 2853SOL    HW120192   0.038   3.077   7.210 -0.8051 -0.6595 -0.5477
 2853SOL    HW220193   4.715   2.960   7.274  2.7145 -0.5531  2.1976
 2854SOL     OW20194   2.344   0.098   4.420  0.3372  0.0355  0.3610
 2854SOL    HW120195   2.397   0.173   4.392  0.3308 -0.4373 -0.8885
 2854SOL    HW220196   2.361   0.093   4.514  0.4072 -0.5033  0.3176
 2855SOL     OW20197   3.051   2.355   5.567 -0.0901 -0.1594  0.2917
 2855SOL    HW120198   3.138   2.337   5.602  0.5303  0.8747 -0.7486
 2855SOL    HW220199   3.072   2.386   5.479 -1.0737 -1.8043 -0.5224
 2856SOL     OW20200   2.939   2.848   2.688  0.0599 -0.5847  0.3098
 2856SOL    HW120201   2.881   2.791   2.638  0.3686 -2.1273  1.7129
 2856SOL    HW220202   3.016   2.852   2.631 -0.5200 -1.0713 -0.5089
 2857SOL     OW20203   1.756   3.566   8.999 -0.9954  0.0957  0.5102
 2857SOL    HW120204   1.806   3.624   9.056  1.5876 -0.6743 -0.9938
 2857SOL    HW220205   1.672   3.572   9.046 -0.9572  2.7519  0.1996
 2858SOL     OW20206   3.387   4.083   5.129 -0.6232  0.3993 -0.0371
 2858SOL    HW120207   3.456   4.141   5.159 -0.8438  0.1883  0.8808
 2858SOL    HW220208   3.391   4.015   5.196 -0.8487 -2.3960 -2.8070
 2859SOL     OW20209   2.012   3.243   0.922  0.5100 -0.0997  0.0417
 2859SOL    HW120210   2.025   3.160   0.968 -0.7123 -0.8248 -0.9207
 2859SOL    HW220211   1.917   3.247   0.910  0.4254  0.1643  0.7746
 2860SOL     OW20212   1.670   3.034   6.612 -0.5401 -0.0999 -0.2010
 2860SOL    HW120213   1.639   3.019   6.701 -0.0644 -0.3361 -0.0711
 2860SOL    HW220214   1.714   3.118   6.597  0.1838 -0.9053 -2.5681
 2861SOL     OW20215   0.642   2.075   5.459  0.1273  0.2710  0.2875
 2861SOL    HW120216   0.601   2.161   5.465  2.0803  1.0372  2.5436
 2861SOL    HW220217   0.575   2.009   5.480 -0.0482 -0.1557 -1.6266
 2862SOL     OW20218   0.893   3.018   5.111  0.6783 -0.0818 -0.4025
 2862SOL    HW120219   0.988   3.015   5.104  0.6690  0.6575 -0.7940
 2862SOL    HW220220   0.871   3.101   5.068 -0.0011 -0.1731 -0.2385
 2863SOL     OW20221   1.623   1.406   7.460 -0.0180  0.1878  0.3504
 2863SOL    HW120222   1.636   1.418   7.554 -0.0315  0.2931  0.3383
 2863SOL    HW220223   1.534   1.424   7.431 -0.9696 -0.3130  2.9342
 2864SOL     OW20224   2.416   3.771  17.523 -0.5536 -0.1918 -0.4819
 2864SOL    HW120225   2.373   3.803  17.602  0.9939 -3.6720  1.8169
 2864SOL    HW220226   2.498   3.733  17.557 -0.8443  0.2810  0.7555
 2865SOL     OW20227   4.582   1.270   8.721 -0.3974 -0.4635  0.0131
 2865SOL    HW120228   4.548   1.186   8.752  1.8390 -1.4166 -0.0868
 2865SOL    HW220229   4.520   1.280   8.649 -0.1211  0.3321 -0.1171
 2866SOL     OW20230   1.875   4.711   3.290 -0.1432 -0.2143  1.0335
 2866SOL    HW120231   1.923   4.730   3.210 -2.5556 -3.1096 -1.0985
 2866SOL    HW220232   1.902   0.049   3.340  0.1883  0.0466  0.4454
 2867SOL     OW20233   2.544   1.471  11.358 -0.1430  0.4341  0.1360
 2867SOL    HW120234   2.624   1.474  11.410 -0.3776  2.4909  0.3895
 2867SOL    HW220235   2.474   1.514  11.408 -0.8510  0.2154 -0.6639
 2868SOL     OW20236   4.480   1.879   5.889  0.0816  0.2488 -0.0412
 2868SOL    HW120237   4.442   1.946   5.946  0.5646 -1.9782  2.8621
 2868SOL    HW220238   4.494   1.807   5.950 -1.1133  0.6223  0.6706
 2869SOL     OW20239   4.693   4.675   7.852 -0.6373 -0.3977 -0.3927
 2869SOL    HW120240   4.730   4.590   7.876  0.4970 -0.2397 -1.5778
 2869SOL    HW220241   4.601   4.651   7.847 -1.3579  1.5921  3.3479
 2870SOL     OW20242   2.449   1.700  14.152 -0.2140 -0.3213  0.3262
 2870SOL    HW120243   2.367   1.749  14.150  1.3172  2.2398  0.5580
 2870SOL    HW220244   2.426   1.609  14.135  1.7235 -0.5974 -0.8617
 2871SOL     OW20245   1.853   3.305   7.456 -0.4871  0.6167 -0.3647
 2871SOL    HW120246   1.913   3.260   7.396  1.9911  2.2294  0.8655
 2871SOL    HW220247   1.782   3.327   7.396  1.6147 -0.0856 -3.1523
 2872SOL     OW20248   0.551   3.849  12.048  0.5140  0.0839 -0.6444
 2872SOL    HW120249   0.557   3.808  12.135 -4.2876  1.1610  0.2331
 2872SOL    HW220250   0.505   3.932  12.064  0.8791 -0.0919  1.3423
 2873SOL     OW20251   2.563   3.315   5.309 -0.2574  0.3987 -0.1325
 2873SOL    HW120252   2.479   3.336   5.267 -0.1839  0.3260 -0.3190
 2873SOL    HW220253   2.581   3.222   5.298  2.5551  0.9575 -0.2484
 2874SOL     OW20254   3.126   1.405  11.769 -0.3684  0.0699 -0.5041
 2874SOL    HW120255   3.046   1.420  11.718 -0.6427 -1.2788 -0.4539
 2874SOL    HW220256   3.142   1.314  11.746 -1.9440 -0.2431 -0.3162
 2875SOL     OW20257   0.439   4.632   5.155  0.9850  0.2951 -0.4311
 2875SOL    HW120258   0.462   4.598   5.242  0.2338  0.7060 -0.0644
 2875SOL    HW220259   0.392   4.552   5.132 -1.2761  1.0822  1.4269
 2876SOL     OW20260   3.984   4.196   7.494  0.1955 -0.4439  0.2138
 2876SOL    HW120261   4.021   4.209   7.407 -2.8496 -1.2642 -1.2072
 2876SOL    HW220262   3.935   4.275   7.519 -0.5683 -0.6477 -0.6331
 2877SOL     OW20263   1.022   4.620   3.768 -0.3769 -0.2835 -0.2654
 2877SOL    HW120264   1.012   4.697   3.824  2.6721  0.5689 -0.8481
 2877SOL    HW220265   0.938   4.613   3.723 -0.6469  1.1634  0.0062
 2878SOL     OW20266   3.765   4.656  13.822  0.0153  0.2936 -0.3192
 2878SOL    HW120267   3.798   4.586  13.765 -1.7761  0.6044 -1.7371
 2878SOL    HW220268   3.672   4.636  13.815  0.4543 -2.1725  0.8645
 2879SOL     OW20269   4.664   1.488   6.625  0.3893  1.0820  0.6779
 2879SOL    HW120270   4.685   1.401   6.593  0.9082  0.7136  2.0135
 2879SOL    HW220271   4.627   1.467   6.711 -1.9252  0.5780 -0.4489
 2880SOL     OW20272   1.099   4.721   8.922 -0.0301  0.2811 -0.4167
 2880SOL    HW120273   1.078   4.678   9.005  0.4779  0.7934 -0.0215
 2880SOL    HW220274   1.152   4.649   8.886 -1.7474 -0.0517 -2.2865
 2881SOL     OW20275   1.523   0.887   8.515 -0.7100 -0.0255  0.0418
 2881SOL    HW120276   1.450   0.889   8.454 -0.4974  0.7588 -0.1916
 2881SOL    HW220277   1.506   0.813   8.573  0.5668  0.6175  1.2521
 2882SOL     OW20278   2.960   3.006  16.812  0.7676 -0.2468  0.4217
 2882SOL    HW120279   2.884   2.952  16.794  0.1767  0.8019 -0.2466
 2882SOL    HW220280   2.985   2.972  16.898  2.7163 -1.6534 -0.6866
 2883SOL     OW20281   2.962   1.762   6.734  0.3689 -0.1039 -0.6127
 2883SOL    HW120282   2.961   1.674   6.773 -0.7203  0.1958  0.0295
 2883SOL    HW220283   3.021   1.756   6.659  0.9144 -3.0519  0.0541
 2884SOL     OW20284   2.899   4.135   6.684  0.9462 -0.1432  0.5577
 2884SOL    HW120285   2.859   4.144   6.770  1.8765  0.5863  0.9084
 2884SOL    HW220286   2.923   4.042   6.680 -0.8383 -0.5773 -0.1278
 2885SOL     OW20287   4.206   3.864   5.261  0.3633  0.3647 -0.3350
 2885SOL    HW120288   4.182   3.881   5.352  3.1343 -1.2419  0.7083
 2885SOL    HW220289   4.294   3.901   5.266  0.8445 -0.5249 -2.4497
 2886SOL     OW20290   3.672   2.173   1.767 -0.4316  0.2797 -0.0967
 2886SOL    HW120291   3.748   2.167   1.708  0.1868  0.0674  0.7304
 2886SOL    HW220292   3.646   2.081   1.766  1.4848 -0.2465 -2.7419
 2887SOL     OW20293   3.187   2.991   0.002  0.8831 -0.1971  0.8429
 2887SOL    HW120294   3.180   2.966   0.094 -5.9899 -0.2571  0.2424
 2887SOL    HW220295   3.170   3.085   0.008  1.2813 -0.2199  2.3400
 2888SOL     OW20296   0.634   4.605   6.732 -0.3723  0.1219 -0.0257
 2888SOL    HW120297   0.580   4.552   6.790 -2.7814  1.3726 -1.1545
 2888SOL    HW220298   0.717   4.602   6.781  0.0145 -0.3746 -0.7108
 2889SOL     OW20299   0.837   4.683   9.560 -1.1620 -0.7081 -0.4314
 2889SOL    HW120300   0.761   4.640   9.521 -1.6884  0.3831 -0.6035
 2889SOL    HW220301   0.857   0.006   9.490 -0.2505 -0.9333 -0.3691
 2890SOL     OW20302   2.408   3.166   4.936 -0.1962 -0.1523  0.7522
 2890SOL    HW120303   2.323   3.169   4.891 -0.1620  1.0460  0.7619
 2890SOL    HW220304   2.381   3.223   5.009 -1.5156  1.7036 -1.2063
 2891SOL     OW20305   2.841   1.069   4.928  0.0392 -0.0660 -0.1961
 2891SOL    HW120306   2.916   1.031   4.976 -1.2314 -0.1650  1.7158
 2891SOL    HW220307   2.813   1.003   4.865 -0.2205  0.1597 -0.3127
 2892SOL     OW20308   0.189   3.446  10.056  0.3416  0.3059 -0.1295
 2892SOL    HW120309   0.196   3.359  10.095 -0.5025  0.4173  0.2752
 2892SOL    HW220310   0.268   3.455  10.004  0.2589 -0.4636 -0.3946
 2893SOL     OW20311   2.938   2.169   3.337 -0.7251  0.3529 -0.0538
 2893SOL    HW120312   2.866   2.170   3.274 -0.8319 -3.3337 -0.0201
 2893SOL    HW220313   2.904   2.107   3.402  0.8091  1.1704  1.5224
 2894SOL     OW20314   2.138   0.373  11.871  0.7041  0.3542 -0.6436
 2894SOL    HW120315   2.201   0.327  11.927  1.0684 -0.0019 -1.3498
 2894SOL    HW220316   2.198   0.418  11.812  2.6127  0.5045  1.4116
 2895SOL     OW20317   4.464   0.725  15.053 -0.3215  0.2729 -0.2783
 2895SOL    HW120318   4.388   0.669  15.064  0.5740 -0.9007  0.0011
 2895SOL    HW220319   4.534   0.662  15.072 -0.3084 -0.0164 -1.3212
 2896SOL     OW20320   2.436   1.507  10.645 -0.0353 -0.2163 -0.1342
 2896SOL    HW120321   2.355   1.543  10.609 -1.0148 -0.5568  1.7434
 2896SOL    HW220322   2.404   1.449  10.713 -1.7490 -1.4634 -2.0086
 2897SOL     OW20323   2.476   4.416  15.640  0.5380  0.6650  0.0560
 2897SOL    HW120324   2.450   4.325  15.653  1.3747 -0.0755 -3.3131
 2897SOL    HW220325   2.447   4.426  15.549  1.8614  2.1769 -0.2022
 2898SOL     OW20326   1.105   0.783   6.022  0.5857  0.4756 -0.0667
 2898SOL    HW120327   1.188   0.814   5.986 -0.2680 -0.6858 -3.0853
 2898SOL    HW220328   1.132   0.733   6.099 -0.9414 -1.2407 -0.6396
 2899SOL     OW20329   2.415   2.367   0.982  0.1084 -0.0933 -0.2665
 2899SOL    HW120330   2.469   2.441   1.011  0.4242 -1.1691  1.9254
 2899SOL    HW220331   2.328   2.404   0.999 -0.9089 -2.6288 -0.0473
 2900SOL     OW20332   1.973   1.828  17.200  0.1357 -0.0422  0.0919
 2900SOL    HW120333   1.973   1.741  17.159  1.1841 -1.2954  2.7694
 2900SOL    HW220334   1.880   1.848  17.184  0.3995 -0.4219 -1.8878
 2901SOL     OW20335   2.310   1.178   1.417  0.0237 -0.1243  0.1222
 2901SOL    HW120336   2.267   1.201   1.335 -0.1162 -1.6578 -0.2286
 2901SOL    HW220337   2.234   1.138   1.459 -0.9407  2.3936  0.7898
 2902SOL     OW20338   1.826   0.357   2.579 -0.3141 -0.1740  0.3518
 2902SOL    HW120339   1.870   0.313   2.507  0.0799  2.2908 -0.9392
 2902SOL    HW220340   1.803   0.444   2.546  0.8028 -0.9121 -2.3670
 2903SOL     OW20341   1.068   1.241   5.656 -0.0547 -0.5982 -0.5856
 2903SOL    HW120342   0.979   1.254   5.691 -1.0100  0.5501 -3.4058
 2903SOL    HW220343   1.068   1.153   5.620  0.9338 -1.4381  1.4727
 2904SOL     OW20344   4.435   1.727   3.640  0.0828  0.5037 -0.1023
 2904SOL    HW120345   4.350   1.686   3.626  1.8689 -2.8803 -0.8409
 2904SOL    HW220346   4.478   1.742   3.556 -0.6233  0.5858 -0.4476
 2905SOL     OW20347   3.146   4.325  10.561 -0.2760  0.3327  0.0302
 2905SOL    HW120348   3.056   4.312  10.532 -0.7400  1.9747  0.7059
 2905SOL    HW220349   3.196   4.356  10.486 -0.4706  0.3563 -0.0879
 2906SOL     OW20350   0.132   0.374   9.761 -0.1456 -0.1771  0.3983
 2906SOL    HW120351   0.178   0.389   9.678 -1.5606 -0.3147 -0.4289
 2906SOL    HW220352   0.079   0.454   9.760 -0.1461 -0.2065 -2.3333
 2907SOL     OW20353   4.012   4.143   5.049  0.1763 -0.1902  0.5447
 2907SOL    HW120354   4.023   4.169   4.957  0.3059 -2.4885 -0.0689
 2907SOL    HW220355   3.919   4.123   5.053  0.7446 -2.1930  3.2118
 2908SOL     OW20356   0.528   0.290   7.513 -0.1929 -0.5066 -0.2208
 2908SOL    HW120357   0.496   0.337   7.590 -2.8135  0.2869 -1.7531
 2908SOL    HW220358   0.593   0.239   7.560 -0.7350 -2.1174 -1.2235
 2909SOL     OW20359   3.293   0.239   1.036 -0.8868  0.0417 -0.0730
 2909SOL    HW120360   3.304   0.304   0.966  3.7372 -0.7786 -0.1064
 2909SOL    HW220361   3.298   0.299   1.111 -1.1530  0.3734 -0.3193
 2910SOL     OW20362   0.760   0.733   1.932 -0.2305  0.3063  0.3733
 2910SOL    HW120363   0.788   0.789   1.860  3.6488  0.1575  1.7347
 2910SOL    HW220364   0.784   0.652   1.888  0.6397  1.1764 -0.7679
 2911SOL     OW20365   3.858   4.535   4.324 -0.7828  0.6019  0.4949
 2911SOL    HW120366   3.868   4.440   4.324  2.9488  0.9588 -1.4517
 2911SOL    HW220367   3.848   4.555   4.231  0.9878  1.4666  0.4792
 2912SOL     OW20368   0.221   0.928  11.340  0.2484  0.3618 -0.0871
 2912SOL    HW120369   0.245   1.017  11.365  0.7030 -0.0597  0.9891
 2912SOL    HW220370   0.299   0.910  11.287 -1.3197 -2.9663 -1.2268
 2913SOL     OW20371   2.495   4.231   4.458 -0.8663 -0.3943 -0.0771
 2913SOL    HW120372   2.457   4.284   4.389  0.2686  2.0650  1.1894
 2913SOL    HW220373   2.507   4.294   4.530  2.2176 -0.2619 -0.6968
 2914SOL     OW20374   3.283   3.811   7.284 -0.1762  0.0579  0.0728
 2914SOL    HW120375   3.191   3.833   7.297 -0.6894 -1.3154 -1.3415
 2914SOL    HW220376   3.299   3.787   7.375  0.0477 -0.8532 -0.2116
 2915SOL     OW20377   2.065   4.481   4.093  0.0772 -0.2969 -0.2096
 2915SOL    HW120378   2.145   4.517   4.054  0.4877 -1.0068 -0.0284
 2915SOL    HW220379   2.073   4.387   4.079  0.7021 -0.1987 -0.5186
 2916SOL     OW20380   3.288   2.968   8.260 -0.7532 -0.0602  0.0048
 2916SOL    HW120381   3.278   2.890   8.207 -2.5429  0.5860 -0.6033
 2916SOL    HW220382   3.262   3.032   8.193 -0.2963  1.1767  0.9990
 2917SOL     OW20383   4.585   4.616   3.107 -0.3249 -0.1126  0.2814
 2917SOL    HW120384   4.533   4.537   3.094  3.1651 -1.7135 -3.7232
 2917SOL    HW220385   4.605   4.606   3.200 -0.6058 -2.0977  0.1441
 2918SOL     OW20386   1.157   0.706  12.554 -0.3182 -0.9219 -0.1257
 2918SOL    HW120387   1.127   0.775  12.495  1.4682 -1.5569 -1.7843
 2918SOL    HW220388   1.233   0.667  12.509 -0.2087 -0.2415 -0.5308
 2919SOL     OW20389   2.891   1.937   3.724  0.6269 -0.1256  0.1014
 2919SOL    HW120390   2.906   1.920   3.631  0.3972  1.8703 -0.3017
 2919SOL    HW220391   2.900   2.032   3.732 -3.5704  0.2931  0.0605
 2920SOL     OW20392   3.801   1.786   3.613 -0.3267  0.6914  0.2093
 2920SOL    HW120393   3.796   1.793   3.518 -3.9249  0.6622  0.4211
 2920SOL    HW220394   3.753   1.705   3.630  0.3563  0.4945  1.2259
 2921SOL     OW20395   1.781   4.726   5.249  0.2900  0.4096 -0.0124
 2921SOL    HW120396   1.715   0.044   5.209  0.5670  0.8398  0.1404
 2921SOL    HW220397   1.848   0.055   5.247  1.0600 -0.3556  0.4475
 2922SOL     OW20398   2.130   3.909   3.081  0.2231 -0.0418 -0.1164
 2922SOL    HW120399   2.057   3.858   3.115  0.6454 -0.0962  0.7106
 2922SOL    HW220400   2.197   3.897   3.148 -0.3876 -0.8191  0.3523
 2923SOL     OW20401   3.795   2.311   5.700 -0.0528 -0.1611  0.0573
 2923SOL    HW120402   3.866   2.301   5.637  0.6351 -1.9964  1.0956
 2923SOL    HW220403   3.720   2.279   5.650 -0.4720  1.0726 -0.0827
 2924SOL     OW20404   2.026   3.158   7.300  0.1680  0.3646  0.2403
 2924SOL    HW120405   2.096   3.197   7.352  0.8697 -0.7427  0.1408
 2924SOL    HW220406   2.046   3.192   7.212 -0.0277 -0.2271 -0.0359
 2925SOL     OW20407   2.405   3.585   4.339 -0.3557  0.2129 -0.6809
 2925SOL    HW120408   2.314   3.609   4.325 -0.5222  0.3336  0.5756
 2925SOL    HW220409   2.405   3.628   4.425 -0.2757 -3.2977  1.0679
 2926SOL     OW20410   0.185   4.596   6.023  0.0692 -0.1117 -0.1212
 2926SOL    HW120411   0.197   4.502   6.009 -0.2152  0.3492 -3.3405
 2926SOL    HW220412   0.158   4.596   6.115 -0.7606 -2.1966 -0.3457
 2927SOL     OW20413   2.041   1.036   7.796 -0.5138 -0.4892 -0.1456
 2927SOL    HW120414   1.948   1.019   7.782 -0.4985  0.0778 -0.9371
 2927SOL    HW220415   2.067   0.949   7.826 -0.8961 -0.2199  0.9897
 2928SOL     OW20416   2.206   0.596   1.738 -0.3225 -0.5066 -0.7116
 2928SOL    HW120417   2.116   0.582   1.768 -0.3677  0.9631 -0.1632
 2928SOL    HW220418   2.239   0.632   1.820 -0.8959 -1.3649 -0.0993
 2929SOL     OW20419   1.272   3.381   1.083 -0.4781  0.9096  0.3854
 2929SOL    HW120420   1.309   3.324   1.151 -2.4126 -1.3011 -0.4300
 2929SOL    HW220421   1.258   3.463   1.130  0.0468  0.0381  2.0629
 2930SOL     OW20422   4.245   1.500   3.150  0.3403 -0.1952  0.0244
 2930SOL    HW120423   4.223   1.565   3.217 -1.4105 -1.3339  0.5735
 2930SOL    HW220424   4.162   1.466   3.116  1.3098 -1.0058 -1.5411
 2931SOL     OW20425   3.420   3.402   3.402  0.2692 -0.9894 -0.2496
 2931SOL    HW120426   3.326   3.386   3.413  0.4232 -1.1450  0.8632
 2931SOL    HW220427   3.431   3.496   3.385  0.8180 -1.4803 -2.6174
 2932SOL     OW20428   1.552   4.297   2.080 -0.2369  0.1009 -0.4274
 2932SOL    HW120429   1.563   4.330   2.169  1.7068 -1.5369 -0.0768
 2932SOL    HW220430   1.640   4.267   2.059 -0.5234 -1.0402 -0.0039
 2933SOL     OW20431   3.371   3.663  12.155  0.2367 -1.0886 -0.0767
 2933SOL    HW120432   3.298   3.620  12.198 -1.1630 -0.2719 -1.6742
 2933SOL    HW220433   3.407   3.702  12.235 -1.3848  3.3966 -1.5426
 2934SOL     OW20434   2.729   0.773   5.029 -0.6305 -0.0023 -0.2258
 2934SOL    HW120435   2.741   0.721   4.949 -2.4831 -0.7028 -0.0474
 2934SOL    HW220436   2.665   0.837   4.998  0.4910  1.5264  0.5929
 2935SOL     OW20437   1.010   1.633  13.066  0.5397  0.2855 -0.1206
 2935SOL    HW120438   0.962   1.685  13.131  0.7764 -0.5214  0.6944
 2935SOL    HW220439   0.946   1.595  13.006 -0.3261  0.9142  0.4019
 2936SOL     OW20440   3.127   0.310   2.444  0.5423 -0.2710  0.2919
 2936SOL    HW120441   3.212   0.290   2.483  0.6008 -0.7534 -0.0840
 2936SOL    HW220442   3.067   0.248   2.485  1.3524 -1.1910  0.1006
 2937SOL     OW20443   0.019   0.927   5.099 -0.0806  0.0359 -0.4146
 2937SOL    HW120444   0.079   0.919   5.025  0.1174  2.0497 -0.4719
 2937SOL    HW220445   0.032   1.022   5.103  0.3210  0.0773 -2.7938
 2938SOL     OW20446   0.103   1.535   6.396  0.2340 -0.5499  0.2152
 2938SOL    HW120447   0.066   1.506   6.313  0.7375 -0.6749  0.0353
 2938SOL    HW220448   0.033   1.525   6.461  0.9208  0.8088  1.1871
 2939SOL     OW20449   1.879   2.333   5.914 -0.2657 -0.5644 -0.2906
 2939SOL    HW120450   1.829   2.373   5.843  0.5702  0.7543 -0.1266
 2939SOL    HW220451   1.917   2.409   5.957 -0.1462 -1.0986  0.5449
 2940SOL     OW20452   4.151   2.960   2.316 -0.0895  0.2692 -0.1413
 2940SOL    HW120453   4.142   3.014   2.238  3.2328  1.0322 -0.0235
 2940SOL    HW220454   4.078   2.990   2.371  0.7346  1.3894  0.3484
 2941SOL     OW20455   3.078   3.957   8.600  0.4210 -0.0691  1.0288
 2941SOL    HW120456   3.096   3.934   8.508  0.6197  0.2187  0.9975
 2941SOL    HW220457   2.995   3.908   8.602  1.1600 -1.4254 -1.0260
 2942SOL     OW20458   1.199   4.227   8.196 -0.0067  0.2485  0.1072
 2942SOL    HW120459   1.131   4.270   8.247  1.2830  1.8539  0.4851
 2942SOL    HW220460   1.200   4.284   8.119 -1.4144  1.7668  1.2264
 2943SOL     OW20461   3.341   0.937   2.648  0.3081  0.2005  0.2828
 2943SOL    HW120462   3.306   0.963   2.733  0.9998  1.6110  0.1367
 2943SOL    HW220463   3.435   0.935   2.666  0.1431  0.1561  1.1805
 2944SOL     OW20464   4.064   0.340   7.911  0.4943  0.8926 -0.0757
 2944SOL    HW120465   4.094   0.266   7.963  2.3153  1.5752 -0.1511
 2944SOL    HW220466   3.971   0.334   7.930  0.6880 -2.7621 -0.3985
 2945SOL     OW20467   4.172   4.024  11.040  0.5320 -0.2388 -0.5770
 2945SOL    HW120468   4.168   4.052  10.948  0.0055  1.2914 -0.0868
 2945SOL    HW220469   4.211   3.937  11.039  0.4435 -0.2584 -2.1722
 2946SOL     OW20470   1.551   0.539  16.215 -0.3336  0.1535  0.1448
 2946SOL    HW120471   1.456   0.527  16.209  0.1850 -2.8128 -2.0161
 2946SOL    HW220472   1.585   0.548  16.126 -0.1840 -0.2980  0.1531
 2947SOL     OW20473   4.520   0.227   8.700  0.0785 -0.2649  0.0695
 2947SOL    HW120474   4.472   0.252   8.621 -0.0546 -0.1096  0.1992
 2947SOL    HW220475   4.556   0.143   8.672  2.2540  0.5123  0.5166
 2948SOL     OW20476   0.392   0.604  17.570 -0.3216 -0.5914 -0.1334
 2948SOL    HW120477   0.408   0.543  17.642 -0.1730 -0.4740 -0.0665
 2948SOL    HW220478   0.345   0.672  17.618  1.2526  1.7181 -1.8510
 2949SOL     OW20479   2.743   2.933   7.482 -0.0863 -0.1449 -0.2128
 2949SOL    HW120480   2.681   2.989   7.528 -1.5304  0.0572 -2.4219
 2949SOL    HW220481   2.699   2.924   7.397  0.4197 -0.7570 -0.4077
 2950SOL     OW20482   2.979   1.940  14.729  0.5399 -0.2769 -0.5039
 2950SOL    HW120483   2.958   2.024  14.689 -1.3251 -0.7382 -0.4899
 2950SOL    HW220484   2.948   1.873  14.669 -0.0702 -0.2599 -0.2103
 2951SOL     OW20485   1.256   3.387   0.589 -0.0416  0.5472 -0.4872
 2951SOL    HW120486   1.240   3.379   0.684 -0.8183  0.8786 -0.5915
 2951SOL    HW220487   1.167   3.362   0.564 -0.4447  2.1342 -0.6581
 2952SOL     OW20488   0.053   2.658   8.737 -0.4333  0.1163 -0.4096
 2952SOL    HW120489   4.713   2.614   8.704 -0.4946  0.5630 -0.8647
 2952SOL    HW220490   0.060   2.632   8.828  0.4356 -0.8475 -0.7556
 2953SOL     OW20491   4.529   3.621   2.590  0.2356  0.0642  0.4643
 2953SOL    HW120492   4.464   3.691   2.594 -0.9874 -1.0326 -0.4674
 2953SOL    HW220493   4.577   3.648   2.511 -1.9167 -0.5825 -1.0652
 2954SOL     OW20494   1.516   0.113   8.976 -0.1123  0.1116  0.7064
 2954SOL    HW120495   1.434   0.134   8.931 -0.3921  2.0719  2.1116
 2954SOL    HW220496   1.564   0.058   8.913 -3.1077 -3.2946  1.4450
 2955SOL     OW20497   3.145   0.902   1.549  0.0333 -0.5271 -0.0293
 2955SOL    HW120498   3.206   0.923   1.478  1.4558 -0.3378  1.2304
 2955SOL    HW220499   3.168   0.965   1.617  0.1758  0.4887 -1.0114
 2956SOL     OW20500   3.372   4.678   4.324  0.9511 -0.0424 -0.5372
 2956SOL    HW120501   3.385   4.717   4.410  1.4137  1.2134 -1.1803
 2956SOL    HW220502   3.280   4.652   4.316  0.1761  2.0104  1.9104
 2957SOL     OW20503   4.440   1.248   9.480  0.6023 -0.4148 -0.3738
 2957SOL    HW120504   4.347   1.264   9.499  0.7243  2.2428 -1.9267
 2957SOL    HW220505   4.456   1.338   9.452 -2.1097  0.2830  0.2905
 2958SOL     OW20506   0.785   0.775  13.615  0.7155 -0.3631  0.2467
 2958SOL    HW120507   0.824   0.689  13.632  1.0619  0.6994  4.7673
 2958SOL    HW220508   0.761   0.811  13.701  1.5217  1.9248 -0.4906
 2959SOL     OW20509   4.321   3.385   7.114  0.1958 -0.0045 -0.7510
 2959SOL    HW120510   4.406   3.346   7.133  0.2580  1.1976  1.4780
 2959SOL    HW220511   4.272   3.374   7.196 -2.8318  3.3003 -2.1287
 2960SOL     OW20512   3.486   0.550   1.718  0.3966 -0.1127  0.3881
 2960SOL    HW120513   3.437   0.586   1.644 -0.7788 -0.8863  0.7928
 2960SOL    HW220514   3.516   0.633   1.756  1.3325 -0.2466 -0.0588
 2961SOL     OW20515   2.084   2.957   8.438 -0.7829  0.1188 -0.8835
 2961SOL    HW120516   2.127   2.963   8.523 -0.1280  1.6986 -1.3162
 2961SOL    HW220517   2.147   2.932   8.370  0.6481  0.3897  0.3455
 2962SOL     OW20518   2.323   0.840  15.713 -0.0409 -0.1021 -0.0994
 2962SOL    HW120519   2.328   0.747  15.735  1.1407  0.1717  0.7264
 2962SOL    HW220520   2.405   0.883  15.737 -0.2596  0.0307  0.4017
 2963SOL     OW20521   2.782   2.811   5.844  0.3583  0.1894  0.1574
 2963SOL    HW120522   2.716   2.880   5.842  1.8021  1.5391 -1.0587
 2963SOL    HW220523   2.816   2.804   5.933  1.0713  2.9366  0.0981
 2964SOL     OW20524   4.108   0.017   8.164  0.3578  0.0083 -0.5243
 2964SOL    HW120525   4.127   0.057   8.249  0.1769 -0.3627 -0.3122
 2964SOL    HW220526   4.013   0.023   8.161  0.5492  2.3509 -1.7725
 2965SOL     OW20527   2.682   4.056   2.606 -0.7246 -0.0113 -0.0537
 2965SOL    HW120528   2.698   3.986   2.668  1.0341 -0.7286 -1.3279
 2965SOL    HW220529   2.611   4.004   2.567  0.0303 -0.8447 -0.3111
 2966SOL     OW20530   4.557   0.278  13.396 -0.2132  0.1487  0.2613
 2966SOL    HW120531   4.487   0.218  13.424 -0.5376  0.8000  0.8480
 2966SOL    HW220532   4.506   0.352  13.363  1.5667  1.1791 -0.1861
 2967SOL     OW20533   2.743   0.445   9.119  0.5747 -0.1716  0.0800
 2967SOL    HW120534   2.729   0.540   9.120 -0.2795 -0.2872 -1.2864
 2967SOL    HW220535   2.702   0.406   9.042  1.3530  0.1566 -0.5057
 2968SOL     OW20536   1.021   3.293   2.263 -0.5218 -0.5518 -0.1630
 2968SOL    HW120537   0.990   3.330   2.345  3.8713  0.5032  0.9944
 2968SOL    HW220538   1.088   3.235   2.299  0.1048  0.2264 -0.0803
 2969SOL     OW20539   4.571   1.376  11.756 -0.3856 -0.6344 -0.0833
 2969SOL    HW120540   4.554   1.285  11.779 -1.3181  0.2295  2.6441
 2969SOL    HW220541   4.654   1.400  11.797  0.8737 -0.9326 -2.4468
 2970SOL     OW20542   0.315   4.005  12.139  0.4706  0.2756 -0.0665
 2970SOL    HW120543   0.248   4.007  12.207 -0.3170 -1.3016 -0.8107
 2970SOL    HW220544   0.383   4.038  12.198 -0.5473  0.0516  1.2452
 2971SOL     OW20545   1.649   3.079   1.396  0.4693 -0.1364 -0.1602
 2971SOL    HW120546   1.706   3.006   1.419  1.7219  1.4686  1.8450
 2971SOL    HW220547   1.701   3.152   1.430  0.5876  0.9027 -2.5315
 2972SOL     OW20548   2.602   4.165   0.234  0.0913 -0.1147  0.1907
 2972SOL    HW120549   2.621   4.118   0.153  2.5825 -0.6364  1.0540
 2972SOL    HW220550   2.671   4.231   0.236 -0.0143  0.0167 -0.7015
 2973SOL     OW20551   1.475   2.948   1.630  0.1140 -0.0805 -0.3248
 2973SOL    HW120552   1.422   2.985   1.560 -3.4660 -2.2581  1.2308
 2973SOL    HW220553   1.505   3.032   1.665 -1.9033  1.0178 -1.2236
 2974SOL     OW20554   0.933   2.474   4.772 -0.3368 -0.5423 -0.4429
 2974SOL    HW120555   0.987   2.546   4.805  0.9711 -0.9110 -1.7969
 2974SOL    HW220556   0.954   2.476   4.679  1.6605  0.0334  0.0250
 2975SOL     OW20557   1.158   0.595   8.366 -0.3655  0.0286  0.2931
 2975SOL    HW120558   1.199   0.602   8.280  0.2568 -1.2143  0.4860
 2975SOL    HW220559   1.085   0.654   8.350 -1.5688 -1.7778 -0.8763
 2976SOL     OW20560   3.743   1.057  13.573  0.1471 -0.5916 -0.3168
 2976SOL    HW120561   3.716   0.968  13.549  1.6486 -0.8864 -0.9011
 2976SOL    HW220562   3.794   1.070  13.493 -0.0360 -0.3894 -0.4005
 2977SOL     OW20563   1.329   1.041  14.560  0.1456  0.3282 -0.1992
 2977SOL    HW120564   1.371   0.962  14.593  1.9420  1.1613 -0.4807
 2977SOL    HW220565   1.292   1.076  14.641 -0.0553  0.8368 -0.5123
 2978SOL     OW20566   3.035   2.802   2.944  0.2146  0.5233 -0.2657
 2978SOL    HW120567   3.020   2.839   2.857  0.2593  2.0041  0.3586
 2978SOL    HW220568   2.963   2.738   2.952  1.9988 -1.3339  0.8328
 2979SOL     OW20569   0.443   3.278  11.533 -0.2482  0.3342  0.3629
 2979SOL    HW120570   0.506   3.347  11.554  0.6077 -0.4710  0.4394
 2979SOL    HW220571   0.482   3.207  11.585  0.2467  1.5266  1.6344
 2980SOL     OW20572   0.054   0.556   7.367 -0.1664  0.1005  0.2164
 2980SOL    HW120573   4.737   0.488   7.330  0.1955  0.4690 -0.9873
 2980SOL    HW220574   0.101   0.508   7.435  2.7274  2.8207  0.1176
 2981SOL     OW20575   3.285   4.633   0.083  0.0554 -0.3296  0.1398
 2981SOL    HW120576   3.276   4.546   0.044 -2.5671 -0.1799  0.4394
 2981SOL    HW220577   3.329   4.684   0.015 -1.4299 -0.1027 -0.6588
 2982SOL     OW20578   3.881   0.682   7.292  0.1665  0.2202  0.4347
 2982SOL    HW120579   3.931   0.601   7.296  1.2673  0.7978 -1.7392
 2982SOL    HW220580   3.809   0.664   7.353 -1.3676 -1.1411 -1.7794
 2983SOL     OW20581   2.761   4.581   4.561  0.7019 -0.0291 -0.5582
 2983SOL    HW120582   2.772   4.674   4.584 -0.7045 -0.3575  1.3857
 2983SOL    HW220583   2.854   4.558   4.564  1.2533  2.1246 -0.6734
 2984SOL     OW20584   3.177   3.179   2.036 -0.8656 -0.4058 -0.4898
 2984SOL    HW120585   3.167   3.100   1.984 -1.1904  0.5151 -1.8274
 2984SOL    HW220586   3.119   3.152   2.108 -1.9195 -0.1871 -1.2560
 2985SOL     OW20587   4.513   2.355   3.958 -0.0820  0.4236  0.1608
 2985SOL    HW120588   4.567   2.374   3.881  0.4861  2.6465  1.1235
 2985SOL    HW220589   4.577   2.366   4.028 -0.5420  0.6873  0.5425
 2986SOL     OW20590   3.026   2.910   7.857  0.8428  0.2860  0.3763
 2986SOL    HW120591   2.949   2.859   7.884  0.1967  0.9134 -0.2657
 2986SOL    HW220592   2.983   2.980   7.808 -2.7987 -1.9298  0.3800
 2987SOL     OW20593   3.964   0.657  12.889  0.1179  0.2812  0.3739
 2987SOL    HW120594   4.043   0.604  12.902 -0.8807 -0.8826  1.7116
 2987SOL    HW220595   3.935   0.669  12.979  1.8686 -0.2725  1.0114
 2988SOL     OW20596   1.484   1.990   8.996 -0.4027  0.0207  0.1585
 2988SOL    HW120597   1.552   1.935   9.035  0.7684  0.3563 -1.4236
 2988SOL    HW220598   1.532   2.062   8.956 -2.2171 -1.1048 -4.0633
 2989SOL     OW20599   1.998   4.183  13.634  0.2715 -0.2251  0.7104
 2989SOL    HW120600   1.998   4.267  13.588  0.5000  0.1738  1.4191
 2989SOL    HW220601   1.915   4.192  13.681  0.0266 -1.4874  0.5077
 2990SOL     OW20602   2.303   1.281  11.881  0.1825 -0.2887  0.1160
 2990SOL    HW120603   2.271   1.193  11.902 -3.1769  1.0137  0.5766
 2990SOL    HW220604   2.219   1.328  11.879 -0.0197 -0.7987 -2.5296
 2991SOL     OW20605   0.190   0.876   4.900 -0.3125 -0.3534 -0.4710
 2991SOL    HW120606   0.184   0.837   4.813 -0.4185 -2.1947  0.3748
 2991SOL    HW220607   0.244   0.808   4.939 -2.5905 -1.2857  1.0123
 2992SOL     OW20608   3.618   0.962   2.711 -0.1936  0.5296 -0.3993
 2992SOL    HW120609   3.615   1.045   2.758 -0.3995 -1.6174  3.3962
 2992SOL    HW220610   3.701   0.930   2.747  1.1650  1.1489 -2.9205
 2993SOL     OW20611   4.444   2.004  17.014  0.1977  0.0952  0.2926
 2993SOL    HW120612   4.441   1.911  17.036 -0.6250  0.2553  0.8832
 2993SOL    HW220613   4.352   2.031  17.019 -0.0785 -0.5826 -0.9953
 2994SOL     OW20614   2.318   4.435   3.990  0.1051 -0.3955  0.0923
 2994SOL    HW120615   2.320   4.359   3.932 -0.1309 -0.8621  0.6928
 2994SOL    HW220616   2.407   4.469   3.984 -0.6234  1.6407  0.7586
 2995SOL     OW20617   0.223   1.629   9.100  0.6636 -0.1164  0.5385
 2995SOL    HW120618   0.239   1.607   9.191  0.3033  0.1788  0.6706
 2995SOL    HW220619   0.165   1.556   9.078 -0.7838  1.5860 -1.3414
 2996SOL     OW20620   0.678   4.094   2.677  0.0482  0.4778 -0.2268
 2996SOL    HW120621   0.603   4.038   2.696  1.6006 -1.6249 -0.3166
 2996SOL    HW220622   0.748   4.044   2.720  2.2200  2.2213 -1.7274
 2997SOL     OW20623   2.461   2.834   1.640  0.1468 -0.3906 -0.1045
 2997SOL    HW120624   2.467   2.772   1.567  1.5865  0.3506 -0.6002
 2997SOL    HW220625   2.472   2.920   1.598  1.2936 -1.2716 -1.6334
 2998SOL     OW20626   1.493   0.466   2.741 -0.1456  0.2362 -0.0221
 2998SOL    HW120627   1.587   0.454   2.723 -0.3217  0.2741 -0.9759
 2998SOL    HW220628   1.475   0.388   2.794 -0.1008 -0.0170 -0.3830
 2999SOL     OW20629   2.550   3.222  13.815 -0.0742 -0.5185  0.2183
 2999SOL    HW120630   2.565   3.252  13.905  1.8777  0.5246 -0.4756
 2999SOL    HW220631   2.483   3.153  13.815 -0.1838 -0.4093 -0.2060
 3000SOL     OW20632   2.006   3.206  10.283 -0.1088  0.3178 -0.1866
 3000SOL    HW120633   2.098   3.183  10.275  0.5241  3.2535 -1.5014
 3000SOL    HW220634   1.987   3.246  10.198  0.0102 -0.4648 -0.5786
 3001SOL     OW20635   0.653   2.409   4.837 -0.4477 -0.2293  0.2158
 3001SOL    HW120636   0.732   2.361   4.861 -2.9161 -5.9600 -3.0964
 3001SOL    HW220637   0.689   2.493   4.809  0.8586 -1.2134 -1.1221
 3002SOL     OW20638   1.088   2.228   8.810 -0.4787 -0.0283  0.2159
 3002SOL    HW120639   1.115   2.153   8.757 -1.0812 -0.7133  0.8752
 3002SOL    HW220640   1.169   2.254   8.853 -0.0540  0.4641 -0.8735
 3003SOL     OW20641   3.237   4.658  10.669 -0.1051 -0.2686 -0.0771
 3003SOL    HW120642   3.198   4.723  10.728  1.9191 -0.7612  1.8289
 3003SOL    HW220643   3.214   4.579  10.718  1.0374 -0.3821  0.2925
 3004SOL     OW20644   0.052   0.019   4.258  0.1303 -0.3926 -0.6867
 3004SOL    HW120645   0.058   4.665   4.233  1.7791  0.0396 -1.9439
 3004SOL    HW220646   4.697   0.035   4.257  0.2452  0.2296 -1.9174
 3005SOL     OW20647   3.537   1.800   5.036 -0.4264 -0.3398 -0.3819
 3005SOL    HW120648   3.596   1.746   4.982  1.6904  1.4708  0.1405
 3005SOL    HW220649   3.520   1.872   4.976  4.0888  2.0752  1.2244
 3006SOL     OW20650   2.058   3.790   3.340 -0.0854 -0.3313 -0.2762
 3006SOL    HW120651   2.151   3.771   3.333 -0.5302 -2.3562 -0.7251
 3006SOL    HW220652   2.029   3.703   3.312  0.0498  0.0437 -1.5396
 3007SOL     OW20653   1.070   4.048   3.428 -0.0302 -0.0686 -0.2344
 3007SOL    HW120654   1.040   4.092   3.507 -0.0287  1.0487 -0.8440
 3007SOL    HW220655   0.997   4.065   3.369 -0.0680  1.7386  0.3379
 3008SOL     OW20656   2.798   1.476   6.134  0.6067 -0.3525 -0.5414
 3008SOL    HW120657   2.775   1.449   6.223 -1.5626  2.6554 -0.1763
 3008SOL    HW220658   2.804   1.389   6.094  0.6337 -1.4039  1.7661
 3009SOL     OW20659   2.685   3.838   5.573 -0.4764  0.3935 -0.2123
 3009SOL    HW120660   2.760   3.887   5.606  1.5944 -0.9194 -2.8990
 3009SOL    HW220661   2.710   3.827   5.481 -1.1607 -2.2894 -0.0789
 3010SOL     OW20662   1.326   3.964  13.965 -0.2009  0.7028  0.3464
 3010SOL    HW120663   1.350   3.872  13.979 -1.5786  0.6241  2.2415
 3010SOL    HW220664   1.343   3.986  13.874 -4.1677 -1.8054 -1.0117
 3011SOL     OW20665   0.647   3.268  10.671 -0.2525  0.3178  0.3488
 3011SOL    HW120666   0.594   3.335  10.629  1.3806  1.3764 -0.0244
 3011SOL    HW220667   0.591   3.193  10.689 -1.1433  0.9747  0.2980
 3012SOL     OW20668   3.683   1.716   9.068  0.3900 -0.5123 -0.2925
 3012SOL    HW120669   3.600   1.688   9.030  0.9079  1.0582 -2.5786
 3012SOL    HW220670   3.733   1.711   8.986 -0.9814 -0.7539 -1.1160
 3013SOL     OW20671   1.556   4.706   1.327 -0.4885 -0.3074  0.1041
 3013SOL    HW120672   1.546   4.617   1.361  0.3322 -0.1937  0.6346
 3013SOL    HW220673   1.552   0.023   1.405  1.5738 -4.2266  3.0270
 3014SOL     OW20674   0.658   2.436   7.776  0.3418  0.1111 -0.1769
 3014SOL    HW120675   0.605   2.387   7.713  1.4692  1.2189 -1.9952
 3014SOL    HW220676   0.692   2.362   7.827  1.5493 -0.9341 -2.5088
 3015SOL     OW20677   1.592   3.522   7.420 -0.2405  0.0564 -0.2779
 3015SOL    HW120678   1.575   3.451   7.482 -1.2163 -0.2427 -0.8940
 3015SOL    HW220679   1.614   3.602   7.468  1.7888  0.2699 -1.5780
 3016SOL     OW20680   4.487   3.107   7.401  0.1112 -0.3588  0.2555
 3016SOL    HW120681   4.451   3.019   7.389  1.8170 -1.0867  0.4305
 3016SOL    HW220682   4.570   3.090   7.355  0.9037  2.5302  0.6237
 3017SOL     OW20683   2.207   1.863   6.282 -0.3545  0.3108 -0.4756
 3017SOL    HW120684   2.118   1.834   6.302 -0.1051  0.2709  0.5962
 3017SOL    HW220685   2.201   1.958   6.291 -1.0815  0.1629  0.6663
 3018SOL     OW20686   0.008   3.866   5.331  0.0296  0.0913 -0.6389
 3018SOL    HW120687   4.725   3.777   5.360  0.2866 -0.4045 -1.9916
 3018SOL    HW220688   0.088   3.848   5.283  0.7728  0.1008  0.5789
 3019SOL     OW20689   4.324   4.290   6.280  0.9195 -0.2778 -0.4083
 3019SOL    HW120690   4.373   4.345   6.341  1.0083  0.7266 -1.3712
 3019SOL    HW220691   4.282   4.233   6.343  1.2125 -0.1744 -0.1202
 3020SOL     OW20692   3.563   1.715  15.445 -0.6736 -0.7401 -0.0553
 3020SOL    HW120693   3.485   1.764  15.416 -0.5624  0.1624  1.2136
 3020SOL    HW220694   3.569   1.750  15.534  1.4887 -2.1249  0.3437
 3021SOL     OW20695   0.891   4.505  17.134 -0.0365 -0.0872 -0.9024
 3021SOL    HW120696   0.925   4.593  17.121 -0.1164  0.0405 -0.2364
 3021SOL    HW220697   0.959   4.445  17.104 -0.1810 -0.6121 -0.1732
 3022SOL     OW20698   3.049   0.877   8.796  0.4652 -0.1408 -0.7020
 3022SOL    HW120699   3.047   0.973   8.801 -1.7765 -0.0726 -2.5954
 3022SOL    HW220700   3.127   0.853   8.748  1.1877  1.7219 -0.4760
 3023SOL     OW20701   0.366   0.144   1.397  0.2721  0.2103  0.3393
 3023SOL    HW120702   0.340   0.114   1.309 -2.1805  0.7530  0.8888
 3023SOL    HW220703   0.409   0.225   1.369  3.3804 -1.5660 -0.1150
 3024SOL     OW20704   3.127   3.668  14.464  0.0848 -0.2192 -0.2159
 3024SOL    HW120705   3.050   3.679  14.408 -0.7013  3.5341  1.6353
 3024SOL    HW220706   3.189   3.656  14.392  0.4620  0.2006  0.0417
 3025SOL     OW20707   3.311   1.145   7.055  0.3355  0.1976  0.0397
 3025SOL    HW120708   3.230   1.120   7.011  2.2291  0.3382 -3.6366
 3025SOL    HW220709   3.280   1.216   7.111 -2.1882 -0.7407 -0.2048
 3026SOL     OW20710   0.929   0.765   2.135 -0.4014  0.0942 -0.2375
 3026SOL    HW120711   0.866   0.785   2.066 -1.0043  1.6819  0.7896
 3026SOL    HW220712   0.875   0.706   2.188  1.0655  0.4364  1.6111
 3027SOL     OW20713   0.989   2.400   0.788  0.0449  0.2964 -0.3631
 3027SOL    HW120714   0.961   2.421   0.699 -0.3619 -2.6865 -0.9633
 3027SOL    HW220715   1.081   2.373   0.786  0.3900  1.3983  1.1454
 3028SOL     OW20716   3.624   2.962   7.564  0.5151  0.1751  0.3235
 3028SOL    HW120717   3.550   2.925   7.612 -0.2264  0.5824 -0.5150
 3028SOL    HW220718   3.622   2.930   7.474  1.4125  1.1074 -0.0349
 3029SOL     OW20719   1.919   1.248  11.745 -0.5900  0.1668  0.1635
 3029SOL    HW120720   1.903   1.161  11.783  0.0695  0.1426  0.3852
 3029SOL    HW220721   1.832   1.271  11.713 -0.3383  1.2355  0.2323
 3030SOL     OW20722   2.773   2.930   0.301 -0.0618 -0.3372  0.0360
 3030SOL    HW120723   2.741   2.999   0.360  1.3542 -2.0805  2.8265
 3030SOL    HW220724   2.737   2.946   0.214 -1.3392  0.1003  0.6485
 3031SOL     OW20725   1.157   1.646   9.618  0.1069  0.2255 -0.0580
 3031SOL    HW120726   1.103   1.632   9.696 -0.4638  0.1472 -0.4644
 3031SOL    HW220727   1.244   1.664   9.653  1.0566  1.1812 -2.9377
 3032SOL     OW20728   3.241   3.733   9.210 -0.3603 -0.0199 -0.4007
 3032SOL    HW120729   3.196   3.799   9.156 -0.0428  0.0642 -0.5644
 3032SOL    HW220730   3.292   3.689   9.142 -0.5405  1.0215 -1.2142
 3033SOL     OW20731   1.743   3.874  17.277 -0.4533 -0.5055  0.3062
 3033SOL    HW120732   1.651   3.870  17.303 -0.3028 -0.5031  0.8339
 3033SOL    HW220733   1.753   3.969  17.282  1.8270 -0.6271 -1.9479
 3034SOL     OW20734   2.530   4.463   3.531  0.3199  0.4219  0.3529
 3034SOL    HW120735   2.549   4.499   3.444 -0.1139  1.8572  0.8450
 3034SOL    HW220736   2.620   4.456   3.564  0.1368 -1.0245  0.5093
 3035SOL     OW20737   0.996   4.290   4.531  0.4067 -0.2062 -0.3505
 3035SOL    HW120738   1.079   4.295   4.484  0.3666  0.2595 -0.3739
 3035SOL    HW220739   1.037   4.266   4.615  2.5840  0.5324 -1.1958
 3036SOL     OW20740   4.605   4.604   5.903 -0.4648  0.0509 -0.2549
 3036SOL    HW120741   4.644   4.628   5.819  0.5111 -0.0108  0.1919
 3036SOL    HW220742   4.643   4.682   5.944  0.8746 -1.3756  1.2002
 3037SOL     OW20743   4.049   3.318   7.672 -0.3162 -0.0188 -0.4352
 3037SOL    HW120744   3.959   3.297   7.697  0.2362 -1.0615  0.6764
 3037SOL    HW220745   4.077   3.249   7.612  1.3631  0.0384  0.2686
 3038SOL     OW20746   1.536   1.308   8.529  0.0863  0.4560 -0.7784
 3038SOL    HW120747   1.532   1.394   8.487 -0.4238  2.1964  2.8205
 3038SOL    HW220748   1.623   1.280   8.500  1.0128 -0.8869  3.2549
 3039SOL     OW20749   0.987   1.843  10.952 -0.5655  0.1570  0.9872
 3039SOL    HW120750   0.987   1.819  10.860 -0.1595  0.7501  0.8345
 3039SOL    HW220751   1.051   1.914  10.960 -1.3661  0.5085  4.5385
 3040SOL     OW20752   0.403   4.200   4.020  0.6010  0.5751  0.4244
 3040SOL    HW120753   0.477   4.259   4.035 -0.6462  2.7913 -2.0436
 3040SOL    HW220754   0.333   4.234   4.076 -1.4400  1.1027 -2.4601
 3041SOL     OW20755   3.615   3.808  12.421  0.1544  0.5818 -0.1564
 3041SOL    HW120756   3.529   3.771  12.400  0.6756 -1.8665  1.9858
 3041SOL    HW220757   3.584   3.892  12.455 -0.5502  0.0532  0.5060
 3042SOL     OW20758   4.007   1.286  13.745  0.2696  0.1868  0.2386
 3042SOL    HW120759   3.934   1.317  13.691  0.5551 -0.4952 -0.5463
 3042SOL    HW220760   3.973   1.202  13.776 -1.4930 -0.1597 -2.6186
 3043SOL     OW20761   1.454   2.570   7.949 -0.1061  0.4354 -0.5648
 3043SOL    HW120762   1.392   2.498   7.960 -0.3685  0.7286 -0.1518
 3043SOL    HW220763   1.424   2.611   7.867 -1.8399  1.9011  0.8111
 3044SOL     OW20764   2.258   3.930   1.364  0.2826  0.2808 -0.2193
 3044SOL    HW120765   2.351   3.946   1.380  0.6192 -1.4411 -0.4152
 3044SOL    HW220766   2.246   3.975   1.281 -0.3871  1.4613  0.5263
 3045SOL     OW20767   4.125   4.399   3.740 -0.0293  0.3715  0.1429
 3045SOL    HW120768   4.219   4.408   3.731  0.1685  0.6640  2.4687
 3045SOL    HW220769   4.098   4.487   3.766  1.4698  0.6418  0.7701
 3046SOL     OW20770   3.219   2.051   8.627  0.2764  0.4392  0.3829
 3046SOL    HW120771   3.200   2.121   8.565  0.2378  1.6714  1.7801
 3046SOL    HW220772   3.166   1.987   8.580  1.1035  0.1674 -0.1778
 3047SOL     OW20773   4.255   2.046   4.187 -0.1020  0.0295 -0.2524
 3047SOL    HW120774   4.183   2.109   4.194  0.2973  0.5580 -0.9390
 3047SOL    HW220775   4.207   1.971   4.154  0.0538 -0.5278  0.7936
 3048SOL     OW20776   1.789   4.010   7.466  0.7094  0.0688  0.2440
 3048SOL    HW120777   1.821   4.073   7.401 -1.0505  0.8136  0.1157
 3048SOL    HW220778   1.771   4.073   7.536 -0.5281  0.7912 -0.7442
 3049SOL     OW20779   0.432   1.671  12.109 -0.2965 -0.4281 -0.3636
 3049SOL    HW120780   0.444   1.705  12.198 -2.3733 -1.1334  0.1718
 3049SOL    HW220781   0.510   1.706  12.066 -0.7305  0.1386 -0.6947
 3050SOL     OW20782   3.109   4.485   7.011  0.8680  1.1385 -0.4693
 3050SOL    HW120783   3.131   4.572   6.977 -1.9927  1.7419 -0.7775
 3050SOL    HW220784   3.014   4.474   6.999  1.1531  1.3804 -2.9062
 3051SOL     OW20785   3.841   2.776   0.950  0.3889  0.0008  0.0798
 3051SOL    HW120786   3.918   2.734   0.988  0.0016 -0.6394  0.1644
 3051SOL    HW220787   3.884   2.858   0.927 -0.7490  1.0161  1.5923
 3052SOL     OW20788   1.498   4.182   3.016  0.4171  0.2404  0.3935
 3052SOL    HW120789   1.468   4.091   3.022 -1.7190  0.8918 -0.2584
 3052SOL    HW220790   1.442   4.223   3.082 -0.1315  0.3575 -0.1438
 3053SOL     OW20791   0.459   3.119  15.947  0.0693  0.4773  0.0544
 3053SOL    HW120792   0.448   3.047  15.884 -0.3270  0.9556 -0.4269
 3053SOL    HW220793   0.383   3.172  15.924 -0.5075 -0.1134  0.5895
 3054SOL     OW20794   2.310   3.406   3.572 -0.3601 -0.5086  0.1693
 3054SOL    HW120795   2.381   3.342   3.581 -0.7305 -0.8500  0.6397
 3054SOL    HW220796   2.265   3.391   3.654 -0.2058 -0.9496  0.1698
 3055SOL     OW20797   0.764   4.457   6.313  0.3077 -0.1115 -0.4399
 3055SOL    HW120798   0.840   4.481   6.365 -0.5330 -0.4645  0.9553
 3055SOL    HW220799   0.687   4.482   6.366  0.8305 -3.5248  1.9521
 3056SOL     OW20800   1.672   4.538   5.409  0.1337 -0.0600  0.2468
 3056SOL    HW120801   1.711   4.602   5.350  0.7074  0.4050  1.1282
 3056SOL    HW220802   1.585   4.572   5.430  0.5183  1.3432 -0.4637
 3057SOL     OW20803   2.916   2.510   1.349 -0.1330  0.0743 -0.0482
 3057SOL    HW120804   3.006   2.490   1.325 -0.1814 -1.5270  1.1492
 3057SOL    HW220805   2.874   2.521   1.263  0.2933  3.2240  0.1442
 3058SOL     OW20806   3.155   2.233   6.488  0.3287  0.5751 -0.0609
 3058SOL    HW120807   3.227   2.236   6.551  0.1597  1.4881  0.0956
 3058SOL    HW220808   3.162   2.322   6.453  2.7257  1.1225  1.8250
 3059SOL     OW20809   1.266   3.689   0.543  0.5694 -0.3185  0.0567
 3059SOL    HW120810   1.199   3.641   0.592  1.0543 -1.7820 -0.6979
 3059SOL    HW220811   1.340   3.681   0.604 -0.8422 -1.7687  1.5979
 3060SOL     OW20812   3.172   3.258   4.786 -0.0286 -0.3942  0.9472
 3060SOL    HW120813   3.090   3.228   4.747  0.4261  1.4512 -1.4521
 3060SOL    HW220814   3.196   3.309   4.708  0.7046 -1.2005  0.6432
 3061SOL     OW20815   1.220   0.542  17.175 -0.2686 -0.0756 -0.0693
 3061SOL    HW120816   1.275   0.575  17.104 -0.4143  1.2820  0.4479
 3061SOL    HW220817   1.146   0.603  17.173 -1.4592 -1.5038 -0.0698
 3062SOL     OW20818   1.003   2.933   9.117 -0.3362  0.0773 -0.1353
 3062SOL    HW120819   1.064   2.993   9.075  0.1966  0.7677  1.6386
 3062SOL    HW220820   0.927   2.978   9.081  0.5197  1.7295  0.1015
 3063SOL     OW20821   4.416   2.736   5.041 -0.1224 -0.0034 -0.3529
 3063SOL    HW120822   4.324   2.753   5.020 -0.4752  0.5587  1.6427
 3063SOL    HW220823   4.460   2.821   5.038 -0.4131  0.2666  3.4823
 3064SOL     OW20824   1.799   0.394  11.186  0.6732  0.9847 -0.2485
 3064SOL    HW120825   1.735   0.339  11.140 -2.9162  2.1852  3.2286
 3064SOL    HW220826   1.822   0.337  11.259  0.4940 -0.5400 -1.4020
 3065SOL     OW20827   3.772   3.814   2.747 -0.3401  0.2306 -0.2241
 3065SOL    HW120828   3.688   3.858   2.761 -0.9295 -1.4985  1.6475
 3065SOL    HW220829   3.750   3.724   2.772 -0.9320  0.8005  1.3185
 3066SOL     OW20830   3.629   2.523   7.124  0.2160  0.0834 -0.0251
 3066SOL    HW120831   3.596   2.567   7.202  3.6009  0.2639  1.2939
 3066SOL    HW220832   3.619   2.429   7.141  0.5109 -0.2074 -1.4263
 3067SOL     OW20833   0.311   3.715   9.514 -0.6088  0.1495  1.0023
 3067SOL    HW120834   0.404   3.738   9.506 -0.7422  0.1479 -0.5017
 3067SOL    HW220835   0.283   3.707   9.423  0.3479  2.5780  0.4774
 3068SOL     OW20836   3.660   3.610  13.063  0.3077  0.2740 -0.0173
 3068SOL    HW120837   3.631   3.660  13.139 -0.7478 -0.1897 -0.1120
 3068SOL    HW220838   3.574   3.615  13.021  0.0933 -1.4284  0.2064
 3069SOL     OW20839   0.621   4.325   5.224  0.0579  0.6114  0.3905
 3069SOL    HW120840   0.647   4.417   5.235 -0.5701  0.7496  0.7656
 3069SOL    HW220841   0.627   4.288   5.312 -1.6501  0.0700  0.2853
 3070SOL     OW20842   1.235   1.639   6.095 -0.4380 -0.2689 -0.0883
 3070SOL    HW120843   1.267   1.550   6.081  2.1148  0.3876  1.5812
 3070SOL    HW220844   1.317   1.688   6.084  1.2129 -2.5479  2.1972
 3071SOL     OW20845   2.925   3.181   0.816 -0.4282  0.4282  0.6311
 3071SOL    HW120846   2.962   3.096   0.793  1.0718  0.2491  3.8058
 3071SOL    HW220847   2.972   3.200   0.897  1.6048 -0.8955 -0.2428
 3072SOL     OW20848   4.698   1.366   3.067 -0.7290 -0.6605 -0.0069
 3072SOL    HW120849   0.008   1.339   2.989 -0.6102 -1.0326  0.1981
 3072SOL    HW220850   4.634   1.295   3.077 -0.1293 -1.2547 -0.3980
 3073SOL     OW20851   0.012   3.323  13.667  0.0978  0.3435 -0.0285
 3073SOL    HW120852   0.023   3.404  13.717  2.6873 -0.6795  1.0690
 3073SOL    HW220853   0.091   3.329  13.612  0.3288 -0.5587  0.1989
 3074SOL     OW20854   4.320   2.034  10.512  0.2136  0.4804 -0.0214
 3074SOL    HW120855   4.268   2.015  10.433 -0.2040  0.5050  0.2470
 3074SOL    HW220856   4.398   2.062  10.463 -0.7069  1.3332 -0.9904
 3075SOL     OW20857   0.818   2.378   8.368  0.2900  0.2658 -0.2962
 3075SOL    HW120858   0.740   2.328   8.392  0.6362 -0.2659 -0.2747
 3075SOL    HW220859   0.784   2.425   8.292 -0.3155  0.8483  0.3392
 3076SOL     OW20860   4.094   2.730   4.537 -0.0350  0.1072 -0.3944
 3076SOL    HW120861   4.159   2.702   4.601 -0.7973 -2.1944 -0.5983
 3076SOL    HW220862   4.043   2.651   4.519  0.1173 -0.0249 -0.2439
 3077SOL     OW20863   1.194   4.435   6.192  0.1790  0.1029  0.1768
 3077SOL    HW120864   1.192   4.431   6.096  0.5809  0.3724  0.1599
 3077SOL    HW220865   1.253   4.361   6.200  0.4020  0.6821  4.0290
 3078SOL     OW20866   4.529   3.244   3.280  0.8725 -0.5963 -0.4379
 3078SOL    HW120867   4.483   3.328   3.269  1.1638 -0.0151  2.5750
 3078SOL    HW220868   4.498   3.216   3.366  0.1841 -0.5476 -0.6681
 3079SOL     OW20869   3.760   1.955   0.032 -0.3505 -0.0642  0.4522
 3079SOL    HW120870   3.776   1.862   0.050 -1.2711 -0.3660 -0.2670
 3079SOL    HW220871   3.736   1.960  17.693  0.5468  0.7259  0.2684
 3080SOL     OW20872   3.749   2.413   1.393  0.3111 -0.1718  0.1442
 3080SOL    HW120873   3.828   2.380   1.435 -0.1385 -0.6976  0.5869
 3080SOL    HW220874   3.767   2.422   1.300 -2.6682  0.3302 -0.3795
 3081SOL     OW20875   4.013   0.598   8.050  0.3144 -0.3239 -0.3451
 3081SOL    HW120876   4.049   0.523   8.003  0.2778 -0.1989 -0.5719
 3081SOL    HW220877   3.938   0.607   7.992  0.6509  0.2980 -0.6870
 3082SOL     OW20878   3.663   2.822   4.822 -0.1229 -0.2608  0.0738
 3082SOL    HW120879   3.756   2.819   4.799  0.3987  0.6642  2.0051
 3082SOL    HW220880   3.619   2.821   4.737  0.4031  1.6200 -0.2278
 3083SOL     OW20881   1.144   1.623   2.118 -0.2612  0.0772  0.0801
 3083SOL    HW120882   1.218   1.569   2.092 -0.4279 -0.2325  0.2486
 3083SOL    HW220883   1.071   1.564   2.100 -0.9714  0.3631  2.0006
 3084SOL     OW20884   2.878   1.286   2.423  0.0031 -0.1812  0.1401
 3084SOL    HW120885   2.968   1.301   2.453 -0.0601  2.1264 -0.8493
 3084SOL    HW220886   2.838   1.372   2.411 -1.0311 -0.9729 -2.0663
 3085SOL     OW20887   1.294   4.697   2.873  0.0210 -0.4145  0.1474
 3085SOL    HW120888   1.267   4.704   2.782  1.5825 -0.9258 -0.3441
 3085SOL    HW220889   1.218   4.665   2.922  0.2425 -1.3309 -0.1137
 3086SOL     OW20890   2.222   1.961   6.723  0.1348 -0.0117  0.1475
 3086SOL    HW120891   2.260   1.947   6.809 -1.4332  1.7219  1.1335
 3086SOL    HW220892   2.304   1.997   6.689  0.4687  0.2296  1.2001
 3087SOL     OW20893   2.027   1.702  10.688  0.2135  0.5183  0.0466
 3087SOL    HW120894   2.113   1.733  10.717  1.3667 -0.0599 -2.7358
 3087SOL    HW220895   1.978   1.783  10.672  0.3220  0.8186  1.2396
 3088SOL     OW20896   1.546   4.179   7.287 -0.3729 -0.8062  0.1817
 3088SOL    HW120897   1.504   4.257   7.323 -0.7227 -0.8671 -0.1030
 3088SOL    HW220898   1.528   4.119   7.359  0.8685 -1.2079  0.1602
 3089SOL     OW20899   0.031   1.309   8.053  0.0662  0.4237  0.4789
 3089SOL    HW120900   4.718   1.316   7.973 -1.2801  2.5356  1.5633
 3089SOL    HW220901   0.081   1.389   8.038 -0.3944  0.7240  0.5813
 3090SOL     OW20902   1.335   1.875   2.232  0.7425  0.0247  0.0783
 3090SOL    HW120903   1.261   1.861   2.172  0.9792  0.7050 -0.3700
 3090SOL    HW220904   1.389   1.938   2.185  0.8924  0.5288  0.9361
 3091SOL     OW20905   1.770   4.444   7.205  0.3718 -0.5253  0.1611
 3091SOL    HW120906   1.686   4.445   7.250  0.0441 -1.2328 -0.4472
 3091SOL    HW220907   1.755   4.495   7.125 -2.0310  0.0639  1.0003
 3092SOL     OW20908   2.658   1.177   6.502 -0.1776 -0.3136 -0.2647
 3092SOL    HW120909   2.647   1.086   6.473  0.6492 -0.2861 -0.6733
 3092SOL    HW220910   2.608   1.193   6.582 -0.5362 -2.8170  0.0296
 3093SOL     OW20911   4.220   2.338   1.634 -0.2072 -0.5557 -0.9319
 3093SOL    HW120912   4.174   2.281   1.696  1.9417 -2.7957 -1.4249
 3093SOL    HW220913   4.305   2.295   1.640  0.2909  0.5139 -0.2379
 3094SOL     OW20914   0.210   4.498   7.819  0.9635 -0.1101 -0.5284
 3094SOL    HW120915   0.237   4.407   7.828  0.3124 -0.0981  1.5643
 3094SOL    HW220916   0.139   4.506   7.882  2.2547 -1.4728  1.1261
 3095SOL     OW20917   3.150   4.303   8.329 -0.1939 -0.0760 -0.0819
 3095SOL    HW120918   3.239   4.268   8.321  0.1428  1.2402 -2.0475
 3095SOL    HW220919   3.097   4.226   8.350  0.0583 -0.5337 -1.1077
 3096SOL     OW20920   1.723   1.830   9.058  0.2246 -0.3258  0.0203
 3096SOL    HW120921   1.817   1.847   9.050  0.0808  1.1694  1.4923
 3096SOL    HW220922   1.715   1.763   8.990  3.8007 -1.5227  0.8043
 3097SOL     OW20923   2.855   2.117   9.542 -0.8130 -0.2582  0.2101
 3097SOL    HW120924   2.795   2.073   9.482  0.1885 -1.5262  0.1475
 3097SOL    HW220925   2.863   2.047   9.606 -1.7452 -0.2013  0.4005
 3098SOL     OW20926   2.369   2.037   9.401 -0.0108  0.1622 -0.3760
 3098SOL    HW120927   2.374   2.066   9.310  0.3982  0.7127 -0.1837
 3098SOL    HW220928   2.419   1.956   9.398 -2.3152 -1.3259  2.0000
 3099SOL     OW20929   4.034   2.420   7.722 -0.6525  0.5949 -0.3182
 3099SOL    HW120930   4.103   2.441   7.785  0.4416  1.4548 -1.7871
 3099SOL    HW220931   3.993   2.358   7.783  0.8662 -1.4163 -1.3466
 3100SOL     OW20932   0.036   3.746   4.532  0.4520  0.1753 -0.2710
 3100SOL    HW120933   0.053   3.773   4.442 -0.5284  0.1866 -0.4536
 3100SOL    HW220934   0.035   3.651   4.536  0.6127  0.1493 -1.0088
 3101SOL     OW20935   2.013   3.959   8.056  0.4319  0.0311 -0.1807
 3101SOL    HW120936   1.921   3.933   8.065  0.3360 -0.3010 -2.0286
 3101SOL    HW220937   2.008   4.048   8.090  1.5803 -0.4215  1.1562
 3102SOL     OW20938   0.106   0.082   0.782 -0.5897 -0.0775  0.2126
 3102SOL    HW120939   0.015   0.068   0.810 -0.9153  0.7270 -0.4300
 3102SOL    HW220940   0.097   0.163   0.731  0.6333 -0.5864 -0.8199
 3103SOL     OW20941   3.550   1.927   9.410 -0.2576 -0.2608  0.1703
 3103SOL    HW120942   3.643   1.948   9.396 -0.6516 -0.0680 -2.1338
 3103SOL    HW220943   3.511   1.955   9.327  1.1357  0.5820 -0.2102
 3104SOL     OW20944   4.148   4.189  13.671  0.1145  0.2106 -0.6021
 3104SOL    HW120945   4.069   4.190  13.726 -0.2465  0.3376 -1.1227
 3104SOL    HW220946   4.168   4.282  13.678 -3.5425  0.7590  2.9841
 3105SOL     OW20947   2.981   0.545   6.222 -0.0439 -0.2225 -0.4799
 3105SOL    HW120948   2.977   0.490   6.143  0.0755 -0.1481 -0.5383
 3105SOL    HW220949   3.072   0.573   6.225  0.1121 -1.0973  2.3047
 3106SOL     OW20950   3.117   1.153   4.599  0.0268 -0.0109  0.2425
 3106SOL    HW120951   3.094   1.116   4.685  2.6492 -1.9672  0.0912
 3106SOL    HW220952   3.188   1.212   4.621 -1.1836  0.0634  3.9717
 3107SOL     OW20953   3.526   2.709  12.167 -0.4826  0.2956 -0.0509
 3107SOL    HW120954   3.498   2.782  12.113 -1.6418  0.1669  0.3716
 3107SOL    HW220955   3.454   2.648  12.151 -0.7671  0.2622  1.3142
 3108SOL     OW20956   1.870   2.779   6.926  0.1639  0.1509 -0.0019
 3108SOL    HW120957   1.872   2.861   6.877  0.0034 -0.6411 -1.3361
 3108SOL    HW220958   1.960   2.779   6.959  0.2309  0.2473 -0.1866
 3109SOL     OW20959   2.700   1.063   9.807  0.5488 -0.8341  0.1889
 3109SOL    HW120960   2.672   1.094   9.894  1.5481  0.9054 -0.1050
 3109SOL    HW220961   2.789   1.099   9.801 -0.1000  0.6986 -0.0556
 3110SOL     OW20962   2.420   3.559  12.265  0.2832 -0.0120 -0.1046
 3110SOL    HW120963   2.366   3.608  12.204 -0.5572  1.0328  1.4958
 3110SOL    HW220964   2.359   3.543  12.337 -1.4472 -1.5504 -1.9005
 3111SOL     OW20965   3.718   3.218  12.068  0.7001 -0.1579  0.1963
 3111SOL    HW120966   3.658   3.182  12.002  1.5088 -0.2005 -0.5177
 3111SOL    HW220967   3.649   3.255  12.124 -0.6764 -2.4027 -0.0097
 3112SOL     OW20968   3.713   2.053   9.160  0.4110 -0.1746 -0.4449
 3112SOL    HW120969   3.808   2.042   9.148  0.5029  0.5594 -0.4317
 3112SOL    HW220970   3.684   1.983   9.102 -0.4629  1.5338 -2.0945
 3113SOL     OW20971   4.188   4.299   7.690  0.1002 -0.1344 -0.4778
 3113SOL    HW120972   4.106   4.310   7.643 -0.0290 -1.6239 -0.6063
 3113SOL    HW220973   4.224   4.384   7.665 -0.4778  0.2577  0.0009
 3114SOL     OW20974   3.567   3.563  11.844 -0.0353 -0.2584 -0.0829
 3114SOL    HW120975   3.657   3.594  11.840 -0.4450  0.8211 -0.8597
 3114SOL    HW220976   3.538   3.587  11.756 -0.8522  1.6258  0.7031
 3115SOL     OW20977   1.350   3.284   7.626  0.2490 -0.0588  0.1162
 3115SOL    HW120978   1.276   3.344   7.627  0.8173  0.6322  3.2159
 3115SOL    HW220979   1.408   3.311   7.698  0.8329  1.6538 -1.0071
 3116SOL     OW20980   2.043   2.291   7.133 -0.6722 -0.2478 -0.1806
 3116SOL    HW120981   2.019   2.363   7.075 -0.1912 -0.9645 -1.2480
 3116SOL    HW220982   2.104   2.326   7.199  0.2939 -2.8253  0.2685
 3117SOL     OW20983   2.752   0.806   7.535 -0.2938 -0.1209  0.0114
 3117SOL    HW120984   2.728   0.762   7.617 -0.6312  0.7244  0.3610
 3117SOL    HW220985   2.804   0.737   7.494 -2.9217 -0.9986 -1.8346
 3118SOL     OW20986   4.484   0.732   9.409 -0.1355 -0.0435  0.2082
 3118SOL    HW120987   4.413   0.689   9.362  0.3293  2.4944 -2.8081
 3118SOL    HW220988   4.487   0.808   9.351 -2.2072 -1.1250 -1.3189
 3119SOL     OW20989   3.589   2.105   5.613 -0.1593 -0.0016 -0.5682
 3119SOL    HW120990   3.539   2.033   5.574 -1.8661  0.2418  1.1643
 3119SOL    HW220991   3.534   2.143   5.682  2.0161  1.1425  0.5081
 3120SOL     OW20992   0.016   2.610   2.905 -0.1192  0.0851  0.1189
 3120SOL    HW120993   0.035   2.704   2.902 -3.0036  0.6928  0.6432
 3120SOL    HW220994   0.094   2.565   2.875 -0.2299  1.4811 -2.2475
 3121SOL     OW20995   4.397   1.646   2.776  0.0131 -0.3049 -0.2342
 3121SOL    HW120996   4.346   1.565   2.774  0.7161 -0.7554 -0.0541
 3121SOL    HW220997   4.421   1.659   2.684 -1.4924 -1.4091 -0.7819
 3122SOL     OW20998   2.718   4.065   3.609 -0.1386 -0.1615  0.3443
 3122SOL    HW120999   2.687   4.094   3.695  0.4526  1.1582  0.1111
 3122SOL    HW221000   2.636   4.018   3.592 -0.2715  0.1722  0.0682
 3123SOL     OW21001   2.182   1.617   0.745 -0.2024 -0.2879  0.0215
 3123SOL    HW121002   2.089   1.594   0.750 -0.9537  2.5764 -0.7823
 3123SOL    HW221003   2.167   1.697   0.695 -2.5242 -1.6857 -1.5110
 3124SOL     OW21004   4.654   2.426   5.495  0.3778  0.5261 -0.0182
 3124SOL    HW121005   4.675   2.480   5.571  2.6461 -0.3888  0.0124
 3124SOL    HW221006   4.726   2.452   5.437  2.4566 -2.0237  1.3917
 3125SOL     OW21007   4.074   2.917   3.289  0.5824  0.3056  0.1048
 3125SOL    HW121008   4.073   2.884   3.379 -2.3714  2.0246  0.6882
 3125SOL    HW221009   4.167   2.936   3.277  0.1347  2.4489  0.0330
 3126SOL     OW21010   2.901   2.013  11.461 -0.2632  0.3309  0.2575
 3126SOL    HW121011   2.991   1.983  11.449 -0.9797 -1.1395 -1.2735
 3126SOL    HW221012   2.864   1.936  11.503 -2.5459  0.8653 -0.7437
 3127SOL     OW21013   1.347   1.051   1.871  0.0891 -0.6030 -0.2010
 3127SOL    HW121014   1.312   0.966   1.899 -1.5980  1.3388  3.6627
 3127SOL    HW221015   1.399   1.064   1.950 -0.5229  0.2182  0.0690
 3128SOL     OW21016   0.879   2.282   3.196  0.2957  0.5020  0.5784
 3128SOL    HW121017   0.811   2.349   3.188  1.0898  1.2932  0.4366
 3128SOL    HW221018   0.865   2.247   3.108 -2.5221  0.1807  1.1619
 3129SOL     OW21019   1.320   3.201   5.160  0.3738 -0.1846 -1.1213
 3129SOL    HW121020   1.261   3.128   5.178 -1.2292  0.8493 -2.1962
 3129SOL    HW221021   1.292   3.251   5.237  0.4469  1.0281 -1.8833
 3130SOL     OW21022   3.937   4.202  16.187  0.6305 -0.4012  0.4228
 3130SOL    HW121023   4.014   4.259  16.193 -1.0024  1.8655 -0.3540
 3130SOL    HW221024   3.896   4.243  16.111  0.3851 -1.3536  0.0299
 3131SOL     OW21025   2.268   2.743   4.253 -0.3958 -0.3197 -0.1899
 3131SOL    HW121026   2.254   2.666   4.308  0.9755  0.7699  1.6791
 3131SOL    HW221027   2.194   2.798   4.276 -0.3307  0.0157 -0.7858
 3132SOL     OW21028   2.114   1.538   7.101  0.0273 -0.0513  0.1243
 3132SOL    HW121029   2.074   1.511   7.184 -3.8315  2.6596 -0.8319
 3132SOL    HW221030   2.102   1.465   7.040 -1.2778  0.7707 -0.6161
 3133SOL     OW21031   3.809   4.402   5.646 -0.2127 -0.3832 -0.2253
 3133SOL    HW121032   3.792   4.486   5.688 -0.1115 -1.4128  1.8769
 3133SOL    HW221033   3.897   4.378   5.674  0.0036  1.3962  0.6291
 3134SOL     OW21034   3.021   4.738   4.041  0.2702  0.1407  0.0646
 3134SOL    HW121035   2.941   4.684   4.041  0.4421 -0.1129 -2.3255
 3134SOL    HW221036   3.071   4.677   3.987  0.2614 -0.8834  1.1893
 3135SOL     OW21037   3.380   3.746   7.546  0.5480 -0.0296 -0.3192
 3135SOL    HW121038   3.467   3.715   7.572  0.6313  0.0288 -0.5304
 3135SOL    HW221039   3.326   3.692   7.603  2.1360 -0.9664  0.3190
 3136SOL     OW21040   2.594   1.284   8.369  0.3160 -0.0372 -0.4154
 3136SOL    HW121041   2.653   1.320   8.436 -0.0245  0.0650 -0.1714
 3136SOL    HW221042   2.519   1.337   8.396 -0.4980 -2.1207  1.3652
 3137SOL     OW21043   3.266   2.647   4.861  0.0162  0.1970 -0.1748
 3137SOL    HW121044   3.173   2.629   4.853 -0.6248  2.8666  1.2278
 3137SOL    HW221045   3.259   2.711   4.931 -3.3744 -0.4964  0.1028
 3138SOL     OW21046   1.111   4.303  12.157  0.0628 -0.1657  0.0314
 3138SOL    HW121047   1.032   4.297  12.212  0.0249  0.9498  0.1035
 3138SOL    HW221048   1.177   4.288  12.225  1.4417 -1.8414 -1.6962
 3139SOL     OW21049   0.821   1.462  10.181  0.0536  0.2203 -0.3221
 3139SOL    HW121050   0.892   1.512  10.141  1.7340  0.1914  2.5946
 3139SOL    HW221051   0.787   1.530  10.240  5.1755  2.2169  0.3648
 3140SOL     OW21052   4.101   3.459   1.980 -0.1668 -0.2360  0.0311
 3140SOL    HW121053   4.171   3.408   2.021 -0.0551  0.1565  0.3344
 3140SOL    HW221054   4.162   3.524   1.944  0.2621 -0.5621  0.1696
 3141SOL     OW21055   3.796   4.079   7.058 -0.0446  0.5941 -0.2182
 3141SOL    HW121056   3.872   4.071   7.000  0.4548  3.5683  0.0290
 3141SOL    HW221057   3.820   4.164   7.095 -1.3627  0.7515  0.2870
 3142SOL     OW21058   3.662   4.555   4.559 -0.0216 -0.1370 -0.3300
 3142SOL    HW121059   3.616   4.506   4.491 -0.4697 -0.1790  0.0036
 3142SOL    HW221060   3.751   4.547   4.524  0.4337  0.3974  0.6994
 3143SOL     OW21061   0.964   3.358   2.776  0.2818 -0.2447 -0.2772
 3143SOL    HW121062   0.903   3.359   2.850  0.9392  0.8382  0.2354
 3143SOL    HW221063   0.972   3.263   2.768 -0.3775 -0.0927 -2.8792
 3144SOL     OW21064   2.331   3.660   5.047 -0.3486  0.8156  0.0139
 3144SOL    HW121065   2.348   3.754   5.033 -0.1519  1.0350  1.6995
 3144SOL    HW221066   2.300   3.672   5.137 -1.5134  1.3635 -0.4713
 3145SOL     OW21067   1.067   0.746   5.109  0.0697  0.0911 -0.3902
 3145SOL    HW121068   0.980   0.785   5.102  0.4691  1.0511  0.0552
 3145SOL    HW221069   1.067   0.719   5.201  0.0624 -1.1039 -0.7425
 3146SOL     OW21070   3.146   2.916   1.974 -0.3641  0.1415  0.5517
 3146SOL    HW121071   3.236   2.884   1.974 -0.4197 -0.0146  0.8340
 3146SOL    HW221072   3.110   2.893   1.888 -2.3040 -0.1902  1.4612
 3147SOL     OW21073   0.530   0.838   3.413  0.4910  0.3305  0.5421
 3147SOL    HW121074   0.538   0.875   3.325  1.4570  1.4548  1.0976
 3147SOL    HW221075   0.462   0.892   3.453 -0.3814 -1.2073  1.1168
 3148SOL     OW21076   4.627   4.375   8.578 -0.0494 -0.4829 -0.0116
 3148SOL    HW121077   4.607   4.465   8.554  0.2296 -0.3089  0.4143
 3148SOL    HW221078   4.633   4.374   8.673  1.6419 -0.7942 -0.1218
 3149SOL     OW21079   3.931   2.648   8.117 -0.4916  0.0287 -0.2067
 3149SOL    HW121080   3.951   2.661   8.024 -0.9137  2.1965  0.0097
 3149SOL    HW221081   3.842   2.682   8.123 -0.9872 -1.3982  0.4497
 3150SOL     OW21082   2.936   4.107   8.326  0.1257  0.1069  0.1568
 3150SOL    HW121083   2.851   4.097   8.369 -0.3622 -3.6533 -1.6838
 3150SOL    HW221084   2.954   4.013   8.320 -0.9541 -0.2466  2.4519
 3151SOL     OW21085   4.410   4.441   4.080 -0.6567 -0.2151 -0.3838
 3151SOL    HW121086   4.460   4.375   4.033 -0.5810  0.2859 -0.9942
 3151SOL    HW221087   4.343   4.383   4.118 -1.2508  1.2304  0.7932
 3152SOL     OW21088   4.453   1.881   9.732  0.8031 -0.6586 -0.1663
 3152SOL    HW121089   4.529   1.853   9.782  2.7004  1.6056 -1.7945
 3152SOL    HW221090   4.381   1.871   9.795  1.7873 -0.7411  0.9367
 3153SOL     OW21091   0.915   2.232  16.787 -0.2207  0.1584  0.4210
 3153SOL    HW121092   0.872   2.156  16.747  2.9032 -0.5088 -1.6720
 3153SOL    HW221093   0.990   2.192  16.830 -1.6347 -0.1770  2.5338
 3154SOL     OW21094   1.401   4.386  13.032  0.4845 -0.3708  0.4992
 3154SOL    HW121095   1.323   4.366  13.084 -0.3695  0.3238 -0.5157
 3154SOL    HW221096   1.387   4.311  12.974  2.0172 -0.2515 -0.0020
 3155SOL     OW21097   1.391   1.759   6.626 -0.7538 -0.3875  0.2381
 3155SOL    HW121098   1.394   1.854   6.614 -0.3461 -0.5934 -1.2402
 3155SOL    HW221099   1.480   1.745   6.656 -0.6902  0.6892  0.5529
 3156SOL     OW21100   2.239   3.771  15.044 -0.3110  0.0603  0.1600
 3156SOL    HW121101   2.299   3.844  15.059 -1.8260  1.0086  1.6725
 3156SOL    HW221102   2.304   3.703  15.061 -0.9766 -0.2082  1.6698
 3157SOL     OW21103   2.505   4.669   9.165 -0.2034  0.6804 -0.0390
 3157SOL    HW121104   2.580   4.645   9.218  0.4728  2.8527 -0.0095
 3157SOL    HW221105   2.432   4.683   9.226 -1.3842  1.9526 -1.7218
 3158SOL     OW21106   0.692   2.278   4.438 -0.4094  0.5931 -0.3341
 3158SOL    HW121107   0.674   2.346   4.373  0.9153  1.0336 -0.2524
 3158SOL    HW221108   0.614   2.289   4.491 -0.3623  2.1764 -0.5965
 3159SOL     OW21109   0.757   4.705   3.954  0.0093  0.0299  0.2618
 3159SOL    HW121110   0.689   4.699   4.021 -0.6840 -0.2745 -0.4741
 3159SOL    HW221111   0.707   4.666   3.882  0.2322 -0.5926  0.4450
 3160SOL     OW21112   3.814   2.901  15.143 -0.3070 -0.1636 -0.0064
 3160SOL    HW121113   3.812   2.841  15.068 -0.2849  1.4599 -1.3094
 3160SOL    HW221114   3.906   2.889  15.165 -0.9314 -0.8138  2.1517
 3161SOL     OW21115   0.759   3.430   9.475  0.2591  0.2643  0.3985
 3161SOL    HW121116   0.707   3.480   9.538 -0.5547  1.2623 -1.0657
 3161SOL    HW221117   0.708   3.437   9.395 -1.4525  0.0013  1.4702
 3162SOL     OW21118   3.012   1.626   2.243  0.6826  0.6123 -0.4626
 3162SOL    HW121119   2.947   1.634   2.312  0.8273 -0.3571 -0.2076
 3162SOL    HW221120   2.966   1.612   2.160 -0.3997  0.3360  0.1867
 3163SOL     OW21121   2.883   4.254   3.569 -0.2403  0.2670  0.3593
 3163SOL    HW121122   2.826   4.179   3.585 -1.3058  0.7779 -1.0143
 3163SOL    HW221123   2.854   4.330   3.620  0.7372 -0.1214  1.4695
 3164SOL     OW21124   2.017   1.500  16.391 -0.2781  0.3826 -0.5378
 3164SOL    HW121125   1.960   1.433  16.429 -0.2391  0.8810  0.4016
 3164SOL    HW221126   1.956   1.549  16.337 -1.9228 -0.4360  0.5652
 3165SOL     OW21127   2.744   2.011   4.197  0.3695 -0.0973 -0.3902
 3165SOL    HW121128   2.702   2.032   4.280  0.7820  0.9088 -0.4365
 3165SOL    HW221129   2.753   1.916   4.195 -0.8774 -0.2821  2.4709
 3166SOL     OW21130   1.327   4.503   4.196  0.4152  0.0966  0.1471
 3166SOL    HW121131   1.318   4.491   4.101 -1.1713 -1.5156  0.5021
 3166SOL    HW221132   1.414   4.539   4.184  0.2857  0.1525 -0.6219
 3167SOL     OW21133   0.669   3.368   4.439  0.4339  0.3560  0.2484
 3167SOL    HW121134   0.662   3.296   4.501  0.5186  0.4730  0.3954
 3167SOL    HW221135   0.735   3.345   4.374  1.5246 -0.0976  1.5172
 3168SOL     OW21136   4.602   2.342   4.326 -1.0536  0.1163 -0.2467
 3168SOL    HW121137   4.650   2.296   4.395 -2.5591 -2.7588 -1.1154
 3168SOL    HW221138   4.677   2.352   4.268  0.1041 -1.4287  0.9570
 3169SOL     OW21139   4.148   2.372   8.650  0.0557  0.4372 -0.0234
 3169SOL    HW121140   4.183   2.342   8.734 -2.7349 -3.2093 -0.1124
 3169SOL    HW221141   4.199   2.321   8.587 -0.6673 -0.5256  0.1486
 3170SOL     OW21142   3.472   0.610   6.990 -0.3109  0.7872 -0.2836
 3170SOL    HW121143   3.458   0.704   6.999 -2.1580  0.5149 -0.3942
 3170SOL    HW221144   3.485   0.606   6.895  2.8780  0.0577  0.1869
 3171SOL     OW21145   4.529   2.750   7.524  0.2280 -0.1131  0.3125
 3171SOL    HW121146   4.489   2.684   7.581  2.3570 -0.5387  1.2983
 3171SOL    HW221147   4.533   2.825   7.583 -2.3896  0.2514  0.0156
 3172SOL     OW21148   0.049   3.943  16.756 -0.3397  0.0827 -0.0215
 3172SOL    HW121149   0.135   3.959  16.794 -1.1397  0.8948  1.4185
 3172SOL    HW221150   4.737   3.924  16.835  0.9754 -0.5773  0.6694
 3173SOL     OW21151   3.056   0.835  16.378  0.0538  0.1828  0.0055
 3173SOL    HW121152   3.097   0.823  16.292 -0.9541 -1.9889 -0.1650
 3173SOL    HW221153   2.981   0.777  16.366  0.6810 -0.3976 -1.0133
 3174SOL     OW21154   2.767   0.246   7.068  0.4402 -0.5650  0.0246
 3174SOL    HW121155   2.846   0.299   7.073  0.1732  0.0887 -2.3169
 3174SOL    HW221156   2.731   0.264   7.155  1.2982 -2.4888  0.7705
 3175SOL     OW21157   0.397   0.023   3.851 -0.4350  0.1997 -1.0051
 3175SOL    HW121158   0.454   0.099   3.858 -0.4254  0.1182 -0.2090
 3175SOL    HW221159   0.346   0.035   3.771 -0.7786  0.9210 -0.6830
 3176SOL     OW21160   4.361   2.898   8.237  0.5473  0.4453  0.3888
 3176SOL    HW121161   4.315   2.917   8.319  0.0563 -1.1152  0.4759
 3176SOL    HW221162   4.350   2.983   8.195 -1.7991 -0.4961 -0.9042
 3177SOL     OW21163   4.525   3.927   3.151  0.2682  0.7938  0.2077
 3177SOL    HW121164   4.508   3.836   3.126  0.2077  0.4705  1.4480
 3177SOL    HW221165   4.621   3.922   3.145  0.0031 -2.5336 -1.2377
 3178SOL     OW21166   1.847   3.925   4.012 -0.1419 -0.1802 -0.3046
 3178SOL    HW121167   1.840   3.996   3.949  0.1544  0.3293  0.2423
 3178SOL    HW221168   1.800   3.964   4.086  1.2810  1.2791 -0.1862
 3179SOL     OW21169   2.042   2.907  14.281 -0.3102 -0.0582  0.4036
 3179SOL    HW121170   2.017   2.822  14.246 -0.1978 -0.6113  1.6868
 3179SOL    HW221171   2.137   2.902  14.264 -0.9918 -1.4230 -3.0386
 3180SOL     OW21172   0.085   0.308   7.817 -0.4167 -0.2890  0.7684
 3180SOL    HW121173   0.149   0.256   7.865  1.0765 -1.3305 -2.3973
 3180SOL    HW221174   0.021   0.332   7.884 -1.0685  0.6727 -0.1911
 3181SOL     OW21175   1.710   3.152   0.975 -0.5921  0.3576  0.3609
 3181SOL    HW121176   1.705   3.196   1.060  0.7182  2.5109 -0.6901
 3181SOL    HW221177   1.622   3.167   0.941 -0.5444 -1.7650 -0.7328
 3182SOL     OW21178   2.350   1.371  10.878  0.3709 -0.9306  0.2915
 3182SOL    HW121179   2.401   1.295  10.907 -0.6593 -0.9120  2.1389
 3182SOL    HW221180   2.306   1.395  10.960 -0.2556  0.1010 -0.3470
 3183SOL     OW21181   3.426   3.122   7.196 -0.7057  0.1179 -0.3409
 3183SOL    HW121182   3.423   3.208   7.237 -0.3158 -0.2769  0.5190
 3183SOL    HW221183   3.453   3.149   7.109 -3.0037 -1.2713 -1.4844
 3184SOL     OW21184   1.627   0.766   9.333 -0.4009 -0.5608  0.7298
 3184SOL    HW121185   1.564   0.751   9.404  1.4944 -2.0905  2.0815
 3184SOL    HW221186   1.699   0.710   9.361  0.2127  0.2859  0.8496
 3185SOL     OW21187   3.623   0.740   2.174  0.2934  0.0627 -0.0518
 3185SOL    HW121188   3.566   0.788   2.235  1.8435  0.6187  0.9725
 3185SOL    HW221189   3.592   0.650   2.173 -0.4735  0.3219  0.0305
 3186SOL     OW21190   1.850   3.977   1.728  0.3580  0.2433 -0.5391
 3186SOL    HW121191   1.930   3.989   1.779  0.6811 -0.8205 -0.8137
 3186SOL    HW221192   1.826   4.070   1.734 -1.0528 -0.1357 -0.3561
 3187SOL     OW21193   1.003   4.644   2.958  0.5326 -0.0669  0.1585
 3187SOL    HW121194   0.951   4.707   2.908  0.4911  0.1195  0.4394
 3187SOL    HW221195   0.952   4.563   2.949 -1.0892  0.9862 -0.3317
 3188SOL     OW21196   4.250   0.192   2.965 -0.3796  0.4158  0.2598
 3188SOL    HW121197   4.341   0.165   2.952 -0.6534  0.0642 -1.0217
 3188SOL    HW221198   4.217   0.104   2.983  1.1103 -0.9267 -3.4977
 3189SOL     OW21199   1.764   2.652   1.110  0.3406 -0.4110  0.0394
 3189SOL    HW121200   1.770   2.735   1.062 -0.8431 -0.0000  0.5944
 3189SOL    HW221201   1.774   2.678   1.202 -0.0745  0.7682 -0.2472
 3190SOL     OW21202   3.511   2.678   6.935  0.0397  0.0904 -0.1951
 3190SOL    HW121203   3.512   2.646   7.025  0.1076 -1.8090 -0.8840
 3190SOL    HW221204   3.590   2.731   6.930 -0.4714  0.9012  0.3510
 3191SOL     OW21205   0.662   4.177   6.014  0.1830 -0.7250  0.8613
 3191SOL    HW121206   0.705   4.091   6.009 -0.3758 -1.0422  1.5202
 3191SOL    HW221207   0.735   4.231   6.043 -0.9986  0.0549  2.3642
 3192SOL     OW21208   1.364   0.895   8.141  0.4354 -0.2359 -0.2280
 3192SOL    HW121209   1.460   0.889   8.138  0.4400  0.4048 -1.2407
 3192SOL    HW221210   1.349   0.944   8.222 -0.3798  2.6012 -2.1236
 3193SOL     OW21211   3.122   1.689   6.515  0.6141  0.0608 -0.3064
 3193SOL    HW121212   3.067   1.740   6.455 -1.2242 -1.3077  0.2269
 3193SOL    HW221213   3.097   1.601   6.486  1.5837  0.3648 -2.0887
 3194SOL     OW21214   1.813   3.100   9.209 -0.4657  0.0497 -0.1695
 3194SOL    HW121215   1.905   3.082   9.232 -0.8474  1.3977  2.4092
 3194SOL    HW221216   1.788   3.151   9.286 -0.1984  0.6626 -0.4930
 3195SOL     OW21217   2.528   2.108  15.031  0.0276 -0.0716  0.1562
 3195SOL    HW121218   2.576   2.147  14.958  0.0232  1.3041  0.8882
 3195SOL    HW221219   2.592   2.050  15.073  2.5427  1.4832 -1.5401
 3196SOL     OW21220   1.068   4.223   1.981  0.3496 -0.7782 -0.0939
 3196SOL    HW121221   1.149   4.268   2.005  0.1307 -0.8692  0.8365
 3196SOL    HW221222   1.075   4.211   1.886  1.5661  3.7182 -0.5821
 3197SOL     OW21223   3.020   0.493   2.232  0.3615 -0.3246  0.2381
 3197SOL    HW121224   3.043   0.419   2.288 -2.6678 -1.1852  0.3371
 3197SOL    HW221225   3.108   0.531   2.224 -0.1492  0.3442 -2.1590
 3198SOL     OW21226   2.638   4.487   8.944 -0.6262 -0.0554 -0.0026
 3198SOL    HW121227   2.602   4.533   9.020  2.0536  0.9393  0.6612
 3198SOL    HW221228   2.570   4.491   8.876 -1.1210  3.4113  0.6849
 3199SOL     OW21229   2.145   4.529   6.616 -0.0974 -0.3384  0.2484
 3199SOL    HW121230   2.084   4.599   6.638  1.3458  0.3166  2.2453
 3199SOL    HW221231   2.149   4.481   6.699 -2.4962  1.8053  1.5800
 3200SOL     OW21232   2.134   1.517  14.674 -0.4237 -0.0825  0.4800
 3200SOL    HW121233   2.196   1.482  14.609 -2.6606 -0.3046 -1.5339
 3200SOL    HW221234   2.107   1.597  14.628  1.0119 -0.8427 -1.7254
 3201SOL     OW21235   3.533   0.692   7.244  0.6804  0.2857  0.1999
 3201SOL    HW121236   3.581   0.629   7.297 -1.7640 -1.2736  0.5241
 3201SOL    HW221237   3.511   0.640   7.167 -0.2725  0.0984  0.6037
 3202SOL     OW21238   3.634   4.356   6.926 -0.1857  0.1370  0.3629
 3202SOL    HW121239   3.571   4.356   6.998 -1.1809 -0.6121 -0.5087
 3202SOL    HW221240   3.594   4.421   6.868 -0.7969 -0.2204  0.3849
 3203SOL     OW21241   1.674   4.729   2.163  0.4393  0.1002 -0.0972
 3203SOL    HW121242   1.703   0.079   2.184 -0.3066  0.7522 -1.7936
 3203SOL    HW221243   1.686   4.684   2.247 -0.1116  3.5070  1.8266
 3204SOL     OW21244   0.120   2.402   7.590 -0.2065  0.6285  0.9963
 3204SOL    HW121245   0.129   2.493   7.617  1.8435  0.9804 -0.8998
 3204SOL    HW221246   0.158   2.405   7.502 -0.8402 -0.7886  0.6644
 3205SOL     OW21247   4.135   1.815   7.623 -0.1547  0.3630 -0.3506
 3205SOL    HW121248   4.126   1.910   7.631  2.6081  0.6699 -0.8714
 3205SOL    HW221249   4.141   1.811   7.527  0.7979  0.5801 -0.3017
 3206SOL     OW21250   1.198   3.362   2.970 -0.1173  0.3690 -0.4042
 3206SOL    HW121251   1.197   3.331   3.061  0.2914  3.6462  0.7215
 3206SOL    HW221252   1.133   3.302   2.934 -0.8084  0.9996 -0.2101
 3207SOL     OW21253   3.194   3.726   4.179 -0.1532  0.3138  0.1683
 3207SOL    HW121254   3.165   3.661   4.243 -0.0728  0.2227  0.1117
 3207SOL    HW221255   3.179   3.673   4.101  0.6365  1.6536 -0.9040
 3208SOL     OW21256   0.074   2.952   7.793  0.2040  0.2571  0.0499
 3208SOL    HW121257   4.727   2.919   7.769 -0.0817  2.5372 -2.0973
 3208SOL    HW221258   0.116   2.932   7.709 -3.2336  1.0143 -1.8786
 3209SOL     OW21259   3.471   3.531   4.003 -0.2462 -0.3883  0.0164
 3209SOL    HW121260   3.441   3.522   3.913  0.6030  2.4980 -0.5604
 3209SOL    HW221261   3.404   3.594   4.032  0.9988  0.4629  1.0361
 3210SOL     OW21262   2.821   0.614   8.170  0.0679 -0.3040 -0.1399
 3210SOL    HW121263   2.765   0.595   8.095 -0.2696  0.2082 -0.0206
 3210SOL    HW221264   2.780   0.698   8.190 -0.3828 -0.8310  1.1518
 3211SOL     OW21265   1.640   4.108  12.840 -0.2130 -0.0704  0.0844
 3211SOL    HW121266   1.587   4.130  12.765  2.3512 -0.4730 -1.8550
 3211SOL    HW221267   1.689   4.189  12.857  0.5497 -0.5826  0.3463
 3212SOL     OW21268   4.398   4.517   5.744  0.1428 -0.2775  0.2488
 3212SOL    HW121269   4.465   4.569   5.789 -1.9015  0.2477  2.6651
 3212SOL    HW221270   4.340   4.586   5.712 -1.0230 -1.2430  0.2657
 3213SOL     OW21271   2.962   0.236   5.516 -0.4966 -0.2495  0.1200
 3213SOL    HW121272   2.963   0.146   5.549  0.2089  0.0298  0.8825
 3213SOL    HW221273   3.045   0.274   5.546 -0.2118 -1.3671  0.7374
 3214SOL     OW21274   2.452   0.978   3.356  0.1091 -0.3081  0.6958
 3214SOL    HW121275   2.381   0.913   3.352 -1.6841  1.7009 -0.1407
 3214SOL    HW221276   2.508   0.959   3.281  1.2360  1.1971  1.1523
 3215SOL     OW21277   1.430   3.091   4.715  0.3663  0.1967  0.4350
 3215SOL    HW121278   1.389   3.104   4.629  1.1976 -0.6959 -0.0948
 3215SOL    HW221279   1.347   3.097   4.762  0.7388  0.1834  1.0881
 3216SOL     OW21280   4.651   3.984   0.996 -0.1269 -0.2720 -0.1722
 3216SOL    HW121281   4.653   4.069   0.953  1.0577  0.9122  2.2448
 3216SOL    HW221282   4.571   3.949   0.957 -0.2099  0.5279 -0.7146
 3217SOL     OW21283   0.182   0.877   7.028 -0.2562 -0.0166  0.1667
 3217SOL    HW121284   0.251   0.818   7.057 -0.9799 -0.7900  0.3362
 3217SOL    HW221285   0.178   0.860   6.933  0.3086 -2.3132  0.5561
 3218SOL     OW21286   3.769   1.032   4.621 -0.6853 -0.0177  0.0633
 3218SOL    HW121287   3.813   1.016   4.704 -1.7062  0.0318  0.6194
 3218SOL    HW221288   3.838   1.082   4.577 -0.4732  0.6152  1.1467
 3219SOL     OW21289   2.385   0.935   6.749  0.3987  0.0933  0.1346
 3219SOL    HW121290   2.413   0.843   6.744  1.2913  0.4030 -0.4895
 3219SOL    HW221291   2.301   0.921   6.793  1.0943  1.3589  1.8126
 3220SOL     OW21292   2.801   3.226   8.213 -0.2620  0.2206 -0.1792
 3220SOL    HW121293   2.856   3.150   8.231  0.4203  0.9300  0.7225
 3220SOL    HW221294   2.717   3.187   8.233 -1.8445  2.1564 -3.0576
 3221SOL     OW21295   2.639   2.334   8.723 -0.2120  0.1783 -0.1427
 3221SOL    HW121296   2.659   2.427   8.729  0.2307  0.0149  0.9877
 3221SOL    HW221297   2.726   2.300   8.705 -0.3988 -0.2117 -0.3304
 3222SOL     OW21298   1.925   4.451   0.833 -0.3791 -0.5888 -0.2690
 3222SOL    HW121299   1.973   4.379   0.791  1.1141 -0.1855  0.7293
 3222SOL    HW221300   1.913   4.407   0.918  1.8510  0.8395  0.7815
 3223SOL     OW21301   2.841   4.608   9.140  0.3207  0.1756  0.0158
 3223SOL    HW121302   2.845   4.683   9.081 -1.6143 -0.3682 -0.8009
 3223SOL    HW221303   2.816   4.535   9.084 -0.4639 -1.9147  3.0892
 3224SOL     OW21304   2.906   0.654   1.689 -0.0323  0.0458 -0.0711
 3224SOL    HW121305   2.896   0.718   1.618 -0.1099  0.7689  0.5937
 3224SOL    HW221306   2.883   0.704   1.767  1.2849 -2.3592  1.8653
 3225SOL     OW21307   0.411   1.544   4.115 -0.0534 -0.2741  0.0724
 3225SOL    HW121308   0.342   1.479   4.106 -0.0791 -0.3723  0.9791
 3225SOL    HW221309   0.418   1.549   4.211  1.8518 -0.7174 -0.0556
 3226SOL     OW21310   2.511   3.618   6.411  0.3703 -0.2574 -0.2968
 3226SOL    HW121311   2.523   3.712   6.423  0.9831 -0.7955  3.5136
 3226SOL    HW221312   2.485   3.616   6.319  2.6839  1.8223 -0.9920
 3227SOL     OW21313   1.339   2.916  15.486 -0.4935 -0.0952 -0.0036
 3227SOL    HW121314   1.368   2.829  15.458 -1.6772 -0.8108  0.9839
 3227SOL    HW221315   1.415   2.970  15.507 -1.0347  0.5420  0.3147
 3228SOL     OW21316   0.184   1.739   3.638  0.2138  0.0848  0.7479
 3228SOL    HW121317   0.128   1.814   3.622  1.7258  1.4077  1.6233
 3228SOL    HW221318   0.249   1.750   3.568  0.5298  1.5332  1.2606
 3229SOL     OW21319   0.064   1.041   8.164  0.2244 -0.0367 -0.0811
 3229SOL    HW121320   0.073   1.117   8.106  1.3184 -0.8129 -0.9287
 3229SOL    HW221321   0.142   0.998   8.129  1.4191  0.2874  2.2670
 3230SOL     OW21322   2.367   3.334   0.418 -1.0543 -0.4434  0.3540
 3230SOL    HW121323   2.323   3.400   0.363  1.8550  1.1689 -0.0549
 3230SOL    HW221324   2.372   3.263   0.354  1.9305 -1.6890  2.0086
 3231SOL     OW21325   4.223   1.488   6.660  0.3428  0.0531 -0.7807
 3231SOL    HW121326   4.216   1.583   6.658  1.4143  0.1836  1.4169
 3231SOL    HW221327   4.215   1.478   6.755  0.2776  1.1056 -0.6833
 3232SOL     OW21328   3.501   0.446  14.916  0.0814  1.0340 -0.1259
 3232SOL    HW121329   3.539   0.518  14.865  2.6740 -0.7179 -0.6433
 3232SOL    HW221330   3.564   0.377  14.897  0.3928  0.9079  1.3952
 3233SOL     OW21331   1.724   3.028   2.280 -0.6410 -0.3169 -0.5667
 3233SOL    HW121332   1.762   3.105   2.324  1.0850 -0.4765 -1.7560
 3233SOL    HW221333   1.633   3.022   2.308 -0.2608  0.8805  0.9646
 3234SOL     OW21334   0.296   1.752   8.385  0.0253 -0.1743  0.0155
 3234SOL    HW121335   0.251   1.835   8.374  0.7655  0.4606  1.8562
 3234SOL    HW221336   0.377   1.755   8.334 -0.3855  0.3130 -0.6201
 3235SOL     OW21337   0.610   0.369  12.094 -0.0838 -0.4161  0.2654
 3235SOL    HW121338   0.595   0.293  12.038  0.4394 -1.1990  1.2008
 3235SOL    HW221339   0.706   0.371  12.098 -0.1047 -0.4642  0.7613
 3236SOL     OW21340   2.165   3.361   3.802  0.1121 -0.3126 -0.0602
 3236SOL    HW121341   2.088   3.402   3.840  1.0190  0.7595  0.6474
 3236SOL    HW221342   2.230   3.358   3.873 -0.2040  0.2291  0.2562
 3237SOL     OW21343   0.059   1.985   1.783  0.0205  0.4563  0.0229
 3237SOL    HW121344   0.088   1.897   1.759 -0.5828  0.2002  0.2276
 3237SOL    HW221345   0.019   2.009   1.699 -1.1446  0.9068  0.7123
 3238SOL     OW21346   1.275   3.547  13.040  0.3442  0.0676  0.4865
 3238SOL    HW121347   1.363   3.553  13.076 -0.7148  1.2452  2.9429
 3238SOL    HW221348   1.285   3.499  12.958 -0.4437 -0.3868  0.6517
 3239SOL     OW21349   3.922   3.500   2.701 -0.1095  0.0446  0.1916
 3239SOL    HW121350   3.967   3.418   2.680 -0.7818 -0.3989  0.5049
 3239SOL    HW221351   3.855   3.474   2.764  1.2370 -1.1665  1.1124
 3240SOL     OW21352   1.848   4.066   4.662 -0.0458  0.2954  0.1047
 3240SOL    HW121353   1.886   4.144   4.623  0.1567  0.2885  0.2846
 3240SOL    HW221354   1.781   4.046   4.597  0.8425 -0.8872 -0.4418
 3241SOL     OW21355   2.420   3.988   4.641  0.6502  0.5614 -0.3053
 3241SOL    HW121356   2.335   4.020   4.670 -0.0641 -1.7468  0.0999
 3241SOL    HW221357   2.459   4.066   4.602 -0.0635  1.0203 -0.1011
 3242SOL     OW21358   0.089   1.494  10.433  0.3991  0.1642 -0.6614
 3242SOL    HW121359   0.007   1.450  10.411  0.9873 -0.7780 -0.9812
 3242SOL    HW221360   0.108   1.546  10.355  2.4795 -2.3910 -1.8949
 3243SOL     OW21361   3.335   1.364   1.360  0.0879  0.1032  0.5280
 3243SOL    HW121362   3.298   1.423   1.294 -1.6981  1.6438  2.8487
 3243SOL    HW221363   3.265   1.371   1.426 -1.0653 -2.1505 -0.4574
 3244SOL     OW21364   1.224   2.207  10.266  0.5873 -0.5474  0.1630
 3244SOL    HW121365   1.189   2.255  10.192  0.7576  0.0738  0.4798
 3244SOL    HW221366   1.290   2.267  10.301 -0.0711  0.0921  0.3116
 3245SOL     OW21367   3.356   3.535   8.094  0.4028 -0.0408 -0.3432
 3245SOL    HW121368   3.347   3.591   8.017 -2.8878  1.3322  1.0292
 3245SOL    HW221369   3.263   3.535   8.116  0.2379 -1.9630 -1.0003
 3246SOL     OW21370   3.852   2.882   5.120  0.2326  0.0867 -0.1430
 3246SOL    HW121371   3.864   2.941   5.046 -3.3446 -0.6770 -1.3272
 3246SOL    HW221372   3.851   2.945   5.193  1.1572 -1.9986  1.6571
 3247SOL     OW21373   1.791   3.441   5.822  0.0978  0.2012  0.3073
 3247SOL    HW121374   1.800   3.531   5.856  0.3791  0.3348 -0.1238
 3247SOL    HW221375   1.874   3.444   5.776  0.8533 -0.9571  1.6072
 3248SOL     OW21376   0.957   0.310   3.150  0.0314  0.1092 -0.1531
 3248SOL    HW121377   1.034   0.283   3.100  0.6915 -0.4260  1.1635
 3248SOL    HW221378   0.916   0.359   3.078 -0.1543  1.2797  0.7668
 3249SOL     OW21379   1.702   3.213   8.961  0.2871 -0.1302 -0.7881
 3249SOL    HW121380   1.750   3.296   8.964 -1.4423  0.7570  2.6567
 3249SOL    HW221381   1.731   3.184   9.047  0.1096  0.4752 -0.5248
 3250SOL     OW21382   0.574   3.333   2.429  0.4287 -0.0583 -0.6158
 3250SOL    HW121383   0.595   3.426   2.418  0.0901  0.1100  0.0951
 3250SOL    HW221384   0.640   3.308   2.494  1.2954  0.9630 -1.1115
 3251SOL     OW21385   1.263   2.148   6.688 -0.4871  0.3035  0.6565
 3251SOL    HW121386   1.311   2.109   6.615  0.8813  0.6771  1.3413
 3251SOL    HW221387   1.176   2.147   6.649 -1.2960 -0.3392  2.4712
 3252SOL     OW21388   3.775   1.106   7.684  0.4447  0.2586  1.2586
 3252SOL    HW121389   3.837   1.177   7.701 -0.2047  1.5452 -1.7665
 3252SOL    HW221390   3.775   1.105   7.588  0.5325  2.0201  1.2452
 3253SOL     OW21391   3.780   0.090  16.953  0.0005  0.1790  1.0442
 3253SOL    HW121392   3.726   0.013  16.970 -0.1848 -0.1415 -0.9922
 3253SOL    HW221393   3.720   0.141  16.899  1.2165  0.3591 -0.1295
 3254SOL     OW21394   3.642   3.311   1.702 -0.1565 -0.3470 -0.0559
 3254SOL    HW121395   3.737   3.303   1.702  0.0835  2.5534  1.8552
 3254SOL    HW221396   3.633   3.331   1.796 -1.0205 -2.5002  0.3428
 3255SOL     OW21397   2.690   4.225   2.371 -0.2114 -0.0560  0.1404
 3255SOL    HW121398   2.700   4.307   2.421 -1.9691  0.6177 -0.6255
 3255SOL    HW221399   2.668   4.167   2.443 -0.5083 -1.4144 -1.0522
 3256SOL     OW21400   2.980   0.410   1.263  0.3334  0.3130 -0.4719
 3256SOL    HW121401   3.042   0.453   1.322 -0.3029 -0.3797  0.6947
 3256SOL    HW221402   3.034   0.338   1.230  0.6549  0.2763  0.1372
 3257SOL     OW21403   4.553   3.220   8.665 -0.0817 -0.2098 -0.3329
 3257SOL    HW121404   4.492   3.242   8.736  0.7441  0.7859  0.0613
 3257SOL    HW221405   4.514   3.135   8.643  0.5224 -0.9577  1.5149
 3258SOL     OW21406   4.665   1.633   7.227 -0.2997 -0.4734  0.3129
 3258SOL    HW121407   4.719   1.556   7.210 -1.7444 -1.1481 -1.2666
 3258SOL    HW221408   4.719   1.660   7.301  0.4486  1.3259 -0.8869
 3259SOL     OW21409   2.466   2.867  15.744  0.8660  0.2457  0.1403
 3259SOL    HW121410   2.539   2.810  15.719 -0.6535 -1.1406 -1.1856
 3259SOL    HW221411   2.503   2.934  15.800  0.0028  0.8280  0.0091
 3260SOL     OW21412   0.996   3.130   0.850 -0.0296 -0.8485  0.3429
 3260SOL    HW121413   1.029   3.067   0.786  0.0090  0.1644 -0.6320
 3260SOL    HW221414   0.941   3.184   0.792 -0.7993  0.3079  2.1488
 3261SOL     OW21415   0.352   2.723   4.720 -0.1506  0.1466 -0.2153
 3261SOL    HW121416   0.292   2.788   4.683 -1.9348 -1.0748  0.5185
 3261SOL    HW221417   0.359   2.761   4.808  1.9752  0.1224 -0.3844
 3262SOL     OW21418   4.646   1.208   6.533 -0.2167  0.5454  0.5522
 3262SOL    HW121419   4.621   1.122   6.567  0.4814  0.7210  1.4964
 3262SOL    HW221420   4.562   1.234   6.494 -0.6831  1.3025  2.0743
 3263SOL     OW21421   1.308   0.141   5.193 -0.6616 -0.1194 -0.2505
 3263SOL    HW121422   1.238   0.109   5.249  0.3419 -0.1068  1.0153
 3263SOL    HW221423   1.339   0.054   5.165  0.7828  0.0979  0.6787
 3264SOL     OW21424   1.815   2.794   8.995 -0.3850 -0.4233 -0.2712
 3264SOL    HW121425   1.795   2.823   9.084 -2.2036 -3.4234  0.2831
 3264SOL    HW221426   1.896   2.842   8.978 -0.4873 -0.2603 -0.3087
 3265SOL     OW21427   1.152   2.955   7.759 -0.4154 -0.0908  0.8126
 3265SOL    HW121428   1.071   2.913   7.730  0.0402 -0.1554 -0.3828
 3265SOL    HW221429   1.141   3.042   7.720 -0.9800 -1.5281 -2.2623
 3266SOL     OW21430   0.085   1.407   2.062  0.4615 -0.2038 -0.5218
 3266SOL    HW121431   0.044   1.401   1.975  1.8641 -0.0794 -1.2012
 3266SOL    HW221432   0.050   1.488   2.098  0.2785 -0.6069  0.1981
 3267SOL     OW21433   3.315   0.743   9.257 -0.9646 -0.7167  0.7088
 3267SOL    HW121434   3.262   0.770   9.181 -2.8487  0.1923  2.3488
 3267SOL    HW221435   3.392   0.715   9.207 -0.9368  1.6418 -0.5922
 3268SOL     OW21436   1.064   2.412   7.110  0.0608 -0.1567 -0.2452
 3268SOL    HW121437   1.126   2.386   7.178  0.1787  0.1255 -0.2442
 3268SOL    HW221438   1.121   2.387   7.037  0.3521  2.7112 -1.0128
 3269SOL     OW21439   1.762   1.735  11.361  0.4685 -0.5751 -0.1742
 3269SOL    HW121440   1.702   1.775  11.298 -0.0009 -0.7236  0.1771
 3269SOL    HW221441   1.806   1.669  11.307 -0.0996 -0.3018 -0.9666
 3270SOL     OW21442   0.088   2.344  17.556  0.2975  0.2579  0.3355
 3270SOL    HW121443   4.737   2.324  17.532 -0.2293  0.0531  2.4666
 3270SOL    HW221444   0.086   2.439  17.548 -1.6650  0.4551  3.4117
 3271SOL     OW21445   3.063   4.022   4.587 -0.0361  0.3191  0.1356
 3271SOL    HW121446   3.093   4.071   4.664 -0.0892  2.0689 -0.9470
 3271SOL    HW221447   3.143   3.977   4.563 -0.9614 -1.3755  0.1872
 3272SOL     OW21448   1.779   0.887   2.730  0.3572 -0.8559  0.5785
 3272SOL    HW121449   1.704   0.944   2.709  0.7370 -0.6121 -0.1140
 3272SOL    HW221450   1.845   0.910   2.665 -0.3582 -1.5028 -0.3879
 3273SOL     OW21451   0.326   4.506   3.861 -0.4230 -0.1204  0.2152
 3273SOL    HW121452   0.343   4.597   3.883 -1.3820  0.0547  0.2410
 3273SOL    HW221453   0.355   4.511   3.770  1.3438  0.7808  0.8394
 3274SOL     OW21454   4.664   3.690   7.728 -0.1938  0.8341  0.0657
 3274SOL    HW121455   4.683   3.672   7.820 -0.0460 -0.5081 -0.2288
 3274SOL    HW221456   4.618   3.772   7.744 -2.4546 -0.3530 -0.2632
 3275SOL     OW21457   3.679   2.932   2.969  0.5996  0.3665  0.2181
 3275SOL    HW121458   3.590   2.899   2.954 -0.9528  4.1302  1.0341
 3275SOL    HW221459   3.726   2.865   3.018 -1.3762 -0.3556  1.1195
 3276SOL     OW21460   3.043   4.221  17.540  0.0328 -0.3854  0.2026
 3276SOL    HW121461   3.009   4.211  17.629  0.9322 -1.2005  0.4486
 3276SOL    HW221462   2.976   4.280  17.503  0.8158  0.1033 -0.4409
 3277SOL     OW21463   2.721   0.865   9.448 -0.0380  0.2612 -0.0767
 3277SOL    HW121464   2.769   0.946   9.462  1.8488 -0.6693 -1.1538
 3277SOL    HW221465   2.795   0.805   9.457 -0.2857 -0.0282  0.0498
 3278SOL     OW21466   2.320   3.922   6.182 -0.3560 -0.3527  0.0922
 3278SOL    HW121467   2.330   3.906   6.088 -1.1031 -1.3085  0.1842
 3278SOL    HW221468   2.246   3.982   6.180  1.0163  1.3220 -0.7651
 3279SOL     OW21469   4.007   4.224  16.796  0.1339 -0.4735  0.3026
 3279SOL    HW121470   4.081   4.249  16.850 -0.4499 -1.4198  1.5393
 3279SOL    HW221471   4.048   4.237  16.710 -1.0581 -0.6875 -0.3037
 3280SOL     OW21472   3.590   1.001   3.933  1.1242 -0.0590 -0.4541
 3280SOL    HW121473   3.510   0.961   3.967  0.9290 -0.3909 -1.3101
 3280SOL    HW221474   3.635   1.027   4.013  0.8491  0.9096 -0.6093
 3281SOL     OW21475   1.662   4.348  10.975  0.3610  0.3014 -0.0250
 3281SOL    HW121476   1.694   4.263  11.004  0.0743  1.4036  3.6096
 3281SOL    HW221477   1.645   4.343  10.881 -0.7126  0.9954  0.1341
 3282SOL     OW21478   1.053   3.520  13.632  0.0002  0.2952  0.3477
 3282SOL    HW121479   1.121   3.561  13.578 -0.0921  0.4613  0.3577
 3282SOL    HW221480   0.976   3.550  13.585 -1.1736  0.8761  2.6339
 3283SOL     OW21481   4.622   1.922   3.980 -0.6366 -0.7033 -0.9952
 3283SOL    HW121482   4.539   1.968   3.995  0.3456 -0.0764  2.4064
 3283SOL    HW221483   4.669   1.936   4.062 -2.7295 -0.3705  0.1514
 3284SOL     OW21484   2.014   1.364  14.903  0.0554 -0.5610  0.0439
 3284SOL    HW121485   2.066   1.426  14.852 -2.5054  0.3644 -1.4366
 3284SOL    HW221486   2.054   1.286  14.866  0.0224  0.1415 -1.4835
 3285SOL     OW21487   1.570   1.232  15.682  0.1474  0.1237 -0.0516
 3285SOL    HW121488   1.482   1.212  15.651  0.1253 -0.1140  0.1596
 3285SOL    HW221489   1.558   1.259  15.773  1.0255 -0.2991  0.1847
 3286SOL     OW21490   2.202   0.187   5.275 -0.5236  0.2075 -0.2312
 3286SOL    HW121491   2.212   0.125   5.347 -0.7910 -0.6468 -0.9334
 3286SOL    HW221492   2.113   0.217   5.291 -0.4972  1.1727 -1.9546
 3287SOL     OW21493   3.439   3.185   5.122 -0.1852 -0.1892 -0.4881
 3287SOL    HW121494   3.442   3.230   5.206  0.2854 -0.0751 -0.5644
 3287SOL    HW221495   3.453   3.093   5.147  1.5472  0.6528  1.6795
 3288SOL     OW21496   4.559   2.153   6.898  0.1546  0.2133  0.2639
 3288SOL    HW121497   4.552   2.111   6.812  1.7372  0.8481 -0.1823
 3288SOL    HW221498   4.508   2.092   6.951  0.8738  0.6314  1.4466
 3289SOL     OW21499   3.131   3.450  15.006  0.7484  0.1592  0.0986
 3289SOL    HW121500   3.116   3.359  15.031 -0.8942  0.4141  0.0410
 3289SOL    HW221501   3.085   3.453  14.922 -1.2063  3.6642  1.3034
 3290SOL     OW21502   1.155   0.099  11.488 -0.3043 -0.3857 -0.3145
 3290SOL    HW121503   1.166   0.076  11.580  0.6988  0.2930 -0.2586
 3290SOL    HW221504   1.102   0.176  11.507 -0.0989 -0.3292  0.0257
 3291SOL     OW21505   4.089   1.930  10.614  0.0980  0.3914  0.1062
 3291SOL    HW121506   4.170   1.981  10.615  1.4699 -1.8179 -1.5557
 3291SOL    HW221507   4.078   1.933  10.519 -2.1242 -0.8428  0.3049
 3292SOL     OW21508   1.748   1.784   3.299 -0.5095 -0.6285 -0.4135
 3292SOL    HW121509   1.690   1.752   3.230 -1.7241  1.2833 -0.2968
 3292SOL    HW221510   1.689   1.845   3.344 -0.6172 -1.3015  0.3632
 3293SOL     OW21511   4.200   4.395   5.498  0.0877 -0.1388  0.4940
 3293SOL    HW121512   4.277   4.389   5.442  0.1037 -0.2185  0.5239
 3293SOL    HW221513   4.136   4.335   5.460  1.5496 -1.5816  0.2905
 3294SOL     OW21514   3.333   2.270  10.455 -0.2496  0.3953 -0.3659
 3294SOL    HW121515   3.332   2.365  10.450  0.4965  0.4853  1.3363
 3294SOL    HW221516   3.403   2.243  10.514  0.0873  2.8523  0.3153
 3295SOL     OW21517   3.859   3.008   8.248  0.7206  0.2067 -0.1794
 3295SOL    HW121518   3.773   2.967   8.241  1.1844 -0.7333 -0.3832
 3295SOL    HW221519   3.914   2.954   8.191  0.8888 -1.8796  2.0028
 3296SOL     OW21520   1.869   3.192   2.457 -0.0799  0.0835 -0.9270
 3296SOL    HW121521   1.936   3.140   2.502 -0.0255  0.8629 -0.1202
 3296SOL    HW221522   1.860   3.277   2.499  0.6067 -0.8783  1.1975
 3297SOL     OW21523   0.816   0.785   9.517  0.5300  0.3086 -0.6203
 3297SOL    HW121524   0.853   0.751   9.436 -0.0728 -0.1539 -0.6989
 3297SOL    HW221525   0.886   0.847   9.540 -0.3600  1.5878 -1.3666
 3298SOL     OW21526   3.671   1.627  15.197  0.7392 -0.7994  1.1424
 3298SOL    HW121527   3.758   1.665  15.212  0.4259  0.0988  0.6627
 3298SOL    HW221528   3.647   1.639  15.289  0.2554  1.4382  0.7387
 3299SOL     OW21529   3.352   0.537   0.947  0.4538 -0.4629 -0.0728
 3299SOL    HW121530   3.328   0.534   1.039  1.5062  1.2976  0.2569
 3299SOL    HW221531   3.289   0.601   0.914  0.8360  0.0870  0.2443
 3300SOL     OW21532   1.883   2.367   6.311  0.2946 -0.1261  0.2914
 3300SOL    HW121533   1.849   2.367   6.401  0.1670  1.0116  0.2378
 3300SOL    HW221534   1.946   2.438   6.305 -1.3866  1.2992 -0.3183
 3301SOL     OW21535   2.735   2.835   8.355 -0.2337 -0.0105 -0.2720
 3301SOL    HW121536   2.818   2.833   8.308  0.0558 -0.2490  0.2466
 3301SOL    HW221537   2.775   2.844   8.442  1.6258  0.8553 -1.2251
 3302SOL     OW21538   0.632   4.522   9.497  0.3309 -0.0543 -0.0586
 3302SOL    HW121539   0.633   4.452   9.562  1.1643 -1.1136 -1.2202
 3302SOL    HW221540   0.537   4.538   9.491  0.2051 -0.5333  0.6707
 3303SOL     OW21541   2.565   1.605   0.953  0.8929  0.4647 -0.2419
 3303SOL    HW121542   2.530   1.686   0.917  1.1379  0.6971  0.0475
 3303SOL    HW221543   2.579   1.631   1.044 -0.9278  0.9354 -0.0940
 3304SOL     OW21544   0.381   0.098  17.698  0.8403 -0.0617  0.2524
 3304SOL    HW121545   0.307   0.106  17.637 -0.3818  1.6414  1.9674
 3304SOL    HW221546   0.437   0.039  17.647  0.2639 -1.2800  1.0343
 3305SOL     OW21547   4.425   1.989   2.235 -0.0152  0.2475 -0.1026
 3305SOL    HW121548   4.449   1.984   2.143  0.1267  0.1766 -0.0629
 3305SOL    HW221549   4.484   1.929   2.281  0.5767  1.1429  0.3116
 3306SOL     OW21550   3.615   2.686   1.237  0.2969  0.0151 -0.6503
 3306SOL    HW121551   3.626   2.701   1.330  1.1638  2.2686 -1.1351
 3306SOL    HW221552   3.696   2.637   1.223  1.6421  2.6913 -2.1803
 3307SOL     OW21553   4.129   1.234  16.914  0.5375  0.0472 -0.0726
 3307SOL    HW121554   4.139   1.216  16.821  1.6136  1.9829 -0.3351
 3307SOL    HW221555   4.037   1.258  16.920 -0.2752 -2.5407 -2.3080
 3308SOL     OW21556   0.177   3.225  16.872  0.2056  0.3222 -0.1753
 3308SOL    HW121557   0.088   3.239  16.840  0.3389 -0.7763 -1.0230
 3308SOL    HW221558   0.231   3.215  16.794 -1.0573 -0.5234 -0.9475
 3309SOL     OW21559   3.436   4.041  11.584 -0.0684  0.0962 -0.3875
 3309SOL    HW121560   3.399   4.128  11.572 -3.3591 -1.4905 -1.8058
 3309SOL    HW221561   3.530   4.054  11.599 -0.1593 -1.6102  1.8125
 3310SOL     OW21562   2.775   4.578   7.149  0.0096 -0.0688 -0.1404
 3310SOL    HW121563   2.802   4.599   7.060  0.0812 -3.3241 -0.8896
 3310SOL    HW221564   2.766   4.482   7.152 -0.0827 -0.0839 -1.2376
 3311SOL     OW21565   3.670   2.335  17.609  0.1186  0.6661 -0.0567
 3311SOL    HW121566   3.676   2.418  17.657 -0.8072  0.9332 -0.3912
 3311SOL    HW221567   3.609   2.290  17.668 -0.5632  0.6100 -0.8066
 3312SOL     OW21568   0.261   4.598   9.226 -0.2907 -0.2272  0.2007
 3312SOL    HW121569   0.198   4.668   9.211 -0.0056 -0.0238 -0.0365
 3312SOL    HW221570   0.209   4.528   9.184 -0.3759  0.5124 -0.9362
 3313SOL     OW21571   2.938   1.199   9.798 -0.7113  0.0920 -0.2053
 3313SOL    HW121572   3.029   1.169   9.803 -0.3441  1.5634  2.0069
 3313SOL    HW221573   2.923   1.231   9.887 -0.1531  1.4660 -0.5943
 3314SOL     OW21574   1.894   3.050   7.829 -0.1501  0.1603  0.4837
 3314SOL    HW121575   1.863   3.063   7.740  1.4451  0.3796 -0.0419
 3314SOL    HW221576   1.833   2.986   7.866  1.3881 -1.3828  0.3871
 3315SOL     OW21577   4.081   3.929   6.847 -0.0318 -0.5177 -0.5457
 3315SOL    HW121578   4.104   4.009   6.894 -0.0447  0.4548 -2.1897
 3315SOL    HW221579   4.018   3.961   6.782 -1.8310  0.5860  1.7466
 3316SOL     OW21580   4.187   4.085   3.686  0.9272  0.1277 -0.7106
 3316SOL    HW121581   4.142   4.162   3.723  0.4795 -0.9542  1.0009
 3316SOL    HW221582   4.248   4.132   3.629 -1.5264  0.7134 -2.8777
 3317SOL     OW21583   1.007   0.719   7.726  0.1688 -0.2079  0.0067
 3317SOL    HW121584   1.011   0.803   7.772 -0.0633 -0.2988  0.1888
 3317SOL    HW221585   0.935   0.683   7.776 -1.1353  0.3054 -1.4994
 3318SOL     OW21586   3.902   2.856  11.339  0.2501 -0.4441  0.3247
 3318SOL    HW121587   3.847   2.780  11.363  2.6680 -2.4136 -0.3950
 3318SOL    HW221588   3.846   2.926  11.373 -4.0957 -2.3882 -2.9023
 3319SOL     OW21589   2.292   0.373  15.734  0.0421  0.3201  0.6451
 3319SOL    HW121590   2.358   0.438  15.757  1.1347 -0.4189 -0.3815
 3319SOL    HW221591   2.244   0.353  15.814 -0.4058 -0.8561  0.0874
 3320SOL     OW21592   0.036   2.807  16.285 -0.2479  0.1996  0.1290
 3320SOL    HW121593   4.716   2.817  16.359  0.2543 -1.8630  0.8131
 3320SOL    HW221594   0.006   2.724  16.247 -1.7520  0.0240  1.7240
 3321SOL     OW21595   1.475   2.101   3.800  0.1788 -0.4344 -0.1385
 3321SOL    HW121596   1.515   2.016   3.820  2.1270  0.6976  0.8651
 3321SOL    HW221597   1.506   2.125   3.713  0.2475  1.1646  0.3283
 3322SOL     OW21598   3.263   3.133   1.694  0.1350  0.4139  0.0069
 3322SOL    HW121599   3.182   3.161   1.738 -0.2636 -2.5775  1.2152
 3322SOL    HW221600   3.293   3.222   1.678 -0.6141  0.6528 -0.1052
 3323SOL     OW21601   3.355   0.468  13.736  0.0850  1.1978 -0.2067
 3323SOL    HW121602   3.375   0.510  13.820 -0.5334 -1.0412  1.0812
 3323SOL    HW221603   3.393   0.384  13.761  0.6074  0.8634 -2.1143
 3324SOL     OW21604   0.553   4.547   7.914 -0.3485  0.0675  0.3912
 3324SOL    HW121605   0.504   4.491   7.975  1.3618  1.0856  2.7152
 3324SOL    HW221606   0.565   4.485   7.842 -0.8253 -0.8792  1.1208
 3325SOL     OW21607   4.110   3.264   5.503  0.2215 -0.2625  0.6655
 3325SOL    HW121608   4.074   3.350   5.523 -0.5239 -0.0665 -1.5150
 3325SOL    HW221609   4.056   3.255   5.424 -2.1653 -0.6028  2.3204
 3326SOL     OW21610   2.625   0.695   9.191 -0.1039  0.8053  0.0563
 3326SOL    HW121611   2.635   0.733   9.104 -0.9746  0.3730 -0.2366
 3326SOL    HW221612   2.606   0.771   9.246 -1.0122  0.8850 -0.3707
 3327SOL     OW21613   1.773   0.382   6.247 -0.0430 -0.0925 -0.0516
 3327SOL    HW121614   1.751   0.471   6.218 -0.6141  0.5495  2.3331
 3327SOL    HW221615   1.820   0.402   6.328  1.2970  2.6296 -1.4859
 3328SOL     OW21616   3.172   1.162   6.435 -0.0073  0.2112  0.3427
 3328SOL    HW121617   3.220   1.080   6.444  0.7462  0.5020 -1.0387
 3328SOL    HW221618   3.095   1.129   6.483 -0.7423  0.3470 -0.7395
 3329SOL     OW21619   3.072   0.883   2.527  0.8918 -0.2226  0.1286
 3329SOL    HW121620   3.165   0.893   2.546  0.8040  0.6535  0.0929
 3329SOL    HW221621   3.069   0.796   2.487  0.5958 -0.5630  0.9024
 3330SOL     OW21622   1.444   2.899   9.353 -0.4747 -0.1866  0.0532
 3330SOL    HW121623   1.436   2.848   9.434  0.1554 -0.7293 -0.2256
 3330SOL    HW221624   1.399   2.843   9.291 -1.1791  2.3807 -1.7461
 3331SOL     OW21625   2.970   3.540  15.818 -0.1813 -0.1892 -0.3166
 3331SOL    HW121626   2.991   3.450  15.794  0.9180  0.5982 -2.2782
 3331SOL    HW221627   2.915   3.560  15.742 -0.8626 -0.2533  0.1544
 3332SOL     OW21628   1.183   1.040   3.588  0.0764 -0.2001  0.3176
 3332SOL    HW121629   1.242   0.965   3.593 -0.4869 -0.5833  1.1643
 3332SOL    HW221630   1.141   1.041   3.674 -1.5916  0.7657 -0.5195
 3333SOL     OW21631   1.427   2.269   8.212  0.0322 -0.4766 -0.3773
 3333SOL    HW121632   1.376   2.198   8.250  0.4546 -0.2147  0.6975
 3333SOL    HW221633   1.380   2.291   8.132  0.3453  2.2574  0.1685
 3334SOL     OW21634   3.573   1.499   8.226  0.3574  0.0779  0.4422
 3334SOL    HW121635   3.557   1.439   8.153 -3.4846  2.3573 -0.5855
 3334SOL    HW221636   3.652   1.465   8.267  0.1103  0.2104  1.0305
 3335SOL     OW21637   3.157   0.758  13.698 -0.9373 -0.0063 -0.2066
 3335SOL    HW121638   3.127   0.713  13.777 -0.7470  2.4901  1.3013
 3335SOL    HW221639   3.133   0.849  13.716 -0.9319  0.2490 -1.4515
 3336SOL     OW21640   0.421   1.038  13.962 -0.5825 -0.0684 -0.3686
 3336SOL    HW121641   0.427   1.130  13.937  0.9413 -0.0541  0.0487
 3336SOL    HW221642   0.480   1.044  14.037  0.3681  0.8155 -1.1920
 3337SOL     OW21643   1.580   2.602   7.538 -0.0334  0.3595 -0.1163
 3337SOL    HW121644   1.603   2.676   7.482 -1.7487  0.9995  0.0152
 3337SOL    HW221645   1.618   2.532   7.486  1.2566  1.3765 -0.5189
 3338SOL     OW21646   0.150   2.089   5.093 -0.3803 -0.2186 -0.0412
 3338SOL    HW121647   0.237   2.049   5.095 -0.4797 -0.5117 -1.6767
 3338SOL    HW221648   0.166   2.165   5.037  0.6945  1.6875  2.8022
 3339SOL     OW21649   0.873   1.276   7.610 -0.1899  0.8384 -0.0654
 3339SOL    HW121650   0.816   1.275   7.532 -0.5849  0.0717  0.2377
 3339SOL    HW221651   0.962   1.288   7.578  1.7852  0.0983  5.1817
 3340SOL     OW21652   3.013   3.880   4.323 -0.4687 -0.1193 -0.0846
 3340SOL    HW121653   3.104   3.865   4.298 -0.4578 -0.4850  0.1835
 3340SOL    HW221654   3.018   3.931   4.404 -1.5532 -0.8596  0.4589
 3341SOL     OW21655   4.338   3.725   4.335  0.0111 -0.8993 -0.0000
 3341SOL    HW121656   4.287   3.647   4.316 -0.7362  0.2612 -2.7639
 3341SOL    HW221657   4.387   3.692   4.410 -0.7991 -2.8606 -0.3435
 3342SOL     OW21658   2.037   4.256   8.068  0.0166 -0.4608 -0.4808
 3342SOL    HW121659   2.039   4.313   8.145  0.9500  2.4611 -2.6621
 3342SOL    HW221660   2.128   4.261   8.038  0.0090  1.4544 -0.1432
 3343SOL     OW21661   3.734   0.487   3.153  0.2937  0.0483 -0.2364
 3343SOL    HW121662   3.808   0.475   3.213 -0.9219  0.9632  1.4418
 3343SOL    HW221663   3.669   0.502   3.222  0.1080 -0.0019 -0.4029
 3344SOL     OW21664   2.882   0.325   4.638 -0.5302  0.2409 -0.0863
 3344SOL    HW121665   2.934   0.382   4.695 -1.0257  0.3594  0.2486
 3344SOL    HW221666   2.944   0.252   4.639 -0.6805  0.1159  0.1678
 3345SOL     OW21667   1.296   1.634  14.914  0.0108 -0.0897 -0.3536
 3345SOL    HW121668   1.235   1.639  14.840 -1.1985  0.6913  0.7055
 3345SOL    HW221669   1.327   1.543  14.908  2.8996  0.7723  1.6705
 3346SOL     OW21670   2.404   2.767   0.389  0.1011  0.0389  0.1662
 3346SOL    HW121671   2.366   2.832   0.330  1.0564  0.8685  0.4393
 3346SOL    HW221672   2.345   2.694   0.376 -0.5082  0.3551  1.1468
 3347SOL     OW21673   0.831   4.727  12.124  0.4451  0.8159  0.4351
 3347SOL    HW121674   0.795   0.043  12.194  1.1738  2.5384 -0.5523
 3347SOL    HW221675   0.792   0.025  12.045  0.1116 -0.8452 -0.1806
 3348SOL     OW21676   4.001   3.347   4.927  0.2149  0.0961 -0.1211
 3348SOL    HW121677   4.067   3.414   4.909  2.2324 -1.8432  0.0433
 3348SOL    HW221678   3.927   3.406   4.940 -0.1586  0.0836 -2.1663
 3349SOL     OW21679   1.753   1.717   2.377  0.7076 -0.2689 -0.0427
 3349SOL    HW121680   1.664   1.743   2.399  1.3050  1.3468  0.4683
 3349SOL    HW221681   1.773   1.764   2.296  0.0650  1.0722  0.5815
 3350SOL     OW21682   0.050   0.189   5.597 -0.5761 -0.3326 -0.2581
 3350SOL    HW121683   0.012   0.102   5.601  2.2163 -1.4632  2.0148
 3350SOL    HW221684   0.134   0.167   5.557 -0.6439 -0.3978 -0.3648
 3351SOL     OW21685   1.501   3.642   5.917 -0.0206 -0.3318  0.6309
 3351SOL    HW121686   1.535   3.555   5.900 -0.0344 -0.5764  1.8376
 3351SOL    HW221687   1.578   3.698   5.909 -1.4069  1.7703  1.8008
 3352SOL     OW21688   3.304   2.499   0.813  0.3487 -0.1932 -0.1774
 3352SOL    HW121689   3.391   2.535   0.792 -0.2516 -0.0792 -2.4216
 3352SOL    HW221690   3.316   2.404   0.803  0.1103 -0.4113  1.6751
 3353SOL     OW21691   2.757   3.542   3.703 -0.0217 -0.5978 -0.7208
 3353SOL    HW121692   2.779   3.467   3.648 -0.3120 -1.9153  0.9544
 3353SOL    HW221693   2.669   3.521   3.734 -0.3362  2.1398  0.2076
 3354SOL     OW21694   1.941   0.744   3.795 -0.3991  0.6215  0.1760
 3354SOL    HW121695   1.854   0.779   3.774 -1.1964 -2.3253 -1.4541
 3354SOL    HW221696   1.989   0.791   3.726 -3.0973  1.5495 -1.1042
 3355SOL     OW21697   1.285   3.362   4.260 -0.0521  0.0999  0.1707
 3355SOL    HW121698   1.214   3.426   4.264 -1.5622 -1.4287 -2.0549
 3355SOL    HW221699   1.244   3.283   4.224 -3.4120  0.9664  2.0948
 3356SOL     OW21700   1.771   1.434   9.047 -0.1753  0.1546  0.3266
 3356SOL    HW121701   1.694   1.489   9.044  1.5756  2.7267  2.5778
 3356SOL    HW221702   1.744   1.377   8.975  1.9529 -0.4119 -0.0345
 3357SOL     OW21703   1.580   1.812   5.794  0.0552 -0.4888 -0.0220
 3357SOL    HW121704   1.645   1.881   5.783  0.2827 -0.8763 -1.0876
 3357SOL    HW221705   1.504   1.870   5.790 -0.2097 -0.8329 -0.0084
 3358SOL     OW21706   1.308   2.222  13.136  0.1507  0.0016  0.4315
 3358SOL    HW121707   1.363   2.144  13.137  1.2755  0.8012  0.2676
 3358SOL    HW221708   1.359   2.279  13.194  0.6234  2.0184 -1.9936
 3359SOL     OW21709   2.433   0.213   2.754  0.0005  0.0880  0.2349
 3359SOL    HW121710   2.433   0.119   2.738  1.1509  0.4152 -1.6420
 3359SOL    HW221711   2.373   0.209   2.829 -0.3070 -0.6360 -0.0512
 3360SOL     OW21712   3.511   3.542   4.829  0.8954 -0.3996  0.6888
 3360SOL    HW121713   3.440   3.604   4.844  1.3222 -0.3298  2.3522
 3360SOL    HW221714   3.575   3.603   4.791  0.9601 -1.7090 -1.3269
 3361SOL     OW21715   2.559   2.571   7.799 -0.0745 -0.1597 -0.6641
 3361SOL    HW121716   2.505   2.511   7.851 -2.1657 -1.1728 -4.0036
 3361SOL    HW221717   2.491   2.635   7.777 -0.3661  0.5557  2.4041
 3362SOL     OW21718   1.253   2.384   8.005  0.0658 -0.3669  0.8047
 3362SOL    HW121719   1.207   2.301   7.994 -0.5576  0.1685 -0.5739
 3362SOL    HW221720   1.178   2.429   8.044 -0.6552 -0.6351 -0.2837
 3363SOL     OW21721   0.976   2.676   6.332 -0.2045 -0.0691 -0.2038
 3363SOL    HW121722   0.919   2.729   6.387  0.6920  0.3788  0.2997
 3363SOL    HW221723   1.062   2.704   6.364  0.3984 -1.9685 -0.1582
 3364SOL     OW21724   0.437   2.306  16.168 -0.0443  0.4589 -0.3653
 3364SOL    HW121725   0.472   2.251  16.238  0.7102  1.4899  0.0638
 3364SOL    HW221726   0.406   2.375  16.227  1.2886  0.5860  0.1962
 3365SOL     OW21727   0.482   2.686   9.137  0.0482 -0.3320  0.1681
 3365SOL    HW121728   0.427   2.666   9.062 -2.1083 -0.8779  1.8916
 3365SOL    HW221729   0.515   2.597   9.143  0.4470 -0.1592  0.6164
 3366SOL     OW21730   0.700   2.846  14.682 -0.2749  0.5147  0.0989
 3366SOL    HW121731   0.745   2.888  14.755  0.8928 -3.2794  1.5909
 3366SOL    HW221732   0.771   2.854  14.618  0.4418  0.0075  0.8276
 3367SOL     OW21733   1.793   1.017  14.534  0.4193 -0.1799 -0.1710
 3367SOL    HW121734   1.744   1.100  14.536 -1.7742 -1.5474  2.2271
 3367SOL    HW221735   1.878   1.046  14.568  0.5213  0.4548 -0.9569
 3368SOL     OW21736   1.404   3.751   1.889  0.0708  0.0775  0.3008
 3368SOL    HW121737   1.438   3.809   1.821  1.3839  1.4494  2.1051
 3368SOL    HW221738   1.385   3.670   1.843  1.9951  0.6819 -1.5621
 3369SOL     OW21739   0.344   3.444   7.861  0.2424 -0.1227 -0.1649
 3369SOL    HW121740   0.299   3.470   7.781  0.5065  0.9873  0.0517
 3369SOL    HW221741   0.333   3.350   7.875  0.2130 -0.2433 -1.0105
 3370SOL     OW21742   4.307   0.818   4.128  0.3106  0.1769 -0.3441
 3370SOL    HW121743   4.335   0.844   4.040  2.6166 -1.9239 -0.2235
 3370SOL    HW221744   4.245   0.883   4.160  1.4404 -0.8602  3.8254
 3371SOL     OW21745   0.778   3.248   4.187  0.5372 -0.2678  0.1402
 3371SOL    HW121746   0.692   3.254   4.146  0.1251  1.3104  1.2163
 3371SOL    HW221747   0.837   3.288   4.122 -0.4997 -0.1471 -0.7232
 3372SOL     OW21748   0.676   0.095  13.758 -0.0065  0.2117  0.1278
 3372SOL    HW121749   0.706   0.058  13.841  0.7030 -0.7261 -0.5533
 3372SOL    HW221750   0.603   0.152  13.780 -0.2208  0.1592 -0.4524
 3373SOL     OW21751   3.095   3.479  17.222  0.5241  0.0359  0.2551
 3373SOL    HW121752   3.069   3.425  17.148 -1.6432  1.3982  0.0091
 3373SOL    HW221753   3.181   3.450  17.253  1.3995  1.9529 -0.4099
 3374SOL     OW21754   3.370   2.838  10.510  0.4636  0.2544  0.0641
 3374SOL    HW121755   3.449   2.845  10.455  0.8242 -1.2298  0.3863
 3374SOL    HW221756   3.407   2.788  10.583 -1.4212 -1.0040  0.1591
 3375SOL     OW21757   2.868   3.439   4.554  0.0427 -0.4944  0.4195
 3375SOL    HW121758   2.810   3.367   4.578 -1.3324  0.8838  1.2143
 3375SOL    HW221759   2.895   3.405   4.469  3.3724 -1.8625  2.0205
 3376SOL     OW21760   3.074   1.299   1.494  0.0969 -0.6307  0.2391
 3376SOL    HW121761   3.003   1.277   1.555 -0.8532 -1.0343 -1.0126
 3376SOL    HW221762   3.037   1.275   1.409 -2.1366  0.6476  0.8561
 3377SOL     OW21763   0.720   1.803   9.096 -0.8881  0.3571 -0.0324
 3377SOL    HW121764   0.625   1.799   9.092 -1.0368  1.9826  1.4704
 3377SOL    HW221765   0.733   1.871   9.029  0.1005 -0.0756 -0.2759
 3378SOL     OW21766   2.643   1.645   8.475 -0.8626 -0.0474 -0.3519
 3378SOL    HW121767   2.626   1.734   8.506  0.5753  0.3377 -0.6466
 3378SOL    HW221768   2.642   1.654   8.379 -1.4375  0.9129 -0.2488
 3379SOL     OW21769   1.370   2.309  15.162 -0.2038 -0.3003 -0.0503
 3379SOL    HW121770   1.398   2.328  15.072  2.4406  0.3531  0.9076
 3379SOL    HW221771   1.357   2.215  15.150 -0.9638 -0.1029 -0.8611
 3380SOL     OW21772   0.065   2.247  16.818 -0.3099 -0.1490 -0.1531
 3380SOL    HW121773   0.045   2.272  16.908 -0.4962 -0.8883  0.0095
 3380SOL    HW221774   0.009   2.169  16.813  0.4306 -0.7212  0.5235
 3381SOL     OW21775   1.105   0.008   6.779 -0.4300  0.1822 -0.2444
 3381SOL    HW121776   1.048   0.073   6.739 -1.3295  0.1815  1.0563
 3381SOL    HW221777   1.160   0.066   6.830  0.1789  0.1646 -0.8741
 3382SOL     OW21778   1.939   2.221   4.483 -0.1804  0.0230  0.8175
 3382SOL    HW121779   1.946   2.181   4.570  1.5833 -1.8286 -0.1637
 3382SOL    HW221780   1.844   2.213   4.477  0.1134 -1.8096 -1.0557
 3383SOL     OW21781   4.527   1.812   0.917  0.0654  1.0811 -0.2367
 3383SOL    HW121782   4.495   1.770   0.837 -1.2807  0.4270  0.6420
 3383SOL    HW221783   4.619   1.831   0.898 -0.4020  2.2161 -1.3351
 3384SOL     OW21784   3.282   2.294   5.682 -0.4985 -0.4347  0.0499
 3384SOL    HW121785   3.273   2.240   5.760  0.9071  0.0873  0.5749
 3384SOL    HW221786   3.352   2.353   5.708  1.0054 -1.2034 -2.2725
 3385SOL     OW21787   4.007   2.047   9.232 -0.1418  0.0115  0.3389
 3385SOL    HW121788   4.098   2.038   9.203  0.7640  1.0027  2.8654
 3385SOL    HW221789   3.997   2.140   9.248  0.1261  0.2708 -1.0414
 3386SOL     OW21790   1.888   1.881   4.471  0.3837 -0.2126  0.0192
 3386SOL    HW121791   1.954   1.897   4.404  1.8588 -1.9957  1.0547
 3386SOL    HW221792   1.833   1.959   4.479  0.0027 -0.5652  0.8530
 3387SOL     OW21793   3.987   1.238   8.324  0.7774  0.5197 -0.2965
 3387SOL    HW121794   4.040   1.183   8.267  0.1127 -0.5305  0.1120
 3387SOL    HW221795   3.982   1.170   8.391 -1.6738  1.4219  0.4492
 3388SOL     OW21796   3.450   1.174   3.439 -0.6465  0.4590 -0.2277
 3388SOL    HW121797   3.436   1.090   3.483  0.1259  2.0563  3.0899
 3388SOL    HW221798   3.524   1.160   3.380  1.3053  3.7094  1.4242
 3389SOL     OW21799   1.237   3.621  13.473 -0.1967 -0.2656  0.4488
 3389SOL    HW121800   1.189   3.614  13.390  3.0131  1.8616 -1.5743
 3389SOL    HW221801   1.278   3.705  13.453  0.2527 -0.4779  0.4976
 3390SOL     OW21802   1.154   1.326   7.637 -0.1406  0.3426  0.1241
 3390SOL    HW121803   1.220   1.394   7.623  0.0240  0.4991  1.6779
 3390SOL    HW221804   1.143   1.343   7.730  1.8256 -1.4266  0.6827
 3391SOL     OW21805   0.936   2.705   2.710  0.8200 -0.0325 -0.1617
 3391SOL    HW121806   0.844   2.679   2.717  1.4254 -1.8927  0.8506
 3391SOL    HW221807   0.982   2.623   2.694  2.2152  0.3558  1.8308
 3392SOL     OW21808   3.414   2.550   2.205 -0.2444  0.6830 -0.0902
 3392SOL    HW121809   3.339   2.494   2.186  1.9875 -2.4589  0.4475
 3392SOL    HW221810   3.492   2.500   2.178 -1.0338  0.2670 -1.5841
 3393SOL     OW21811   0.476   3.482  15.766 -0.1563  0.3600  0.6310
 3393SOL    HW121812   0.395   3.431  15.764  1.0939 -1.7139  2.3908
 3393SOL    HW221813   0.491   3.501  15.673 -1.2391 -1.5532  0.0698
 3394SOL     OW21814   1.354   4.362   6.826 -0.1653 -0.5020 -0.9960
 3394SOL    HW121815   1.347   4.448   6.866  0.6938 -0.9846  0.2038
 3394SOL    HW221816   1.335   4.389   6.736  2.5616  1.1455 -1.0528
 3395SOL     OW21817   1.028   0.022  12.490 -0.3267  0.2355 -0.3368
 3395SOL    HW121818   1.018   0.086  12.420  0.8459  1.7021  0.8413
 3395SOL    HW221819   1.103   0.062  12.533 -0.4831  2.5286 -2.2004
 3396SOL     OW21820   1.198   1.338  13.780 -0.1542  0.1925  0.5747
 3396SOL    HW121821   1.226   1.364  13.868  0.9304 -0.3561  0.3926
 3396SOL    HW221822   1.112   1.379  13.775 -1.4746 -2.8497 -1.5608
 3397SOL     OW21823   1.430   1.395   6.798 -0.0177  0.9278 -0.0125
 3397SOL    HW121824   1.351   1.449   6.793 -0.7269 -0.0917  0.0609
 3397SOL    HW221825   1.498   1.462   6.803  1.8516 -0.8644 -1.4203
 3398SOL     OW21826   0.441   2.051  12.808  0.0736 -0.2145 -0.1468
 3398SOL    HW121827   0.500   2.021  12.878  1.4326 -0.7945 -1.5449
 3398SOL    HW221828   0.363   2.059  12.863 -0.0736 -3.9379  0.1741
 3399SOL     OW21829   1.677   3.835   9.371  0.0323  0.4534  0.3134
 3399SOL    HW121830   1.691   3.817   9.464 -2.5412  2.0687  1.0215
 3399SOL    HW221831   1.583   3.819   9.369  0.6841 -3.3492  0.4779
 3400SOL     OW21832   0.293   0.045   1.150  0.5367  0.5114 -0.2253
 3400SOL    HW121833   0.203   0.076   1.139 -0.0023 -1.0042 -0.0478
 3400SOL    HW221834   0.295   4.689   1.136  1.5143  0.4717  0.1977
 3401SOL     OW21835   0.053   2.034   3.705  0.0779  0.1453  0.4903
 3401SOL    HW121836   0.092   2.031   3.618 -1.6740  0.1299 -0.2905
 3401SOL    HW221837   4.709   1.987   3.695  0.2272 -0.1254  0.5144
 3402SOL     OW21838   3.343   4.596  11.469 -0.4356  0.8906 -0.7616
 3402SOL    HW121839   3.328   4.626  11.379 -3.4236  0.5732 -0.3592
 3402SOL    HW221840   3.334   4.503  11.450 -1.4797  0.6479  0.9222
 3403SOL     OW21841   4.597   1.920  13.534 -0.0334  0.0040  0.0646
 3403SOL    HW121842   4.678   1.928  13.585  1.4744 -5.0314 -1.5093
 3403SOL    HW221843   4.633   1.880  13.455 -0.6138  1.4357 -0.9281
 3404SOL     OW21844   1.589   4.720  16.678 -0.2715  0.7756  0.1150
 3404SOL    HW121845   1.654   0.029  16.729  1.5467 -1.5824 -0.0004
 3404SOL    HW221846   1.640   4.641  16.660  0.5859  1.2889  0.3036
 3405SOL     OW21847   1.335   4.698  11.679  0.4602  0.6725  0.4880
 3405SOL    HW121848   1.423   4.667  11.660  0.0990  0.3752 -0.7525
 3405SOL    HW221849   1.296   4.610  11.675  0.0785  0.8276  0.7971
 3406SOL     OW21850   2.174   2.913   3.395 -0.0882 -0.2667 -0.1289
 3406SOL    HW121851   2.159   2.908   3.301 -0.1586  0.5333 -0.1565
 3406SOL    HW221852   2.097   2.862   3.420 -1.0831  1.5123  0.4592
 3407SOL     OW21853   4.186   3.191  16.000 -0.0923  0.2075  0.4951
 3407SOL    HW121854   4.114   3.232  16.048  0.8694  1.9698  0.4342
 3407SOL    HW221855   4.262   3.194  16.058  0.2222  1.7396  0.0038
 3408SOL     OW21856   0.874   4.352   2.120  0.7401  0.1352 -0.3753
 3408SOL    HW121857   0.881   4.446   2.100  0.2749  0.1001 -0.7214
 3408SOL    HW221858   0.945   4.313   2.069 -0.8342 -0.6944 -1.9559
 3409SOL     OW21859   0.287   3.991   6.073 -0.1743 -0.4745 -0.2139
 3409SOL    HW121860   0.326   4.042   6.003 -3.0992  0.3585 -1.2318
 3409SOL    HW221861   0.197   3.977   6.041 -1.5064  2.1176  2.3978
 3410SOL     OW21862   1.156   2.446   2.350  0.1773  0.3829  0.7608
 3410SOL    HW121863   1.206   2.523   2.321  3.4510 -1.3183  1.9436
 3410SOL    HW221864   1.075   2.460   2.300  0.4036  0.1848  0.3358
 3411SOL     OW21865   0.638   0.052   5.009  0.1065 -0.0958  0.4001
 3411SOL    HW121866   0.577   0.010   5.071  1.3254 -1.1144  0.8990
 3411SOL    HW221867   0.651   4.721   4.945 -0.6699  0.5784 -0.5029
 3412SOL     OW21868   0.194   0.362  17.435 -0.3399  0.1177 -0.3308
 3412SOL    HW121869   0.177   0.271  17.462 -3.6817 -0.4510 -4.2674
 3412SOL    HW221870   0.287   0.373  17.452 -0.4246  1.4147 -0.7697
 3413SOL     OW21871   2.286   0.516   9.828 -0.3129 -0.3786 -0.7873
 3413SOL    HW121872   2.305   0.427   9.857 -1.9377 -0.1580  0.9629
 3413SOL    HW221873   2.350   0.528   9.759  0.7897 -3.3230 -0.2845
 3414SOL     OW21874   0.965   1.430   4.206 -0.3286  0.1132  0.1522
 3414SOL    HW121875   1.021   1.507   4.212  3.0505 -1.9762 -4.7939
 3414SOL    HW221876   1.026   1.357   4.215 -2.1800 -1.5467 -0.6967
 3415SOL     OW21877   2.378   1.809  15.329 -0.0582 -0.6536  0.1106
 3415SOL    HW121878   2.449   1.746  15.326  1.1999  0.6732  2.1838
 3415SOL    HW221879   2.304   1.750  15.345 -0.0853 -0.7768 -0.4742
 3416SOL     OW21880   1.500   3.920   2.253 -0.3300 -0.1872  0.1496
 3416SOL    HW121881   1.427   3.882   2.302 -0.7767  0.2863 -0.1511
 3416SOL    HW221882   1.502   4.008   2.292  0.8905 -0.6614  1.1789
 3417SOL     OW21883   2.815   3.427   1.580  0.2796  0.1902  0.4010
 3417SOL    HW121884   2.817   3.360   1.649 -0.2794  1.0858  1.2840
 3417SOL    HW221885   2.726   3.412   1.549 -0.4512  3.3702  1.0158
 3418SOL     OW21886   1.364   0.101  14.990 -0.3646 -0.2163  0.1338
 3418SOL    HW121887   1.290   0.150  14.954 -0.2610 -0.0150  0.1893
 3418SOL    HW221888   1.341   0.109  15.083  1.9546  1.0086  0.6067
 3419SOL     OW21889   3.104   1.875  16.018 -0.3659 -0.2743  0.0584
 3419SOL    HW121890   3.077   1.806  15.958 -0.1583  0.7394 -1.2300
 3419SOL    HW221891   3.023   1.925  16.027 -0.0558  0.0197  1.2581
 3420SOL     OW21892   0.050   3.040  14.269  0.0864 -0.2846 -0.1080
 3420SOL    HW121893   0.012   2.970  14.321 -1.1774  1.0075  0.7211
 3420SOL    HW221894   0.055   3.109  14.335 -0.5207 -2.3880  2.0971
 3421SOL     OW21895   1.123   0.708   4.359 -0.0562  0.1019 -0.9093
 3421SOL    HW121896   1.050   0.744   4.409  1.4070 -0.4229  1.6616
 3421SOL    HW221897   1.156   0.633   4.409 -0.7547  0.1173 -0.4222
 3422SOL     OW21898   1.563   0.146   1.536 -0.1352  0.5814 -0.8478
 3422SOL    HW121899   1.648   0.110   1.562 -1.8131 -2.8762 -0.1216
 3422SOL    HW221900   1.512   0.159   1.616  0.1212  2.0020 -0.9116
 3423SOL     OW21901   2.549   2.659  11.675  0.3203  0.2049 -0.0002
 3423SOL    HW121902   2.547   2.725  11.606  0.0902 -0.0120 -0.1992
 3423SOL    HW221903   2.642   2.666  11.696  0.2351  3.5280 -0.8087
 3424SOL     OW21904   1.278   3.201   9.099  0.2607 -0.2033  0.2718
 3424SOL    HW121905   1.370   3.225   9.097 -0.5768  2.8389 -1.0761
 3424SOL    HW221906   1.237   3.272   9.148  2.7675 -0.8273  3.2783
 3425SOL     OW21907   0.203   4.447  14.346 -0.3494  0.0351  0.2371
 3425SOL    HW121908   0.205   4.376  14.281  3.0366 -0.0120  0.4234
 3425SOL    HW221909   0.264   4.411  14.409 -0.6924 -0.7733  0.1065
 3426SOL     OW21910   2.868   2.371   4.937  0.4890  0.5136 -0.2003
 3426SOL    HW121911   2.839   2.450   4.983 -1.1680 -0.6408  0.7061
 3426SOL    HW221912   2.881   2.306   5.006 -2.3275 -1.1736 -1.2674
 3427SOL     OW21913   1.837   1.490  14.626 -0.0426 -0.1473 -0.3204
 3427SOL    HW121914   1.931   1.487  14.641 -0.1917  0.2509  0.6801
 3427SOL    HW221915   1.824   1.564  14.567 -0.3243 -0.2516 -0.3910
 3428SOL     OW21916   2.860   1.435   4.610 -0.3197  0.2191  0.0339
 3428SOL    HW121917   2.908   1.471   4.535 -1.4946  0.1586 -0.7504
 3428SOL    HW221918   2.768   1.451   4.588 -0.5814 -2.1911 -0.6327
 3429SOL     OW21919   0.921   1.503   2.985 -0.6216  0.5937  0.9867
 3429SOL    HW121920   0.925   1.589   3.026  0.4458  0.7176  0.6317
 3429SOL    HW221921   0.864   1.460   3.048 -0.1532  2.3172  2.5866
 3430SOL     OW21922   0.449   0.393   1.268 -0.2432  0.4225  0.2102
 3430SOL    HW121923   0.459   0.485   1.242  2.8286  0.1966  0.6889
 3430SOL    HW221924   0.353   0.398   1.274 -0.4324 -0.0110 -2.6202
 3431SOL     OW21925   3.608   1.872   2.812  0.0867 -0.7742 -0.2666
 3431SOL    HW121926   3.537   1.932   2.789  0.1071 -1.1037 -1.2034
 3431SOL    HW221927   3.571   1.787   2.788 -1.3501 -0.6140  1.4342
 3432SOL     OW21928   3.825   3.061   8.601 -0.6591  0.4483 -0.4895
 3432SOL    HW121929   3.786   3.082   8.516 -0.3064  1.4395 -0.4039
 3432SOL    HW221930   3.752   3.056   8.663 -0.9809 -1.7860 -1.0586
 3433SOL     OW21931   2.347   3.710  13.836 -0.3188  1.0979 -0.0045
 3433SOL    HW121932   2.349   3.747  13.748 -0.1217  0.1774 -0.3840
 3433SOL    HW221933   2.442   3.709  13.851 -0.8597  2.1122  3.5794
 3434SOL     OW21934   3.434   1.025  16.643  0.7305  0.4532  0.2515
 3434SOL    HW121935   3.357   1.066  16.605  0.8171  0.2197 -0.1809
 3434SOL    HW221936   3.432   0.938  16.603  2.1088 -0.0819  1.3657
 3435SOL     OW21937   3.215   1.263   3.000 -0.0200 -0.1752 -0.1865
 3435SOL    HW121938   3.155   1.338   2.995  1.6771  1.1870 -0.1873
 3435SOL    HW221939   3.233   1.248   3.092  0.0372 -1.1506 -0.3569
 3436SOL     OW21940   1.691   3.216  14.423  0.1025  0.2564  0.1386
 3436SOL    HW121941   1.727   3.265  14.349 -0.0137  0.6950  0.3720
 3436SOL    HW221942   1.615   3.270  14.445 -0.0243  0.8059 -1.6953
 3437SOL     OW21943   1.745   3.776   1.601  0.0509  0.0116 -0.0736
 3437SOL    HW121944   1.798   3.836   1.652  1.0564  0.0390 -1.1685
 3437SOL    HW221945   1.803   3.701   1.586 -0.2131 -0.3060  0.4637
 3438SOL     OW21946   1.439   1.382   8.842  0.0074 -0.1179 -0.3082
 3438SOL    HW121947   1.481   1.465   8.862 -0.7547  0.1031  0.3885
 3438SOL    HW221948   1.355   1.414   8.809 -0.0064 -1.7142 -1.7994
 3439SOL     OW21949   2.815   4.648   8.420 -0.2123  0.1091 -0.1036
 3439SOL    HW121950   2.793   4.730   8.375  0.2918 -0.6195 -1.6682
 3439SOL    HW221951   2.791   4.583   8.355  1.6672 -1.4587  0.7697
 3440SOL     OW21952   4.534   2.587   7.323 -0.0699 -0.0244  0.1863
 3440SOL    HW121953   4.563   2.647   7.391  1.7030  0.5461 -1.0753
 3440SOL    HW221954   4.438   2.588   7.330 -0.0021  1.5271  0.7859
 3441SOL     OW21955   1.699   3.299   8.042 -0.1539 -0.5141 -0.4592
 3441SOL    HW121956   1.757   3.232   8.078 -0.3286 -0.3595  0.1084
 3441SOL    HW221957   1.697   3.361   8.115  2.0694 -0.3704 -0.5291
 3442SOL     OW21958   1.675   1.712   6.470  0.5464  0.1376  0.3499
 3442SOL    HW121959   1.692   1.734   6.562  1.1656  1.7752 -0.1701
 3442SOL    HW221960   1.630   1.791   6.441  1.5544 -0.0541 -1.7190
 3443SOL     OW21961   4.630   0.939   1.773 -0.5504 -1.2564 -0.0231
 3443SOL    HW121962   4.607   0.956   1.682 -0.4615 -1.5067 -0.0910
 3443SOL    HW221963   4.556   0.977   1.821 -1.5495 -0.7240 -1.9637
 3444SOL     OW21964   4.396   3.543   0.003 -0.4158  0.0297 -0.8013
 3444SOL    HW121965   4.399   3.564   0.097 -2.0830 -1.8838 -0.3198
 3444SOL    HW221966   4.388   3.635  17.729 -0.7015  0.5398  0.9564
 3445SOL     OW21967   3.909   3.449   7.358 -0.1133  0.0064  0.0479
 3445SOL    HW121968   3.855   3.512   7.311 -2.3438 -0.9664  1.3087
 3445SOL    HW221969   3.896   3.366   7.311 -0.9864  0.2015 -0.0421
 3446SOL     OW21970   1.922   0.173   1.161 -0.1802 -0.6087 -0.2502
 3446SOL    HW121971   1.969   0.101   1.119 -1.8115 -1.5406 -0.5006
 3446SOL    HW221972   1.862   0.197   1.089 -1.0822  1.3720  1.1733
 3447SOL     OW21973   2.630   4.155  17.725 -0.2076  0.3633  0.0689
 3447SOL    HW121974   2.549   4.173  17.678 -1.4504  0.8285  2.3960
 3447SOL    HW221975   2.658   4.085  17.666  0.5275 -0.1008  0.9731
 3448SOL     OW21976   0.574   0.881   2.415 -0.0729 -0.3322  0.5165
 3448SOL    HW121977   0.654   0.829   2.418 -1.1869 -2.0410  0.2584
 3448SOL    HW221978   0.549   0.875   2.323 -0.3289  2.2735  0.4263
 3449SOL     OW21979   0.034   2.384   4.093 -0.4098 -0.2366 -0.1739
 3449SOL    HW121980   0.077   2.303   4.064 -1.7846 -0.3421 -1.9214
 3449SOL    HW221981   0.089   2.445   4.045 -0.4465 -0.3680 -0.3812
 3450SOL     OW21982   3.837   2.747   6.147  0.0511 -0.0115  0.0290
 3450SOL    HW121983   3.745   2.769   6.134 -0.3420 -3.1160 -2.2421
 3450SOL    HW221984   3.862   2.729   6.056 -1.0660 -1.6987  0.0666
 3451SOL     OW21985   2.767   0.062  16.243  0.2379 -0.1433  0.5128
 3451SOL    HW121986   2.723   4.724  16.205 -0.3859 -0.1696  1.2842
 3451SOL    HW221987   2.699   0.128  16.232  0.4387  0.2933  1.8904
 3452SOL     OW21988   3.030   1.583   5.066 -0.0477 -0.5243 -0.3920
 3452SOL    HW121989   2.989   1.528   5.000  1.2633  0.2589 -1.8509
 3452SOL    HW221990   3.032   1.524   5.141  0.1613  0.0932  0.0953
 3453SOL     OW21991   2.295   0.043   6.156 -0.2098  0.1553 -0.2008
 3453SOL    HW121992   2.271   0.071   6.245  1.3120  2.3407 -0.4731
 3453SOL    HW221993   2.328   0.128   6.125  2.2498 -0.7275  0.0185
 3454SOL     OW21994   1.426   3.491  13.633  0.1650  0.3585 -0.5740
 3454SOL    HW121995   1.515   3.513  13.605  1.2036 -1.6535  1.1624
 3454SOL    HW221996   1.369   3.532  13.567  0.1671  0.7353 -0.3437
 3455SOL     OW21997   2.420   1.589   7.363 -0.3748  0.1705  0.2244
 3455SOL    HW121998   2.425   1.649   7.437  1.8321  0.3573 -0.0920
 3455SOL    HW221999   2.391   1.511   7.410 -0.5058  1.3226  2.0603
 3456SOL     OW22000   2.795   1.029  16.242 -0.0114  0.4037 -0.6776
 3456SOL    HW122001   2.843   0.980  16.308 -0.5235  0.1253 -0.5164
 3456SOL    HW222002   2.815   1.119  16.266 -0.6854 -0.0130  1.4239
 3457SOL     OW22003   4.680   0.778   7.107 -0.5313  0.6711  0.1665
 3457SOL    HW122004   4.698   0.807   7.196 -1.1053 -1.3948  0.9579
 3457SOL    HW222005   0.014   0.821   7.063  1.2460  0.5648  2.9992
 3458SOL     OW22006   2.009   0.334   6.964 -0.0870 -0.4009 -0.1354
 3458SOL    HW122007   1.940   0.283   6.921  1.2182 -1.0085 -1.4982
 3458SOL    HW222008   1.997   0.299   7.052  0.9283 -0.6274 -0.0974
 3459SOL     OW22009   1.565   0.773  10.302 -0.5363  0.0476 -0.3844
 3459SOL    HW122010   1.642   0.718  10.321 -0.7322  0.1088  0.6132
 3459SOL    HW222011   1.608   0.855  10.325 -0.1704 -0.3065  0.2229
 3460SOL     OW22012   0.182   2.857   8.370 -0.2464  0.5737  0.5720
 3460SOL    HW122013   0.181   2.952   8.382 -0.6131  0.5891  0.4126
 3460SOL    HW222014   0.224   2.832   8.453 -0.0852  1.7359  0.8326
 3461SOL     OW22015   0.325   2.544  15.470  1.2865 -0.6145  0.6275
 3461SOL    HW122016   0.312   2.608  15.540  2.9842 -0.9598  1.2553
 3461SOL    HW222017   0.371   2.472  15.514  1.1498  0.3424  2.3083
 3462SOL     OW22018   2.189   1.534  10.552  0.5644 -0.0523 -0.1670
 3462SOL    HW122019   2.140   1.496  10.478 -1.8017  1.2477  0.7239
 3462SOL    HW222020   2.122   1.597  10.578  0.0091 -1.0233  0.7567
 3463SOL     OW22021   1.187   3.548   2.454 -0.0568  0.0428  0.0707
 3463SOL    HW122022   1.143   3.560   2.538 -2.0971 -1.5813 -0.7701
 3463SOL    HW222023   1.122   3.566   2.387  0.2770  0.1366 -0.2294
 3464SOL     OW22024   1.748   1.561  16.273  0.2832  0.3378  0.0881
 3464SOL    HW122025   1.657   1.548  16.302  0.9570  2.9077  3.2832
 3464SOL    HW222026   1.778   1.470  16.277  0.3979  0.3579 -0.3113
 3465SOL     OW22027   4.665   2.738   3.984  0.7334  0.4580  0.8690
 3465SOL    HW122028   4.693   2.828   3.999  1.7160  0.3175 -0.1773
 3465SOL    HW222029   4.634   2.710   4.070 -1.9706 -0.5465 -0.4227
 3466SOL     OW22030   0.599   0.280   8.172  0.3558  0.1224  0.0375
 3466SOL    HW122031   0.676   0.336   8.183  0.9466 -1.0899  2.1362
 3466SOL    HW222032   0.643   0.215   8.117  0.8094  0.5731 -0.1281
 3467SOL     OW22033   1.786   4.177  13.783 -0.2045 -0.1205 -0.3345
 3467SOL    HW122034   1.723   4.107  13.800  0.4780 -0.8030 -0.6179
 3467SOL    HW222035   1.813   4.192  13.874  3.1248 -1.3953 -1.0975
 3468SOL     OW22036   0.971   1.065   7.412 -0.8059  0.4507  0.0219
 3468SOL    HW122037   0.939   1.094   7.326 -0.5687 -0.2460 -0.3013
 3468SOL    HW222038   0.901   1.001   7.423  0.7949 -1.4002 -0.5208
 3469SOL     OW22039   4.315   3.007  11.376  0.2581 -0.0396  0.3431
 3469SOL    HW122040   4.358   2.922  11.385  0.4198  0.0356  0.2684
 3469SOL    HW222041   4.312   3.018  11.281  0.7939 -3.0623 -0.0065
 3470SOL     OW22042   2.116   3.534  13.715  0.1065 -0.5596 -0.0782
 3470SOL    HW122043   2.121   3.498  13.803  0.7156 -0.1069  0.0750
 3470SOL    HW222044   2.038   3.588  13.723  0.7117 -0.0244  2.1891
 3471SOL     OW22045   1.060   2.632   1.175  0.1274  0.2149  0.1102
 3471SOL    HW122046   1.010   2.593   1.103  0.3990 -0.1327  0.1104
 3471SOL    HW222047   1.129   2.666   1.118 -0.3724 -1.1942 -1.3296
 3472SOL     OW22048   2.624   2.181   7.845  0.1434 -0.7593  0.3107
 3472SOL    HW122049   2.577   2.128   7.909 -0.5627 -0.7461 -0.1954
 3472SOL    HW222050   2.713   2.167   7.875  0.3178  0.3502  0.3059
 3473SOL     OW22051   3.459   3.773   2.116  0.3915 -0.0181  0.1590
 3473SOL    HW122052   3.544   3.790   2.157  0.7264 -0.2256 -0.4485
 3473SOL    HW222053   3.442   3.684   2.146  0.9607 -0.1630  0.0493
 3474SOL     OW22054   3.108   1.970   1.938 -0.2295 -0.3787  0.3424
 3474SOL    HW122055   3.062   2.001   1.860  1.0674  0.9548  0.1206
 3474SOL    HW222056   3.197   1.995   1.916 -0.3058 -1.6775 -1.4555
 3475SOL     OW22057   4.597   4.059   2.202 -0.7217 -0.0965  0.0313
 3475SOL    HW122058   4.574   4.100   2.119  0.2450 -1.4348 -0.9006
 3475SOL    HW222059   4.522   4.002   2.218  0.2280 -1.8080 -1.6548
 3476SOL     OW22060   0.065   4.668   4.857 -0.3100 -0.1609  0.4336
 3476SOL    HW122061   0.079   4.618   4.776 -2.0475 -1.2945  0.8244
 3476SOL    HW222062   0.012   0.004   4.829 -0.4410  0.0180  1.1714
 3477SOL     OW22063   1.336   0.501   0.855 -1.1116 -0.1960 -0.7398
 3477SOL    HW122064   1.392   0.425   0.840  0.3395  1.3079 -2.8837
 3477SOL    HW222065   1.251   0.458   0.864 -1.5470  0.3305 -2.2954
 3478SOL     OW22066   3.529   4.165   4.651 -0.2281 -0.0092  0.0966
 3478SOL    HW122067   3.488   4.128   4.574  1.5274  1.5256 -1.5682
 3478SOL    HW222068   3.487   4.251   4.656  1.4411  0.8192  0.1071
 3479SOL     OW22069   1.392   3.177   4.463 -0.4637 -0.5354  0.0330
 3479SOL    HW122070   1.403   3.087   4.434 -0.8584 -0.4908 -0.2616
 3479SOL    HW222071   1.381   3.225   4.381 -0.4012 -0.0104  0.3250
 3480SOL     OW22072   3.978   0.040   8.647 -0.0879 -0.0043  0.6549
 3480SOL    HW122073   4.045   0.065   8.711  0.7391  1.3178 -0.7569
 3480SOL    HW222074   3.952   4.695   8.686 -1.9244 -0.8161 -2.3490
 3481SOL     OW22075   2.635   2.281  14.394 -0.1079 -0.1615  0.1439
 3481SOL    HW122076   2.675   2.199  14.364 -0.1163 -0.8320  1.9952
 3481SOL    HW222077   2.576   2.247  14.462 -0.2796 -1.0048 -0.4193
 3482SOL     OW22078   4.301   2.879   7.445  0.5167  0.0590  0.0335
 3482SOL    HW122079   4.268   2.810   7.386 -0.5566  1.4569 -1.0048
 3482SOL    HW222080   4.379   2.830   7.469 -0.1298 -0.4559  1.0997
 3483SOL     OW22081   2.436   1.300   2.519 -0.0554  0.4528  0.2806
 3483SOL    HW122082   2.345   1.273   2.509  0.0037 -0.0969  1.2504
 3483SOL    HW222083   2.473   1.300   2.431  1.2386 -1.2795  0.8170
 3484SOL     OW22084   2.728   1.277   1.593  0.3295 -0.6765  0.1137
 3484SOL    HW122085   2.639   1.311   1.598 -0.4523 -2.4765 -1.4839
 3484SOL    HW222086   2.707   1.192   1.553 -3.1508 -0.0474  0.5439
 3485SOL     OW22087   2.007   0.908   3.556 -0.2663 -0.3814  0.3967
 3485SOL    HW122088   1.956   0.883   3.480 -2.6739 -2.7308  2.7975
 3485SOL    HW222089   2.094   0.885   3.524 -1.1527 -0.0428 -2.2107
 3486SOL     OW22090   0.993   3.529   5.041 -0.3937 -0.4307  0.0195
 3486SOL    HW122091   0.974   3.530   5.135 -2.4599  1.4950 -0.4342
 3486SOL    HW222092   0.917   3.579   5.013  0.9937 -0.2160 -3.2909
 3487SOL     OW22093   1.714   3.690   6.531  0.3450 -0.4949  0.1466
 3487SOL    HW122094   1.672   3.683   6.617  0.8894 -1.0574  0.3609
 3487SOL    HW222095   1.667   3.614   6.495  0.6361 -1.1847  1.2323
 3488SOL     OW22096   1.492   0.513   2.027  0.1278 -0.2817 -0.5564
 3488SOL    HW122097   1.450   0.599   2.037 -2.0757 -1.7063  2.2176
 3488SOL    HW222098   1.581   0.548   2.026 -1.2324  3.1469 -2.7227
 3489SOL     OW22099   3.441   3.955   2.520  0.0817 -0.2071  0.4058
 3489SOL    HW122100   3.527   3.981   2.487 -1.3990  2.1408 -1.5827
 3489SOL    HW222101   3.392   3.995   2.448 -0.5257 -1.3494  0.1834
 3490SOL     OW22102   3.793   2.830   0.666 -0.1232 -0.2879 -0.3153
 3490SOL    HW122103   3.821   2.785   0.746 -1.9717  0.4133  0.7401
 3490SOL    HW222104   3.827   2.919   0.683  3.0571 -1.7456  1.0012
 3491SOL     OW22105   2.984   0.926   3.696  0.1416 -0.2214  0.1844
 3491SOL    HW122106   3.000   0.876   3.616  1.6013  1.5333 -0.6042
 3491SOL    HW222107   2.918   0.868   3.735 -0.0555 -0.0377  0.1240
 3492SOL     OW22108   1.861   3.866   5.469  0.4924 -0.2263 -0.0728
 3492SOL    HW122109   1.813   3.800   5.520 -0.5583 -0.0564 -0.8499
 3492SOL    HW222110   1.849   3.843   5.377  1.7014 -0.5799 -0.1347
 3493SOL     OW22111   2.451   1.282   1.629  0.0113 -0.3998 -0.1321
 3493SOL    HW122112   2.389   1.251   1.562 -4.0358  2.9899  2.0944
 3493SOL    HW222113   2.416   1.370   1.640  1.7872  0.2566  0.2316
 3494SOL     OW22114   3.249   1.817   3.776 -0.2711  0.0530  0.0550
 3494SOL    HW122115   3.221   1.908   3.767 -1.7691 -0.2361  1.8562
 3494SOL    HW222116   3.333   1.832   3.732 -0.2675  0.3351  0.1633
 3495SOL     OW22117   2.462   2.949   7.337  0.3473  0.0089 -0.0002
 3495SOL    HW122118   2.497   2.862   7.320  3.1011  1.7261 -3.3120
 3495SOL    HW222119   2.414   2.922   7.416 -1.7162  1.2970 -0.8137
 3496SOL     OW22120   2.082   0.250   1.735  0.1405 -0.5154 -0.0642
 3496SOL    HW122121   2.066   0.208   1.819 -1.9098 -0.1485 -0.2619
 3496SOL    HW222122   2.172   0.225   1.713 -0.2444 -1.1523 -0.8951
 3497SOL     OW22123   2.312   4.598  14.932 -0.2801 -0.1886 -0.5454
 3497SOL    HW122124   2.325   4.686  14.898 -0.1874 -0.2437 -0.6532
 3497SOL    HW222125   2.238   4.566  14.880 -0.7252 -1.2420  0.7580
 3498SOL     OW22126   2.977   1.677   7.424  0.9475  0.6599  0.0649
 3498SOL    HW122127   2.888   1.649   7.403  1.4636  0.0753 -1.3254
 3498SOL    HW222128   3.015   1.675   7.337  0.3666  3.4291 -0.2615
 3499SOL     OW22129   4.014   0.433   6.707  0.1565 -0.0574  0.2884
 3499SOL    HW122130   3.965   0.395   6.780  0.5612 -0.2484  0.4597
 3499SOL    HW222131   3.988   0.378   6.633  0.5490 -1.2165  1.0031
 3500SOL     OW22132   1.322   1.640   8.613 -0.0264  0.1974  0.0854
 3500SOL    HW122133   1.401   1.616   8.566 -1.3393 -1.2086 -1.3688
 3500SOL    HW222134   1.358   1.710   8.668 -1.0453  1.1238 -0.4274
 3501SOL     OW22135   3.061   0.309  11.108 -0.1059  0.1406 -0.1667
 3501SOL    HW122136   2.985   0.261  11.077 -1.0284  0.4227  1.6838
 3501SOL    HW222137   3.114   0.233  11.134  0.4138  0.3461 -0.6353
 3502SOL     OW22138   2.866   1.728   1.045  0.0531  1.2492  0.1505
 3502SOL    HW122139   2.853   1.652   0.988 -0.3963  3.5856 -2.8675
 3502SOL    HW222140   2.891   1.681   1.125  1.4878 -2.8009 -2.6495
 3503SOL     OW22141   4.057   2.471   7.440 -0.0504 -0.2049  0.3679
 3503SOL    HW122142   4.065   2.460   7.535  1.4110 -0.0320  0.2784
 3503SOL    HW222143   4.039   2.380   7.420 -2.7807  0.5676 -0.6850
 3504SOL     OW22144   0.072   4.010  11.161 -0.0799 -0.1490  0.2381
 3504SOL    HW122145   4.720   3.979  11.160 -0.4922  1.0087  2.1277
 3504SOL    HW222146   0.103   3.970  11.079  1.7407  0.8964  0.4381
 3505SOL     OW22147   2.415   3.163   8.865  0.3265  0.2445  0.2106
 3505SOL    HW122148   2.431   3.240   8.918  0.8041  0.0086  0.4029
 3505SOL    HW222149   2.385   3.108   8.937  2.3785 -2.6131 -1.1273
 3506SOL     OW22150   2.169   1.504   4.757  0.9527 -0.1713 -0.1375
 3506SOL    HW122151   2.074   1.508   4.767  0.9117 -2.1636  0.2034
 3506SOL    HW222152   2.182   1.582   4.702  0.1426 -1.3709 -2.0389
 3507SOL     OW22153   4.177   4.620   3.250  0.3467 -0.6759 -0.6127
 3507SOL    HW122154   4.089   4.589   3.269 -0.1935  1.1654 -0.1179
 3507SOL    HW222155   4.168   4.648   3.159 -0.8973 -0.2247 -0.3499
 3508SOL     OW22156   1.272   2.378  13.502  0.1303  0.7307  0.0501
 3508SOL    HW122157   1.191   2.365  13.454  0.5090 -1.3560 -0.0050
 3508SOL    HW222158   1.332   2.360  13.430 -0.3307 -0.1983 -0.0898
 3509SOL     OW22159   1.979   2.643   1.911 -0.0259  0.2633 -0.0998
 3509SOL    HW122160   2.002   2.589   1.987 -3.5587  0.6170  1.2279
 3509SOL    HW222161   1.919   2.583   1.866  1.0984 -1.0370  0.1203
 3510SOL     OW22162   1.576   2.715   3.720 -0.4706  0.0119  0.3048
 3510SOL    HW122163   1.643   2.654   3.754 -0.6788 -0.6399 -0.4640
 3510SOL    HW222164   1.629   2.793   3.736  0.7587 -1.0937  1.6993
 3511SOL     OW22165   2.384   0.553   8.592  0.2740 -0.1533 -0.3321
 3511SOL    HW122166   2.311   0.565   8.653  2.0795  2.2873  1.3604
 3511SOL    HW222167   2.405   0.645   8.576 -1.5086  0.1689 -0.7883
 3512SOL     OW22168   2.372   3.589   9.893 -0.6004 -0.1512  0.0059
 3512SOL    HW122169   2.288   3.562   9.931 -0.8414 -0.6270 -0.8603
 3512SOL    HW222170   2.337   3.663   9.843  0.9144 -0.8342 -2.0632
 3513SOL     OW22171   1.509   0.581  15.251 -0.2848 -0.1253 -0.3360
 3513SOL    HW122172   1.580   0.644  15.244 -1.6908  1.5445  0.2585
 3513SOL    HW222173   1.478   0.581  15.161 -1.3872 -1.1789  0.0385
 3514SOL     OW22174   1.331   4.193   7.632  0.4444  0.0293 -0.0050
 3514SOL    HW122175   1.422   4.190   7.661  0.1951  0.6856  0.8515
 3514SOL    HW222176   1.291   4.213   7.717  2.1507 -0.4799  0.8992
 3515SOL     OW22177   3.950   1.922  13.347  0.0670 -0.9871  0.1355
 3515SOL    HW122178   3.978   1.874  13.424  0.2279 -1.7281 -0.3853
 3515SOL    HW222179   3.962   2.012  13.376 -0.0961 -1.1698  0.7759
 3516SOL     OW22180   1.088   3.577  13.235 -0.4475 -0.2536 -0.4648
 3516SOL    HW122181   1.064   3.665  13.208 -0.0126 -0.3408 -1.1232
 3516SOL    HW222182   1.136   3.549  13.158 -0.5207  1.4043 -1.1058
 3517SOL     OW22183   0.627   1.080   6.825  0.2840  0.0687  0.3084
 3517SOL    HW122184   0.618   1.166   6.867  1.8652 -0.1211  1.0138
 3517SOL    HW222185   0.651   1.025   6.899  0.4172 -1.0769 -0.5863
 3518SOL     OW22186   4.073   2.164   1.842  0.2748 -0.2515 -0.4299
 3518SOL    HW122187   3.992   2.114   1.848 -0.8118  1.2075 -3.0705
 3518SOL    HW222188   4.132   2.092   1.818  0.2016 -0.8487  1.1445
 3519SOL     OW22189   3.812   0.236   2.176  0.2293  0.0815 -0.1057
 3519SOL    HW122190   3.765   0.302   2.228 -0.2437  0.9813 -1.6698
 3519SOL    HW222191   3.743   0.201   2.119 -2.0748 -0.0216  2.7526
 3520SOL     OW22192   3.283   2.349  14.037 -0.6717  0.0967  0.2671
 3520SOL    HW122193   3.201   2.341  13.990 -1.7032 -0.6386  2.1658
 3520SOL    HW222194   3.341   2.313  13.970 -0.8197 -1.3118  0.8828
 3521SOL     OW22195   2.167   4.405  11.866 -0.2291 -0.2938 -0.1066
 3521SOL    HW122196   2.237   4.442  11.811  0.2744 -3.5173 -1.6628
 3521SOL    HW222197   2.130   4.480  11.913  1.0538 -1.2840  2.5001
 3522SOL     OW22198   3.198   1.426   0.507 -0.2129 -0.0193 -0.3745
 3522SOL    HW122199   3.260   1.356   0.487 -0.1953 -0.2548  0.5364
 3522SOL    HW222200   3.110   1.388   0.517 -0.6535  1.4416  1.3090
 3523SOL     OW22201   1.526   2.247   5.645 -0.1837 -0.0967  0.7236
 3523SOL    HW122202   1.491   2.169   5.686  1.5528 -0.2872  1.8672
 3523SOL    HW222203   1.473   2.319   5.678  1.5903  0.7147  1.8009
 3524SOL     OW22204   0.330   1.029   6.623 -0.3603  0.2916 -0.2821
 3524SOL    HW122205   0.404   0.969   6.620 -2.9761 -2.9424  0.5935
 3524SOL    HW222206   0.255   0.978   6.653 -0.6136  1.3887  0.9327
 3525SOL     OW22207   4.672   3.098  17.647 -0.1868  0.1650 -0.3604
 3525SOL    HW122208   4.646   3.041  17.574  0.8455  0.3033 -0.8359
 3525SOL    HW222209   0.028   3.093  17.639  0.0203  2.5548  0.6759
 3526SOL     OW22210   0.687   2.526   5.711  0.0200  0.1945 -0.4017
 3526SOL    HW122211   0.746   2.588   5.755 -0.6031  1.7495 -1.7414
 3526SOL    HW222212   0.753   2.466   5.675 -0.1601 -0.0148 -0.3807
 3527SOL     OW22213   0.796   2.682   4.445  0.1639  0.8187 -0.1444
 3527SOL    HW122214   0.859   2.727   4.388 -1.3790  1.0685 -1.6645
 3527SOL    HW222215   0.837   2.596   4.448 -0.3147  0.6704  1.5942
 3528SOL     OW22216   2.115   0.461  13.659  0.0077  0.2942  0.0755
 3528SOL    HW122217   2.071   0.378  13.680  0.9561 -0.8199 -2.2707
 3528SOL    HW222218   2.107   0.502  13.745 -1.7077  2.3622 -1.0683
 3529SOL     OW22219   0.027   4.160   8.274  0.0683 -0.2283 -0.5205
 3529SOL    HW122220   4.724   4.121   8.351 -1.1950  0.4976 -0.8491
 3529SOL    HW222221   0.062   4.243   8.306 -0.2617 -0.0011 -0.7460
 3530SOL     OW22222   4.427   2.949   2.360 -0.0443 -0.5593  0.4018
 3530SOL    HW122223   4.461   2.920   2.275 -0.3667  1.0016 -0.2583
 3530SOL    HW222224   4.333   2.937   2.345 -0.2485  2.5538 -0.8580
 3531SOL     OW22225   2.290   0.935   1.761 -0.0810 -0.2176 -0.2834
 3531SOL    HW122226   2.384   0.922   1.746 -0.0769  1.1495 -1.4620
 3531SOL    HW222227   2.287   0.880   1.839  0.8673 -0.5011 -0.4417
 3532SOL     OW22228   1.318   4.607   6.998  0.0809  0.7187  0.2029
 3532SOL    HW122229   1.384   4.642   6.938 -0.8197 -0.3298 -1.4323
 3532SOL    HW222230   1.260   4.683   6.999 -0.9257 -0.0304 -0.0141
 3533SOL     OW22231   2.398   1.767  11.748  0.7166 -0.8630  0.5831
 3533SOL    HW122232   2.345   1.703  11.795  1.7273 -1.1894  1.2740
 3533SOL    HW222233   2.383   1.845  11.801 -0.1831 -1.2023  0.8260
 3534SOL     OW22234   2.047   2.098   7.823 -0.3014 -0.5968  0.2105
 3534SOL    HW122235   2.028   2.006   7.842  2.3143 -1.2064 -0.1002
 3534SOL    HW222236   2.010   2.142   7.899 -0.1859 -0.4172  0.1624
 3535SOL     OW22237   4.248   3.533   1.402  0.0578 -0.1255  0.4790
 3535SOL    HW122238   4.175   3.545   1.464  0.8869  0.6745  1.3094
 3535SOL    HW222239   4.235   3.440   1.383  0.0639  0.0341 -0.3071
 3536SOL     OW22240   2.935   3.298  12.982  0.2989 -0.1564  0.0269
 3536SOL    HW122241   2.897   3.279  12.896 -1.1618 -2.1330  1.1371
 3536SOL    HW222242   2.929   3.217  13.031  0.9451 -1.5263 -2.1508
 3537SOL     OW22243   3.056   3.869   5.871  0.2903 -0.3859  0.4909
 3537SOL    HW122244   3.036   3.856   5.778  2.4251  0.4285 -0.0819
 3537SOL    HW222245   3.150   3.870   5.857  0.1024  0.6572 -0.6782
 3538SOL     OW22246   3.980   4.147   0.348 -0.2884 -0.3834  0.0101
 3538SOL    HW122247   3.919   4.164   0.419  1.1088 -3.0256  1.8759
 3538SOL    HW222248   4.061   4.138   0.399 -0.3736  0.4571  0.2894
 3539SOL     OW22249   0.562   0.742  10.956  0.3334 -0.2614 -0.0022
 3539SOL    HW122250   0.640   0.696  10.922 -1.2868 -2.7284 -0.4125
 3539SOL    HW222251   0.548   0.805  10.886 -0.4920 -0.8720 -0.3825
 3540SOL     OW22252   0.241   0.564   4.361  0.3868 -0.3886 -0.2401
 3540SOL    HW122253   0.332   0.588   4.343  0.7666 -2.0027 -0.4323
 3540SOL    HW222254   0.228   0.563   4.456 -0.4497  0.0899 -0.3485
 3541SOL     OW22255   3.256   0.688   3.893  0.4048 -0.8780  0.0856
 3541SOL    HW122256   3.223   0.655   3.810  3.5645 -2.9662 -0.3625
 3541SOL    HW222257   3.227   0.618   3.952 -1.4812 -0.2187 -0.0778
 3542SOL     OW22258   0.509   0.919   3.127 -0.0386 -0.0872 -0.2843
 3542SOL    HW122259   0.441   0.916   3.060 -0.4247 -0.9217  0.1403
 3542SOL    HW222260   0.528   1.013   3.128 -0.0698 -0.0821 -0.1477
 3543SOL     OW22261   2.626   3.329   2.433  0.2458 -0.0688 -0.1204
 3543SOL    HW122262   2.578   3.261   2.479 -1.4584  2.0062  1.1580
 3543SOL    HW222263   2.570   3.406   2.444  2.3407  1.4285  0.1809
 3544SOL     OW22264   2.062   3.614  15.415 -0.0260  0.0470 -0.0671
 3544SOL    HW122265   2.135   3.674  15.397  2.1833 -2.0971  1.7979
 3544SOL    HW222266   2.021   3.621  15.328 -0.1064 -1.3789 -0.1436
 3545SOL     OW22267   0.472   4.593   3.474 -0.1542  0.0560  0.5148
 3545SOL    HW122268   0.414   4.535   3.523  1.8759 -0.9371  1.7235
 3545SOL    HW222269   0.537   4.534   3.436  0.5981  0.6653  0.8384
 3546SOL     OW22270   0.155   0.229   4.042  0.5179 -0.6371 -0.2919
 3546SOL    HW122271   0.091   0.231   3.971 -1.7971  0.8209  1.8411
 3546SOL    HW222272   0.175   0.135   4.039  4.0493  0.0948  0.9546
 3547SOL     OW22273   0.185   3.544   2.630  0.3528  0.0717 -0.0406
 3547SOL    HW122274   0.164   3.469   2.685  0.9090 -1.3631 -1.7610
 3547SOL    HW222275   0.231   3.504   2.556  0.3918 -0.1671  0.1113
 3548SOL     OW22276   1.615   3.445   2.275 -0.4544  0.1557 -0.2244
 3548SOL    HW122277   1.634   3.484   2.189  0.9425 -1.5848 -0.6910
 3548SOL    HW222278   1.527   3.408   2.272 -0.4897  0.2308 -0.1189
 3549SOL     OW22279   0.926   0.855  15.384  0.5003  0.4256 -0.1509
 3549SOL    HW122280   0.889   0.942  15.398  1.3557  0.7441  0.1527
 3549SOL    HW222281   1.015   0.871  15.415  0.6230  1.7816 -1.2275
 3550SOL     OW22282   0.988   0.882   2.699 -0.7116  0.1142 -0.5588
 3550SOL    HW122283   1.081   0.882   2.675  0.2344 -0.1525  3.1071
 3550SOL    HW222284   0.955   0.805   2.652 -3.0244 -0.7149  2.4193
 3551SOL     OW22285   1.472   0.190   2.876  0.6195  0.6978  0.4717
 3551SOL    HW122286   1.430   0.104   2.883  1.3324  0.3582  0.5926
 3551SOL    HW222287   1.546   0.164   2.820  0.0889  0.6413 -0.2069
 3552SOL     OW22288   4.510   1.440   1.444 -0.0597 -0.1973 -0.2009
 3552SOL    HW122289   4.516   1.447   1.348  1.6776 -0.2936 -0.1059
 3552SOL    HW222290   4.571   1.511   1.461  0.1250  0.0728 -1.9791
 3553SOL     OW22291   4.606   2.985   6.607  0.3811 -0.0554  0.1056
 3553SOL    HW122292   4.512   2.995   6.623  0.0635  1.5863 -2.6929
 3553SOL    HW222293   4.626   2.928   6.681  0.2548 -1.7271 -1.1361
 3554SOL     OW22294   3.887   1.103  13.366 -0.1577 -0.5118 -0.0398
 3554SOL    HW122295   3.979   1.118  13.389 -0.3125 -0.5886  0.6105
 3554SOL    HW222296   3.879   1.157  13.288  0.1138 -0.0264  0.2715
 3555SOL     OW22297   2.280   2.353   7.743  0.4325 -0.0552 -0.6235
 3555SOL    HW122298   2.203   2.398   7.777  1.6649  1.3590  0.2832
 3555SOL    HW222299   2.338   2.364   7.818 -1.8419  2.8915  0.7227
 3556SOL     OW22300   3.421   2.078  16.654  0.8762 -0.3380  0.5389
 3556SOL    HW122301   3.516   2.079  16.646  0.7433  0.2302 -1.1135
 3556SOL    HW222302   3.395   2.161  16.695  0.9088  0.0579 -0.2279
 3557SOL     OW22303   0.190   4.656   3.385  0.0370 -0.2804 -0.3657
 3557SOL    HW122304   0.190   0.004   3.344  0.9563  0.3073  0.8951
 3557SOL    HW222305   0.216   4.599   3.313 -0.6410  0.4111 -1.1619
 3558SOL     OW22306   3.013   1.986   0.015  0.2161  0.3545 -0.5178
 3558SOL    HW122307   2.941   2.043   0.043 -1.3294 -2.5509  1.3304
 3558SOL    HW222308   3.087   2.046   0.003  0.4923  0.1322  0.1191
 3559SOL     OW22309   0.684   3.816   5.636  0.4307 -0.5373 -0.5139
 3559SOL    HW122310   0.699   3.809   5.730 -1.1416  0.9825 -0.1495
 3559SOL    HW222311   0.752   3.756   5.605  1.3818 -0.5205  1.5981
 3560SOL     OW22312   3.710   2.840   6.932  0.8619  0.1751 -0.2141
 3560SOL    HW122313   3.726   2.876   6.845  2.1276 -0.6961 -0.3369
 3560SOL    HW222314   3.700   2.914   6.991  1.2844  0.2674 -0.2609
 3561SOL     OW22315   1.798   4.234   1.735 -0.8203  0.4964  0.2923
 3561SOL    HW122316   1.786   4.310   1.678  0.5984  0.9810  0.6365
 3561SOL    HW222317   1.878   4.255   1.784 -0.4094 -0.4509  0.0345
 3562SOL     OW22318   1.386   2.063   5.786  0.2132 -0.3924  0.6777
 3562SOL    HW122319   1.317   2.058   5.720  1.3662 -1.9097 -0.4122
 3562SOL    HW222320   1.337   2.111   5.853 -2.7687 -0.7962 -1.2149
 3563SOL     OW22321   0.040   3.496   8.363  0.7245 -0.1936  0.6842
 3563SOL    HW122322   0.134   3.489   8.349  0.8829  0.6199  1.3605
 3563SOL    HW222323   0.015   3.585   8.341  1.6703  0.3174  1.6882
 3564SOL     OW22324   2.716   1.728  12.520  0.4365 -0.5938 -0.2789
 3564SOL    HW122325   2.798   1.745  12.472 -0.7984 -0.7539 -2.4735
 3564SOL    HW222326   2.707   1.636  12.497  0.9195 -1.0549  1.4037
 3565SOL     OW22327   2.380   3.866   2.618 -0.5405 -0.0970  0.3451
 3565SOL    HW122328   2.452   3.807   2.641 -0.5991 -0.4453 -0.3636
 3565SOL    HW222329   2.323   3.841   2.691  0.7267 -1.8210  0.7577
 3566SOL     OW22330   3.161   3.206  11.775  0.4997 -0.4730  1.0530
 3566SOL    HW122331   3.111   3.279  11.812 -1.5014 -1.0847 -0.4363
 3566SOL    HW222332   3.119   3.204  11.689  0.5583  0.6346  0.9953
 3567SOL     OW22333   0.773   4.141   8.435  0.7066  0.0210  0.4984
 3567SOL    HW122334   0.740   4.205   8.499 -2.2581 -0.1334 -0.8753
 3567SOL    HW222335   0.721   4.066   8.466  0.0951  0.1591 -0.1868
 3568SOL     OW22336   4.419   0.490   9.831 -0.1347  0.1940 -0.1796
 3568SOL    HW122337   4.429   0.507   9.738 -0.8733  3.0260  0.2778
 3568SOL    HW222338   4.437   0.572   9.877 -1.2195  0.6917 -0.6453
 3569SOL     OW22339   2.594   4.618   7.888  0.1497 -0.0191 -0.1999
 3569SOL    HW122340   2.561   4.686   7.829 -0.5281 -0.0208  0.1784
 3569SOL    HW222341   2.626   4.678   7.956  1.1425 -2.2617  1.3247
 3570SOL     OW22342   0.863   1.871   4.156  0.4564 -0.1568  0.5403
 3570SOL    HW122343   0.849   1.813   4.230 -2.2652 -1.7375 -1.2230
 3570SOL    HW222344   0.836   1.955   4.194 -0.9005  0.0282 -0.8245
 3571SOL     OW22345   3.751   1.707   8.809 -0.2044 -0.1587 -0.0343
 3571SOL    HW122346   3.692   1.653   8.757 -0.3751 -0.9789  1.0219
 3571SOL    HW222347   3.832   1.674   8.770 -1.0312 -1.9539 -0.1978
 3572SOL     OW22348   1.040   2.518   5.204  0.0415 -0.2822 -0.0492
 3572SOL    HW122349   1.131   2.533   5.229 -0.4321  2.0525  0.3227
 3572SOL    HW222350   1.007   2.598   5.245  1.0016 -0.0836  0.3211
 3573SOL     OW22351   2.375   2.088   9.138  0.2849  0.0626  0.2736
 3573SOL    HW122352   2.407   2.167   9.095  0.0999  0.6813  1.2762
 3573SOL    HW222353   2.297   2.078   9.084 -0.0291 -0.2107  0.7731
 3574SOL     OW22354   3.293   4.560   2.555  0.8056 -0.4428 -0.3647
 3574SOL    HW122355   3.227   4.574   2.487 -1.6969 -0.7035  2.0194
 3574SOL    HW222356   3.366   4.524   2.505  0.4932 -0.4002 -0.8518
 3575SOL     OW22357   4.045   0.394   2.957  0.1966  0.1693  0.1618
 3575SOL    HW122358   4.107   0.321   2.960 -1.9422 -1.6394  0.2551
 3575SOL    HW222359   3.969   0.355   2.914  1.5296  2.4830 -4.2645
 3576SOL     OW22360   2.019   1.792   2.432  0.0860  0.3782 -0.1980
 3576SOL    HW122361   2.058   1.791   2.519 -2.0288 -2.3377  0.7124
 3576SOL    HW222362   1.927   1.768   2.442 -0.4641  1.7886 -1.8199
 3577SOL     OW22363   1.585   4.056   3.279  0.2292  0.0549 -0.1904
 3577SOL    HW122364   1.678   4.033   3.284  0.9146  2.3594 -2.1157
 3577SOL    HW222365   1.567   4.126   3.342 -0.6484 -1.7874  1.5565
 3578SOL     OW22366   2.318   1.200   3.773 -0.6936  0.4910  0.2582
 3578SOL    HW122367   2.379   1.127   3.763 -1.0800 -0.1617  2.5473
 3578SOL    HW222368   2.373   1.270   3.740 -0.8158 -0.3288 -1.6677
 3579SOL     OW22369   4.649   0.808   8.695  0.7031  0.2352  0.4899
 3579SOL    HW122370   4.567   0.770   8.727  1.1227  1.0289  2.5436
 3579SOL    HW222371   4.639   0.894   8.736  1.2229  0.7932 -0.5651
 3580SOL     OW22372   0.822   1.390   0.502 -0.5592  0.3521 -0.1855
 3580SOL    HW122373   0.748   1.351   0.548 -1.2791  1.8256 -0.0710
 3580SOL    HW222374   0.821   1.339   0.421  3.3173 -1.5340  1.0012
 3581SOL     OW22375   4.643   2.199   4.803 -0.2412 -0.1312 -0.3427
 3581SOL    HW122376   4.627   2.269   4.867 -1.0522 -1.7403  1.2064
 3581SOL    HW222377   4.610   2.123   4.850 -3.0751  0.1397 -1.8603
 3582SOL     OW22378   4.643   3.159   5.215  0.1470  0.2209  0.3857
 3582SOL    HW122379   4.703   3.202   5.276  0.3890  0.0330  0.2809
 3582SOL    HW222380   4.571   3.221   5.226 -0.2395  0.0171 -0.9972
 3583SOL     OW22381   1.493   2.263   2.929 -0.0927  0.0337  0.1370
 3583SOL    HW122382   1.481   2.245   2.835  0.7561  3.1681 -0.5488
 3583SOL    HW222383   1.403   2.247   2.956  0.3327 -0.7128  1.1030
 3584SOL     OW22384   3.821   4.624  12.926 -0.0474 -0.0890 -0.2010
 3584SOL    HW122385   3.838   4.572  12.848 -0.0414 -1.0483  0.4282
 3584SOL    HW222386   3.864   4.706  12.902  2.3560 -0.4116  2.9193
 3585SOL     OW22387   1.150   3.051   6.275 -0.0773  0.0054  0.2795
 3585SOL    HW122388   1.166   2.967   6.318  4.3865  0.3343 -0.7606
 3585SOL    HW222389   1.229   3.089   6.315  0.1010  0.5390 -0.5720
 3586SOL     OW22390   2.099   0.928  16.170 -0.6095  0.3183 -0.6500
 3586SOL    HW122391   2.187   0.966  16.161 -0.4095 -0.0413 -0.1868
 3586SOL    HW222392   2.091   0.905  16.078  0.2492 -0.1098 -0.6190
 3587SOL     OW22393   0.870   4.578  12.342 -0.5811  0.0134  0.5803
 3587SOL    HW122394   0.858   4.599  12.249 -1.1321 -0.4211  0.5507
 3587SOL    HW222395   0.906   4.659  12.377 -1.4182 -0.4650  2.5228
 3588SOL     OW22396   0.784   2.886   4.627 -0.6914 -0.3179 -0.1728
 3588SOL    HW122397   0.780   2.829   4.704 -1.2326 -1.2189 -0.8713
 3588SOL    HW222398   0.782   2.828   4.551  0.6443 -0.7489  0.1058
 3589SOL     OW22399   4.152   0.203  13.587 -0.0667  0.2734  0.7055
 3589SOL    HW122400   4.155   0.185  13.681  0.8608  3.3934  1.2566
 3589SOL    HW222401   4.073   0.255  13.573 -0.5840 -0.8561 -0.5790
 3590SOL     OW22402   0.869   3.453   7.657  0.4841  0.0149  0.6185
 3590SOL    HW122403   0.854   3.508   7.581  1.8934 -0.5274 -0.0515
 3590SOL    HW222404   0.779   3.430   7.681  0.4118 -1.7553 -1.3912
 3591SOL     OW22405   1.530   3.552   4.374  0.1207 -0.3329  0.9037
 3591SOL    HW122406   1.565   3.485   4.315 -2.6389  1.7617 -3.0941
 3591SOL    HW222407   1.482   3.511   4.446  2.4445 -1.9582  1.5378
 3592SOL     OW22408   2.448   0.718   1.574 -0.3969 -0.1499 -0.0852
 3592SOL    HW122409   2.489   0.738   1.490  0.5991 -0.4890  0.3226
 3592SOL    HW222410   2.490   0.779   1.635  1.0600  0.2278 -1.4676
 3593SOL     OW22411   4.632   3.189  16.874 -0.0965  0.7206  0.2619
 3593SOL    HW122412   4.538   3.204  16.863 -0.5052 -0.0865  2.7520
 3593SOL    HW222413   4.658   3.255  16.939  0.1736 -0.8189  1.7022
 3594SOL     OW22414   2.439   3.129   0.219 -0.1612 -0.0072  0.5071
 3594SOL    HW122415   2.370   3.071   0.186  0.6537  0.1825 -1.5386
 3594SOL    HW222416   2.476   3.160   0.136  0.8561  0.1591  1.0240
 3595SOL     OW22417   0.349   4.537   3.077 -0.3693  0.1327 -0.3010
 3595SOL    HW122418   0.401   4.565   3.001 -0.4070 -0.8746 -0.6925
 3595SOL    HW222419   0.276   4.598   3.077 -0.7794 -0.3595 -1.7400
 3596SOL     OW22420   1.590   1.429  10.585  0.6525  0.6153 -0.0267
 3596SOL    HW122421   1.601   1.335  10.601  3.5830  1.2605  1.7497
 3596SOL    HW222422   1.682   1.448  10.604  1.8200 -2.1110 -2.8895
 3597SOL     OW22423   4.443   1.031   5.571 -0.0519  0.0636 -0.7043
 3597SOL    HW122424   4.445   1.089   5.647 -2.4181 -0.8466  0.0233
 3597SOL    HW222425   4.422   1.090   5.498 -2.5309 -2.2906 -1.8671
 3598SOL     OW22426   3.611   4.349   3.703 -0.1617  0.1860 -0.8999
 3598SOL    HW122427   3.680   4.282   3.704 -0.0308  0.3444  0.4998
 3598SOL    HW222428   3.527   4.303   3.709  0.6668 -0.7788  3.7569
 3599SOL     OW22429   3.931   3.591  12.992  0.3424 -0.2876  0.1855
 3599SOL    HW122430   3.962   3.635  13.072 -2.0848  1.4446  0.1657
 3599SOL    HW222431   3.839   3.603  13.014 -0.3991 -2.1468 -1.9733
 3600SOL     OW22432   1.935   0.118  12.588  0.1013 -0.3476  0.1558
 3600SOL    HW122433   1.909   0.125  12.680  0.9951  0.1289  0.3811
 3600SOL    HW222434   1.885   0.043  12.557 -0.0092  0.0741 -0.6911
 3601SOL     OW22435   1.629   0.834  14.149  0.1987  0.2525  0.8392
 3601SOL    HW122436   1.610   0.743  14.128  0.6227  0.0133  1.4986
 3601SOL    HW222437   1.655   0.830  14.241 -1.3049  2.8102  1.3807
 3602SOL     OW22438   2.881   0.469   2.748 -0.2199  0.2910  0.1918
 3602SOL    HW122439   2.787   0.451   2.743 -0.1987 -0.0293  0.8559
 3602SOL    HW222440   2.915   0.380   2.750  0.7035  0.6965  2.8282
 3603SOL     OW22441   0.737   3.849   9.435  0.4562 -0.8883 -0.3579
 3603SOL    HW122442   0.708   3.893   9.515  2.8399 -0.1641  0.1108
 3603SOL    HW222443   0.657   3.802   9.411 -1.2820  0.7034  2.2677
 3604SOL     OW22444   0.845   0.909   6.048 -0.2342 -0.0531  0.3747
 3604SOL    HW122445   0.808   0.821   6.041  1.0479 -0.4351 -1.6522
 3604SOL    HW222446   0.938   0.887   6.055 -0.3816 -0.6528  0.4222
 3605SOL     OW22447   3.326   1.231   8.792 -0.1634  0.2808  0.1205
 3605SOL    HW122448   3.268   1.158   8.811 -0.6262  0.8404  0.8576
 3605SOL    HW222449   3.298   1.250   8.702 -2.2730 -1.5423  0.3786
 3606SOL     OW22450   2.456   2.336   1.313 -0.2579 -0.1286  0.1933
 3606SOL    HW122451   2.382   2.308   1.367 -0.0763 -0.1911  0.4133
 3606SOL    HW222452   2.461   2.266   1.248 -0.6192  0.5182 -0.5344
 3607SOL     OW22453   2.407   1.961   8.231 -0.0329 -0.3244  0.0612
 3607SOL    HW122454   2.411   1.894   8.163 -0.3342 -0.6781  0.3932
 3607SOL    HW222455   2.344   1.924   8.293 -0.8109 -0.6399 -0.8991
 3608SOL     OW22456   3.174   3.669  16.311  0.4380  0.2377  0.3545
 3608SOL    HW122457   3.218   3.644  16.393 -5.0682  0.6075  3.4558
 3608SOL    HW222458   3.234   3.740  16.289 -0.0863  0.4716 -0.3002
 3609SOL     OW22459   1.913   3.807   5.168  0.4178 -0.3931  0.3116
 3609SOL    HW122460   1.986   3.868   5.155 -1.4533  1.1428 -2.9131
 3609SOL    HW222461   1.863   3.828   5.089  0.6075  1.0335  0.5874
 3610SOL     OW22462   1.533   4.651   6.789 -0.3944 -0.5017 -0.2212
 3610SOL    HW122463   1.455   4.664   6.735  0.4537  1.1638 -1.0248
 3610SOL    HW222464   1.581   4.730   6.765  0.9785 -1.2186  0.1451
 3611SOL     OW22465   1.698   1.544   5.098  0.2573 -0.4641 -0.2061
 3611SOL    HW122466   1.723   1.601   5.170  0.0476  1.2654 -1.5028
 3611SOL    HW222467   1.630   1.496   5.146  0.1209 -0.5572 -0.4895
 3612SOL     OW22468   3.262   2.622   8.148  0.2100  0.2222  0.1862
 3612SOL    HW122469   3.183   2.636   8.097 -0.4755  1.5304  1.5822
 3612SOL    HW222470   3.230   2.654   8.233 -0.0472  0.6373 -0.0704
 3613SOL     OW22471   2.548   1.235  12.258 -0.4150 -0.7455  0.4532
 3613SOL    HW122472   2.548   1.178  12.335 -0.6042 -0.8106  0.4053
 3613SOL    HW222473   2.611   1.182  12.211  2.2620  3.2901 -0.5346
 3614SOL     OW22474   3.861   0.906   6.335 -0.1925 -0.1577  0.0125
 3614SOL    HW122475   3.935   0.960   6.363 -0.0693 -0.8457  1.0366
 3614SOL    HW222476   3.786   0.961   6.359 -0.6607 -0.5480 -0.5472
 3615SOL     OW22477   4.458   1.686   0.641  0.6767  0.2108  0.6892
 3615SOL    HW122478   4.382   1.637   0.608  2.3478 -3.0476  1.7467
 3615SOL    HW222479   4.526   1.623   0.619  0.0127 -0.1196 -0.4191
 3616SOL     OW22480   3.487   2.803  17.273 -0.0260 -0.0445  0.2953
 3616SOL    HW122481   3.490   2.783  17.180 -0.5652 -0.1273  0.2955
 3616SOL    HW222482   3.395   2.808  17.297  0.1081  2.7572  0.2728
 3617SOL     OW22483   4.513   3.357   2.601  0.3418 -0.0586 -0.1929
 3617SOL    HW122484   4.550   3.339   2.515  1.5690 -1.6047  0.6635
 3617SOL    HW222485   4.503   3.451   2.584  1.7154  0.4088  1.5044
 3618SOL     OW22486   2.918   3.736  14.313  0.3752  0.3264  0.1913
 3618SOL    HW122487   2.909   3.645  14.343  2.7600  0.4288  1.1811
 3618SOL    HW222488   2.835   3.763  14.351  0.9702  0.4906  1.3590
 3619SOL     OW22489   1.998   3.839   1.072 -0.2955  0.4351 -0.1994
 3619SOL    HW122490   2.070   3.786   1.107 -1.6271 -1.7123 -0.6927
 3619SOL    HW222491   1.921   3.802   1.115  0.1569  0.0772  0.3067
 3620SOL     OW22492   0.163   2.213   8.751 -0.5381  0.1931 -0.3895
 3620SOL    HW122493   0.206   2.251   8.827  0.1426 -0.5472 -0.4115
 3620SOL    HW222494   0.235   2.227   8.690 -0.4026  0.6386 -0.1291
 3621SOL     OW22495   3.690   0.790   9.188 -0.1933 -0.4264  0.0508
 3621SOL    HW122496   3.774   0.833   9.180 -1.6944  2.3521 -0.8627
 3621SOL    HW222497   3.670   0.820   9.277  2.0873 -0.5796  0.5958
 3622SOL     OW22498   2.006   2.712   4.513  0.1250  0.0790  0.7514
 3622SOL    HW122499   2.045   2.783   4.564  0.2972  1.0089 -0.7037
 3622SOL    HW222500   2.040   2.634   4.557  1.8876 -1.0049 -2.5947
 3623SOL     OW22501   0.663   0.965  16.449  0.1355 -0.3497 -0.1378
 3623SOL    HW122502   0.628   0.994  16.533 -1.2614 -2.6417  0.0777
 3623SOL    HW222503   0.624   1.027  16.387  0.3021 -0.2367 -0.1288
 3624SOL     OW22504   4.416   2.577   7.691  0.0937  0.5537  0.1178
 3624SOL    HW122505   4.344   2.554   7.749 -1.0325  1.1545 -1.0226
 3624SOL    HW222506   4.455   2.492   7.673 -1.0795 -0.2043  1.2260
 3625SOL     OW22507   3.926   3.367   5.775 -0.2325 -0.3336 -0.6290
 3625SOL    HW122508   4.007   3.404   5.810 -0.8592  1.0207 -0.6350
 3625SOL    HW222509   3.879   3.354   5.858  0.4449 -0.1569 -0.2145
 3626SOL     OW22510   2.866   4.327   8.935 -0.1486 -0.5861 -0.1487
 3626SOL    HW122511   2.780   4.369   8.935 -0.0461 -0.3808 -0.1501
 3626SOL    HW222512   2.885   4.329   8.841  0.1417 -1.0480 -0.1013
 3627SOL     OW22513   0.285   2.449   9.315  0.7535  0.1796 -0.9004
 3627SOL    HW122514   0.257   2.540   9.302  1.2945  0.2932 -1.2644
 3627SOL    HW222515   0.257   2.429   9.404 -2.1937  1.9426 -1.4236
 3628SOL     OW22516   0.933   3.340   6.885  0.1925  0.3028 -0.2850
 3628SOL    HW122517   0.990   3.284   6.938 -0.0444 -0.4114 -0.7804
 3628SOL    HW222518   0.970   3.333   6.797 -0.5904  1.6571 -0.7191
 3629SOL     OW22519   1.954   4.510   2.004 -0.2286 -0.5841  0.0459
 3629SOL    HW122520   1.892   4.513   1.932  1.1098  0.2615 -1.0759
 3629SOL    HW222521   1.894   4.497   2.077  0.0186  1.8440  0.6649
 3630SOL     OW22522   0.759   4.334   8.898  0.1996  0.1436  0.0300
 3630SOL    HW122523   0.675   4.377   8.881 -1.0424 -1.2204  2.5330
 3630SOL    HW222524   0.820   4.390   8.850  0.7475 -0.4838 -0.0124
 3631SOL     OW22525   3.780   3.684   5.268 -0.1810  0.4982 -0.0317
 3631SOL    HW122526   3.872   3.659   5.260 -0.0212  0.7092  1.2047
 3631SOL    HW222527   3.741   3.642   5.344 -0.7211  1.6116  0.3190
 3632SOL     OW22528   3.119   0.147   2.218 -0.1944  0.7990  0.4883
 3632SOL    HW122529   3.094   0.215   2.281  0.4734  2.4081 -0.9680
 3632SOL    HW222530   3.034   0.111   2.191  0.1638 -0.1396  0.6269
 3633SOL     OW22531   0.884   1.779  12.746 -0.3855  0.2448 -0.1352
 3633SOL    HW122532   0.967   1.735  12.767 -0.9161 -0.0608  1.3605
 3633SOL    HW222533   0.876   1.845  12.815  2.1312  0.0916  0.3239
 3634SOL     OW22534   4.078   2.059   1.368 -0.2501 -0.3489  0.4325
 3634SOL    HW122535   4.149   2.006   1.401 -0.2552 -0.4598  0.2663
 3634SOL    HW222536   4.074   2.013   1.284 -2.5663 -1.9557  1.4410
 3635SOL     OW22537   3.503   0.172   7.619 -0.2969 -0.3447 -0.0581
 3635SOL    HW122538   3.455   0.136   7.694  2.5920 -0.9374  1.5063
 3635SOL    HW222539   3.504   0.262   7.650  0.5600 -0.3157 -0.1763
 3636SOL     OW22540   2.364   2.033   7.744 -0.1459  0.1081 -0.4280
 3636SOL    HW122541   2.385   2.090   7.819  0.4570 -1.6193  0.7197
 3636SOL    HW222542   2.269   2.027   7.753 -0.0721 -0.3287  0.0533
 3637SOL     OW22543   0.125   0.512   2.318 -0.4878 -0.5364 -0.2624
 3637SOL    HW122544   0.188   0.459   2.368 -0.1240 -0.7084 -0.9067
 3637SOL    HW222545   0.042   0.466   2.326 -1.0208  0.4583 -0.0481
 3638SOL     OW22546   1.237   0.235  15.497  0.4466 -0.1540 -0.2599
 3638SOL    HW122547   1.169   0.187  15.546 -0.1635  0.0973 -0.8625
 3638SOL    HW222548   1.187   0.316  15.485  0.3627 -0.5075 -2.2916
 3639SOL     OW22549   2.207   0.081   4.896  0.2231 -0.0908 -1.0229
 3639SOL    HW122550   2.112   0.067   4.889  0.5333 -1.0569 -3.1784
 3639SOL    HW222551   2.242   0.005   4.942 -1.6297 -0.8256 -0.8215
 3640SOL     OW22552   1.355   0.118  11.100 -0.5657  0.3541  0.1222
 3640SOL    HW122553   1.288   0.103  11.166 -0.7736 -0.0587 -0.1802
 3640SOL    HW222554   1.327   0.061  11.028 -0.5535  0.7462 -0.1957
 3641SOL     OW22555   0.964   1.357   2.754  0.0522  0.4031 -0.4578
 3641SOL    HW122556   0.956   1.380   2.847 -0.3434 -0.4719 -0.2723
 3641SOL    HW222557   0.871   1.339   2.740 -0.0546 -0.5780  1.4360
 3642SOL     OW22558   0.319   3.047   8.975  0.4338  0.2528  0.1106
 3642SOL    HW122559   0.396   3.017   9.023 -0.7167 -2.5269  0.1949
 3642SOL    HW222560   0.355   3.129   8.940  0.1223  0.2094 -0.3017
 3643SOL     OW22561   0.830   2.190   3.675 -0.0151 -0.0630  0.0591
 3643SOL    HW122562   0.832   2.165   3.582 -1.7564  0.9193 -0.2416
 3643SOL    HW222563   0.847   2.104   3.713  3.3961  1.2923  1.6251
 3644SOL     OW22564   3.412   4.513   1.776 -0.1356  0.1048  0.5593
 3644SOL    HW122565   3.473   4.565   1.828 -0.4445  1.1022 -0.0791
 3644SOL    HW222566   3.468   4.482   1.705  0.5384  0.2492  1.0253
 3645SOL     OW22567   2.871   1.821   4.486 -0.2084  0.1887 -0.0884
 3645SOL    HW122568   2.778   1.804   4.500 -0.5440  1.2847 -0.9658
 3645SOL    HW222569   2.883   1.902   4.536  2.3545  0.4188 -1.0606
 3646SOL     OW22570   3.950   0.221   6.179  0.3809 -0.0848 -0.2215
 3646SOL    HW122571   3.990   0.197   6.096  0.0299  0.0963 -0.4428
 3646SOL    HW222572   3.914   0.137   6.207 -0.9715  0.6710  0.2734
 3647SOL     OW22573   4.403   2.061   2.600  0.3195 -0.1159 -0.5263
 3647SOL    HW122574   4.417   2.127   2.533 -2.7197  1.3826  0.3538
 3647SOL    HW222575   4.317   2.029   2.576  0.4796 -0.6424 -0.4108
 3648SOL     OW22576   3.328   1.561   9.589  0.1401  0.0430 -0.0871
 3648SOL    HW122577   3.407   1.609   9.613 -0.3264  0.2591  1.0286
 3648SOL    HW222578   3.356   1.531   9.503  1.0550 -0.9131  0.5473
 3649SOL     OW22579   0.810   4.242   9.166  0.3090 -0.1472 -0.1294
 3649SOL    HW122580   0.791   4.284   9.081  2.1235 -0.2172 -0.5667
 3649SOL    HW222581   0.809   4.316   9.226 -0.3381 -0.3434  0.1017
 3650SOL     OW22582   0.348   1.678  16.363 -0.5757 -0.0556 -0.1268
 3650SOL    HW122583   0.273   1.737  16.356 -0.2912  0.1702 -1.3295
 3650SOL    HW222584   0.406   1.708  16.433  0.2151 -0.2537 -0.7000
 3651SOL     OW22585   0.514   2.523   2.632 -0.0129 -0.0336 -0.2140
 3651SOL    HW122586   0.479   2.530   2.544 -2.4808 -0.1586  0.7609
 3651SOL    HW222587   0.564   2.442   2.624  0.1348  0.1448 -1.0372
 3652SOL     OW22588   0.021   4.529   0.807  0.2494  0.8803  0.0463
 3652SOL    HW122589   0.074   4.607   0.791  2.8428 -0.4185  2.2973
 3652SOL    HW222590   0.085   4.481   0.860  0.1920 -0.6945 -1.3200
 3653SOL     OW22591   1.288   2.653   5.852 -0.0878 -0.2022 -0.5728
 3653SOL    HW122592   1.256   2.614   5.933  1.8475  0.2788  0.4304
 3653SOL    HW222593   1.368   2.700   5.874  0.7034 -2.1677  0.7794
 3654SOL     OW22594   4.013   0.253   5.044 -0.4822  0.1172 -0.5188
 3654SOL    HW122595   3.976   0.191   4.981 -0.5593 -1.2841  0.9029
 3654SOL    HW222596   3.953   0.247   5.118 -0.3901 -0.2534 -0.4725
 3655SOL     OW22597   3.255   2.642  13.151 -0.3536  0.6318 -0.2763
 3655SOL    HW122598   3.195   2.604  13.087  0.0024  0.8151 -0.7140
 3655SOL    HW222599   3.195   2.647  13.226  0.5667 -1.6693  0.6234
 3656SOL     OW22600   0.683   0.864  13.836 -0.3085 -0.1108  1.2860
 3656SOL    HW122601   0.717   0.882  13.923  2.5281  2.6237 -0.4178
 3656SOL    HW222602   0.592   0.835  13.849 -0.8561  0.8256 -0.3685
 3657SOL     OW22603   1.343   4.465  10.042  0.1524 -0.0815 -0.5566
 3657SOL    HW122604   1.381   4.427  10.121  0.5147 -1.8220 -1.5744
 3657SOL    HW222605   1.289   4.542  10.058  1.7288  0.4484  2.2323
 3658SOL     OW22606   1.152   3.354   5.686  0.7109  0.3023 -0.1017
 3658SOL    HW122607   1.095   3.378   5.759  1.3164 -1.9158  1.1031
 3658SOL    HW222608   1.229   3.392   5.728  0.2632  0.3980  0.6412
 3659SOL     OW22609   3.988   1.163   4.475 -0.7190  0.0882 -0.2329
 3659SOL    HW122610   4.044   1.129   4.406 -1.0787 -3.0984  1.0566
 3659SOL    HW222611   4.030   1.247   4.492  1.3932 -1.0678  0.2651
 3660SOL     OW22612   3.966   0.030   7.425 -0.5087  0.1575 -0.2203
 3660SOL    HW122613   3.969   0.082   7.506  2.6000 -1.8080  0.9336
 3660SOL    HW222614   3.875   0.032   7.398  0.0637 -0.3226 -2.1291
 3661SOL     OW22615   3.003   3.280  15.686  0.0708 -0.0574 -0.2993
 3661SOL    HW122616   2.968   3.297  15.599  1.4773  0.4299 -0.7762
 3661SOL    HW222617   2.921   3.254  15.728  0.8201 -0.0753  1.1942
 3662SOL     OW22618   3.608   3.209  13.909 -0.2249  0.0950 -0.6315
 3662SOL    HW122619   3.616   3.203  13.813 -2.2280  3.6256 -1.0355
 3662SOL    HW222620   3.686   3.164  13.940 -1.1374  2.2761  4.8046
 3663SOL     OW22621   1.500   1.586   9.037  0.0526  0.2776  0.3872
 3663SOL    HW122622   1.422   1.552   9.080  1.2638 -1.8686  0.9215
 3663SOL    HW222623   1.497   1.678   9.063 -1.7983 -0.0824  1.4355
 3664SOL     OW22624   2.716   4.470   1.170 -0.5484 -0.3680 -0.1624
 3664SOL    HW122625   2.701   4.520   1.090 -0.0250 -0.6601 -0.4405
 3664SOL    HW222626   2.701   4.378   1.149  1.7186 -0.9877  0.9250
 3665SOL     OW22627   3.718   2.269  15.867  0.2004  0.4976 -0.4400
 3665SOL    HW122628   3.796   2.215  15.878 -0.1242  0.3801  1.2714
 3665SOL    HW222629   3.649   2.207  15.843  1.8004  0.1998 -4.3423
 3666SOL     OW22630   0.097   3.244  12.303 -0.0251  0.2878  0.1838
 3666SOL    HW122631   0.007   3.259  12.331  1.0949  4.7157  1.3415
 3666SOL    HW222632   0.147   3.240  12.385  1.6092  0.0404 -0.8149
 3667SOL     OW22633   3.633   2.437   0.964  0.4337 -0.8443  0.6008
 3667SOL    HW122634   3.586   2.410   0.886 -2.1430  1.4194  1.3684
 3667SOL    HW222635   3.573   2.409   1.034  0.6219 -1.2514  0.5984
 3668SOL     OW22636   4.309   1.855  17.282 -0.8471  0.4848 -0.7189
 3668SOL    HW122637   4.218   1.875  17.302 -0.9312 -0.8798  0.2617
 3668SOL    HW222638   4.295   1.762  17.266 -0.0345  0.0950  0.7930
 3669SOL     OW22639   1.471   1.059   6.194  0.2432 -0.2039 -0.2315
 3669SOL    HW122640   1.481   1.138   6.248  1.9419 -2.0773  2.2015
 3669SOL    HW222641   1.450   1.006   6.271  0.4104  0.0859  0.0155
 3670SOL     OW22642   4.490   2.924   7.149  0.1984  0.1615  0.0993
 3670SOL    HW122643   4.554   2.987   7.116 -0.6787  1.2636  0.4932
 3670SOL    HW222644   4.411   2.948   7.101 -0.8408  0.2374  1.8148
 3671SOL     OW22645   0.780   0.293   4.912 -0.1138  0.2701  0.1976
 3671SOL    HW122646   0.776   0.249   4.997 -0.0204  1.0257  0.5913
 3671SOL    HW222647   0.823   0.234   4.850 -0.9608 -0.2327  0.0774
 3672SOL     OW22648   2.123   1.844   0.579  0.2325  0.4613  0.0803
 3672SOL    HW122649   2.125   1.869   0.487 -0.0616 -3.4066 -0.9749
 3672SOL    HW222650   2.159   1.921   0.623 -0.1938  0.9983 -0.5078
 3673SOL     OW22651   1.808   2.694  16.768 -0.6548 -0.7657 -0.5686
 3673SOL    HW122652   1.837   2.673  16.679  1.8005 -2.9590  0.7475
 3673SOL    HW222653   1.715   2.699  16.747 -0.7551  2.0545  0.6736
 3674SOL     OW22654   0.819   2.100   0.614  0.2246 -0.0760  0.2456
 3674SOL    HW122655   0.752   2.165   0.590 -0.7293 -1.3732 -0.5733
 3674SOL    HW222656   0.886   2.104   0.546 -0.5289 -1.6579 -0.5744
 3675SOL     OW22657   1.281   2.033   1.228 -0.0382  0.0271 -0.0615
 3675SOL    HW122658   1.217   2.085   1.277  0.3076  0.4163 -0.0253
 3675SOL    HW222659   1.359   2.089   1.233 -0.6447  1.0830 -2.2156
 3676SOL     OW22660   0.553   0.055   6.434  0.0644 -0.5386 -0.3846
 3676SOL    HW122661   0.588   0.132   6.390 -1.4288  0.4731  0.1977
 3676SOL    HW222662   0.518   0.097   6.512 -1.7003 -0.5021 -1.2119
 3677SOL     OW22663   1.804   0.592   3.596  0.3063 -0.3732  0.1518
 3677SOL    HW122664   1.768   0.681   3.593  3.4088  0.9462  1.2719
 3677SOL    HW222665   1.852   0.611   3.677 -0.2328  1.7559 -0.0209
 3678SOL     OW22666   1.545   0.003   3.279  0.2370  0.0788 -0.5711
 3678SOL    HW122667   1.598   0.052   3.341 -1.0746  1.8778 -0.8779
 3678SOL    HW222668   1.495   4.702   3.351 -1.1874 -1.1699 -2.2582
 3679SOL     OW22669   0.736   3.770  12.349  0.1363  0.5025 -0.6381
 3679SOL    HW122670   0.799   3.752  12.279 -0.8283 -2.3971 -0.7612
 3679SOL    HW222671   0.709   3.682  12.372 -1.0126  0.7124 -1.2186
 3680SOL     OW22672   2.195   0.340   4.835 -0.3020  0.2518  0.6875
 3680SOL    HW122673   2.213   0.249   4.855  0.3675  0.2516  0.0999
 3680SOL    HW222674   2.129   0.360   4.901  0.0086 -0.0420  1.0840
 3681SOL     OW22675   2.190   1.442   8.182 -0.1005  0.0877  0.4590
 3681SOL    HW122676   2.119   1.396   8.137  0.2424  0.1912 -0.1835
 3681SOL    HW222677   2.170   1.534   8.162  0.1815 -0.3738 -1.9550
 3682SOL     OW22678   2.522   0.872   9.685 -0.2121 -0.2646 -0.4113
 3682SOL    HW122679   2.604   0.921   9.699  0.5622 -1.3631 -1.0780
 3682SOL    HW222680   2.539   0.859   9.592 -0.3675 -0.5269 -0.4022
 3683SOL     OW22681   0.724   0.451  15.425  0.6112  0.0190  0.2060
 3683SOL    HW122682   0.738   0.540  15.457 -1.6653 -0.8923  3.7186
 3683SOL    HW222683   0.632   0.453  15.400  0.7782  0.0235 -0.4147
 3684SOL     OW22684   2.048   4.586  14.842  0.8900 -0.3283  0.0511
 3684SOL    HW122685   2.037   4.526  14.769  0.4679 -1.2878  0.8977
 3684SOL    HW222686   2.008   4.664  14.803  1.5252  0.6013  1.2242
 3685SOL     OW22687   0.194   2.636   2.530 -0.1648  0.1701  0.9727
 3685SOL    HW122688   0.146   2.556   2.552 -1.0357 -0.0495 -1.7362
 3685SOL    HW222689   0.128   2.701   2.507 -1.1268 -1.0837  0.1829
 3686SOL     OW22690   1.509   0.137   1.110  0.0527  0.1573 -0.1087
 3686SOL    HW122691   1.472   0.091   1.034  2.7739  0.7694 -1.8249
 3686SOL    HW222692   1.550   0.066   1.159  0.7522 -0.2983 -1.3238
 3687SOL     OW22693   0.856   0.332   4.053 -0.1967  0.2201 -0.1298
 3687SOL    HW122694   0.891   0.420   4.064 -0.2652  0.1580  0.5698
 3687SOL    HW222695   0.781   0.336   3.992 -1.5322 -1.3502  1.4199
 3688SOL     OW22696   4.049   2.925   8.043  0.3783  0.2058  0.4282
 3688SOL    HW122697   4.013   2.867   7.976 -2.3117  1.2572  0.9611
 3688SOL    HW222698   4.143   2.920   8.026  0.3028  1.2757 -0.2887
 3689SOL     OW22699   0.477   3.039  15.433 -0.4009  0.3518 -0.1558
 3689SOL    HW122700   0.391   3.078  15.443 -1.5639 -2.2806  0.1524
 3689SOL    HW222701   0.534   3.116  15.430 -0.2761  0.3166  1.4046
 3690SOL     OW22702   0.737   0.147   2.465  0.3238 -0.0407  0.5941
 3690SOL    HW122703   0.708   0.058   2.449  0.8531 -0.2485  0.8035
 3690SOL    HW222704   0.768   0.160   2.375 -0.4774 -1.9343  0.0435
 3691SOL     OW22705   3.690   2.666   8.407  0.1953 -0.3193 -0.0276
 3691SOL    HW122706   3.770   2.647   8.455  0.8637  2.4605 -0.0938
 3691SOL    HW222707   3.625   2.668   8.477  0.0996 -0.6063 -0.1063
 3692SOL     OW22708   0.369   1.701  12.849 -0.1568 -0.2369 -0.1601
 3692SOL    HW122709   0.432   1.628  12.850  1.0699  0.8074 -0.3850
 3692SOL    HW222710   0.381   1.741  12.762 -1.4961  0.0929 -0.1890
 3693SOL     OW22711   3.226   1.740   5.868 -0.0238  0.1574  0.5552
 3693SOL    HW122712   3.231   1.645   5.864  0.8835  0.0926  3.3186
 3693SOL    HW222713   3.291   1.768   5.803 -0.0714  0.2089  0.5291
 3694SOL     OW22714   2.126   0.709   7.455  0.4583 -0.9262 -0.7266
 3694SOL    HW122715   2.132   0.673   7.367  0.6332 -0.5990 -0.8483
 3694SOL    HW222716   2.054   0.765   7.426 -1.4125 -1.8836  2.0237
 3695SOL     OW22717   3.448   0.634   4.605  0.0554  0.3491 -0.2157
 3695SOL    HW122718   3.521   0.603   4.552  0.0147 -0.6582  0.3053
 3695SOL    HW222719   3.493   0.693   4.665 -2.4302  0.0291  2.0100
 3696SOL     OW22720   0.688   2.607   5.408 -0.2854 -0.0669  0.0121
 3696SOL    HW122721   0.709   2.561   5.490 -1.5840  0.0981  0.4322
 3696SOL    HW222722   0.758   2.671   5.393  0.1741 -0.5780 -0.0180
 3697SOL     OW22723   0.024   0.042   9.245 -0.6058  0.2551 -0.2437
 3697SOL    HW122724   4.681   4.731   9.252  0.6022 -1.9852 -2.2668
 3697SOL    HW222725   0.020   0.090   9.328 -0.6919  1.1636 -0.7782
 3698SOL     OW22726   0.322   0.480  16.330  0.0080  0.0165 -0.4177
 3698SOL    HW122727   0.230   0.482  16.358  0.6840 -0.2400  1.8095
 3698SOL    HW222728   0.326   0.554  16.269  1.0705  0.8074  0.6287
 3699SOL     OW22729   1.694   2.430   2.997  0.5221 -0.2190 -0.2176
 3699SOL    HW122730   1.646   2.477   3.065  3.2071  0.7431  1.0224
 3699SOL    HW222731   1.625   2.368   2.971  2.0842 -1.6916 -0.9397
 3700SOL     OW22732   3.936   4.043  13.805 -0.0668 -0.1118 -0.7681
 3700SOL    HW122733   3.870   3.998  13.752 -0.5542  1.2058 -1.2663
 3700SOL    HW222734   3.890   4.061  13.887 -0.5306  2.0650 -1.5045
 3701SOL     OW22735   2.764   2.781  17.375  0.5558 -0.5078  0.1071
 3701SOL    HW122736   2.767   2.766  17.469 -0.2738  1.2997  0.4238
 3701SOL    HW222737   2.689   2.728  17.347  0.8323 -1.4547  1.1690
 3702SOL     OW22738   1.973   0.978   8.783  0.6842 -0.4949  0.7471
 3702SOL    HW122739   1.943   0.903   8.833 -1.0901 -2.0712 -2.7274
 3702SOL    HW222740   1.944   0.952   8.695 -2.0354  0.2956  1.4219
 3703SOL     OW22741   3.388   2.906   1.586 -0.3506  0.0099  0.0126
 3703SOL    HW122742   3.377   2.995   1.618  2.8276  1.0979 -1.9343
 3703SOL    HW222743   3.424   2.858   1.661  0.6716  0.9578  0.1249
 3704SOL     OW22744   0.875   1.737   1.236 -0.6051 -0.3101 -0.0700
 3704SOL    HW122745   0.898   1.644   1.233 -1.1754 -0.4438 -0.2512
 3704SOL    HW222746   0.963   1.774   1.245 -0.8817  0.7619 -1.7280
 3705SOL     OW22747   4.041   3.577   8.544  0.2769  1.2456  0.2493
 3705SOL    HW122748   4.008   3.628   8.618 -0.4221  1.0641  0.0701
 3705SOL    HW222749   3.958   3.532   8.526  2.4813 -1.9451 -1.7889
 3706SOL     OW22750   0.634   0.330   7.227  0.6033 -0.0066 -0.1987
 3706SOL    HW122751   0.562   0.338   7.164  1.1176 -1.4035 -0.9718
 3706SOL    HW222752   0.602   0.377   7.304  1.9688 -0.3667  0.5782
 3707SOL     OW22753   0.192   0.233   1.833  0.6924 -0.1409 -0.1092
 3707SOL    HW122754   0.174   0.214   1.741  2.6581  0.0945 -0.5429
 3707SOL    HW222755   0.279   0.195   1.844  1.4565  0.7501 -2.9758
 3708SOL     OW22756   4.416   3.140   5.668 -0.6549 -0.1463  0.5023
 3708SOL    HW122757   4.478   3.087   5.719  1.3193  0.7058 -1.0128
 3708SOL    HW222758   4.363   3.073   5.625 -2.7089  1.3830  0.6496
 3709SOL     OW22759   3.840   1.419   7.880  0.1033 -0.7474  0.1194
 3709SOL    HW122760   3.828   1.362   7.957  4.0164  0.2877  1.5055
 3709SOL    HW222761   3.843   1.504   7.923 -0.4037 -0.3627 -0.6199
 3710SOL     OW22762   1.921   3.524   6.891 -0.3398 -0.0204 -0.3373
 3710SOL    HW122763   1.907   3.570   6.809 -1.6356  0.2591  0.0346
 3710SOL    HW222764   1.866   3.579   6.947  0.6404  1.0691 -0.4475
 3711SOL     OW22765   2.890   0.331  13.444 -0.3322 -0.2637 -0.1374
 3711SOL    HW122766   2.960   0.395  13.458  0.5981 -1.1362 -0.8405
 3711SOL    HW222767   2.909   0.282  13.524  0.7312  1.1437  0.4706
 3712SOL     OW22768   1.584   0.576  17.251  0.2006 -0.1453  0.4599
 3712SOL    HW122769   1.520   0.512  17.284 -1.8112  2.4962  1.7078
 3712SOL    HW222770   1.519   0.643  17.230  0.6725  0.5793  1.3412
 3713SOL     OW22771   1.655   0.809   8.171 -0.1398 -0.2508 -0.2611
 3713SOL    HW122772   1.734   0.855   8.198  1.0700 -0.9755 -2.5568
 3713SOL    HW222773   1.651   0.741   8.238 -2.3463  0.3215  0.1885
 3714SOL     OW22774   1.687   3.873   1.991 -0.3164 -0.3386 -0.0145
 3714SOL    HW122775   1.625   3.864   1.919  1.2414  3.0596 -1.7753
 3714SOL    HW222776   1.635   3.836   2.062 -1.0197 -0.3518 -0.5317
 3715SOL     OW22777   0.835   4.494   8.696 -0.0682  0.1613 -0.7989
 3715SOL    HW122778   0.901   4.558   8.668 -0.5690  1.5319  1.2140
 3715SOL    HW222779   0.781   4.479   8.618 -3.5169 -1.5083  1.9042
 3716SOL     OW22780   4.178   4.648   4.546  0.1985  0.0444 -0.2811
 3716SOL    HW122781   4.208   4.592   4.618  0.5696 -1.3240 -1.4979
 3716SOL    HW222782   4.215   4.612   4.466 -0.8613 -0.3535 -0.5961
 3717SOL     OW22783   1.835   2.431   4.713 -0.4275  0.2053 -0.2685
 3717SOL    HW122784   1.806   2.342   4.692  0.6506  0.1041 -1.3392
 3717SOL    HW222785   1.779   2.462   4.784  1.0868  1.8761  0.2116
 3718SOL     OW22786   1.408   2.267   5.998 -0.6212 -0.1291  0.2580
 3718SOL    HW122787   1.399   2.332   5.929 -1.2132 -0.3858  0.0917
 3718SOL    HW222788   1.471   2.310   6.056 -0.7971 -0.2479  0.5376
 3719SOL     OW22789   1.625   4.019   8.610 -0.1456 -0.0743 -0.0351
 3719SOL    HW122790   1.658   3.939   8.652 -2.9652 -1.0827  0.2733
 3719SOL    HW222791   1.576   4.060   8.681  0.4320  1.1649 -0.3407
 3720SOL     OW22792   3.593   0.935   0.978  0.5271  0.0085 -0.1122
 3720SOL    HW122793   3.653   0.925   0.905  0.1455  0.7834 -0.5411
 3720SOL    HW222794   3.622   1.017   1.018  2.2564  0.8675 -3.1994
 3721SOL     OW22795   1.617   1.981   0.266  0.0623  0.6557 -0.2453
 3721SOL    HW122796   1.525   1.957   0.258  0.4367 -1.1246  0.8066
 3721SOL    HW222797   1.643   1.916   0.331  2.2634  2.0066  0.2408
 3722SOL     OW22798   3.259   3.033  11.952  0.2194  0.2857 -0.2088
 3722SOL    HW122799   3.180   3.060  11.998 -0.0750  2.2485 -1.9087
 3722SOL    HW222800   3.255   3.083  11.871  1.4244  1.4060  0.4285
 3723SOL     OW22801   3.437   2.987  10.062 -0.4805  0.2980 -0.3834
 3723SOL    HW122802   3.350   2.950  10.075  1.0976 -3.6443 -1.2971
 3723SOL    HW222803   3.485   2.930  10.122  2.3180 -1.0995 -3.9918
 3724SOL     OW22804   2.481   0.774   6.333 -0.0754 -0.3984 -0.0285
 3724SOL    HW122805   2.505   0.800   6.244  1.9132 -0.8844  0.3656
 3724SOL    HW222806   2.396   0.730   6.335 -0.7338  0.8670 -0.5163
 3725SOL     OW22807   3.791   3.792   8.409  0.2076 -0.5059 -0.0588
 3725SOL    HW122808   3.749   3.829   8.487  0.8848 -0.8911  0.4829
 3725SOL    HW222809   3.713   3.751   8.371  0.3107 -1.4009  0.6981
 3726SOL     OW22810   2.054   1.639  11.681  0.0322  0.0053  0.4811
 3726SOL    HW122811   2.076   1.715  11.627  0.2707  0.0445  0.6386
 3726SOL    HW222812   1.961   1.631  11.660 -0.0061 -1.6065  1.2687
 3727SOL     OW22813   0.988   4.010   9.869 -0.4468  0.5289  0.3701
 3727SOL    HW122814   1.032   3.925   9.864  1.6610  1.7563 -2.5051
 3727SOL    HW222815   0.980   4.024   9.774 -2.6869  0.5222  0.5529
 3728SOL     OW22816   2.264   2.057   5.060  0.5353  0.0413 -0.4597
 3728SOL    HW122817   2.317   2.019   5.130 -0.4432 -2.3610 -1.0366
 3728SOL    HW222818   2.181   2.018   5.085  1.1019 -0.8283  0.0584
 3729SOL     OW22819   0.270   0.237   5.957  0.2754  0.3911  0.7002
 3729SOL    HW122820   0.257   0.290   6.036 -1.9663 -1.9613  1.9066
 3729SOL    HW222821   0.241   0.297   5.888  1.2592  1.1633  0.9623
 3730SOL     OW22822   0.485   3.250  10.068 -0.0054  0.3359 -0.2463
 3730SOL    HW122823   0.477   3.217   9.978  2.5408  0.8397 -0.6746
 3730SOL    HW222824   0.570   3.217  10.095 -0.6444 -2.5208 -1.7707
 3731SOL     OW22825   1.180   2.497   9.286 -0.3505 -0.9087 -0.1164
 3731SOL    HW122826   1.233   2.575   9.269 -2.5713 -0.0002 -2.8069
 3731SOL    HW222827   1.236   2.429   9.249 -1.6850 -0.2146 -3.3562
 3732SOL     OW22828   0.120   2.435   5.923 -0.0381  0.1994  0.1619
 3732SOL    HW122829   0.117   2.412   6.015 -0.1716 -0.6929 -0.0624
 3732SOL    HW222830   0.114   2.351   5.878 -0.2729  1.4818 -2.2307
 3733SOL     OW22831   0.022   2.266   4.541 -0.4232 -0.6359  0.1737
 3733SOL    HW122832   4.728   2.234   4.625  0.9571  0.3908  1.1085
 3733SOL    HW222833   0.048   2.355   4.566 -2.9296  0.5159 -1.2887
 3734SOL     OW22834   2.992   2.046   1.720  0.1228 -0.0651  0.3085
 3734SOL    HW122835   2.979   2.138   1.739  1.5749 -0.0188  1.0840
 3734SOL    HW222836   3.049   2.062   1.644 -0.5407 -1.4903 -0.5004
 3735SOL     OW22837   3.965   0.443   2.039 -0.4500  0.5579 -0.7098
 3735SOL    HW122838   3.932   0.361   2.077 -0.6132 -0.4514 -3.0590
 3735SOL    HW222839   3.922   0.461   1.956 -0.4184 -0.2947 -0.9179
 3736SOL     OW22840   2.848   3.112   2.704 -0.0751 -0.0500  0.3162
 3736SOL    HW122841   2.857   3.017   2.712 -1.4922 -0.2809 -0.7317
 3736SOL    HW222842   2.938   3.137   2.682 -0.2851  0.7429  0.3552
 3737SOL     OW22843   3.021   0.116  15.689  0.6273 -0.4113 -0.2461
 3737SOL    HW122844   3.028   0.212  15.684  0.3971 -0.3391  0.9880
 3737SOL    HW222845   2.937   0.103  15.732 -0.7496 -0.2995 -2.9170
 3738SOL     OW22846   3.280   4.690   0.353 -0.2647  0.2332 -0.2420
 3738SOL    HW122847   3.296   4.647   0.269  2.3451 -0.1657  0.4601
 3738SOL    HW222848   3.315   0.037   0.328 -0.3149  0.2144 -0.3758
 3739SOL     OW22849   3.804   2.003  17.003  0.4758 -0.1150  0.5332
 3739SOL    HW122850   3.732   2.065  16.991  1.0135  0.1914 -1.1436
 3739SOL    HW222851   3.813   1.949  16.925  0.8846 -2.0462  1.9085
 3740SOL     OW22852   2.804   4.524   3.655  0.0486  0.0393 -0.3864
 3740SOL    HW122853   2.815   4.599   3.597 -1.8888  0.4859 -0.1613
 3740SOL    HW222854   2.884   4.518   3.707 -0.0999 -0.7651 -0.2413
 3741SOL     OW22855   2.253   0.859   3.786  0.6400  0.1832 -0.1203
 3741SOL    HW122856   2.194   0.794   3.824 -0.4003  1.6962  0.8365
 3741SOL    HW222857   2.282   0.901   3.867 -0.8166 -0.5743  0.7818
 3742SOL     OW22858   3.946   3.923  13.374  0.7722  0.2977 -0.2650
 3742SOL    HW122859   3.923   3.837  13.337  0.8670 -1.0199  2.7549
 3742SOL    HW222860   3.873   3.953  13.429 -0.7611 -1.2505 -1.4274
 3743SOL     OW22861   1.939   1.227   4.761  0.5011 -0.3535 -0.2486
 3743SOL    HW122862   1.950   1.273   4.678 -0.6159 -0.1966 -0.3147
 3743SOL    HW222863   2.029   1.208   4.787  0.9826  1.7545 -0.4009
 3744SOL     OW22864   3.228   1.799   1.068 -0.2574  0.4027 -0.5678
 3744SOL    HW122865   3.272   1.880   1.092  0.3079  0.0395 -0.3756
 3744SOL    HW222866   3.155   1.822   1.011 -2.6453 -2.2013  1.4270
 3745SOL     OW22867   2.988   0.711   7.165 -0.2228 -0.2783 -0.3639
 3745SOL    HW122868   2.975   0.806   7.159  0.9905 -0.1347 -0.8336
 3745SOL    HW222869   3.074   0.701   7.207  0.1316  1.1080 -0.7571
 3746SOL     OW22870   3.979   0.282  17.072  0.3103 -0.1224 -0.1706
 3746SOL    HW122871   3.964   0.377  17.070  0.7511 -0.0496  0.0692
 3746SOL    HW222872   3.892   0.245  17.054 -0.2831  2.4487 -2.5816
 3747SOL     OW22873   2.270   1.587  11.334 -0.5415  0.1441 -0.0675
 3747SOL    HW122874   2.328   1.590  11.259  0.2886 -1.3810  0.5030
 3747SOL    HW222875   2.198   1.545  11.287 -0.2746 -0.4322  0.0354
 3748SOL     OW22876   2.775   0.116   1.928 -0.3942 -0.6003  0.0390
 3748SOL    HW122877   2.804   0.070   1.849 -2.0533  1.6465 -1.8795
 3748SOL    HW222878   2.842   0.183   1.938 -1.6375  0.5531  0.7093
 3749SOL     OW22879   2.837   2.304   5.807  0.1998 -0.0047  0.8667
 3749SOL    HW122880   2.838   2.283   5.900  1.6223 -1.6646  0.4802
 3749SOL    HW222881   2.903   2.373   5.800 -0.1035  0.3602  1.6176
 3750SOL     OW22882   4.682   1.140   3.378 -0.1401  0.6742 -0.3925
 3750SOL    HW122883   0.004   1.214   3.382  0.0009  0.5168  0.2857
 3750SOL    HW222884   4.691   1.117   3.470 -0.7722  3.4157  0.3270
 3751SOL     OW22885   0.724   1.848  16.468  1.4100 -0.1386  0.7030
 3751SOL    HW122886   0.767   1.843  16.383 -0.2643 -0.6603 -0.1007
 3751SOL    HW222887   0.773   1.923  16.501  0.9068  0.1675  0.7530
 3752SOL     OW22888   3.540   2.262   6.577 -0.2695 -0.3702 -0.2318
 3752SOL    HW122889   3.519   2.317   6.652 -0.2110  0.9680 -1.2031
 3752SOL    HW222890   3.613   2.307   6.534  1.0931  0.8167  3.3754
 3753SOL     OW22891   3.395   1.169   6.132 -0.0341  0.3370  0.0408
 3753SOL    HW122892   3.388   1.222   6.212 -1.4155  0.2270 -0.0133
 3753SOL    HW222893   3.386   1.245   6.074 -0.5685 -2.5206 -3.5934
 3754SOL     OW22894   2.296   2.674   2.730  0.9415  0.0200 -0.0135
 3754SOL    HW122895   2.216   2.725   2.745 -0.1339 -0.9978 -2.2298
 3754SOL    HW222896   2.342   2.710   2.805  0.5840 -1.4610  0.9041
 3755SOL     OW22897   1.934   0.924   3.262  0.1222 -0.2846  0.6074
 3755SOL    HW122898   1.893   0.837   3.259  0.1443 -0.2525 -0.6296
 3755SOL    HW222899   1.855   0.967   3.231 -0.9705 -1.2191  2.0812
 3756SOL     OW22900   3.571   1.469  12.032  0.2882  0.1287 -0.0892
 3756SOL    HW122901   3.636   1.489  11.964  0.5654  0.2845  0.2223
 3756SOL    HW222902   3.486   1.472  11.986 -0.2821  1.1586  1.0279
 3757SOL     OW22903   4.530   3.558  14.333  0.1405 -0.0828  0.7122
 3757SOL    HW122904   4.622   3.551  14.360  0.0970 -2.1756  0.2860
 3757SOL    HW222905   4.537   3.484  14.273  1.5780  1.1903 -0.6895
 3758SOL     OW22906   0.893   0.423   7.586  0.5822  0.4751 -0.3928
 3758SOL    HW122907   0.882   0.451   7.677  3.5562  2.6105 -0.6935
 3758SOL    HW222908   0.837   0.487   7.543  0.7464  1.6990  1.2503
 3759SOL     OW22909   4.731   2.948   2.990  0.0855  0.1234  0.0908
 3759SOL    HW122910   0.005   2.946   3.085 -1.3292 -2.1387  0.2445
 3759SOL    HW222911   4.639   2.922   2.981 -0.1744  0.2102  2.3333
 3760SOL     OW22912   1.670   1.831   7.305 -0.2242  0.4986  0.3633
 3760SOL    HW122913   1.721   1.859   7.381  1.0379 -2.2357  0.5144
 3760SOL    HW222914   1.630   1.914   7.277  1.6444  1.1574 -0.3956
 3761SOL     OW22915   0.533   2.661   8.008 -0.0839  0.5406 -0.6200
 3761SOL    HW122916   0.495   2.666   7.921  3.3746  0.0771 -2.1372
 3761SOL    HW222917   0.497   2.742   8.046  2.7973  0.6077  2.0257
 3762SOL     OW22918   3.136   2.880   5.310  0.4873 -0.0979  0.8210
 3762SOL    HW122919   3.043   2.894   5.324  0.1385  0.9848 -2.4956
 3762SOL    HW222920   3.164   2.840   5.392 -1.6427  0.3192  1.7520
 3763SOL     OW22921   4.066   2.907  16.112  0.1736  0.1570 -0.5085
 3763SOL    HW122922   4.078   2.944  16.199 -2.7768  0.1126 -0.0954
 3763SOL    HW222923   3.973   2.886  16.118 -0.3805  2.6337 -0.7748
 3764SOL     OW22924   2.316   0.180   3.840 -0.6382 -0.0487  0.4025
 3764SOL    HW122925   2.275   0.224   3.914  2.3831  0.5823  1.6759
 3764SOL    HW222926   2.294   0.238   3.767  1.3805 -1.6180 -1.4488
 3765SOL     OW22927   2.806   3.593  13.716 -0.1312  0.1469 -0.0399
 3765SOL    HW122928   2.733   3.549  13.673  0.5267 -0.5588 -0.4522
 3765SOL    HW222929   2.872   3.577  13.649  0.1598 -1.6092  0.6687
 3766SOL     OW22930   0.715   3.522  11.507 -0.5732  0.1458 -0.0945
 3766SOL    HW122931   0.768   3.520  11.427 -1.4327 -0.6476 -0.6419
 3766SOL    HW222932   0.634   3.563  11.477 -1.6244 -2.3916 -0.7381
 3767SOL     OW22933   0.101   3.377   4.091 -0.4769 -0.4257  0.3703
 3767SOL    HW122934   0.191   3.410   4.093 -1.7785  3.1008  1.1140
 3767SOL    HW222935   0.064   3.437   4.156 -0.8913  2.5514 -2.6209
 3768SOL     OW22936   4.039   4.094  11.977  0.0613 -0.7388  0.0664
 3768SOL    HW122937   4.028   4.018  11.920  0.6658 -0.1629 -0.8277
 3768SOL    HW222938   3.944   4.105  11.985  0.0748 -1.8017  1.6229
 3769SOL     OW22939   4.209   0.948   5.661  0.1923 -0.0813  0.4921
 3769SOL    HW122940   4.158   1.004   5.603 -1.1446 -1.8782 -0.0451
 3769SOL    HW222941   4.295   0.951   5.620 -0.8918  3.2968 -1.5471
 3770SOL     OW22942   3.236   2.487   6.398 -0.1611  0.0853  0.1054
 3770SOL    HW122943   3.189   2.558   6.444 -1.9928 -1.9948  1.4756
 3770SOL    HW222944   3.327   2.512   6.409 -0.1549  1.8791 -4.0098
 3771SOL     OW22945   1.806   0.530   1.542 -0.3731  0.3752 -0.0819
 3771SOL    HW122946   1.861   0.481   1.482  0.8223  1.8533 -0.2012
 3771SOL    HW222947   1.718   0.496   1.527  0.2990 -2.0484  1.4265
 3772SOL     OW22948   1.578   1.194  11.113  0.2675 -0.1099  0.2730
 3772SOL    HW122949   1.550   1.183  11.022 -2.0969 -1.1273  1.1108
 3772SOL    HW222950   1.496   1.191  11.163 -0.3436  0.4970 -0.6793
 3773SOL     OW22951   3.163   4.215   8.618  0.4914  0.3644  0.0494
 3773SOL    HW122952   3.238   4.178   8.665  0.9049 -0.7373 -1.4658
 3773SOL    HW222953   3.104   4.139   8.617 -0.1060  0.8198  0.8419
 3774SOL     OW22954   1.438   3.225   1.288  0.2306 -0.3585  0.1032
 3774SOL    HW122955   1.494   3.149   1.301 -0.5810 -0.5289  2.5678
 3774SOL    HW222956   1.505   3.270   1.236 -1.9594  0.0603 -2.3219
 3775SOL     OW22957   2.839   3.198   2.965 -0.0055 -0.3412 -0.1075
 3775SOL    HW122958   2.842   3.170   2.873 -3.0504 -0.8811 -0.0195
 3775SOL    HW222959   2.752   3.235   2.973  0.6535  1.5821 -1.8183
 3776SOL     OW22960   4.513   1.070  16.347  0.0410  0.3695  0.3175
 3776SOL    HW122961   4.571   0.994  16.358 -1.5261 -0.9133 -0.3046
 3776SOL    HW222962   4.574   1.139  16.322  0.3982 -0.2986 -0.6219
 3777SOL     OW22963   1.206   3.639   5.995 -0.0608  0.1463 -0.3865
 3777SOL    HW122964   1.298   3.666   6.003  0.8979 -3.0008 -0.6506
 3777SOL    HW222965   1.165   3.718   5.962  0.0999 -0.1698 -1.3570
 3778SOL     OW22966   1.109   2.911   2.583  0.1986  0.2980  0.0420
 3778SOL    HW122967   1.173   2.914   2.654 -0.2317 -0.4265  0.4670
 3778SOL    HW222968   1.055   2.837   2.612  2.3758 -1.2675  0.0950
 3779SOL     OW22969   3.372   4.356   7.463  0.3970  0.4932 -0.0971
 3779SOL    HW122970   3.391   4.354   7.369 -1.6894 -0.7214 -0.5084
 3779SOL    HW222971   3.290   4.405   7.457 -0.5086 -1.2207 -1.7426
 3780SOL     OW22972   3.763   2.169   4.115 -0.4858 -0.2840 -0.0235
 3780SOL    HW122973   3.680   2.124   4.098 -1.0231  1.2651 -1.4488
 3780SOL    HW222974   3.816   2.153   4.037  0.7110  2.2488  0.2667
 3781SOL     OW22975   0.142   2.588   3.629  0.1112 -0.1609  0.2853
 3781SOL    HW122976   0.053   2.599   3.593 -0.3270 -0.9357  1.1376
 3781SOL    HW222977   0.183   2.527   3.568  0.0220  0.2732 -0.2110
 3782SOL     OW22978   1.604   3.102   3.848 -0.4463 -0.0977  0.2247
 3782SOL    HW122979   1.661   3.028   3.826 -2.6208 -1.0201 -2.3810
 3782SOL    HW222980   1.568   3.082   3.934 -0.3828  2.8376  0.9453
 3783SOL     OW22981   2.412   1.659  12.641  0.3185  0.7101  0.0759
 3783SOL    HW122982   2.343   1.714  12.677  0.9880  1.1386  0.7105
 3783SOL    HW222983   2.394   1.571  12.675 -2.5536  0.5156 -1.9335
 3784SOL     OW22984   1.855   1.827   4.028 -0.2049 -0.0406  0.2472
 3784SOL    HW122985   1.847   1.732   4.037  0.5368  0.0127  1.4957
 3784SOL    HW222986   1.767   1.860   4.011 -0.4681 -1.7577 -1.7929
 3785SOL     OW22987   2.512   0.426   4.663 -0.6253 -0.0018  0.3638
 3785SOL    HW122988   2.526   0.336   4.694  0.5566 -0.0362 -0.3070
 3785SOL    HW222989   2.484   0.400   4.575 -3.0161  0.4758  0.9887
 3786SOL     OW22990   2.924   3.756   7.824 -0.6497 -0.0846 -0.4757
 3786SOL    HW122991   3.012   3.763   7.786 -0.2400  0.8792  0.6223
 3786SOL    HW222992   2.897   3.666   7.807  0.4135 -0.6488  0.8036
 3787SOL     OW22993   3.559   2.867  11.610  0.3231 -0.0112 -0.4081
 3787SOL    HW122994   3.529   2.778  11.629 -0.9493  1.1015  2.6810
 3787SOL    HW222995   3.622   2.884  11.680  0.7111  0.2663 -0.8249
 3788SOL     OW22996   3.348   1.220   4.862 -0.0212  0.2764 -0.1796
 3788SOL    HW122997   3.337   1.303   4.908  1.1116  0.4598 -0.2421
 3788SOL    HW222998   3.336   1.244   4.770 -0.6282 -0.1117 -0.2012
 3789SOL     OW22999   0.268   3.277   4.745  0.0022  0.1683  0.1288
 3789SOL    HW123000   0.320   3.206   4.708 -2.8419 -2.9585  2.1204
 3789SOL    HW223001   0.248   3.230   4.826  0.2393 -0.9574 -0.4628
 3790SOL     OW23002   4.415   4.125   4.418  0.2494 -0.2026  0.3921
 3790SOL    HW123003   4.323   4.124   4.446  0.5281 -1.7845  1.2223
 3790SOL    HW223004   4.456   4.068   4.483 -0.1030  2.5002  2.9644
 3791SOL     OW23005   4.172   1.524   7.692  0.3425 -0.1245  0.5331
 3791SOL    HW123006   4.124   1.597   7.730 -2.6882 -1.7532 -0.0976
 3791SOL    HW223007   4.118   1.509   7.614  0.1841 -2.3157  1.0734
 3792SOL     OW23008   1.919   3.481   3.904 -0.4190 -0.4924 -0.7358
 3792SOL    HW123009   1.865   3.559   3.914  1.3914  0.6457  0.2564
 3792SOL    HW223010   1.888   3.436   3.982 -0.1572  2.7111  1.2205
 3793SOL     OW23011   2.824   2.749   2.071  0.1005  0.9098  0.1685
 3793SOL    HW123012   2.802   2.776   1.982  0.3770 -1.4445 -0.6177
 3793SOL    HW223013   2.759   2.790   2.127 -0.9096 -1.9296  1.0414
 3794SOL     OW23014   0.957   4.120  15.838  0.1493 -0.0297 -0.4508
 3794SOL    HW123015   1.033   4.170  15.807 -0.1502  1.1001  0.6238
 3794SOL    HW223016   0.923   4.173  15.910  0.4073 -2.5122  1.5118
 3795SOL     OW23017   3.565   2.709  15.295  0.0032 -0.7157 -0.0298
 3795SOL    HW123018   3.638   2.749  15.343 -0.5650  0.5783 -0.2332
 3795SOL    HW223019   3.616   2.658  15.231  0.2679  0.5369 -0.8159
 3796SOL     OW23020   0.868   3.442  16.883 -0.5218 -0.2142 -0.1737
 3796SOL    HW123021   0.850   3.460  16.975  0.8958 -0.5171  0.1647
 3796SOL    HW223022   0.827   3.511  16.831  2.2902 -0.3360 -2.6083
 3797SOL     OW23023   3.840   1.550  15.645  0.0700 -0.4487 -0.3139
 3797SOL    HW123024   3.935   1.562  15.647  0.0636 -0.5783  0.5466
 3797SOL    HW223025   3.830   1.475  15.704  1.8451 -2.1900 -2.2140
 3798SOL     OW23026   2.626   3.517  16.895  0.6133  0.0818 -0.2090
 3798SOL    HW123027   2.553   3.579  16.888  1.7428  1.3561 -0.6081
 3798SOL    HW223028   2.584   3.439  16.858  0.2999 -0.1263  0.5778
 3799SOL     OW23029   3.454   0.430  15.258 -0.5675  0.2079 -0.3225
 3799SOL    HW123030   3.540   0.466  15.237 -0.3808 -1.1062 -1.8645
 3799SOL    HW223031   3.462   0.355  15.199  0.1941 -1.2619  1.6762
 3800SOL     OW23032   0.919   0.148  15.021  0.0236  0.1000 -0.0065
 3800SOL    HW123033   0.870   0.078  14.978 -1.1152  0.3075  0.9597
 3800SOL    HW223034   0.854   0.187  15.080  0.4547  1.1919 -0.2529
 3801SOL     OW23035   2.099   3.374   6.314  0.0749  0.0432 -0.1290
 3801SOL    HW123036   2.176   3.345   6.266 -0.1318  0.5306 -0.7498
 3801SOL    HW223037   2.143   3.441   6.367  0.6080 -0.7286  0.4054
 3802SOL     OW23038   2.140   2.530  16.535 -0.4076  0.0252  0.6640
 3802SOL    HW123039   2.120   2.622  16.552  1.0219  0.7346 -1.4110
 3802SOL    HW223040   2.053   2.492  16.540 -0.9513  1.4735  2.0095
 3803SOL     OW23041   2.374   2.796   6.989 -0.0464  0.5315  0.4494
 3803SOL    HW123042   2.441   2.747   6.941  0.1831  1.1783  0.1161
 3803SOL    HW223043   2.409   2.881   7.016 -0.7656  1.1920 -0.7072
 3804SOL     OW23044   1.591   0.435   8.139  0.4877 -0.1119  0.1220
 3804SOL    HW123045   1.686   0.432   8.144  0.3861 -3.2566  0.0994
 3804SOL    HW223046   1.568   0.344   8.123 -1.8988  0.4006  0.5142
 3805SOL     OW23047   2.809   2.802   8.761  0.2857 -0.3040 -0.1031
 3805SOL    HW123048   2.890   2.759   8.789 -0.0933  0.0773  1.5502
 3805SOL    HW223049   2.778   2.846   8.840 -0.4686  0.5478 -0.8670
 3806SOL     OW23050   1.782   4.288   8.648 -0.5897  0.1213 -0.1356
 3806SOL    HW123051   1.831   4.312   8.569  1.7630 -1.0743  0.9796
 3806SOL    HW223052   1.840   4.220   8.681  0.2598  1.5860  1.3623
 3807SOL     OW23053   0.916   4.016   6.016  0.3248  0.5151  0.5215
 3807SOL    HW123054   0.957   4.046   6.097  2.9273  2.3886 -1.4819
 3807SOL    HW223055   0.975   4.052   5.950 -1.6078 -2.3006 -2.7160
 3808SOL     OW23056   3.313   1.801   0.482  0.0608 -0.2180 -0.2825
 3808SOL    HW123057   3.329   1.886   0.524 -3.0450  0.9539 -1.4742
 3808SOL    HW223058   3.333   1.744   0.556 -2.2526  0.8723  1.1799
 3809SOL     OW23059   1.969   3.189   8.722 -0.3212  0.0049 -0.0567
 3809SOL    HW123060   2.062   3.200   8.706 -0.0502 -1.6404  0.3436
 3809SOL    HW223061   1.925   3.168   8.640 -0.9638 -0.4018  0.3878
 3810SOL     OW23062   2.072   4.387   6.082 -0.0657  0.3283  0.4307
 3810SOL    HW123063   2.138   4.403   6.150  0.5721 -0.4063 -0.0178
 3810SOL    HW223064   2.091   4.446   6.010  2.3463 -0.7399  0.2105
 3811SOL     OW23065   2.625   2.926   5.497  0.6222  0.6546 -0.0418
 3811SOL    HW123066   2.552   2.966   5.544  0.2288  0.9198 -0.8772
 3811SOL    HW223067   2.627   2.837   5.531 -1.5696  0.2755 -0.8506
 3812SOL     OW23068   4.681   0.351   2.843  0.4617 -0.1690 -0.3287
 3812SOL    HW123069   4.643   0.401   2.915 -0.4856 -0.3337 -0.7205
 3812SOL    HW223070   4.614   0.291   2.811  0.9751 -1.5152  1.0718
 3813SOL     OW23071   1.031   2.964   3.625 -0.3635 -0.1196 -0.1331
 3813SOL    HW123072   1.046   3.005   3.710 -0.4067 -0.9100  0.2468
 3813SOL    HW223073   1.116   2.929   3.601 -0.3459 -0.9798  1.2293
 3814SOL     OW23074   1.149   0.259  14.954 -0.0697 -0.5986 -0.3022
 3814SOL    HW123075   1.086   0.199  14.992  0.6626 -1.5407 -0.5837
 3814SOL    HW223076   1.087   0.321  14.915  0.8036  0.7704  0.4890
 3815SOL     OW23077   4.358   2.084   6.055  0.4923 -0.3366  0.3937
 3815SOL    HW123078   4.420   2.081   6.128  0.2730  0.7772  0.6250
 3815SOL    HW223079   4.275   2.089   6.102  1.0641  2.3530  1.0750
 3816SOL     OW23080   3.020   4.332   5.060 -0.5747  0.2368  0.2073
 3816SOL    HW123081   2.959   4.275   5.014  1.6910 -2.0504  0.0538
 3816SOL    HW223082   3.034   4.390   4.985  1.0965  0.7770  0.9295
 3817SOL     OW23083   2.831   4.041   7.636 -0.7230 -0.8279  0.2655
 3817SOL    HW123084   2.794   4.045   7.724 -0.4183  0.6461  0.3304
 3817SOL    HW223085   2.912   4.001   7.668 -0.0325  0.8402  0.6166
 3818SOL     OW23086   2.885   1.923   2.977 -0.1277  0.2550 -0.4301
 3818SOL    HW123087   2.859   1.859   2.911 -0.6644 -1.2336  1.2303
 3818SOL    HW223088   2.805   1.971   3.002 -0.3079  0.7663 -2.0155
 3819SOL     OW23089   4.547   3.163   4.623  0.2627  0.3412  0.1855
 3819SOL    HW123090   4.559   3.214   4.703  0.7420 -0.0975  0.3879
 3819SOL    HW223091   4.530   3.076   4.658 -1.3312  0.4622 -0.2811
 3820SOL     OW23092   1.040   2.582   8.756 -0.2465 -0.6345  0.3215
 3820SOL    HW123093   0.995   2.665   8.766 -1.1814 -0.9886 -0.9208
 3820SOL    HW223094   0.960   2.540   8.725 -0.6577 -0.2314  0.8305
 3821SOL     OW23095   4.672   2.386   3.726 -0.1206  0.9508  0.7322
 3821SOL    HW123096   4.673   2.307   3.671 -4.1604  1.3321  0.1173
 3821SOL    HW223097   0.008   2.436   3.693 -0.8013  1.2826 -0.3189
 3822SOL     OW23098   1.563   0.423   1.567  0.2243 -0.3177  0.0693
 3822SOL    HW123099   1.542   0.335   1.537  0.5492 -0.6390  0.7751
 3822SOL    HW223100   1.472   0.444   1.589  0.1375 -0.3644 -0.2603
 3823SOL     OW23101   3.621   1.586  11.781 -0.0055 -0.0481 -0.4335
 3823SOL    HW123102   3.578   1.534  11.713 -0.9796 -0.0128  0.1579
 3823SOL    HW223103   3.555   1.655  11.788  0.3011  0.1968  0.0452
 3824SOL     OW23104   3.584   1.242   2.795  0.5651 -0.0462 -0.1227
 3824SOL    HW123105   3.639   1.281   2.727  1.6715 -3.1558 -1.0175
 3824SOL    HW223106   3.641   1.263   2.870  0.5239 -0.9232  0.1548
 3825SOL     OW23107   2.632   4.631  16.685  0.4773 -0.0717  0.0647
 3825SOL    HW123108   2.617   4.594  16.598 -0.0397  2.0910 -0.7889
 3825SOL    HW223109   2.552   4.672  16.718 -1.4559 -1.8340 -2.4424
 3826SOL     OW23110   4.482   1.511  13.813  0.0300 -0.0484  0.4304
 3826SOL    HW123111   4.532   1.451  13.758 -0.4867  0.7004 -0.8627
 3826SOL    HW223112   4.397   1.467  13.801 -1.1448  2.4007 -0.3151
 3827SOL     OW23113   1.411   0.802   6.018  0.2637  0.1477  0.0178
 3827SOL    HW123114   1.446   0.872   6.073  1.8151  0.0496 -0.8643
 3827SOL    HW223115   1.462   0.777   5.941 -1.5003 -0.3280 -1.0056
 3828SOL     OW23116   0.664   3.976   3.860 -0.5037  0.0531  0.3439
 3828SOL    HW123117   0.721   4.026   3.918  2.0684 -1.6675 -0.6687
 3828SOL    HW223118   0.677   4.015   3.773 -1.5748  1.3549  0.7687
 3829SOL     OW23119   2.746   3.597   0.521 -0.7399 -0.0894 -0.3459
 3829SOL    HW123120   2.801   3.520   0.505 -0.0246 -0.3224  3.1028
 3829SOL    HW223121   2.683   3.590   0.450 -0.4738  3.6773 -0.9470
 3830SOL     OW23122   4.641   0.714   8.256 -0.2030  0.0968  0.1678
 3830SOL    HW123123   4.643   0.804   8.222 -1.7781  0.1227  0.1178
 3830SOL    HW223124   4.682   0.735   8.340 -0.1725 -0.6932  0.3458
 3831SOL     OW23125   3.819   0.356  10.976  0.1734 -0.2108  0.0264
 3831SOL    HW123126   3.775   0.282  10.935  0.6590  0.6505 -2.0569
 3831SOL    HW223127   3.903   0.316  10.996 -0.0260  0.4440  2.1544
 3832SOL     OW23128   0.202   3.670   9.240 -0.2629  0.0527  0.3524
 3832SOL    HW123129   0.138   3.599   9.247  0.0880 -0.2600  0.4053
 3832SOL    HW223130   0.251   3.653   9.159 -0.4664 -1.6784  0.5870
 3833SOL     OW23131   4.713   2.350  16.120  0.0156 -0.1356 -0.1617
 3833SOL    HW123132   0.015   2.342  16.206  2.0053 -0.5606 -1.1452
 3833SOL    HW223133   0.056   2.358  16.071 -0.0404 -1.0295 -0.3972
 3834SOL     OW23134   0.441   1.157  10.597  0.2811  0.2179 -0.0946
 3834SOL    HW123135   0.439   1.253  10.604  2.1992  0.1683  1.0838
 3834SOL    HW223136   0.348   1.142  10.614  0.5992 -2.0366 -0.3394
 3835SOL     OW23137   3.092   1.072  17.639  0.1924 -0.0016  0.3278
 3835SOL    HW123138   3.032   1.146  17.635  0.5721  0.2483 -0.8631
 3835SOL    HW223139   3.111   1.058  17.546 -0.4922  2.7399 -0.2237
 3836SOL     OW23140   2.743   3.050   2.406  0.1635  0.5280  0.2071
 3836SOL    HW123141   2.742   3.114   2.477  1.0201  2.5466 -1.5992
 3836SOL    HW223142   2.771   2.972   2.453 -0.0658 -0.8178 -1.8898
 3837SOL     OW23143   0.173   0.909   1.777  0.0883  0.2122 -0.4675
 3837SOL    HW123144   0.080   0.918   1.794  0.0828  2.2998 -1.6482
 3837SOL    HW223145   0.181   0.857   1.697  0.8125  0.0974 -0.3255
 3838SOL     OW23146   0.119   2.620   4.427 -0.5918 -0.0058 -0.1597
 3838SOL    HW123147   0.181   2.546   4.430  1.2028  1.4935 -0.1971
 3838SOL    HW223148   0.170   2.693   4.391 -1.1069  0.0894 -0.6821
 3839SOL     OW23149   2.917   2.239   8.625 -0.0987 -0.0043  0.0167
 3839SOL    HW123150   2.989   2.219   8.564 -1.6588  1.4315 -2.3132
 3839SOL    HW223151   2.953   2.219   8.711  1.1736 -0.1389 -0.5440
 3840SOL     OW23152   3.979   0.868  13.158  0.0731 -0.0145 -0.0089
 3840SOL    HW123153   3.930   0.950  13.159 -0.7470 -0.4983 -1.2832
 3840SOL    HW223154   4.027   0.880  13.076 -0.2259 -1.1397 -0.3435
 3841SOL     OW23155   1.552   1.879   4.039 -0.1285  0.4734  0.3452
 3841SOL    HW123156   1.545   1.857   3.947  2.6996  1.1549 -0.0240
 3841SOL    HW223157   1.512   1.805   4.084 -0.8959  1.1897  0.8472
 3842SOL     OW23158   0.002   1.253  12.125  0.3475  0.1074  0.0437
 3842SOL    HW123159   0.031   1.195  12.196 -0.7426 -1.9957 -1.2273
 3842SOL    HW223160   4.661   1.203  12.106  1.1525 -1.4594  0.7576
 3843SOL     OW23161   3.536   1.736   9.583 -0.1439 -0.3269  0.4583
 3843SOL    HW123162   3.535   1.798   9.656 -1.2427 -0.2387  0.3648
 3843SOL    HW223163   3.525   1.801   9.514 -0.1630  0.2932  1.0400
 3844SOL     OW23164   3.842   1.961   8.850  0.7041  0.3002  0.5830
 3844SOL    HW123165   3.836   1.868   8.829 -0.9039  0.4759  0.2302
 3844SOL    HW223166   3.747   1.972   8.856  0.8086  0.7418  1.4583
 3845SOL     OW23167   2.268   1.391   2.192  0.1558  0.1166 -0.5484
 3845SOL    HW123168   2.270   1.372   2.286  0.9711 -2.9779 -1.1943
 3845SOL    HW223169   2.193   1.448   2.173 -0.7681 -0.7230  0.5873
 3846SOL     OW23170   1.557   1.609   6.946 -0.0775 -0.1670 -0.0739
 3846SOL    HW123171   1.474   1.652   6.965 -0.7093 -1.1736 -0.5456
 3846SOL    HW223172   1.602   1.593   7.029  0.4270  3.6931  0.4013
 3847SOL     OW23173   4.393   0.506   9.560 -0.5738  0.6001 -0.5778
 3847SOL    HW123174   4.322   0.442   9.559  0.8489 -0.9738 -0.9089
 3847SOL    HW223175   4.419   0.502   9.468 -1.9762 -0.2086 -0.9408
 3848SOL     OW23176   0.174   3.508   8.067  0.5158 -0.4975 -0.6638
 3848SOL    HW123177   0.195   3.447   8.138 -0.8564 -0.4026 -0.1827
 3848SOL    HW223178   0.255   3.503   8.016  0.3698 -1.8391 -0.7600
 3849SOL     OW23179   2.386   4.592   6.544 -0.4188 -0.2148 -0.0016
 3849SOL    HW123180   2.292   4.573   6.544 -0.3686 -0.4530  2.0995
 3849SOL    HW223181   2.393   4.649   6.620 -0.6237  0.0958 -0.2190
 3850SOL     OW23182   3.094   3.823   3.513  0.2570  0.5825  0.1769
 3850SOL    HW123183   3.105   3.729   3.522  0.5478  0.6029  0.0409
 3850SOL    HW223184   3.160   3.855   3.575  0.2992  1.1384 -0.1548
 3851SOL     OW23185   3.228   1.450   2.346  0.2219  0.4622  0.4537
 3851SOL    HW123186   3.217   1.428   2.438  0.2604 -0.8411  0.1495
 3851SOL    HW223187   3.176   1.530   2.342  0.1314  0.4210  0.8886
 3852SOL     OW23188   3.479   3.300   5.802  0.1756  0.5084 -0.2363
 3852SOL    HW123189   3.536   3.376   5.815 -0.5445  1.1733 -0.8686
 3852SOL    HW223190   3.462   3.281   5.894  0.1210 -0.0495 -0.3619
 3853SOL     OW23191   3.648   4.437  13.037 -0.3431 -0.1805 -0.3056
 3853SOL    HW123192   3.685   4.490  12.966  2.0440 -0.2057  0.9314
 3853SOL    HW223193   3.627   4.505  13.101 -0.1204 -0.4661  0.0747
 3854SOL     OW23194   0.323   2.829   6.508  0.3181 -0.1803  0.7593
 3854SOL    HW123195   0.268   2.899   6.473 -0.1997 -1.9563 -1.9901
 3854SOL    HW223196   0.325   2.764   6.438  1.5689 -1.4589  1.9926
 3855SOL     OW23197   2.980   0.288   1.929  0.1175 -0.3835  0.0776
 3855SOL    HW123198   3.009   0.298   2.020  0.5117 -1.1743  0.0334
 3855SOL    HW223199   3.056   0.255   1.881 -0.6466 -2.1648  0.1123
 3856SOL     OW23200   3.719   4.145   5.013  0.2818 -0.2905  0.0403
 3856SOL    HW123201   3.680   4.119   4.929 -0.3550 -1.1728  0.6040
 3856SOL    HW223202   3.726   4.059   5.054  2.6621  1.3133  2.9893
 3857SOL     OW23203   4.014   0.599  13.665 -0.1082  0.4681 -0.0533
 3857SOL    HW123204   4.049   0.512  13.685  0.1561  1.5277  4.0321
 3857SOL    HW223205   3.945   0.572  13.604 -0.4026 -0.0925  0.5227
 3858SOL     OW23206   0.115   2.980   0.738  0.2049  0.8380  0.1200
 3858SOL    HW123207   0.106   2.949   0.828 -1.9700 -1.6988 -0.9603
 3858SOL    HW223208   0.163   2.907   0.699  0.0838 -0.1210  1.7645
 3859SOL     OW23209   2.542   4.710  14.001  0.7675 -0.3935  0.4794
 3859SOL    HW123210   2.465   0.016  14.036  0.6225  0.2508 -0.6435
 3859SOL    HW223211   2.503   4.627  13.973 -0.0909  0.5730 -1.2198
 3860SOL     OW23212   0.641   2.177   7.448  0.0138  0.5382  0.5880
 3860SOL    HW123213   0.600   2.103   7.404 -3.5584  3.6396 -1.3061
 3860SOL    HW223214   0.578   2.215   7.509  0.2257  0.8063  0.6399
 3861SOL     OW23215   4.611   0.438   8.481 -0.2533  0.0202 -0.8079
 3861SOL    HW123216   4.674   0.417   8.413  2.0742  0.3641  1.2698
 3861SOL    HW223217   4.610   0.356   8.530  0.1209 -0.7683 -2.1440
 3862SOL     OW23218   0.026   3.340   6.833  0.1333 -0.2623  0.4572
 3862SOL    HW123219   4.714   3.350   6.914 -0.3163 -0.4934  0.2052
 3862SOL    HW223220   4.691   3.308   6.780 -0.4802  1.8702  0.0176
 3863SOL     OW23221   1.845   2.478   8.171  0.6225 -0.3465 -0.1920
 3863SOL    HW123222   1.800   2.520   8.098 -1.1616 -0.0688  1.0674
 3863SOL    HW223223   1.846   2.387   8.142 -0.2718 -0.8092  1.1924
 3864SOL     OW23224   2.376   0.472   3.534  0.0875 -0.4047  0.1531
 3864SOL    HW123225   2.360   0.566   3.546 -0.8267 -0.7234  1.5347
 3864SOL    HW223226   2.319   0.435   3.602  0.5552 -1.0427  0.2007
 3865SOL     OW23227   0.274   1.196   9.897 -0.5607 -0.7545  0.6737
 3865SOL    HW123228   0.265   1.103   9.918  0.0309 -1.3674 -1.8201
 3865SOL    HW223229   0.195   1.210   9.845  0.3700  0.3087 -0.4441
 3866SOL     OW23230   0.048   3.893   3.125  0.2368 -0.4182  0.4666
 3866SOL    HW123231   0.106   3.950   3.176  1.9284 -1.8257  0.0872
 3866SOL    HW223232   0.049   3.937   3.040  0.7028 -0.6289  0.3643
 3867SOL     OW23233   3.343   3.117   8.473 -0.0305 -0.2623  0.0484
 3867SOL    HW123234   3.292   3.068   8.537  0.5156 -0.9594 -0.0487
 3867SOL    HW223235   3.321   3.070   8.393 -1.4237 -1.1592  0.9655
 3868SOL     OW23236   1.656   2.792  17.695 -0.0052 -0.4923 -0.6214
 3868SOL    HW123237   1.603   2.712  17.697  3.3472 -2.6702  1.8941
 3868SOL    HW223238   1.702   2.778  17.612  0.0014 -0.9929 -0.5377
 3869SOL     OW23239   1.539   0.504   5.639  0.0802  0.3590 -0.3357
 3869SOL    HW123240   1.532   0.588   5.595  2.4101  1.7722  1.9946
 3869SOL    HW223241   1.517   0.440   5.571  0.3023  0.1358 -0.2026
 3870SOL     OW23242   0.832   0.187   1.689 -0.4717 -0.1382 -0.2010
 3870SOL    HW123243   0.812   0.107   1.640  1.4311 -1.3821  1.0509
 3870SOL    HW223244   0.747   0.229   1.700 -1.3305 -1.0801 -3.2626
 3871SOL     OW23245   4.069   2.382  11.796  0.3959  0.2581  0.3778
 3871SOL    HW123246   3.989   2.393  11.848  1.0584 -1.8228  1.8053
 3871SOL    HW223247   4.032   2.336  11.721  1.5359 -2.0571  1.2695
 3872SOL     OW23248   2.523   2.763   3.280  0.7220 -0.4428  0.2232
 3872SOL    HW123249   2.572   2.684   3.259  1.3602 -0.0437  0.2309
 3872SOL    HW223250   2.581   2.822   3.328  1.1252 -1.7287  1.3245
 3873SOL     OW23251   2.661   0.529   8.857 -0.1821 -0.1806 -0.5227
 3873SOL    HW123252   2.755   0.513   8.854 -0.3588 -1.6262  1.3654
 3873SOL    HW223253   2.631   0.450   8.812  1.0325  0.8571 -3.1663
 3874SOL     OW23254   0.709   3.655   4.133  0.1438  0.0447  0.0191
 3874SOL    HW123255   0.637   3.675   4.193 -0.8226 -1.4144 -0.6591
 3874SOL    HW223256   0.759   3.604   4.196  0.1854 -0.9593 -0.8119
 3875SOL     OW23257   3.747   3.000  14.039 -0.5479 -0.4437 -0.2546
 3875SOL    HW123258   3.766   2.947  13.961 -1.0668 -0.3924 -0.4183
 3875SOL    HW223259   3.663   2.965  14.067 -0.2543 -0.5868  0.4456
 3876SOL     OW23260   4.267   0.336   7.041  0.0407  0.5895 -0.5933
 3876SOL    HW123261   4.346   0.296   7.005  0.6148  1.4325 -0.2534
 3876SOL    HW223262   4.204   0.315   6.972 -0.8689  1.4064 -0.0107
 3877SOL     OW23263   2.776   0.606   4.826  0.4598 -0.0484  0.1231
 3877SOL    HW123264   2.860   0.569   4.799  1.3411  2.6118 -0.8459
 3877SOL    HW223265   2.728   0.535   4.868  0.1029 -0.4517 -0.9633
 3878SOL     OW23266   4.683   0.506   0.658 -0.3996 -0.6757 -0.3345
 3878SOL    HW123267   0.002   0.431   0.674 -0.2193  0.0970  2.6138
 3878SOL    HW223268   4.620   0.488   0.728 -0.4968 -2.5377 -0.8864
 3879SOL     OW23269   2.539   0.960  10.202  0.0865  0.1240 -0.0665
 3879SOL    HW123270   2.454   0.954  10.160  0.5419 -1.0873 -0.8084
 3879SOL    HW223271   2.594   0.894  10.161 -0.6784 -0.2494 -0.4849
 3880SOL     OW23272   2.356   2.202   4.857 -0.8341 -0.0213 -0.0113
 3880SOL    HW123273   2.442   2.201   4.898 -1.0605  0.2431  0.4772
 3880SOL    HW223274   2.320   2.138   4.919 -0.7565  0.1561  0.2141
 3881SOL     OW23275   2.140   2.433  16.256  0.0103 -0.0682 -0.1811
 3881SOL    HW123276   2.172   2.460  16.342 -2.2285 -1.2531  1.0253
 3881SOL    HW223277   2.073   2.501  16.247  1.9009  1.7511 -0.5888
 3882SOL     OW23278   0.799   3.009   1.543 -0.9116  0.0585  0.2561
 3882SOL    HW123279   0.833   3.086   1.498  0.6654 -1.7533 -1.6822
 3882SOL    HW223280   0.876   2.952   1.544 -0.3579  0.8039 -1.5373
 3883SOL     OW23281   3.780   1.293   9.344  0.1344 -0.2550  0.3860
 3883SOL    HW123282   3.703   1.262   9.297  0.9784 -1.4906 -0.1687
 3883SOL    HW223283   3.751   1.384   9.350 -0.4920 -0.5239  1.5083
 3884SOL     OW23284   2.474   3.998   3.408 -0.4499  0.4915 -0.1536
 3884SOL    HW123285   2.561   4.013   3.372  0.6419  1.0621  2.6944
 3884SOL    HW223286   2.438   3.937   3.344  0.6336 -1.8750  1.4746
 3885SOL     OW23287   0.158   3.988   1.733  0.1428 -0.4152  0.1711
 3885SOL    HW123288   0.138   3.930   1.660 -0.3277  0.5168 -0.4377
 3885SOL    HW223289   0.106   3.952   1.805 -0.2254 -2.1213 -0.9461
 3886SOL     OW23290   0.412   0.342   3.621 -0.2575  0.4196 -0.0009
 3886SOL    HW123291   0.463   0.290   3.683  0.5623  0.9407 -0.2259
 3886SOL    HW223292   0.409   0.294   3.538 -1.3237  0.3486  0.0909
 3887SOL     OW23293   1.126   1.496   5.515  0.3060 -0.0850 -0.7524
 3887SOL    HW123294   1.115   1.561   5.584  0.0572 -1.5310  0.5628
 3887SOL    HW223295   1.154   1.422   5.568  2.7564 -0.1501 -2.1501
 3888SOL     OW23296   0.685   2.837   5.132 -0.3250 -0.1191 -0.3574
 3888SOL    HW123297   0.692   2.930   5.110 -1.3452  0.0664  0.1320
 3888SOL    HW223298   0.756   2.823   5.195 -0.0031  0.4491 -0.5881
 3889SOL     OW23299   2.342   4.257   6.232  0.3074  0.7313  0.0896
 3889SOL    HW123300   2.382   4.280   6.315  0.6856 -0.3478  0.1998
 3889SOL    HW223301   2.310   4.168   6.243 -1.0021  1.1962  0.1576
 3890SOL     OW23302   1.608   4.541   5.899 -0.1987  1.2771 -0.0966
 3890SOL    HW123303   1.678   4.482   5.926  0.4182  2.5154  1.0217
 3890SOL    HW223304   1.651   4.621   5.930 -1.9005  1.9503  0.4948
 3891SOL     OW23305   3.496   1.170   6.839  0.1093 -0.4810 -0.2989
 3891SOL    HW123306   3.550   1.123   6.902 -0.0550  0.9205  0.8912
 3891SOL    HW223307   3.419   1.204   6.885 -0.0323  0.9106 -1.5813
 3892SOL     OW23308   1.267   4.295  12.392 -0.1708  0.5936 -0.7677
 3892SOL    HW123309   1.185   4.256  12.423  0.9730 -2.1763 -1.1598
 3892SOL    HW223310   1.249   4.382  12.427  1.1004  0.0467  1.2630
 3893SOL     OW23311   3.593   0.229   2.033  0.1709  0.2245 -0.2472
 3893SOL    HW123312   3.587   0.235   1.937 -0.9225 -1.6286 -0.2905
 3893SOL    HW223313   3.507   0.189   2.045  0.5318 -0.0896  1.2913
 3894SOL     OW23314   0.765   0.702  13.133 -0.1916  0.2526  0.4251
 3894SOL    HW123315   0.774   0.740  13.046 -0.3839 -1.9604 -0.5811
 3894SOL    HW223316   0.691   0.643  13.117  0.7138 -0.0568 -2.6496
 3895SOL     OW23317   2.339   3.915   2.021 -0.0645  0.6792 -0.3154
 3895SOL    HW123318   2.321   3.833   2.068  2.5673  0.5177  0.4076
 3895SOL    HW223319   2.396   3.960   2.083  0.6564 -0.6836  0.0140
 3896SOL     OW23320   0.450   0.420  15.359  0.3175 -0.0328  0.4567
 3896SOL    HW123321   0.435   0.380  15.444  1.1384 -1.8468 -0.2539
 3896SOL    HW223322   0.456   0.350  15.294 -2.2003 -0.9019  1.1838
 3897SOL     OW23323   0.561   3.513   6.357 -0.7500  0.0002 -0.7588
 3897SOL    HW123324   0.492   3.537   6.296 -1.2333 -0.4809 -0.4087
 3897SOL    HW223325   0.635   3.537   6.302 -0.6542 -1.1861 -1.1457
 3898SOL     OW23326   4.269   0.286  10.749  0.1919 -0.2346 -0.8339
 3898SOL    HW123327   4.196   0.264  10.692 -0.3783 -2.1961  0.6543
 3898SOL    HW223328   4.236   0.257  10.835  0.5936 -2.1067 -1.3100
 3899SOL     OW23329   1.420   1.788  15.119  0.4597  0.2070  0.0100
 3899SOL    HW123330   1.496   1.752  15.165  2.7154  2.1151 -2.2785
 3899SOL    HW223331   1.399   1.724  15.050 -0.3414 -0.0932  0.5221
 3900SOL     OW23332   2.876   2.955   5.340 -0.4053  0.3627  0.5994
 3900SOL    HW123333   2.873   3.049   5.322  0.6613  0.4086  0.6744
 3900SOL    HW223334   2.862   2.955   5.434  0.3052 -0.7922  0.6992
 3901SOL     OW23335   3.843   1.967   2.033 -0.0861 -0.4735 -0.1225
 3901SOL    HW123336   3.859   2.057   2.063 -1.1383 -0.3983  0.1980
 3901SOL    HW223337   3.932   1.933   2.034  1.3175  3.2730  1.9563
 3902SOL     OW23338   0.960   1.151   9.406  0.2988 -0.2083 -0.9010
 3902SOL    HW123339   0.894   1.094   9.366 -0.8561  0.9230 -0.6024
 3902SOL    HW223340   0.921   1.229   9.366 -1.3321 -0.6499 -0.2033
 3903SOL     OW23341   1.917   4.137   2.896  0.0943  0.1949  0.2757
 3903SOL    HW123342   1.853   4.194   2.939 -0.3475  0.9695 -1.3727
 3903SOL    HW223343   1.913   4.059   2.951  0.8583 -0.3714 -0.4795
 3904SOL     OW23344   4.097   4.498  14.717  0.1392  0.7785  0.3594
 3904SOL    HW123345   4.071   4.545  14.638 -2.5123  1.3821  1.5820
 3904SOL    HW223346   4.042   4.424  14.690  2.3589 -1.1896  1.2236
 3905SOL     OW23347   2.337   4.036   8.216  0.7061 -0.0148  0.2856
 3905SOL    HW123348   2.282   4.080   8.151  0.1919  2.0978  2.1461
 3905SOL    HW223349   2.269   3.977   8.247  0.5755  0.7853  1.5329
 3906SOL     OW23350   2.257   4.437   1.339 -0.1976  0.2941  0.1913
 3906SOL    HW123351   2.329   4.387   1.377 -1.3194 -0.5891  1.1615
 3906SOL    HW223352   2.191   4.430   1.409 -1.6141 -0.0207 -1.1679
 3907SOL     OW23353   1.563   0.118   7.686 -0.4460  0.3152  0.6933
 3907SOL    HW123354   1.542   0.085   7.598 -0.2927  0.3865  0.6307
 3907SOL    HW223355   1.657   0.132   7.675 -0.2608 -1.9010 -0.5987
 3908SOL     OW23356   4.081   3.366   7.929  0.1938 -0.0580  0.3388
 3908SOL    HW123357   4.011   3.306   7.954  0.2264 -0.3251 -0.2054
 3908SOL    HW223358   4.072   3.361   7.834 -1.4917  1.6306  0.4265
 3909SOL     OW23359   1.864   2.515   0.521 -0.1759  0.0820  0.8238
 3909SOL    HW123360   1.925   2.461   0.572  0.4890  0.0281 -0.0409
 3909SOL    HW223361   1.865   2.598   0.568  1.1272  1.0043 -0.8420
 3910SOL     OW23362   4.079   4.223   8.291  0.2026 -0.3582  0.0452
 3910SOL    HW123363   4.038   4.257   8.211 -1.1060  1.0512  1.3244
 3910SOL    HW223364   4.069   4.300   8.347  0.9005 -0.5595  0.4403
 3911SOL     OW23365   2.686   2.415   0.815 -0.1077  0.6167 -0.6731
 3911SOL    HW123366   2.684   2.483   0.748  0.0913 -0.6461 -1.9643
 3911SOL    HW223367   2.726   2.458   0.890 -1.1315 -0.8622  0.7167
 3912SOL     OW23368   3.227   0.533  15.215  0.3149  0.5630 -1.2067
 3912SOL    HW123369   3.181   0.490  15.286  2.8993  0.7343  0.5570
 3912SOL    HW223370   3.313   0.492  15.224 -0.7360 -0.6564  2.9446
 3913SOL     OW23371   3.161   0.524  11.224  0.6232 -0.0376 -0.5746
 3913SOL    HW123372   3.226   0.546  11.157 -0.9884 -2.3399 -2.8856
 3913SOL    HW223373   3.116   0.446  11.192  1.1401 -0.4654 -0.2392
 3914SOL     OW23374   4.733   3.517  15.862 -0.2965 -0.0787  0.2194
 3914SOL    HW123375   4.721   3.473  15.946 -1.0923 -3.0723 -1.4748
 3914SOL    HW223376   4.658   3.576  15.863 -0.7731 -0.6757 -1.1200
 3915SOL     OW23377   2.868   4.198  15.314 -0.3456  0.3001  0.2309
 3915SOL    HW123378   2.812   4.206  15.237  0.5721  2.2146 -0.2323
 3915SOL    HW223379   2.898   4.289  15.314  1.4147 -0.2927 -1.0759
 3916SOL     OW23380   0.144   3.952   8.188  0.2507 -0.2421 -0.6979
 3916SOL    HW123381   0.067   3.898   8.168  0.4211 -0.1381 -1.6406
 3916SOL    HW223382   0.098   4.029   8.222 -0.9296 -1.7409  1.1322
 3917SOL     OW23383   1.791   4.247   9.011 -0.8951  0.2492 -0.0833
 3917SOL    HW123384   1.750   4.189   9.075 -0.3677  2.0745  1.9012
 3917SOL    HW223385   1.846   4.189   8.958  0.6809  0.1062  1.7329
 3918SOL     OW23386   1.051   3.249   6.659 -0.8827  0.5117 -0.5445
 3918SOL    HW123387   1.144   3.267   6.672 -0.5583 -0.0790 -2.0279
 3918SOL    HW223388   1.050   3.269   6.565  2.9588  1.9712 -0.2827
 3919SOL     OW23389   2.803   3.283  15.858 -0.7969  0.6178 -0.1470
 3919SOL    HW123390   2.731   3.266  15.798  1.1369 -1.2023 -1.9194
 3919SOL    HW223391   2.775   3.248  15.943 -0.8909 -1.5935 -1.1026
 3920SOL     OW23392   3.989   2.982  11.581 -0.2026  0.3272  0.0973
 3920SOL    HW123393   4.024   2.931  11.654 -1.2601 -0.0470  0.3441
 3920SOL    HW223394   3.977   2.922  11.507  1.6074  1.2369 -0.9202
 3921SOL     OW23395   0.317   1.674   8.756  0.5976  0.5800 -0.2509
 3921SOL    HW123396   0.243   1.615   8.745  0.4939  0.3846  1.5774
 3921SOL    HW223397   0.280   1.751   8.713 -0.5565 -0.3368 -0.9012
 3922SOL     OW23398   0.971   2.917   5.526  0.3478  0.1207  0.2199
 3922SOL    HW123399   1.035   2.847   5.540  0.1601 -0.0854  0.0441
 3922SOL    HW223400   1.030   2.992   5.537  0.3316  0.2929 -0.8645
 3923SOL     OW23401   1.282   1.789   2.480 -0.1619  0.0058  0.1083
 3923SOL    HW123402   1.314   1.780   2.390  1.1268 -1.2156  0.6857
 3923SOL    HW223403   1.189   1.796   2.459  0.1812  1.1215 -1.0718
 3924SOL     OW23404   2.884   4.206  10.455 -0.0716 -0.6841 -0.3491
 3924SOL    HW123405   2.887   4.119  10.416  1.6442 -0.0285 -1.7004
 3924SOL    HW223406   2.868   4.179  10.545  1.0427 -3.2238 -0.9011
 3925SOL     OW23407   3.037   2.046   4.657 -0.1182  0.1491 -0.2130
 3925SOL    HW123408   3.091   2.123   4.676  0.8771 -0.1513 -1.8158
 3925SOL    HW223409   3.097   1.991   4.607  1.5683  2.5701 -0.8740
 3926SOL     OW23410   2.286   0.679   2.927  0.3629 -0.2589  0.1825
 3926SOL    HW123411   2.306   0.591   2.958  1.5828 -0.9368 -2.5599
 3926SOL    HW223412   2.242   0.727   2.997 -0.5129 -2.8549  1.4075
 3927SOL     OW23413   2.752   3.121   9.109  0.3837 -0.0960  0.3436
 3927SOL    HW123414   2.799   3.110   9.192 -1.4549 -0.0470  1.3864
 3927SOL    HW223415   2.700   3.199   9.125  0.2572 -0.7727  3.3537
 3928SOL     OW23416   2.932   4.505  14.358 -0.3570  0.3259 -0.2677
 3928SOL    HW123417   2.893   4.532  14.275  0.4867 -0.1693 -0.8259
 3928SOL    HW223418   3.011   4.454  14.336  0.9417  2.7031 -1.0683
 3929SOL     OW23419   3.219   0.812   2.276 -0.2707 -0.3422 -0.3715
 3929SOL    HW123420   3.141   0.857   2.244  0.4251  1.5785  0.5703
 3929SOL    HW223421   3.208   0.720   2.254 -1.1877 -0.0932 -0.9182
 3930SOL     OW23422   1.837   2.661   2.948  0.1316 -0.0628 -0.3477
 3930SOL    HW123423   1.862   2.665   3.040  0.1957 -1.2175 -0.3121
 3930SOL    HW223424   1.800   2.573   2.947  0.9958 -0.4207 -0.1018
 3931SOL     OW23425   2.202   0.374   2.663  0.6476 -0.2483 -0.3367
 3931SOL    HW123426   2.173   0.338   2.580  0.4219  0.1883 -0.4492
 3931SOL    HW223427   2.289   0.338   2.683 -0.4182 -2.8898 -0.5505
 3932SOL     OW23428   3.940   2.313   6.935 -0.1944  0.4137  0.0368
 3932SOL    HW123429   3.884   2.271   6.869 -2.3931  1.6610  1.0918
 3932SOL    HW223430   3.887   2.390   6.956  1.4575  1.7987 -0.8557
 3933SOL     OW23431   4.274   0.771   3.642  0.7487 -0.2914 -0.1100
 3933SOL    HW123432   4.200   0.763   3.702  2.5300  0.7640  2.2477
 3933SOL    HW223433   4.341   0.776   3.710 -0.4941 -2.4513  1.2775
 3934SOL     OW23434   4.704   1.711   8.210  0.2710  0.0749 -0.1174
 3934SOL    HW123435   0.024   1.654   8.259 -1.0512 -0.4990  0.8032
 3934SOL    HW223436   4.620   1.673   8.235  0.1497 -0.5848 -1.5780
 3935SOL     OW23437   2.319   0.378  12.349  0.3948  0.2257 -0.2754
 3935SOL    HW123438   2.397   0.323  12.343  0.6966  0.5464  0.7036
 3935SOL    HW223439   2.283   0.380  12.260 -0.3658  0.6508  0.0395
 3936SOL     OW23440   1.257   4.651   8.528  0.0997 -0.1302 -1.0557
 3936SOL    HW123441   1.265   4.684   8.439  0.2491 -0.3328 -1.1171
 3936SOL    HW223442   1.325   4.584   8.536  0.7909  0.6326 -0.5677
 3937SOL     OW23443   3.125   4.507   7.462  0.0373 -0.2841  0.0638
 3937SOL    HW123444   3.129   4.572   7.532 -0.4523 -0.8111  0.5767
 3937SOL    HW223445   3.097   4.561   7.388 -1.7623 -0.4749  0.6145
 3938SOL     OW23446   1.103   0.299   9.039  0.2543  0.4808  0.0236
 3938SOL    HW123447   1.157   0.376   9.028 -0.7004  1.1092 -0.2998
 3938SOL    HW223448   1.098   0.291   9.134 -0.8712  1.0952  0.0111
 3939SOL     OW23449   1.871   3.295   6.693  0.3750 -0.4094  1.0202
 3939SOL    HW123450   1.883   3.335   6.779 -0.2284  2.4163 -0.2071
 3939SOL    HW223451   1.941   3.233   6.674 -0.3375 -0.0083 -2.7874
 3940SOL     OW23452   2.671   3.799   2.708 -1.0496  0.5987 -0.5669
 3940SOL    HW123453   2.635   3.802   2.796  0.3912 -0.7264  0.0673
 3940SOL    HW223454   2.640   3.715   2.675  1.2746 -0.7897  0.8127
 3941SOL     OW23455   2.924   0.186   2.712 -0.2804  0.6315  0.0554
 3941SOL    HW123456   2.910   0.137   2.631 -1.0032  0.4834  0.2647
 3941SOL    HW223457   3.019   0.194   2.720 -0.1012 -1.0186 -0.3008
 3942SOL     OW23458   4.245   0.653   5.583 -0.3130  0.6664 -0.0675
 3942SOL    HW123459   4.294   0.619   5.658 -1.1950 -1.3685 -0.4012
 3942SOL    HW223460   4.244   0.746   5.604 -1.1306  0.6294  0.0572
 3943SOL     OW23461   2.284   0.526  13.437 -0.0372  0.1351  0.9843
 3943SOL    HW123462   2.248   0.482  13.514 -0.9379 -2.0495 -0.6903
 3943SOL    HW223463   2.373   0.495  13.417  0.3254  0.1871  2.5268
 3944SOL     OW23464   0.643   1.955   2.588  0.5121 -0.3059 -0.1633
 3944SOL    HW123465   0.610   1.868   2.612 -0.1207  0.4917  1.8283
 3944SOL    HW223466   0.734   1.930   2.570  1.0370  1.2853  0.3419
 3945SOL     OW23467   3.838   2.006   5.713  0.1932 -0.3196  0.8023
 3945SOL    HW123468   3.899   2.003   5.640  0.8511  0.7476  1.3027
 3945SOL    HW223469   3.766   2.061   5.681 -0.7255 -1.3229  1.1803
 3946SOL     OW23470   4.507   2.791  11.023 -0.2548 -0.2203 -0.3726
 3946SOL    HW123471   4.413   2.793  11.003 -0.2736 -1.5964 -0.4369
 3946SOL    HW223472   4.506   2.781  11.118 -1.4471  2.1622 -0.1469
 3947SOL     OW23473   0.252   1.241   3.444  0.2639  0.7794  0.1376
 3947SOL    HW123474   0.257   1.208   3.534  0.3833  0.2966 -0.0461
 3947SOL    HW223475   0.186   1.308   3.457  0.8379  1.8589 -2.5115
 3948SOL     OW23476   0.652   0.564   9.601 -0.0493 -0.1113 -0.2151
 3948SOL    HW123477   0.708   0.526   9.669 -1.1552  0.9635  1.2850
 3948SOL    HW223478   0.680   0.656   9.604  0.8231 -0.3008 -2.4495
 3949SOL     OW23479   2.245   1.124   9.139 -0.5820 -0.2824  0.0824
 3949SOL    HW123480   2.246   1.065   9.214 -0.1543  0.1181  0.3907
 3949SOL    HW223481   2.151   1.125   9.121 -0.2094  2.3439 -1.6939
 3950SOL     OW23482   2.563   0.003   7.538 -0.0162  0.3074 -0.3644
 3950SOL    HW123483   2.605   0.030   7.456  0.1770 -1.6522 -0.9110
 3950SOL    HW223484   2.556   4.650   7.511 -1.6886  0.0151  1.0797
 3951SOL     OW23485   0.434   1.589   0.377 -0.4814  0.1278  0.4099
 3951SOL    HW123486   0.507   1.529   0.363 -1.2265 -1.0345  1.5022
 3951SOL    HW223487   0.486   1.669   0.363 -0.0137  0.0371  1.6355
 3952SOL     OW23488   0.940   0.330   5.863  0.2644 -0.0801  0.3675
 3952SOL    HW123489   0.989   0.357   5.786  0.6065  0.4429  0.7659
 3952SOL    HW223490   0.904   0.244   5.841  1.6312 -0.9907  1.6134
 3953SOL     OW23491   2.440   3.133   6.607  0.5139 -0.2170 -0.5161
 3953SOL    HW123492   2.492   3.165   6.533 -0.0516  2.2621  0.1558
 3953SOL    HW223493   2.501   3.130   6.681  0.8276  0.8989 -0.7196
 3954SOL     OW23494   4.531   2.112   6.263 -0.5180 -0.2305  0.6749
 3954SOL    HW123495   4.489   2.150   6.340 -0.4671  0.9093  0.1302
 3954SOL    HW223496   4.600   2.178   6.253 -1.4677  0.5254 -0.7278
 3955SOL     OW23497   3.113   3.840  12.962 -0.3999  0.4120  0.3715
 3955SOL    HW123498   3.206   3.823  12.973 -0.6277 -1.9266 -1.1121
 3955SOL    HW223499   3.074   3.763  13.003  0.0543  1.8119  3.3810
 3956SOL     OW23500   4.025   4.014   8.731 -0.2746 -0.1991 -0.5276
 3956SOL    HW123501   4.102   3.958   8.728 -0.4202 -0.3260 -2.1103
 3956SOL    HW223502   4.012   4.019   8.636  3.6502  1.3263 -0.9969
 3957SOL     OW23503   0.095   0.437  17.704 -0.1967 -0.0458 -0.2009
 3957SOL    HW123504   0.140   0.436  17.619 -2.8797  0.2550 -1.6430
 3957SOL    HW223505   0.173   0.440   0.006  0.4174 -0.9169 -1.0075
 3958SOL     OW23506   0.683   3.657   7.816 -0.2949 -0.3589  0.2140
 3958SOL    HW123507   0.775   3.637   7.797 -0.2323  0.5738 -0.4847
 3958SOL    HW223508   0.647   3.666   7.727 -1.4343  0.0126  0.7164
 3959SOL     OW23509   3.735   3.900  13.629  0.3400 -0.2717 -0.0129
 3959SOL    HW123510   3.640   3.905  13.618  0.1263  0.5619  2.3664
 3959SOL    HW223511   3.738   3.836  13.700  1.4450 -1.8317 -1.4523
 3960SOL     OW23512   1.018   0.957   7.859  0.1000  0.4065  0.2264
 3960SOL    HW123513   1.082   0.983   7.793  0.9874 -1.1186  0.4736
 3960SOL    HW223514   0.937   0.983   7.814  0.0325 -1.2535 -0.6306
 3961SOL     OW23515   4.002   1.642  11.789  0.3983 -0.0540 -0.1589
 3961SOL    HW123516   4.006   1.598  11.874 -2.1307  0.7739  0.3897
 3961SOL    HW223517   4.080   1.695  11.794  1.0898 -1.0561 -0.2438
 3962SOL     OW23518   3.756   3.262   9.205  0.0259  0.3939 -0.3037
 3962SOL    HW123519   3.831   3.204   9.196 -0.2341 -0.3160  2.1250
 3962SOL    HW223520   3.757   3.275   9.300 -1.5057 -3.1168  0.1850
 3963SOL     OW23521   3.016   1.351   8.165 -0.2159  0.1918  0.0711
 3963SOL    HW123522   3.036   1.444   8.162  1.6448 -0.1563  2.2040
 3963SOL    HW223523   3.062   1.316   8.088  1.1708  1.1533  0.4676
 3964SOL     OW23524   2.803   2.372   5.432  0.7036 -0.5386 -0.0985
 3964SOL    HW123525   2.813   2.445   5.371 -1.6416  3.5437  4.3987
 3964SOL    HW223526   2.881   2.382   5.486  0.9530  0.1113 -0.5748
 3965SOL     OW23527   1.127   2.173   4.371  0.5536  0.2968 -0.5764
 3965SOL    HW123528   1.169   2.237   4.314  2.1821 -0.5089 -0.2816
 3965SOL    HW223529   1.173   2.098   4.334 -2.9261 -1.1573 -1.9858
 3966SOL     OW23530   1.648   1.788   0.764  0.0518 -0.4204 -0.3081
 3966SOL    HW123531   1.630   1.694   0.768  0.3529 -0.4558  0.2575
 3966SOL    HW223532   1.670   1.803   0.855 -0.3919 -0.2190 -0.2333
 3967SOL     OW23533   1.050   2.356  13.348  0.2226 -0.4979  0.2413
 3967SOL    HW123534   0.979   2.372  13.286  0.3397 -0.6823  0.0620
 3967SOL    HW223535   1.096   2.281  13.310  2.3100  0.4119  0.9615
 3968SOL     OW23536   1.054   3.083   7.004  0.7229 -0.3260 -0.3092
 3968SOL    HW123537   1.104   3.027   7.064  1.6108  0.0338 -0.7243
 3968SOL    HW223538   0.974   3.033   6.988 -0.8299  2.2784 -0.6595
 3969SOL     OW23539   2.503   1.884   6.381 -0.5125  0.3421 -0.4353
 3969SOL    HW123540   2.540   1.803   6.345 -2.7583 -1.1436  0.6053
 3969SOL    HW223541   2.415   1.881   6.344 -1.1224  2.3686  0.8651
 3970SOL     OW23542   2.084   4.064   6.071 -0.0901  0.2540  0.4424
 3970SOL    HW123543   2.087   4.159   6.073  0.1210  0.2991 -1.9296
 3970SOL    HW223544   2.046   4.051   6.158  0.3054 -0.1898  0.5478
 3971SOL     OW23545   2.074   3.423  10.561  0.5557 -0.1346  0.3266
 3971SOL    HW123546   1.989   3.406  10.520  0.6715  2.3754 -0.9186
 3971SOL    HW223547   2.085   3.342  10.612 -1.1982 -0.4078  0.2815
 3972SOL     OW23548   4.129   3.323   4.113  0.5462  0.5383 -0.5683
 3972SOL    HW123549   4.085   3.339   4.197 -2.2012 -1.5744 -1.6287
 3972SOL    HW223550   4.170   3.236   4.112 -0.7165 -0.0466 -0.8830
 3973SOL     OW23551   2.798   3.927   0.429 -0.6715  0.5357 -0.0219
 3973SOL    HW123552   2.706   3.903   0.436 -0.6048  0.0080 -0.9361
 3973SOL    HW223553   2.790   4.021   0.446  0.7851  1.1585 -2.6821
 3974SOL     OW23554   2.660   0.820   6.948 -0.9365 -0.4186  0.0170
 3974SOL    HW123555   2.581   0.865   6.977 -1.6737 -0.5550 -1.7641
 3974SOL    HW223556   2.688   0.757   7.015 -1.5878 -1.7357 -0.9529
 3975SOL     OW23557   2.140   2.847   4.985 -0.4217 -0.2409  0.5562
 3975SOL    HW123558   2.198   2.875   5.056 -0.1696 -0.6226  0.4995
 3975SOL    HW223559   2.134   2.753   5.004  0.2088 -0.3937  0.0100
 3976SOL     OW23560   2.819   1.408  11.025  0.1708 -0.3984 -0.6139
 3976SOL    HW123561   2.734   1.365  11.018 -0.6314  1.0405  0.3320
 3976SOL    HW223562   2.838   1.383  11.115 -0.7152  1.6841  0.1565
 3977SOL     OW23563   1.053   4.349   7.437 -0.3132  0.4153  0.0077
 3977SOL    HW123564   1.121   4.314   7.378 -0.5779  0.7723 -0.5051
 3977SOL    HW223565   1.037   4.277   7.498 -0.1468  1.0122  0.7453
 3978SOL     OW23566   2.031   1.248   8.519  0.1837 -0.4883 -0.3647
 3978SOL    HW123567   2.094   1.251   8.591  1.0075 -3.4059 -0.9782
 3978SOL    HW223568   2.054   1.167   8.473  2.4167  0.1256 -0.3133
 3979SOL     OW23569   1.374   1.906   0.282  0.0657  0.4083 -0.0984
 3979SOL    HW123570   1.359   1.976   0.346 -0.8061 -0.5363  0.7307
 3979SOL    HW223571   1.316   1.836   0.310  0.3363 -0.0590 -0.7097
 3980SOL     OW23572   1.621   3.913  12.510 -0.5629  0.2963  0.2188
 3980SOL    HW123573   1.650   4.003  12.525 -1.1306  0.1122  2.3966
 3980SOL    HW223574   1.672   3.898  12.430 -1.3228  0.3868 -0.2798
 3981SOL     OW23575   0.485   2.201  11.537 -0.2861 -0.2862 -0.2800
 3981SOL    HW123576   0.410   2.249  11.503 -0.7113 -0.7711 -0.0294
 3981SOL    HW223577   0.441   2.135  11.590  0.4584 -1.6134 -1.3020
 3982SOL     OW23578   1.494   4.460   2.844 -0.1229 -0.5363 -0.3515
 3982SOL    HW123579   1.477   4.378   2.892 -0.8129  0.2294  0.6976
 3982SOL    HW223580   1.441   4.525   2.889 -0.8370  1.3903 -4.0143
 3983SOL     OW23581   0.303   3.350   2.472 -0.2650 -0.2400  0.2573
 3983SOL    HW123582   0.282   3.262   2.504  0.4425  0.2646  2.1010
 3983SOL    HW223583   0.396   3.345   2.451 -0.0684  0.4317  0.9870
 3984SOL     OW23584   1.516   2.132   7.252 -0.1856  0.1707  0.2545
 3984SOL    HW123585   1.562   2.173   7.326  1.6570 -1.5289  0.0466
 3984SOL    HW223586   1.423   2.135   7.276 -0.2787 -1.4976  0.1037
 3985SOL     OW23587   1.663   3.776  15.364  0.2393 -0.0037 -0.5575
 3985SOL    HW123588   1.638   3.826  15.442  0.3051 -1.1994  0.2287
 3985SOL    HW223589   1.640   3.689  15.395  3.3092 -0.9460 -0.9408
 3986SOL     OW23590   3.453   4.571   0.544  0.1105 -0.2971 -0.0396
 3986SOL    HW123591   3.418   4.613   0.623 -0.9423  0.3894 -0.8767
 3986SOL    HW223592   3.398   4.593   0.469  0.1200  0.6921  0.2465
 3987SOL     OW23593   2.277   2.823  10.902 -0.3633  0.0003  0.7503
 3987SOL    HW123594   2.252   2.760  10.970  0.6642 -0.3213  0.8259
 3987SOL    HW223595   2.338   2.865  10.963  0.6313  0.4456 -0.5479
 3988SOL     OW23596   0.407   3.452   9.299 -0.6727  0.7500 -0.4686
 3988SOL    HW123597   0.359   3.435   9.217 -0.6899 -1.4811  0.0028
 3988SOL    HW223598   0.474   3.384   9.293  0.3779  1.8789 -1.7144
 3989SOL     OW23599   2.515   2.312   3.007 -0.3584 -0.7298  0.2381
 3989SOL    HW123600   2.602   2.351   3.016 -0.3086 -0.0853 -3.1225
 3989SOL    HW223601   2.475   2.339   2.925  1.7505 -0.2539 -0.6287
 3990SOL     OW23602   3.688   2.210   3.247  0.3336 -0.0654 -0.1299
 3990SOL    HW123603   3.691   2.294   3.201 -2.4507  0.5906  0.8752
 3990SOL    HW223604   3.656   2.157   3.174  2.4264  0.5767 -1.4920
 3991SOL     OW23605   2.402   0.520   6.959 -0.0379  0.0971 -0.1694
 3991SOL    HW123606   2.426   0.518   7.052  2.0416 -0.9306 -0.7243
 3991SOL    HW223607   2.351   0.600   6.961 -0.7097 -0.3231 -0.7711
 3992SOL     OW23608   2.628   2.035   3.021 -0.0976 -0.3020 -0.1552
 3992SOL    HW123609   2.640   2.087   3.101  0.5206 -2.4811  1.1833
 3992SOL    HW223610   2.585   1.957   3.056  0.9705 -1.0306 -0.4339
 3993SOL     OW23611   1.794   1.547  14.338  0.3087  0.1970 -0.4566
 3993SOL    HW123612   1.874   1.495  14.342 -0.2112 -0.5255  0.5175
 3993SOL    HW223613   1.755   1.528  14.252 -0.3758  0.3348 -0.1714
 3994SOL     OW23614   3.186   0.071  11.241 -0.0144 -0.1169  0.1446
 3994SOL    HW123615   3.280   0.070  11.257 -0.0059  2.0303  0.2156
 3994SOL    HW223616   3.143   0.017  11.308 -2.7548  0.6366 -0.9810
 3995SOL     OW23617   2.632   0.379   2.679 -0.7422  0.0724  0.0648
 3995SOL    HW123618   2.583   0.456   2.652 -0.3185 -0.2164 -1.5424
 3995SOL    HW223619   2.563   0.331   2.726  0.4614 -2.5680 -0.8573
 3996SOL     OW23620   1.648   0.628   8.356 -0.4673  0.0007 -0.0137
 3996SOL    HW123621   1.712   0.628   8.427 -0.8028 -2.1854  0.2979
 3996SOL    HW223622   1.625   0.536   8.343  0.7879 -0.4557  0.9848
 3997SOL     OW23623   3.519   0.364  16.145 -0.4081 -0.7060 -0.4230
 3997SOL    HW123624   3.566   0.400  16.070 -0.8488 -0.9749 -0.8273
 3997SOL    HW223625   3.551   0.274  16.144 -1.1502 -0.9888  1.6185
 3998SOL     OW23626   3.019   1.442   6.864  0.0465  0.0423 -0.1432
 3998SOL    HW123627   3.001   1.478   6.951 -0.5549  2.3683 -1.2171
 3998SOL    HW223628   2.952   1.375   6.857  0.1615 -0.0690 -0.1691
 3999SOL     OW23629   0.698   1.521   7.164  0.7728 -0.5590  0.1776
 3999SOL    HW123630   0.702   1.521   7.068 -1.0481  1.4615  0.0848
 3999SOL    HW223631   0.764   1.587   7.186 -0.2270  0.4017  0.3070
 4000SOL     OW23632   2.153   0.007  11.079  0.3600  0.3458  0.1694
 4000SOL    HW123633   2.193   4.726  10.994 -2.8214 -1.1278 -1.0067
 4000SOL    HW223634   2.225   0.037  11.134  0.7597 -0.4606  0.0907
 4001SOL     OW23635   3.343   0.159   4.871 -0.0170  0.7808 -0.1692
 4001SOL    HW123636   3.410   0.222   4.846  0.0903  0.5678 -0.4273
 4001SOL    HW223637   3.326   0.129   4.781  0.7377 -0.7147  0.1920
 4002SOL     OW23638   1.983   1.221   5.477  0.0301 -0.7462 -0.8797
 4002SOL    HW123639   1.916   1.270   5.429  1.0313  0.1778 -1.3335
 4002SOL    HW223640   2.053   1.286   5.483 -0.2770 -0.4304 -0.7004
 4003SOL     OW23641   4.014   0.731   5.858 -0.1143 -0.3557 -0.6075
 4003SOL    HW123642   3.967   0.648   5.863  1.0345 -0.8645  1.6554
 4003SOL    HW223643   3.946   0.772   5.804 -0.6025  0.6347  0.7375
 4004SOL     OW23644   4.128   3.583   3.356  0.8085 -0.0451  0.0503
 4004SOL    HW123645   4.212   3.536   3.356  1.1507  0.5583  0.0781
 4004SOL    HW223646   4.089   3.553   3.275 -0.9373 -1.4918  1.4432
 4005SOL     OW23647   3.037   4.180  10.831  0.1924 -0.1207 -0.0964
 4005SOL    HW123648   3.085   4.151  10.754  1.6487 -0.2295  0.8664
 4005SOL    HW223649   3.031   4.274  10.815  1.1297  0.3609  2.4370
 4006SOL     OW23650   2.301   3.048   2.239 -0.2670 -0.1915  0.1559
 4006SOL    HW123651   2.309   2.953   2.230 -0.1556 -0.2353  0.7207
 4006SOL    HW223652   2.282   3.076   2.150 -0.0021  1.1653  0.5254
 4007SOL     OW23653   3.268   0.052   3.731 -0.3921  0.2243  0.0561
 4007SOL    HW123654   3.208   0.048   3.656 -2.7585  1.6355  1.8619
 4007SOL    HW223655   3.247   0.140   3.763 -0.1522  0.1866  0.3153
 4008SOL     OW23656   3.170   3.086  15.411  0.4611  0.5960  0.6905
 4008SOL    HW123657   3.218   3.006  15.388 -0.9319 -0.1562  0.3975
 4008SOL    HW223658   3.094   3.053  15.459 -0.8569  0.2258 -1.6455
 4009SOL     OW23659   3.576   3.053   0.696 -0.6509 -1.0023 -0.2484
 4009SOL    HW123660   3.483   3.030   0.700 -1.2816  1.5447 -0.3510
 4009SOL    HW223661   3.616   2.973   0.730  2.8381  0.0707 -1.8031
 4010SOL     OW23662   4.244   1.924   3.180  0.2970  0.2211  0.0504
 4010SOL    HW123663   4.207   1.855   3.235 -2.5852  0.9784 -0.9900
 4010SOL    HW223664   4.237   1.872   3.100 -0.1404 -0.4018  0.5042
 4011SOL     OW23665   0.547   0.736   9.105  0.0300 -0.2182 -0.2266
 4011SOL    HW123666   0.529   0.824   9.072  2.0209  0.8990  1.7536
 4011SOL    HW223667   0.635   0.724   9.071 -0.2131  0.4151 -1.0850
 4012SOL     OW23668   2.267   3.635  10.305 -0.1272 -0.5629  0.0636
 4012SOL    HW123669   2.350   3.681  10.304  0.8929 -2.3758  1.1199
 4012SOL    HW223670   2.214   3.706  10.269 -0.0851 -0.5114  0.1025
 4013SOL     OW23671   1.805   2.080   5.903 -0.3655 -1.0250  0.2982
 4013SOL    HW123672   1.818   2.174   5.917  1.6594 -1.0418 -1.5360
 4013SOL    HW223673   1.853   2.064   5.822 -1.2275 -1.9535 -0.0374
 4014SOL     OW23674   1.204   2.023   8.671  0.0247  0.1255  0.4032
 4014SOL    HW123675   1.151   1.981   8.604  0.6761  0.2295 -0.1717
 4014SOL    HW223676   1.258   1.955   8.712  1.6845  1.3398  0.2312
 4015SOL     OW23677   1.853   1.345   6.425  0.4794 -0.1427 -0.6600
 4015SOL    HW123678   1.808   1.279   6.372 -2.1406 -1.0787  2.7368
 4015SOL    HW223679   1.833   1.430   6.384  0.5594 -0.5383 -1.5137
 4016SOL     OW23680   1.336   3.862   4.743  0.4412 -0.0068  0.3328
 4016SOL    HW123681   1.343   3.857   4.838  1.5105  0.5713  0.2780
 4016SOL    HW223682   1.361   3.953   4.728 -2.3171  0.5218 -1.1904
 4017SOL     OW23683   1.562   3.008   8.279  0.0614 -0.4191  0.2586
 4017SOL    HW123684   1.523   2.922   8.263 -0.2658  0.3013 -2.8759
 4017SOL    HW223685   1.587   3.004   8.371  0.2555 -1.9959  0.1345
 4018SOL     OW23686   3.440   1.642  13.567  0.4540  0.1399  0.4149
 4018SOL    HW123687   3.426   1.615  13.657 -2.3755 -0.7368 -0.2955
 4018SOL    HW223688   3.530   1.613  13.553  0.5079  0.9078 -0.8225
 4019SOL     OW23689   1.458   1.958   9.475 -0.4354  0.2634 -0.6245
 4019SOL    HW123690   1.492   1.885   9.422  0.8602 -1.3251  2.3619
 4019SOL    HW223691   1.368   1.933   9.497  0.1141 -2.7752 -1.8292
 4020SOL     OW23692   2.658   0.673   1.370 -0.4687 -0.3481  0.4797
 4020SOL    HW123693   2.735   0.731   1.368 -0.3756 -0.3928  2.9763
 4020SOL    HW223694   2.695   0.586   1.387 -0.9488 -0.7110 -0.3090
 4021SOL     OW23695   2.136   3.180  10.667  0.2485  0.4077  0.2434
 4021SOL    HW123696   2.212   3.136  10.705  1.6677  0.0418 -3.0179
 4021SOL    HW223697   2.068   3.124  10.706  2.1540 -1.4430  0.8709
 4022SOL     OW23698   3.362   0.109   4.586  0.8644 -0.5549 -1.2103
 4022SOL    HW123699   3.444   0.155   4.604 -0.2951  0.7623  0.7749
 4022SOL    HW223700   3.332   0.188   4.541 -1.4340 -0.7555 -0.0472
 4023SOL     OW23701   2.674   0.897   6.495  0.1975  0.2124 -0.2856
 4023SOL    HW123702   2.729   0.821   6.514 -0.6679 -0.8143 -1.9224
 4023SOL    HW223703   2.631   0.862   6.418  1.2019 -2.1654  0.2486
 4024SOL     OW23704   0.102   1.163   8.720 -0.6524  0.1732 -0.1251
 4024SOL    HW123705   0.151   1.110   8.783 -1.3268  0.6222  0.7929
 4024SOL    HW223706   0.020   1.172   8.769 -1.9638 -1.3266 -2.0630
 4025SOL     OW23707   1.444   2.744   6.619  0.1252 -0.0092 -0.1357
 4025SOL    HW123708   1.484   2.793   6.691  0.1602 -0.7205  0.3319
 4025SOL    HW223709   1.490   2.661   6.633 -0.2539 -0.5559 -2.1629
 4026SOL     OW23710   4.048   4.229   5.355  0.2809  0.3310  0.3154
 4026SOL    HW123711   4.045   4.150   5.409  3.3309  0.6364  0.9137
 4026SOL    HW223712   4.067   4.195   5.268 -1.0396  0.6539 -0.1032
 4027SOL     OW23713   0.070   1.731  13.363  0.8428 -0.6296 -0.2602
 4027SOL    HW123714   0.043   1.734  13.271  1.0163  0.5794 -0.2701
 4027SOL    HW223715   0.129   1.806  13.366  2.2534 -1.7927  1.4119
 4028SOL     OW23716   4.266   3.035   4.719  0.2402 -0.0647 -0.1755
 4028SOL    HW123717   4.323   3.003   4.649 -1.5070 -0.7317 -1.2973
 4028SOL    HW223718   4.212   3.103   4.679  0.0081  0.1768  0.5390
 4029SOL     OW23719   3.920   4.578  13.188 -0.0941 -0.2111  0.6175
 4029SOL    HW123720   3.997   4.524  13.174  0.0185  0.2594 -0.5794
 4029SOL    HW223721   3.884   4.594  13.101  1.4087  0.5480  0.1494
 4030SOL     OW23722   1.822   4.144   2.633 -0.6055  0.1367  0.4014
 4030SOL    HW123723   1.861   4.118   2.716  2.0665  1.0055 -0.5914
 4030SOL    HW223724   1.731   4.127   2.658 -0.2596  0.0072  1.5612
 4031SOL     OW23725   1.189   3.459   2.070 -0.5313  0.1732  0.7688
 4031SOL    HW123726   1.257   3.422   2.126  1.7239  2.4891 -0.4266
 4031SOL    HW223727   1.122   3.471   2.138 -0.6168  0.3279  0.6582
 4032SOL     OW23728   0.502   2.620   6.110  0.1379 -0.0232  0.0567
 4032SOL    HW123729   0.446   2.636   6.033 -2.3363 -1.5572  1.5405
 4032SOL    HW223730   0.565   2.553   6.083  0.3806  0.2899 -0.1552
 4033SOL     OW23731   2.696   1.668   5.424  0.3035  0.5245 -0.1857
 4033SOL    HW123732   2.757   1.624   5.484 -0.2715 -1.0148 -0.7469
 4033SOL    HW223733   2.623   1.688   5.483 -1.4275 -0.4852 -2.0238
 4034SOL     OW23734   2.812   3.510  14.431 -0.7960  0.5478  0.8704
 4034SOL    HW123735   2.722   3.477  14.439 -0.3883 -0.3904  1.6010
 4034SOL    HW223736   2.863   3.430  14.449 -2.0757 -1.3177 -3.8550
 4035SOL     OW23737   2.080   3.703  12.342  0.1197 -0.0239 -0.7175
 4035SOL    HW123738   2.136   3.668  12.411  1.5573 -2.1935 -2.9999
 4035SOL    HW223739   2.132   3.705  12.262  0.4809 -0.3838 -0.4873
 4036SOL     OW23740   4.580   4.423   6.767  0.1420  0.6816  0.0093
 4036SOL    HW123741   4.611   4.360   6.832  0.6098  0.9358  0.0357
 4036SOL    HW223742   4.656   4.428   6.709  2.1234  0.7313  2.5947
 4037SOL     OW23743   2.363   0.575   7.558  0.3259 -0.2743  0.5085
 4037SOL    HW123744   2.393   0.650   7.506 -2.0893  0.4517  0.2014
 4037SOL    HW223745   2.269   0.589   7.548  0.4633  0.1371 -0.2297
 4038SOL     OW23746   1.780   1.018   7.733 -0.1056 -0.5460  0.3292
 4038SOL    HW123747   1.759   0.980   7.648  0.0759  0.6402 -0.2450
 4038SOL    HW223748   1.704   0.991   7.784 -0.6508 -0.8126 -0.6173
 4039SOL     OW23749   0.092   2.856   9.038 -0.2628 -0.1584 -0.1854
 4039SOL    HW123750   0.135   2.936   9.068  1.9085 -0.4605 -2.4760
 4039SOL    HW223751   0.049   2.887   8.958 -0.2296  0.2203 -0.0562
 4040SOL     OW23752   0.252   3.585   3.009  0.0104  0.3779 -0.1726
 4040SOL    HW123753   0.158   3.574   3.027 -0.5010  0.6545 -2.6791
 4040SOL    HW223754   0.268   3.512   2.949  0.8007 -0.6273  1.2763
 4041SOL     OW23755   2.603   2.673  10.822 -0.2344 -0.0304  0.0620
 4041SOL    HW123756   2.524   2.647  10.870  0.6327  0.7419  1.9323
 4041SOL    HW223757   2.598   2.767  10.842 -0.9245 -0.0416 -0.0639
 4042SOL     OW23758   3.445   3.874  13.572 -0.4867 -0.4844  0.4639
 4042SOL    HW123759   3.398   3.834  13.499  0.4713  1.3908 -1.1487
 4042SOL    HW223760   3.416   3.965  13.569 -0.7533 -0.4968  2.2596
 4043SOL     OW23761   3.966   1.766   9.806  0.4304  0.1374 -0.2140
 4043SOL    HW123762   4.021   1.688   9.812 -0.3559 -0.5854 -2.1342
 4043SOL    HW223763   3.933   1.749   9.718 -1.6810  1.1979  0.3863
 4044SOL     OW23764   4.488   3.949   5.313  0.3634 -0.3364  0.6176
 4044SOL    HW123765   4.572   3.906   5.331 -1.1422 -3.0397  1.1492
 4044SOL    HW223766   4.500   4.033   5.358 -1.4916  1.1775 -1.6480
 4045SOL     OW23767   3.331   1.604   8.307  0.1587  0.2315 -0.0820
 4045SOL    HW123768   3.412   1.571   8.268 -0.4931 -2.4647  0.9007
 4045SOL    HW223769   3.260   1.603   8.243 -0.2890 -2.2455  0.4704
 4046SOL     OW23770   3.190   4.493   3.461 -0.0223  0.7857 -0.3467
 4046SOL    HW123771   3.278   4.475   3.494  0.5766 -0.3171 -2.5588
 4046SOL    HW223772   3.154   4.561   3.519 -2.6506 -0.4543 -0.5031
 4047SOL     OW23773   1.704   1.310   5.325  0.0363  0.8443  0.5314
 4047SOL    HW123774   1.744   1.223   5.317  1.0903  1.6575 -2.8904
 4047SOL    HW223775   1.614   1.296   5.296  0.6323  0.5570 -1.1993
 4048SOL     OW23776   1.980   4.693   7.008 -0.0104  0.2696  0.1562
 4048SOL    HW123777   2.051   4.659   7.063  0.1509  1.3075  0.5900
 4048SOL    HW223778   1.917   4.621   7.012  0.6938 -0.5202 -2.3228
 4049SOL     OW23779   1.149   4.617  10.987  0.0954 -0.5824  0.0771
 4049SOL    HW123780   1.056   4.598  10.976  0.0896  0.4107 -1.6551
 4049SOL    HW223781   1.166   4.628  11.081  1.2664 -0.2421 -0.1760
 4050SOL     OW23782   0.703   4.211   5.607  0.0228  0.2651 -0.1159
 4050SOL    HW123783   0.609   4.224   5.596 -0.1692 -0.5577  0.6053
 4050SOL    HW223784   0.722   4.120   5.585 -1.7759 -0.0450 -0.3317
 4051SOL     OW23785   3.836   2.388   6.413 -0.0779  0.1806  0.0301
 4051SOL    HW123786   3.887   2.315   6.448 -1.0682 -0.0310  1.0395
 4051SOL    HW223787   3.845   2.372   6.319 -0.0906 -1.1659  0.2707
 4052SOL     OW23788   3.617   1.423   5.343 -0.6347 -0.8572  0.3735
 4052SOL    HW123789   3.600   1.512   5.372  0.5630 -0.7835  0.8118
 4052SOL    HW223790   3.612   1.429   5.247  0.2977 -0.8834  0.3251
 4053SOL     OW23791   2.762   3.122  14.666  1.1453  0.7157 -0.0897
 4053SOL    HW123792   2.719   3.102  14.584  4.0423 -0.0343 -1.4299
 4053SOL    HW223793   2.851   3.144  14.637  2.0728 -0.9410  1.4702
 4054SOL     OW23794   2.265   2.523   4.455  0.6943 -0.1649  0.2136
 4054SOL    HW123795   2.205   2.539   4.528  0.3875 -0.3199 -0.0059
 4054SOL    HW223796   2.251   2.429   4.445  2.5383 -0.3582 -0.5092
 4055SOL     OW23797   1.114   4.389   0.901  0.4501 -0.2290 -0.9556
 4055SOL    HW123798   1.168   4.463   0.930  1.0998 -0.6794 -1.0006
 4055SOL    HW223799   1.183   4.323   0.897  0.5722 -0.1040 -0.9486
 4056SOL     OW23800   0.259   2.567   5.102 -0.2148  0.3186 -0.5654
 4056SOL    HW123801   0.327   2.596   5.163 -1.8610  1.0255  0.9225
 4056SOL    HW223802   0.317   2.554   5.027 -2.1873 -2.2261 -1.6473
 4057SOL     OW23803   0.354   0.442   0.395 -0.3143 -1.1684 -0.3447
 4057SOL    HW123804   0.390   0.389   0.324 -0.5294  0.4521 -1.6557
 4057SOL    HW223805   0.265   0.406   0.405 -1.6377  2.0930 -0.4733
 4058SOL     OW23806   4.736   1.935  12.897 -0.2968  0.7187 -0.2386
 4058SOL    HW123807   0.048   1.870  12.849 -0.1551 -1.0748  2.3214
 4058SOL    HW223808   0.060   2.006  12.913 -0.6980  0.4347  2.6821
 4059SOL     OW23809   0.361   1.950   3.883 -0.0567  0.7303 -0.5091
 4059SOL    HW123810   0.441   2.001   3.872 -0.3430  1.5515  1.2531
 4059SOL    HW223811   0.324   1.946   3.795  1.1477 -0.3556 -0.9731
 4060SOL     OW23812   1.469   4.496   1.720 -0.3650  0.2452  0.1405
 4060SOL    HW123813   1.392   4.548   1.744  0.8700  1.5476  1.2735
 4060SOL    HW223814   1.462   4.428   1.787 -1.5950  0.5889  0.3694
 4061SOL     OW23815   2.288   3.993   6.780 -0.2336  0.3201  0.0480
 4061SOL    HW123816   2.210   3.960   6.825 -1.6229  0.8822 -1.9675
 4061SOL    HW223817   2.282   4.086   6.805 -0.4542  0.1197  0.7447
 4062SOL     OW23818   3.040   1.721   4.327  0.0264 -0.1900  0.4063
 4062SOL    HW123819   2.976   1.764   4.382 -0.0044 -1.8139  1.6531
 4062SOL    HW223820   3.021   1.761   4.242  0.6913 -1.1981 -0.2218
 4063SOL     OW23821   3.898   0.491   7.641  0.5060 -0.1291  0.1247
 4063SOL    HW123822   3.991   0.474   7.630  0.9417  1.7743  0.8402
 4063SOL    HW223823   3.893   0.507   7.735 -1.0090  0.2933 -0.0263
 4064SOL     OW23824   0.513   1.833   5.537  0.5615  0.3583  0.4025
 4064SOL    HW123825   0.521   1.770   5.608  1.5673  0.0021 -0.0315
 4064SOL    HW223826   0.430   1.880   5.541  1.9788  2.7882  1.4077
 4065SOL     OW23827   4.682   2.157   8.917  0.2668  0.2071 -0.5122
 4065SOL    HW123828   0.028   2.173   8.876  0.7810 -0.6771  0.2174
 4065SOL    HW223829   4.697   2.226   8.982  0.4428 -0.1319 -0.1945
 4066SOL     OW23830   0.811   3.433  13.806  0.1047  0.5093 -0.1204
 4066SOL    HW123831   0.865   3.485  13.746  0.7366  0.4775  0.4191
 4066SOL    HW223832   0.744   3.416  13.741  0.4175  2.4759 -0.9631
 4067SOL     OW23833   0.950   0.065  17.095  0.5510 -0.0894  0.4806
 4067SOL    HW123834   0.968   0.139  17.037 -3.0400 -1.2330 -2.0455
 4067SOL    HW223835   0.858   0.047  17.078  0.8351 -0.8256 -0.3087
 4068SOL     OW23836   3.904   2.858   7.504  0.0005 -0.0859  0.1431
 4068SOL    HW123837   3.810   2.870   7.519 -0.4582 -1.5780 -1.6415
 4068SOL    HW223838   3.906   2.763   7.492  0.5952 -0.1842  1.0263
 4069SOL     OW23839   0.978   4.411   9.604 -0.8025 -0.1920 -1.0342
 4069SOL    HW123840   0.902   4.382   9.655  1.3298 -3.2478  0.4347
 4069SOL    HW223841   0.931   4.461   9.537  1.4600  0.3663 -2.2069
 4070SOL     OW23842   3.554   1.267   9.181  0.2679 -0.3544 -0.0755
 4070SOL    HW123843   3.534   1.173   9.184 -1.1442 -0.1345 -1.8373
 4070SOL    HW223844   3.515   1.283   9.095 -2.6260  0.6602  1.4482
 4071SOL     OW23845   3.994   3.725   4.227 -0.5923 -0.1654 -0.2140
 4071SOL    HW123846   3.983   3.720   4.322 -0.2246  0.3238 -0.1481
 4071SOL    HW223847   3.926   3.666   4.195  0.5762 -3.1069  2.7262
 4072SOL     OW23848   4.063   1.498  12.028  0.4890 -0.2032  0.2087
 4072SOL    HW123849   4.116   1.534  12.099  0.3230 -0.0673  0.2615
 4072SOL    HW223850   4.088   1.406  12.039 -2.3774 -0.9410  0.3133
 4073SOL     OW23851   2.392   0.629  12.320  0.4478 -0.7423 -0.1328
 4073SOL    HW123852   2.388   0.677  12.402  2.4861  0.4738 -0.7200
 4073SOL    HW223853   2.366   0.540  12.344  0.6242 -0.2923  1.6895
 4074SOL     OW23854   0.593   1.150   4.897 -0.1670 -0.1359  0.1316
 4074SOL    HW123855   0.562   1.066   4.930 -0.6710 -0.8976 -2.2681
 4074SOL    HW223856   0.512   1.181   4.856  1.0976  1.8623 -0.8886
 4075SOL     OW23857   1.968   2.804   0.248 -0.0940 -0.4968 -0.3601
 4075SOL    HW123858   1.885   2.757   0.256 -0.7748  0.5310 -1.2979
 4075SOL    HW223859   1.974   2.860   0.326  0.9987 -0.5864 -0.3804
 4076SOL     OW23860   2.627   1.487   0.559  0.3782 -0.4513 -0.0066
 4076SOL    HW123861   2.703   1.535   0.591  0.4505  0.5378 -1.6525
 4076SOL    HW223862   2.563   1.506   0.628 -1.1258  0.4717 -1.6473
 4077SOL     OW23863   2.398   3.852   5.614  0.7074 -0.2875  0.2108
 4077SOL    HW123864   2.492   3.867   5.616  0.8470 -0.8768 -1.7723
 4077SOL    HW223865   2.388   3.886   5.525 -0.1402 -2.0220 -0.3489
 4078SOL     OW23866   2.920   3.545  16.274 -0.8638  0.1689  0.0364
 4078SOL    HW123867   2.988   3.610  16.290 -0.5214 -1.0718  3.6272
 4078SOL    HW223868   2.958   3.466  16.313 -1.6557 -1.5587 -2.7582
 4079SOL     OW23869   2.908   0.958   8.472 -0.0037  0.2621 -0.1844
 4079SOL    HW123870   2.828   0.980   8.519 -0.3571 -1.0112 -0.1845
 4079SOL    HW223871   2.952   1.042   8.479  0.1895  0.2695 -1.4214
 4080SOL     OW23872   2.335   0.027  12.222 -0.0465 -0.3111 -0.2439
 4080SOL    HW123873   2.416   4.728  12.256 -1.0910 -1.8518  0.5399
 4080SOL    HW223874   2.262   4.725  12.270  0.8504 -0.2424  1.1678
 4081SOL     OW23875   4.147   3.937   4.277 -0.3156 -0.4490  0.2495
 4081SOL    HW123876   4.093   3.875   4.228 -1.2562  0.4413  0.1800
 4081SOL    HW223877   4.218   3.876   4.297 -1.0403 -1.0835  0.9014
 4082SOL     OW23878   0.730   0.457   8.512 -0.4501  0.2164 -0.1139
 4082SOL    HW123879   0.818   0.419   8.519  0.1210  2.0450  2.6597
 4082SOL    HW223880   0.737   0.530   8.574 -1.7987  0.6448 -0.4567
 4083SOL     OW23881   0.920   2.600   3.242  0.3430 -0.0724 -0.0574
 4083SOL    HW123882   0.884   2.653   3.171  1.4044  0.7392  0.0090
 4083SOL    HW223883   0.866   2.521   3.236 -0.7035  0.5584  1.2059
 4084SOL     OW23884   0.561   2.004   3.086 -0.5002  0.6090  0.1886
 4084SOL    HW123885   0.611   1.996   3.005  0.6709  1.7264  0.8052
 4084SOL    HW223886   0.612   1.966   3.157 -0.5270  1.2793  0.5673
 4085SOL     OW23887   1.331   2.014   8.298 -0.2970 -0.0994 -0.0058
 4085SOL    HW123888   1.278   1.984   8.372  1.1049  1.3836  1.6146
 4085SOL    HW223889   1.420   1.992   8.325  0.6025  0.9008 -2.1047
 4086SOL     OW23890   1.945   3.388   9.187 -0.2116 -0.1664 -0.5259
 4086SOL    HW123891   1.926   3.481   9.189 -1.2005 -0.3709 -0.3942
 4086SOL    HW223892   1.876   3.352   9.243 -0.6950 -0.4686 -1.3018
 4087SOL     OW23893   3.653   4.516   3.484  0.1656 -0.0937 -0.0822
 4087SOL    HW123894   3.660   4.461   3.562  1.0340  1.5282  0.9855
 4087SOL    HW223895   3.641   4.599   3.531 -0.4652 -1.1720  1.6512
 4088SOL     OW23896   4.666   4.714  11.577 -0.2810  0.2166  0.2342
 4088SOL    HW123897   4.659   4.630  11.531 -0.2040 -0.3839  1.3116
 4088SOL    HW223898   4.625   4.688  11.660  3.1311  2.3705  2.5955
 4089SOL     OW23899   3.328   1.778   7.091 -0.1629 -0.2026 -0.4524
 4089SOL    HW123900   3.394   1.712   7.110 -0.2410 -0.7736 -2.2499
 4089SOL    HW223901   3.273   1.729   7.030 -1.0100  0.4447 -0.2107
 4090SOL     OW23902   2.612   2.083  11.504  0.3190 -0.1173 -0.6906
 4090SOL    HW123903   2.685   2.104  11.446  0.8274 -0.1533 -0.0638
 4090SOL    HW223904   2.572   2.001  11.473  1.1325 -0.4040 -0.9827
 4091SOL     OW23905   1.686   3.656   3.689 -0.0504 -0.0568 -0.0618
 4091SOL    HW123906   1.628   3.640   3.615 -2.2388 -0.5443  1.7552
 4091SOL    HW223907   1.651   3.604   3.761 -0.6300 -2.9584 -2.4246
 4092SOL     OW23908   2.574   4.720   6.364  0.4012  0.5675  0.0323
 4092SOL    HW123909   2.557   0.072   6.389 -1.2050  0.2413  0.1579
 4092SOL    HW223910   2.546   4.667   6.439  0.3011 -0.7751 -0.9545
 4093SOL     OW23911   0.410   0.182  11.381 -0.1078  0.0925 -0.2982
 4093SOL    HW123912   0.343   0.143  11.437  0.6025 -0.6839  0.0217
 4093SOL    HW223913   0.368   0.262  11.352 -0.8985 -0.5593 -0.9620
 4094SOL     OW23914   0.529   2.897   6.098  0.0303 -0.0796 -0.1139
 4094SOL    HW123915   0.584   2.966   6.135  0.0715 -0.9230  1.3939
 4094SOL    HW223916   0.564   2.821   6.144 -3.4506 -0.6123  1.6054
 4095SOL     OW23917   1.323   3.475  11.922  0.3222 -0.2043 -0.0997
 4095SOL    HW123918   1.340   3.467  11.828  1.3078 -0.3474  0.0953
 4095SOL    HW223919   1.361   3.397  11.962  0.9722  0.5146  0.6740
 4096SOL     OW23920   4.274   1.194  16.405 -0.8116 -0.2483 -0.7950
 4096SOL    HW123921   4.352   1.140  16.390 -1.4184 -1.2365 -0.3713
 4096SOL    HW223922   4.220   1.154  16.336  0.4030 -3.9371  0.4097
 4097SOL     OW23923   2.517   3.635   1.491  0.0270 -0.1405 -0.1553
 4097SOL    HW123924   2.599   3.635   1.443  0.3657  1.6623  0.4030
 4097SOL    HW223925   2.501   3.729   1.500  0.7626 -0.0363  0.0618
 4098SOL     OW23926   0.211   0.528   5.521 -0.3020 -0.2096  0.0854
 4098SOL    HW123927   0.121   0.513   5.492 -1.4438  0.0281  3.5187
 4098SOL    HW223928   0.259   0.480   5.453  0.9569  0.6719  0.3579
 4099SOL     OW23929   3.157   2.478   7.777 -0.1652  0.3119 -0.2361
 4099SOL    HW123930   3.241   2.432   7.779 -0.9912 -1.1904  0.1488
 4099SOL    HW223931   3.207   2.560   7.776 -1.8852  1.3799  0.8009
 4100SOL     OW23932   4.304   0.515   2.566  0.1149 -0.5832 -0.0405
 4100SOL    HW123933   4.351   0.573   2.626 -1.8244  3.0182 -1.9477
 4100SOL    HW223934   4.329   0.430   2.603  0.7436 -0.4401 -0.1542
 4101SOL     OW23935   0.257   3.058   2.418  0.2387 -0.5188 -0.5345
 4101SOL    HW123936   0.314   3.085   2.346 -0.4924  0.3240 -0.7937
 4101SOL    HW223937   0.182   3.032   2.364 -0.6786  1.0231  0.0067
 4102SOL     OW23938   4.338   3.873   0.732  0.0793 -0.2266  0.4321
 4102SOL    HW123939   4.399   3.878   0.659  0.1636 -0.5968  0.4772
 4102SOL    HW223940   4.392   3.812   0.783  3.4310  1.7982 -0.6721
 4103SOL     OW23941   2.678   3.761  17.695  0.3422 -0.4033 -0.2803
 4103SOL    HW123942   2.703   3.835  17.640 -0.6005  0.9761  1.1586
 4103SOL    HW223943   2.725   3.691  17.651 -1.5499 -0.8697 -1.5611
 4104SOL     OW23944   1.841   4.354  16.891 -0.0214  0.0352  0.2607
 4104SOL    HW123945   1.797   4.353  16.806 -3.0119 -2.2801  1.8341
 4104SOL    HW223946   1.901   4.279  16.881 -1.4777 -1.1834  0.5741
 4105SOL     OW23947   1.759   3.624   7.101  0.4380 -0.2051 -0.7703
 4105SOL    HW123948   1.664   3.615   7.101  0.3401  0.8166  1.0403
 4105SOL    HW223949   1.775   3.717   7.116  1.0374 -0.6030  1.0012
 4106SOL     OW23950   1.479   2.187   0.798  0.2388 -0.4061 -0.0248
 4106SOL    HW123951   1.439   2.106   0.765 -0.7926  0.1454 -0.1498
 4106SOL    HW223952   1.522   2.158   0.878 -0.2285  2.0367  1.1249
 4107SOL     OW23953   2.242   3.632  10.602 -0.2944  0.2061 -0.3915
 4107SOL    HW123954   2.179   3.568  10.568 -0.7617  0.5336 -0.1491
 4107SOL    HW223955   2.285   3.650  10.518 -1.6608  0.8590 -0.9591
 4108SOL     OW23956   2.782   0.855   4.728  0.1915 -0.0743  0.1210
 4108SOL    HW123957   2.806   0.768   4.760  0.9466  0.9892  2.4575
 4108SOL    HW223958   2.705   0.818   4.686 -0.5734  1.9578 -0.2828
 4109SOL     OW23959   4.538   2.539   8.632 -0.4874  0.4301  0.3562
 4109SOL    HW123960   4.485   2.492   8.697  0.6344  0.5860  1.3610
 4109SOL    HW223961   4.474   2.603   8.600  0.7702  1.8039  0.6071
 4110SOL     OW23962   1.745   2.526  10.541  0.0998  0.4665  0.0025
 4110SOL    HW123963   1.684   2.563  10.604  0.9816  0.0269  1.1185
 4110SOL    HW223964   1.824   2.492  10.585 -1.4771 -0.3204  2.2124
 4111SOL     OW23965   0.331   3.022   5.109 -0.7105  0.7631 -0.4922
 4111SOL    HW123966   0.329   3.098   5.167 -0.7803 -0.4646  1.1082
 4111SOL    HW223967   0.273   3.052   5.038  0.6352  1.3491 -1.3373
 4112SOL     OW23968   1.676   4.335   5.024 -0.1417 -0.2573 -0.1682
 4112SOL    HW123969   1.653   4.243   5.011  1.0243 -0.4710 -0.7571
 4112SOL    HW223970   1.669   4.342   5.120 -1.1332 -0.8646 -0.1912
 4113SOL     OW23971   2.252   4.575   7.787  0.4255 -0.4424 -0.1189
 4113SOL    HW123972   2.158   4.560   7.789  0.7791 -2.4524  1.6301
 4113SOL    HW223973   2.283   4.504   7.730 -0.0550 -1.3193  0.7099
 4114SOL     OW23974   2.392   2.817   6.437 -0.4387 -0.4008 -0.4498
 4114SOL    HW123975   2.409   2.724   6.419  0.5885 -0.3248  0.1507
 4114SOL    HW223976   2.437   2.837   6.519 -2.1176 -0.4551  0.4781
 4115SOL     OW23977   1.723   1.097   6.632  0.1131  0.1664 -0.1742
 4115SOL    HW123978   1.691   1.061   6.715  0.9214 -1.0216 -0.3817
 4115SOL    HW223979   1.642   1.117   6.586  0.2757 -0.9627 -0.9733
 4116SOL     OW23980   4.558   3.473   1.646  0.2627 -0.3162  0.4087
 4116SOL    HW123981   4.520   3.415   1.712  1.0399 -0.7782  0.4418
 4116SOL    HW223982   4.493   3.543   1.654  1.7163  1.4433 -3.1909
 4117SOL     OW23983   0.883   0.481   4.404  0.0958  0.0796  0.3755
 4117SOL    HW123984   0.794   0.506   4.382  0.5782  1.7166  0.3090
 4117SOL    HW223985   0.882   0.387   4.385 -0.0772 -0.0454  0.9972
 4118SOL     OW23986   3.231   1.329  15.069 -0.4079  0.0213  0.2433
 4118SOL    HW123987   3.209   1.390  15.140 -2.0132 -0.7218  0.3783
 4118SOL    HW223988   3.236   1.246  15.117 -0.6670 -0.5573 -0.7328
 4119SOL     OW23989   3.859   4.023   2.997  0.0239 -0.2192 -0.5212
 4119SOL    HW123990   3.822   3.957   2.940 -2.4588  1.0708 -0.4013
 4119SOL    HW223991   3.884   3.971   3.074  0.3950  1.1976  0.3304
 4120SOL     OW23992   3.130   4.543   9.200  0.2145  0.0893 -0.0061
 4120SOL    HW123993   3.103   4.474   9.261 -0.6451  0.2075 -0.2479
 4120SOL    HW223994   3.050   4.590   9.178  0.6308 -0.1162 -2.0086
 4121SOL     OW23995   2.992   0.701   2.854  0.0911  0.3370 -0.1798
 4121SOL    HW123996   3.045   0.726   2.779 -0.9765 -1.9619 -1.6944
 4121SOL    HW223997   2.952   0.618   2.827  0.8277 -0.6654  1.7831
 4122SOL     OW23998   0.955   1.627   9.851 -0.4650 -0.3994  0.3302
 4122SOL    HW123999   0.888   1.677   9.897  0.7610  0.5541  1.1026
 4122SOL    HW224000   1.016   1.601   9.920 -1.1544  1.8963  1.7953
 4123SOL     OW24001   0.946   3.074  16.994  1.0899 -0.3623 -0.1347
 4123SOL    HW124002   0.950   3.105  17.084 -0.4293  1.1655 -0.5944
 4123SOL    HW224003   0.971   2.983  17.009 -0.9148 -1.0413 -0.9385
 4124SOL     OW24004   4.248   3.317  10.244  0.3996  0.5013  0.0995
 4124SOL    HW124005   4.205   3.231  10.238  0.5439  0.3743  0.8538
 4124SOL    HW224006   4.181   3.363  10.295 -1.6510 -0.2869 -1.9177
 4125SOL     OW24007   0.477   0.588  11.966 -0.1786 -0.3676  0.0828
 4125SOL    HW124008   0.512   0.517  12.019 -1.1451 -0.0225  1.1949
 4125SOL    HW224009   0.487   0.658  12.031  1.4927  0.0280 -0.5880
 4126SOL     OW24010   3.537   2.115   7.463 -0.1681 -0.2200 -0.0596
 4126SOL    HW124011   3.603   2.046   7.452 -0.0953 -0.1177 -0.2664
 4126SOL    HW224012   3.468   2.072   7.514 -1.6405  1.6271 -0.4814
 4127SOL     OW24013   2.523   0.947   8.997 -0.8361  0.0022 -0.2825
 4127SOL    HW124014   2.483   1.000   8.929  0.4588  0.7188 -0.4798
 4127SOL    HW224015   2.479   0.955   9.082  0.6016 -1.7527  0.6347
 4128SOL     OW24016   0.982   3.993   6.464 -0.8135  0.7413  0.9771
 4128SOL    HW124017   1.052   3.973   6.402 -0.7965  1.8768  0.6234
 4128SOL    HW224018   1.037   4.024   6.536  1.6846  2.6592 -1.7735
 4129SOL     OW24019   3.245   0.575   2.962 -0.4573  0.3267 -0.3713
 4129SOL    HW124020   3.192   0.585   3.040  0.1035  1.9540 -0.1891
 4129SOL    HW224021   3.182   0.621   2.906 -1.0181 -0.5969 -0.4956
 4130SOL     OW24022   3.289   0.799   4.378 -0.2354  0.0847 -0.2208
 4130SOL    HW124023   3.284   0.851   4.458  0.4259  0.5320 -0.4695
 4130SOL    HW224024   3.229   0.834   4.312 -0.6607 -1.4307 -0.6370
 4131SOL     OW24025   1.937   3.437   8.856 -0.2250 -0.5856 -0.1959
 4131SOL    HW124026   1.855   3.481   8.876  0.3340  0.9889 -1.3635
 4131SOL    HW224027   1.923   3.368   8.791  1.5025  0.5997 -1.8168
 4132SOL     OW24028   1.886   2.931   5.000 -0.2570 -0.1494 -0.4147
 4132SOL    HW124029   1.868   2.842   4.970  0.1200  0.2095 -1.6999
 4132SOL    HW224030   1.982   2.930   5.003 -0.2589  0.0227 -0.3123
 4133SOL     OW24031   0.299   3.671  11.620  0.2369  0.4071  0.0469
 4133SOL    HW124032   0.345   3.669  11.704  2.3394 -1.8634 -1.1678
 4133SOL    HW224033   0.233   3.607  11.647  0.5897  0.1089  0.1858
 4134SOL     OW24034   1.416   0.760   9.517  0.9753  0.4420  0.5082
 4134SOL    HW124035   1.427   0.855   9.510  0.5425  0.4187 -0.5786
 4134SOL    HW224036   1.401   0.749   9.611 -3.4766 -1.9573 -0.4572
 4135SOL     OW24037   0.168   0.413   8.257  0.1904  0.4176 -0.1630
 4135SOL    HW124038   0.232   0.451   8.196 -0.4351  1.8975  0.1089
 4135SOL    HW224039   0.211   0.330   8.279 -1.8050 -1.4202 -3.2521
 4136SOL     OW24040   1.676   3.062  16.072  0.0795  0.2851  0.1728
 4136SOL    HW124041   1.678   3.137  16.131  1.8673 -0.1608  0.6761
 4136SOL    HW224042   1.584   3.035  16.072  0.0690  0.2918 -1.3932
 4137SOL     OW24043   2.767   4.577  14.143  0.0706 -0.2662 -0.2303
 4137SOL    HW124044   2.741   4.622  14.062  0.4277 -1.5082 -1.0357
 4137SOL    HW224045   2.681   4.584  14.185  0.2177 -0.7679  0.1532
 4138SOL     OW24046   4.408   3.697   1.629  0.3510  0.2157  0.4954
 4138SOL    HW124047   4.365   3.696   1.543  2.1448 -0.7032 -0.4023
 4138SOL    HW224048   4.416   3.791   1.645 -5.0683  0.6168  0.9022
 4139SOL     OW24049   2.759   2.772   2.511 -0.3950 -0.5333 -0.2175
 4139SOL    HW124050   2.695   2.719   2.559  0.2360  0.1325  1.3678
 4139SOL    HW224051   2.726   2.745   2.425  1.0345 -0.6948 -0.7216
 4140SOL     OW24052   2.844   0.255   8.569 -0.1893  0.0257  0.2343
 4140SOL    HW124053   2.876   0.327   8.515  0.1150 -1.5183 -1.6427
 4140SOL    HW224054   2.778   0.222   8.508  1.7369 -1.8208 -0.8267
 4141SOL     OW24055   0.614   0.650  17.397 -0.1865 -0.2496 -0.2991
 4141SOL    HW124056   0.617   0.577  17.336 -0.7106 -0.6882  0.2024
 4141SOL    HW224057   0.526   0.638  17.433  0.5944 -2.9470  0.6852
 4142SOL     OW24058   2.465   0.629  16.847 -0.8188  0.3809 -0.2267
 4142SOL    HW124059   2.479   0.678  16.766 -0.9695  3.7761  1.8046
 4142SOL    HW224060   2.428   0.695  16.906  0.0437 -0.6494  1.4742
 4143SOL     OW24061   2.935   2.291  11.495  0.1667  0.0348  0.5332
 4143SOL    HW124062   2.872   2.309  11.426  1.4536  0.2261 -0.5969
 4143SOL    HW224063   2.929   2.196  11.487 -1.5880  0.4553 -2.8897
 4144SOL     OW24064   4.034   2.055   7.651  0.3572 -0.2114  0.2279
 4144SOL    HW124065   3.962   2.003   7.688  1.9716 -1.3459  1.7643
 4144SOL    HW224066   4.030   2.130   7.711 -1.3735 -0.8555  0.9238
 4145SOL     OW24067   3.009   0.376   7.118 -0.1383 -0.0733  0.3002
 4145SOL    HW124068   2.989   0.449   7.177 -0.3611  0.2036 -0.1198
 4145SOL    HW224069   3.101   0.391   7.097 -0.5658 -0.4566 -1.8228
 4146SOL     OW24070   1.524   3.378   4.975 -0.1650  0.6989  0.1781
 4146SOL    HW124071   1.578   3.304   5.001 -1.0588  0.1962  0.6151
 4146SOL    HW224072   1.434   3.347   4.986  0.5828 -0.7824  2.1328
 4147SOL     OW24073   4.311   3.595   5.714  0.1739 -0.0505  0.1994
 4147SOL    HW124074   4.350   3.518   5.673 -1.0747  1.0254 -3.0573
 4147SOL    HW224075   4.377   3.654   5.679  0.8393 -0.4008  0.8704
 4148SOL     OW24076   2.909   0.898   6.126 -0.1656  0.5217  0.1557
 4148SOL    HW124077   2.950   0.982   6.147  1.8531 -0.2091 -0.9020
 4148SOL    HW224078   2.962   0.837   6.176 -0.4860 -0.1445 -0.3155
 4149SOL     OW24079   0.825   0.232   2.231 -0.3335  0.3568 -0.5191
 4149SOL    HW124080   0.850   0.214   2.141 -0.6680 -0.5234 -0.4394
 4149SOL    HW224081   0.823   0.328   2.227 -5.0230  0.2707 -0.5988
 4150SOL     OW24082   0.458   0.313  13.361  0.2901 -0.0848  0.0418
 4150SOL    HW124083   0.403   0.362  13.421 -0.6073 -3.0952  1.6475
 4150SOL    HW224084   0.389   0.264  13.316  0.1671 -0.2246  0.3862
 4151SOL     OW24085   0.329   0.163   9.360 -0.7422 -0.0303  0.3546
 4151SOL    HW124086   0.287   0.246   9.380 -1.4073  0.2239 -2.0915
 4151SOL    HW224087   0.377   0.198   9.284 -0.9204 -0.6564 -0.0508
 4152SOL     OW24088   2.525   3.355   1.612 -0.3608 -0.5269 -0.5480
 4152SOL    HW124089   2.526   3.443   1.575  0.7787  0.2215  1.2604
 4152SOL    HW224090   2.500   3.371   1.703  0.2013  1.3144 -0.7253
 4153SOL     OW24091   3.875   1.299   5.183  0.0282  0.2062  0.1606
 4153SOL    HW124092   3.870   1.309   5.278  0.7527  0.0053  0.2183
 4153SOL    HW224093   3.798   1.349   5.154 -2.5955 -1.9315  3.3966
 4154SOL     OW24094   2.620   1.219   0.467 -0.5127  0.1511 -0.7140
 4154SOL    HW124095   2.636   1.300   0.514 -3.2777  0.8604 -0.9924
 4154SOL    HW224096   2.679   1.162   0.517  0.5052  1.1135 -0.8304
 4155SOL     OW24097   1.248   2.802   6.366 -0.3418  0.8214 -0.6632
 4155SOL    HW124098   1.321   2.798   6.305 -0.5672 -2.0251 -0.7574
 4155SOL    HW224099   1.284   2.773   6.450  0.3345 -0.1072 -1.2781
 4156SOL     OW24100   1.547   3.195  17.052  0.1812  1.2796  0.4737
 4156SOL    HW124101   1.470   3.144  17.027 -0.4115  0.6477  3.5470
 4156SOL    HW224102   1.559   3.253  16.977  1.0193 -0.8201 -1.0103
 4157SOL     OW24103   2.260   3.385  16.588 -0.7398 -0.2760 -0.0577
 4157SOL    HW124104   2.178   3.351  16.624  0.1918  1.0019  3.2531
 4157SOL    HW224105   2.320   3.379  16.663  0.9546 -0.2970 -1.4139
 4158SOL     OW24106   3.858   2.106   3.830  0.8282 -0.3381  0.4958
 4158SOL    HW124107   3.868   2.178   3.767 -0.7753 -0.7281 -0.2132
 4158SOL    HW224108   3.926   2.048   3.795  0.0872  0.0152 -1.5441
 4159SOL     OW24109   0.590   2.357   4.036 -0.0634 -0.5328 -0.2712
 4159SOL    HW124110   0.540   2.401   4.105  1.8868  0.4021  0.5482
 4159SOL    HW224111   0.540   2.377   3.958  0.4263  3.1140  0.3632
 4160SOL     OW24112   4.371   4.397   6.545  0.1364  0.8895 -0.2345
 4160SOL    HW124113   4.460   4.366   6.528  0.5980  2.3359 -0.5292
 4160SOL    HW224114   4.355   4.382   6.638 -2.0040 -0.5265 -0.8464
 4161SOL     OW24115   2.574   0.797   3.996 -0.1603 -0.1359  0.1501
 4161SOL    HW124116   2.505   0.858   4.023 -0.8082 -1.1710  0.8151
 4161SOL    HW224117   2.520   0.719   3.983 -0.6087  0.5293 -2.1091
 4162SOL     OW24118   1.553   2.105   2.406 -0.2919 -0.1108  0.0117
 4162SOL    HW124119   1.508   2.179   2.363  0.9775  1.3944  1.2724
 4162SOL    HW224120   1.566   2.051   2.328  0.3916 -2.2183  1.6153
 4163SOL     OW24121   3.213   2.375   2.434 -0.4262  0.1791  0.1038
 4163SOL    HW124122   3.216   2.363   2.529  0.2441 -2.2867 -0.2404
 4163SOL    HW224123   3.151   2.448   2.433 -0.0965  0.4526 -0.5684
 4164SOL     OW24124   4.148   1.053   8.221  0.1591 -0.4951 -0.0897
 4164SOL    HW124125   4.123   0.963   8.198 -0.2017 -0.6161  0.7753
 4164SOL    HW224126   4.233   1.021   8.249  0.0137 -0.8821 -0.0759
 4165SOL     OW24127   4.461   0.209   9.686 -0.3102  0.0242  0.1983
 4165SOL    HW124128   4.529   0.143   9.701  0.2376  0.5747  0.1223
 4165SOL    HW224129   4.447   0.247   9.772 -1.7294 -0.9326  0.3895
 4166SOL     OW24130   0.834   2.250   4.069  0.6007 -0.1010  0.5056
 4166SOL    HW124131   0.851   2.212   4.155 -1.1783  0.1109  0.9650
 4166SOL    HW224132   0.743   2.279   4.080  0.9387  0.6612  1.2742
 4167SOL     OW24133   1.695   4.621   4.744 -0.4153  0.4298  0.4109
 4167SOL    HW124134   1.639   4.542   4.743  1.3346 -0.8237  1.3853
 4167SOL    HW224135   1.656   4.652   4.826 -0.9708 -2.2509  1.1783
 4168SOL     OW24136   4.529   4.157   8.431  0.0241 -0.0026 -0.3427
 4168SOL    HW124137   4.557   4.231   8.484  0.5576 -0.9142  0.6614
 4168SOL    HW224138   4.494   4.207   8.358  2.4064  2.8727  0.5242
 4169SOL     OW24139   1.370   1.622  10.786 -0.4163  0.1585  0.1826
 4169SOL    HW124140   1.324   1.652  10.864 -0.3203  2.6963 -0.7251
 4169SOL    HW224141   1.327   1.537  10.781  0.3327 -0.3390  2.4506
 4170SOL     OW24142   0.639   0.811   0.927 -0.3640 -0.5457 -0.1460
 4170SOL    HW124143   0.711   0.830   0.866 -1.8213  0.6417 -1.4877
 4170SOL    HW224144   0.567   0.771   0.878  0.5404 -1.3433 -0.8195
 4171SOL     OW24145   3.341   2.507  15.129 -0.0074 -0.1381  0.0848
 4171SOL    HW124146   3.393   2.586  15.119 -2.2633  1.5802  2.0288
 4171SOL    HW224147   3.270   2.529  15.069 -1.1161 -1.7113  0.8056
 4172SOL     OW24148   0.466   0.276  15.591 -0.4269 -0.1520 -0.2070
 4172SOL    HW124149   0.431   0.225  15.664 -2.6536  1.7764  0.0803
 4172SOL    HW224150   0.560   0.264  15.606 -0.0720  1.2732 -1.3528
 4173SOL     OW24151   3.473   2.112   7.857  0.2213 -0.0700  0.5162
 4173SOL    HW124152   3.558   2.132   7.818  1.0970 -0.8158  2.0364
 4173SOL    HW224153   3.428   2.067   7.785  1.3724 -1.8783  0.9345
 4174SOL     OW24154   0.598   4.106   7.968  0.0497  0.6001 -0.2265
 4174SOL    HW124155   0.524   4.063   8.010 -0.2017  0.7425 -0.5220
 4174SOL    HW224156   0.631   4.154   8.043  0.2396  1.6807 -0.9954
 4175SOL     OW24157   0.105   2.236   3.479 -0.0902 -0.1800  0.0442
 4175SOL    HW124158   0.019   2.241   3.438 -1.0756  0.4308  2.2349
 4175SOL    HW224159   0.163   2.256   3.405 -0.0661  2.4620  0.7721
 4176SOL     OW24160   3.970   4.490   7.600 -0.0079  0.7164 -0.5652
 4176SOL    HW124161   3.960   4.496   7.695 -0.1032  0.9726 -0.5912
 4176SOL    HW224162   4.018   4.569   7.578  0.0144  0.5842 -1.0000
 4177SOL     OW24163   0.634   1.998  12.987 -0.3902  0.5102  0.0065
 4177SOL    HW124164   0.639   1.948  13.069  0.2938 -0.3481 -0.5574
 4177SOL    HW224165   0.680   2.078  13.009  0.1712 -0.1822  1.3154
 4178SOL     OW24166   0.448   0.298   6.519  0.2526  0.4528  0.5756
 4178SOL    HW124167   0.407   0.343   6.444 -0.8575 -2.3304 -0.4778
 4178SOL    HW224168   0.383   0.320   6.586 -0.3140  1.4892 -0.3132
 4179SOL     OW24169   2.729   1.827   0.797  0.4076  0.6405  0.5838
 4179SOL    HW124170   2.740   1.788   0.883  0.0931 -0.7921 -0.0405
 4179SOL    HW224171   2.743   1.921   0.813  1.7080  0.9939 -2.6460
 4180SOL     OW24172   1.470   4.534   6.210 -0.4304  0.2067 -0.0448
 4180SOL    HW124173   1.427   4.517   6.126 -1.1194 -1.1111  0.5736
 4180SOL    HW224174   1.555   4.571   6.188 -1.0030  1.3470 -0.3211
 4181SOL     OW24175   0.903   2.827   4.244 -0.4318 -0.2315  0.2357
 4181SOL    HW124176   0.836   2.777   4.198 -0.3612  0.3359 -0.4926
 4181SOL    HW224177   0.901   2.902   4.185 -1.4063 -0.8617 -0.5283
 4182SOL     OW24178   1.452   0.197   3.595  0.5729 -0.0378 -0.6455
 4182SOL    HW124179   1.545   0.198   3.572  0.7771  0.9465  0.2057
 4182SOL    HW224180   1.429   0.106   3.610  0.9664 -0.1014 -0.4149
 4183SOL     OW24181   1.335   2.720   9.157  0.1113  0.2532  0.3884
 4183SOL    HW124182   1.396   2.736   9.085 -1.1879  4.4204  0.2549
 4183SOL    HW224183   1.259   2.702   9.103 -1.4026  3.4037  1.5053
 4184SOL     OW24184   1.798   2.513   1.742 -0.4561  0.3980 -0.5286
 4184SOL    HW124185   1.716   2.556   1.718  0.4317  1.5286 -1.5227
 4184SOL    HW224186   1.844   2.516   1.659  1.6904  1.2386  0.7072
 4185SOL     OW24187   2.659   2.187   3.232 -0.1157  0.8087 -0.4771
 4185SOL    HW124188   2.662   2.282   3.216  0.1229  1.1567  1.7208
 4185SOL    HW224189   2.594   2.190   3.301 -1.9757  0.1687 -2.2232
 4186SOL     OW24190   1.828   2.839  10.519  0.1021 -0.2776  0.1004
 4186SOL    HW124191   1.909   2.890  10.513 -1.2243  1.7924 -0.1834
 4186SOL    HW224192   1.864   2.764  10.471  0.8689  1.5729 -2.2634
 4187SOL     OW24193   2.691   0.471   3.535 -0.3104  0.9492 -0.0409
 4187SOL    HW124194   2.607   0.473   3.490 -0.6912  2.0990  0.7450
 4187SOL    HW224195   2.713   0.382   3.507  0.4503  1.2521 -0.4300
 4188SOL     OW24196   4.589   4.636  10.724  0.6655  0.3724 -0.0550
 4188SOL    HW124197   4.584   4.567  10.658 -1.7060  1.6157 -1.1850
 4188SOL    HW224198   4.683   4.625  10.742  0.9742  1.0490 -1.2904
 4189SOL     OW24199   2.931   1.909   3.416  0.0725 -0.3908  0.1332
 4189SOL    HW124200   2.859   1.851   3.394  0.3320  0.1525 -2.2143
 4189SOL    HW224201   3.011   1.870   3.380 -0.8730 -2.1824 -0.0041
 4190SOL     OW24202   4.435   1.758   1.888  0.1573  0.4876 -0.4792
 4190SOL    HW124203   4.478   1.835   1.926 -1.1045  0.3910  1.1396
 4190SOL    HW224204   4.466   1.749   1.798  2.4739 -1.8222  0.5685
 4191SOL     OW24205   0.760   1.087   9.025  0.2711  0.0043 -0.1757
 4191SOL    HW124206   0.780   1.171   8.983  0.5400 -1.0305 -2.1122
 4191SOL    HW224207   0.683   1.067   8.973  0.8078 -2.0802 -0.1551
 4192SOL     OW24208   0.337   2.871   8.775  0.5512  0.2594 -0.1654
 4192SOL    HW124209   0.357   2.944   8.716 -0.1058  1.3597  0.9694
 4192SOL    HW224210   0.318   2.923   8.853 -1.0259  0.4898 -0.7100
 4193SOL     OW24211   0.410   2.940   9.238 -0.3075  0.0444 -0.4809
 4193SOL    HW124212   0.439   2.856   9.201  0.7883  0.4533 -0.5468
 4193SOL    HW224213   0.490   2.977   9.276 -0.0548 -2.4601  1.4341
 4194SOL     OW24214   2.585   2.846   0.894 -0.2759 -0.4662  0.0380
 4194SOL    HW124215   2.541   2.814   0.815  0.3430 -3.1922  0.7991
 4194SOL    HW224216   2.509   2.879   0.942  1.0660  1.1665  1.0304
 4195SOL     OW24217   1.773   4.126   2.082 -0.3049 -0.5145  0.2967
 4195SOL    HW124218   1.746   4.108   2.172  1.3233 -1.2118  0.6492
 4195SOL    HW224219   1.750   4.046   2.035  0.3079 -0.7678  0.4235
 4196SOL     OW24220   0.821   3.060   7.990 -0.4618 -0.5840  0.0521
 4196SOL    HW124221   0.781   3.009   7.920 -0.1022 -1.4319  0.4557
 4196SOL    HW224222   0.757   3.049   8.060 -0.2052  4.3820  1.0277
 4197SOL     OW24223   3.930   3.129   5.648  0.4546  0.0957 -0.1062
 4197SOL    HW124224   3.921   3.216   5.688 -0.2004 -0.6570  1.4053
 4197SOL    HW224225   4.009   3.148   5.597  2.5140 -3.4515  1.7870
 4198SOL     OW24226   3.411   4.314   6.358 -0.2971  0.2372  0.1976
 4198SOL    HW124227   3.410   4.264   6.277 -1.7314  1.4990 -0.5903
 4198SOL    HW224228   3.333   4.285   6.405 -0.0257  2.7710  2.1841
 4199SOL     OW24229   0.706   1.806  17.377 -0.2649  0.1867  0.4522
 4199SOL    HW124230   0.774   1.739  17.381  1.1964  1.7708  1.9748
 4199SOL    HW224231   0.713   1.852  17.460  1.3512 -1.2581  1.0980
 4200SOL     OW24232   0.442   2.205   9.279 -0.5847 -0.0181  0.1562
 4200SOL    HW124233   0.389   2.284   9.276  2.3877  1.9658  0.3821
 4200SOL    HW224234   0.492   2.221   9.358  1.1504 -2.0058 -0.5318
 4201SOL     OW24235   1.200   2.540  11.724  0.0647  0.6800  0.6672
 4201SOL    HW124236   1.250   2.567  11.801  0.3442  2.3271 -0.0921
 4201SOL    HW224237   1.124   2.499  11.764  1.0949 -1.4289  0.4488
 4202SOL     OW24238   3.794   2.909   2.086  0.2321 -0.7235  0.2993
 4202SOL    HW124239   3.830   2.979   2.031 -2.5742  1.8260  1.7188
 4202SOL    HW224240   3.760   2.965   2.156  0.2557  0.7748 -0.8869
 4203SOL     OW24241   1.774   2.513   2.608  0.0129 -0.4821 -0.4450
 4203SOL    HW124242   1.679   2.522   2.615  0.1620  1.1338 -0.4944
 4203SOL    HW224243   1.808   2.467   2.684 -0.1868  0.1297  0.0178
 4204SOL     OW24244   0.302   1.113   4.324  0.4718 -0.2977 -0.0626
 4204SOL    HW124245   0.382   1.095   4.373  0.0534 -2.2419 -0.1243
 4204SOL    HW224246   0.279   1.201   4.355  0.6404 -0.5725  0.8289
 4205SOL     OW24247   0.782   3.053   6.198  0.2220 -0.2002  0.2032
 4205SOL    HW124248   0.813   3.141   6.178 -1.8386  0.6504  0.8362
 4205SOL    HW224249   0.778   3.062   6.293  1.5269  0.1687  0.2295
 4206SOL     OW24250   3.024   0.572  15.034  0.0096 -0.0975 -0.2637
 4206SOL    HW124251   3.065   0.563  14.947  2.2810 -1.1760  0.9105
 4206SOL    HW224252   3.103   0.561  15.087  0.3843 -0.0284 -0.8037
 4207SOL     OW24253   3.099   2.992   6.894  0.0971  0.3986  0.5896
 4207SOL    HW124254   3.115   2.901   6.918 -1.3690  0.8590  3.3642
 4207SOL    HW224255   3.180   3.032   6.924  0.4465 -1.0856  1.6094
 4208SOL     OW24256   2.254   4.673   3.176  0.3598 -0.5330  0.2993
 4208SOL    HW124257   2.289   4.738   3.236  0.1633 -1.2639  1.2065
 4208SOL    HW224258   2.221   4.604   3.234  1.1080 -1.5114 -0.4436
 4209SOL     OW24259   0.935   4.604   3.406 -0.2526  0.2416  0.2433
 4209SOL    HW124260   0.985   4.680   3.436 -1.3573  0.6779  0.9951
 4209SOL    HW224261   0.979   4.574   3.326 -1.5470 -0.4538 -0.2150
 4210SOL     OW24262   4.692   1.758  16.852 -0.3021 -0.1476  0.4387
 4210SOL    HW124263   4.616   1.701  16.848 -0.8464  0.5416  0.9247
 4210SOL    HW224264   0.025   1.695  16.845 -0.6097 -0.3937 -0.5124
 4211SOL     OW24265   4.601   0.315   7.994  0.1412 -0.5288  0.0684
 4211SOL    HW124266   4.506   0.319   7.979  0.2184 -0.6887 -0.4523
 4211SOL    HW224267   4.624   0.407   8.006  0.9373 -0.5483 -1.4540
 4212SOL     OW24268   0.866   1.344   3.189 -0.2330 -0.2518  0.1041
 4212SOL    HW124269   0.796   1.279   3.188 -1.6411  1.2705  0.7709
 4212SOL    HW224270   0.940   1.286   3.210 -0.3692 -0.4018  0.1704
 4213SOL     OW24271   4.067   1.407   0.122  0.2083 -0.5391 -0.4437
 4213SOL    HW124272   3.989   1.381   0.071  0.7612 -1.0951 -1.0077
 4213SOL    HW224273   4.136   1.375   0.064  0.4024 -1.3147  0.2090
 4214SOL     OW24274   1.500   3.937   5.149 -0.3922 -0.2181  0.5070
 4214SOL    HW124275   1.428   3.914   5.091 -0.0108  1.8765 -0.7946
 4214SOL    HW224276   1.534   3.852   5.178  2.5619  0.9932  0.6255
 4215SOL     OW24277   1.051   1.374  16.699  0.2152 -0.1730  0.2343
 4215SOL    HW124278   1.037   1.468  16.687  0.1809 -0.2940 -0.6444
 4215SOL    HW224279   1.000   1.356  16.777  1.2360 -1.7657  0.5516
 4216SOL     OW24280   3.443   3.560   1.524 -0.2811  0.0354 -0.1442
 4216SOL    HW124281   3.349   3.562   1.542  0.1089  0.3954  1.7947
 4216SOL    HW224282   3.488   3.548   1.607  3.4092  0.2436 -2.1042
 4217SOL     OW24283   1.358   4.512   2.059 -1.0825  0.2269 -0.4640
 4217SOL    HW124284   1.417   4.558   2.000  0.0256 -0.6899 -0.0624
 4217SOL    HW224285   1.402   4.431   2.084 -0.6308  0.9788  1.2064
 4218SOL     OW24286   1.650   2.154   8.406  0.1326 -0.0128  0.0481
 4218SOL    HW124287   1.721   2.217   8.422  0.3342  0.1254 -1.3988
 4218SOL    HW224288   1.594   2.210   8.354  1.7947  1.0255 -0.6241
 4219SOL     OW24289   1.594   0.592   5.196 -0.1998  0.3121  0.2445
 4219SOL    HW124290   1.530   0.549   5.253  0.5801  1.2948  1.8711
 4219SOL    HW224291   1.549   0.677   5.189 -0.5516  0.0918 -0.1753
 4220SOL     OW24292   0.682   0.246  15.227  0.1091 -0.3491  0.1762
 4220SOL    HW124293   0.723   0.326  15.194  0.0129  0.8491  2.9750
 4220SOL    HW224294   0.756   0.225  15.284  0.0263  1.6247  0.9920
 4221SOL     OW24295   1.885   3.912   4.898 -0.1981  0.1904  0.0546
 4221SOL    HW124296   1.834   3.857   4.838 -1.2256  0.8196  0.3410
 4221SOL    HW224297   1.936   3.965   4.837 -1.4444  2.0022  0.5763
 4222SOL     OW24298   2.930   4.129   5.887 -0.8460 -0.2770 -0.8120
 4222SOL    HW124299   2.959   4.178   5.963 -1.3637 -0.8681 -0.2334
 4222SOL    HW224300   2.967   4.043   5.905 -2.6594 -0.7815  0.5334
 4223SOL     OW24301   3.879   3.915  16.108 -0.4990 -0.4403  0.1302
 4223SOL    HW124302   3.914   3.877  16.189 -0.8668  0.0160  0.5111
 4223SOL    HW224303   3.903   4.007  16.109  3.0120 -1.3864  0.2175
 4224SOL     OW24304   0.583   0.988  17.367 -0.0878  0.2866  0.5882
 4224SOL    HW124305   0.650   0.938  17.414 -2.9386 -1.8174  2.4068
 4224SOL    HW224306   0.510   0.977  17.429 -1.8657  1.4070 -1.3203
 4225SOL     OW24307   4.503   1.005  13.711 -0.4583 -0.9213 -0.0360
 4225SOL    HW124308   4.595   1.014  13.686 -0.5934 -0.0453 -0.2265
 4225SOL    HW224309   4.518   0.963  13.796  1.3743 -1.4605 -0.6384
 4226SOL     OW24310   1.534   1.684  10.554 -0.6640  0.1851 -0.0152
 4226SOL    HW124311   1.479   1.702  10.630 -0.4664  2.4490 -0.4065
 4226SOL    HW224312   1.532   1.589  10.558  1.9695  0.0166 -2.6032
 4227SOL     OW24313   2.227   2.195   8.437  0.0918 -0.2540 -0.4271
 4227SOL    HW124314   2.154   2.176   8.495  2.5713 -3.2458  1.6945
 4227SOL    HW224315   2.285   2.242   8.497  0.9148  0.1474 -1.5179
 4228SOL     OW24316   0.713   2.491  16.384 -0.7415 -0.1343  0.1252
 4228SOL    HW124317   0.755   2.406  16.373 -0.3839  0.1045 -0.4202
 4228SOL    HW224318   0.654   2.463  16.453  1.1469 -0.9679  1.3837
 4229SOL     OW24319   3.252   3.691   4.593  0.3623 -0.2817  0.5560
 4229SOL    HW124320   3.158   3.675   4.597  0.6296 -1.9067  0.1540
 4229SOL    HW224321   3.277   3.694   4.685 -1.1171  1.2384  0.9123
 4230SOL     OW24322   2.443   3.526   7.774  0.1602  0.4770 -0.2482
 4230SOL    HW124323   2.405   3.595   7.829 -2.3763  0.2316 -1.7044
 4230SOL    HW224324   2.437   3.574   7.692  0.5276  0.2971 -0.3811
 4231SOL     OW24325   3.105   0.915   5.526 -0.2912 -0.8485  0.2237
 4231SOL    HW124326   3.030   0.870   5.564 -1.4026 -0.0918 -1.0808
 4231SOL    HW224327   3.120   0.976   5.598 -2.6731 -1.2845  1.0924
 4232SOL     OW24328   1.156   2.987   5.231 -0.5382  0.3113 -0.0588
 4232SOL    HW124329   1.178   2.981   5.324 -0.5240 -0.4449 -0.1104
 4232SOL    HW224330   1.149   2.894   5.209  1.3812  0.6542 -2.0809
 4233SOL     OW24331   2.101   2.980   3.132 -0.1722  0.1865  0.0976
 4233SOL    HW124332   2.111   3.022   3.047  2.5688 -0.9432 -0.1303
 4233SOL    HW224333   2.036   3.041   3.168 -1.3421 -0.5716 -0.7338
 4234SOL     OW24334   4.032   0.409   7.319  0.3646  0.5677 -0.6823
 4234SOL    HW124335   4.022   0.343   7.387 -2.3590  1.4765 -0.2015
 4234SOL    HW224336   4.104   0.445   7.372  0.0133  0.5667 -0.2039
 4235SOL     OW24337   2.441   4.659   1.074 -0.2623 -0.3027 -0.1156
 4235SOL    HW124338   2.452   4.670   1.169  1.1126  0.8517 -0.4183
 4235SOL    HW224339   2.347   4.644   1.067 -0.0147 -1.5081 -0.9133
 4236SOL     OW24340   1.142   0.768   1.721  0.7357  0.1548  0.2775
 4236SOL    HW124341   1.055   0.783   1.684  0.8876  1.2268  0.3552
 4236SOL    HW224342   1.187   0.719   1.652 -1.4058  1.3690 -1.9715
 4237SOL     OW24343   2.127   0.971   2.154 -0.0470 -0.3855 -0.2917
 4237SOL    HW124344   2.206   1.024   2.143  0.8117 -1.5822  0.0587
 4237SOL    HW224345   2.100   0.998   2.242  1.3566  1.2561 -0.3448
 4238SOL     OW24346   1.763   0.989   5.112  0.5203 -0.2126 -0.2554
 4238SOL    HW124347   1.818   0.929   5.062 -0.1722 -1.6050  0.6504
 4238SOL    HW224348   1.796   1.071   5.075  1.5529 -0.4358  0.1732
 4239SOL     OW24349   4.696   3.814   4.786 -0.3018 -0.0235 -0.3496
 4239SOL    HW124350   4.735   3.821   4.698  1.1852  2.0238  0.4840
 4239SOL    HW224351   0.038   3.792   4.831 -1.0995 -0.4003  0.8899
 4240SOL     OW24352   2.637   2.229  11.747  0.5350 -0.3613  0.1928
 4240SOL    HW124353   2.607   2.175  11.674  0.2650 -0.6305  0.5040
 4240SOL    HW224354   2.558   2.276  11.772 -0.9321 -2.7578  0.0422
 4241SOL     OW24355   4.512   2.838   1.769  0.7347 -0.1990 -0.3443
 4241SOL    HW124356   4.550   2.753   1.747 -1.6618 -1.4208  0.2721
 4241SOL    HW224357   4.423   2.827   1.736  0.3745 -1.4696  1.0398
 4242SOL     OW24358   1.126   1.794   7.518  0.1572  0.0687 -0.1859
 4242SOL    HW124359   1.036   1.812   7.493 -0.8175 -2.2370  1.6046
 4242SOL    HW224360   1.106   1.719   7.574 -0.5366  2.8549  3.3602
 4243SOL     OW24361   3.175   4.273  15.153  0.0615 -0.2019  0.1535
 4243SOL    HW124362   3.135   4.358  15.138  0.2790 -0.6096 -2.6416
 4243SOL    HW224363   3.122   4.206  15.110  0.3165 -0.4647  0.2458
 4244SOL     OW24364   3.956   2.485  11.367 -0.3818 -0.4590 -0.0197
 4244SOL    HW124365   3.881   2.542  11.384  0.6566  0.9021 -0.0117
 4244SOL    HW224366   3.964   2.430  11.446 -1.0708 -0.9517 -0.2870
 4245SOL     OW24367   2.448   0.394   1.378  0.2894 -0.1151 -0.4029
 4245SOL    HW124368   2.441   0.314   1.326  0.1215 -0.8188  0.7176
 4245SOL    HW224369   2.542   0.392   1.397  0.1935 -1.1736 -0.0303
 4246SOL     OW24370   2.219   3.279   7.514 -0.2693  0.6775  0.2805
 4246SOL    HW124371   2.220   3.195   7.561 -1.0097  1.3325  1.4730
 4246SOL    HW224372   2.171   3.328   7.581  1.2091 -0.2980  2.0625
 4247SOL     OW24373   3.527   2.180   0.631  0.0259  0.3245  0.0587
 4247SOL    HW124374   3.497   2.269   0.608 -1.2430 -0.0464  0.2612
 4247SOL    HW224375   3.473   2.167   0.708 -0.3949  1.1371 -0.0934
 4248SOL     OW24376   4.343   2.530   8.327 -0.0015  0.1369 -0.2274
 4248SOL    HW124377   4.312   2.590   8.395 -0.8910  0.8622 -1.2857
 4248SOL    HW224378   4.278   2.461   8.314 -1.3113  1.3598 -0.1000
 4249SOL     OW24379   3.191   3.025   0.295 -0.4404 -0.8403 -0.2332
 4249SOL    HW124380   3.248   2.967   0.346 -0.8403 -1.4976 -0.5242
 4249SOL    HW224381   3.203   3.115   0.326 -2.3790 -1.5304  2.5123
 4250SOL     OW24382   2.516   4.627   6.112  0.3056  0.3222 -0.3866
 4250SOL    HW124383   2.441   4.682   6.088 -0.5987 -0.2731  1.1015
 4250SOL    HW224384   2.542   4.655   6.200  0.0734 -0.7923  0.0352
 4251SOL     OW24385   2.508   2.241   9.685  0.1305  0.3673 -0.1477
 4251SOL    HW124386   2.481   2.289   9.763  0.8521  0.5574 -0.0150
 4251SOL    HW224387   2.516   2.153   9.720  2.0362  0.6485  0.1499
 4252SOL     OW24388   0.558   3.024  10.794 -0.2743 -0.0948  0.2836
 4252SOL    HW124389   0.491   2.961  10.767 -1.5164  1.1330  0.5584
 4252SOL    HW224390   0.507   3.083  10.849 -0.9915 -0.3394 -0.1195
 4253SOL     OW24391   2.164   4.232   6.578  0.0300 -0.5352 -0.1948
 4253SOL    HW124392   2.238   4.235   6.640  0.2200  0.1674 -0.4622
 4253SOL    HW224393   2.140   4.324   6.584 -2.0675 -1.0264 -1.1027
 4254SOL     OW24394   4.183   1.240   2.434  0.1495 -0.4461 -0.2597
 4254SOL    HW124395   4.135   1.157   2.432  0.3143 -0.5273 -0.9840
 4254SOL    HW224396   4.123   1.300   2.388 -0.8480  0.6357  2.4769
 4255SOL     OW24397   0.560   1.923   5.972  0.4517  0.1050 -0.4260
 4255SOL    HW124398   0.514   1.840   5.962  0.1965  0.1465  0.4022
 4255SOL    HW224399   0.619   1.918   6.047 -0.9446  0.6838  0.7164
 4256SOL     OW24400   1.691   0.361  12.140  0.0015 -0.1969  0.0234
 4256SOL    HW124401   1.702   0.282  12.193 -2.8664 -1.2610 -0.9293
 4256SOL    HW224402   1.784   0.363  12.117 -0.1652 -2.9218 -0.9353
 4257SOL     OW24403   3.204   2.006   4.271  0.0487  0.1306  0.0165
 4257SOL    HW124404   3.151   2.085   4.261  1.6494  1.3786  1.5914
 4257SOL    HW224405   3.234   1.984   4.182 -1.5363 -0.1366 -0.4501
 4258SOL     OW24406   3.129   1.279   7.913 -0.0821 -0.2649 -0.4188
 4258SOL    HW124407   3.066   1.349   7.893  0.6516  0.3193 -0.6763
 4258SOL    HW224408   3.168   1.276   7.826  1.4497  0.1752  0.2635
 4259SOL     OW24409   3.052   1.803  10.731  0.4749  0.0830 -0.3683
 4259SOL    HW124410   3.012   1.717  10.736 -1.2168  0.6329 -4.4011
 4259SOL    HW224411   2.968   1.848  10.726  1.8626  2.7431  0.0286
 4260SOL     OW24412   1.652   1.556   7.217 -0.4510  0.3819 -0.5859
 4260SOL    HW124413   1.657   1.499   7.293  1.5652  0.8079 -0.4059
 4260SOL    HW224414   1.703   1.635   7.235  0.5770 -0.6839  1.1858
 4261SOL     OW24415   3.101   3.659   6.991 -0.5114 -0.3834 -0.5966
 4261SOL    HW124416   3.107   3.687   7.083 -2.8454  4.1769 -1.8293
 4261SOL    HW224417   3.028   3.597   6.988 -1.4012  0.6919 -1.1426
 4262SOL     OW24418   0.256   0.123   5.150  0.7147 -0.0448 -0.0566
 4262SOL    HW124419   0.311   0.045   5.157  0.9888 -0.0025 -1.7398
 4262SOL    HW224420   0.192   0.098   5.083  0.0992 -1.4564  1.0578
 4263SOL     OW24421   0.994   2.041  10.316  0.3080  0.2512 -0.3979
 4263SOL    HW124422   0.961   2.057  10.227 -0.2329  2.7320  0.2484
 4263SOL    HW224423   1.081   2.080  10.310 -0.4037  1.9877  0.9107
 4264SOL     OW24424   3.379   0.518   4.282  0.1481 -0.2784 -0.5593
 4264SOL    HW124425   3.464   0.535   4.242  0.0030  1.1026 -0.2833
 4264SOL    HW224426   3.364   0.608   4.312  0.1092  0.2251 -2.0973
 4265SOL     OW24427   3.732   3.720   4.748 -1.2343 -0.8083  0.2310
 4265SOL    HW124428   3.699   3.808   4.767 -2.8514 -0.7483 -2.7847
 4265SOL    HW224429   3.791   3.700   4.820  0.3302  1.5634 -0.4080
 4266SOL     OW24430   4.114   0.514   2.248 -0.3017 -0.3417  0.2514
 4266SOL    HW124431   4.053   0.475   2.186  1.8202 -1.1594 -1.3337
 4266SOL    HW224432   4.130   0.598   2.205  0.4065 -0.2743  0.6465
 4267SOL     OW24433   0.274   1.046   5.397  0.1049 -0.5562 -0.0238
 4267SOL    HW124434   0.251   0.953   5.407  0.7002 -0.8069 -0.9443
 4267SOL    HW224435   0.282   1.071   5.489 -0.6883  0.1010 -0.1360
 4268SOL     OW24436   2.514   1.863   5.804 -0.0872 -0.3831  0.2267
 4268SOL    HW124437   2.587   1.914   5.771  0.9235 -0.0703  2.9631
 4268SOL    HW224438   2.469   1.926   5.860  0.6223 -2.1664  2.7771
 4269SOL     OW24439   3.403   1.604   6.475 -0.0154  0.2986 -0.2728
 4269SOL    HW124440   3.437   1.606   6.565 -1.0040 -0.7120  0.1230
 4269SOL    HW224441   3.315   1.640   6.482 -1.0556 -2.3082  0.2555
 4270SOL     OW24442   0.982   4.104   7.045 -0.6127 -0.1907  0.5826
 4270SOL    HW124443   0.905   4.070   7.000  0.4221 -0.6969 -0.8019
 4270SOL    HW224444   0.948   4.194   7.049 -1.1614 -0.3682 -0.1338
 4271SOL     OW24445   3.532   2.223  10.650  0.1643  0.3809 -0.2253
 4271SOL    HW124446   3.528   2.204  10.744  0.1687  0.1858 -0.2641
 4271SOL    HW224447   3.628   2.225  10.644  0.2359 -1.7547  0.4178
 4272SOL     OW24448   4.726   2.326  10.823 -0.5427 -0.2373 -0.6432
 4272SOL    HW124449   0.025   2.414  10.823 -1.1302  0.0154 -2.5771
 4272SOL    HW224450   4.669   2.338  10.748 -1.9541 -0.9877  0.2940
 4273SOL     OW24451   0.435   2.600   2.385  0.0806  0.6683  0.8983
 4273SOL    HW124452   0.423   2.630   2.295 -0.9708  0.6386  1.0359
 4273SOL    HW224453   0.346   2.597   2.420 -0.3592 -1.4732 -0.4035
 4274SOL     OW24454   3.879   1.723   7.678  0.1738 -0.5441  0.0231
 4274SOL    HW124455   3.883   1.685   7.766  0.5563  3.1649  1.6013
 4274SOL    HW224456   3.968   1.756   7.666  0.2879 -0.4422  1.1476
 4275SOL     OW24457   2.609   2.193   4.952  0.1067  0.7219 -0.1604
 4275SOL    HW124458   2.626   2.100   4.963 -0.5169  0.4915 -1.1150
 4275SOL    HW224459   2.676   2.239   5.002 -1.0250  1.5975  0.5691
 4276SOL     OW24460   3.157   2.094   6.797  0.3069 -0.1216 -0.9377
 4276SOL    HW124461   3.202   2.147   6.863 -0.3464  0.1793 -0.7438
 4276SOL    HW224462   3.095   2.160   6.765 -0.5023 -0.3318  0.2170
 4277SOL     OW24463   2.140   0.076   7.949 -0.6066  0.2092  0.0328
 4277SOL    HW124464   2.165   0.006   7.889  3.8819  2.2605 -0.4790
 4277SOL    HW224465   2.160   0.151   7.894  4.0481 -2.9641 -2.6553
 4278SOL     OW24466   0.098   1.186  14.864  0.2076 -0.3309 -0.3609
 4278SOL    HW124467   0.142   1.142  14.936 -0.6338  0.9451  0.9170
 4278SOL    HW224468   0.043   1.116  14.828 -0.9965  0.5656 -0.2626
 4279SOL     OW24469   2.615   3.803   9.999  0.1251 -0.3240 -0.3556
 4279SOL    HW124470   2.561   3.730   9.969 -1.2973  1.1561 -1.3385
 4279SOL    HW224471   2.619   3.867   9.929  1.1566 -1.5470 -1.4260
 4280SOL     OW24472   1.979   0.169   2.994 -0.2595 -0.4336 -0.5238
 4280SOL    HW124473   1.959   0.239   2.932  0.7096  1.2413  1.0426
 4280SOL    HW224474   1.893   0.151   3.032 -1.5605  0.3156 -3.1356
 4281SOL     OW24475   0.411   4.364   8.080  0.3039 -0.0509  0.2947
 4281SOL    HW124476   0.464   4.318   8.145 -0.2133  0.7587  1.2925
 4281SOL    HW224477   0.373   4.290   8.033  1.0149  0.9219 -1.8073
 4282SOL     OW24478   1.039   4.092  12.856  0.4575 -0.4160 -0.1706
 4282SOL    HW124479   0.971   4.108  12.921  0.5325  0.2429 -0.2583
 4282SOL    HW224480   1.036   3.996  12.854  0.5036 -0.3635 -3.3523
 4283SOL     OW24481   2.654   3.588  12.396 -0.2774  0.1181  0.0938
 4283SOL    HW124482   2.632   3.630  12.480  1.1153  1.8308 -0.4006
 4283SOL    HW224483   2.579   3.614  12.342 -0.8306 -0.8736  0.3722
 4284SOL     OW24484   3.125   4.462   8.060  0.1207  0.5430 -0.6425
 4284SOL    HW124485   3.118   4.557   8.074 -0.1519  0.2062  1.5353
 4284SOL    HW224486   3.109   4.418   8.143 -1.1855 -0.3079 -1.3428
 4285SOL     OW24487   2.584   0.720   0.393  0.9440 -0.2349  0.2062
 4285SOL    HW124488   2.662   0.715   0.448  0.3045 -1.0197  1.0439
 4285SOL    HW224489   2.575   0.814   0.380  1.6092  0.1146  2.4071
 4286SOL     OW24490   1.707   3.002  14.621 -0.0810  0.1506 -0.8542
 4286SOL    HW124491   1.727   2.962  14.537  1.8237  0.6184 -0.6157
 4286SOL    HW224492   1.682   3.089  14.589  1.0996  1.2999  1.3498
 4287SOL     OW24493   1.025   0.228  12.300  0.3507  0.0802 -0.5173
 4287SOL    HW124494   1.094   0.294  12.310  0.5934  0.3979 -4.3546
 4287SOL    HW224495   0.960   0.277  12.249  0.8313  0.9127 -0.3382
 4288SOL     OW24496   2.984   0.192   9.165  0.2168  0.1317 -0.6548
 4288SOL    HW124497   3.076   0.167   9.156  0.7697  2.2128 -0.7953
 4288SOL    HW224498   2.960   0.210   9.074 -2.5273 -1.1046 -0.1632
 4289SOL     OW24499   0.109   4.251   3.421 -1.0321 -0.1194  0.1305
 4289SOL    HW124500   0.130   4.212   3.336 -0.2439 -0.4472  0.4680
 4289SOL    HW224501   0.181   4.313   3.429 -0.3789 -0.8110 -0.3775
 4290SOL     OW24502   4.107   2.123  16.940  0.1386  0.0776  0.2260
 4290SOL    HW124503   4.058   2.121  17.022  0.9643 -0.7086  0.6991
 4290SOL    HW224504   4.069   2.202  16.902 -0.9445 -0.1850  0.7645
 4291SOL     OW24505   1.717   3.525   0.423 -0.1124  0.1311  0.5189
 4291SOL    HW124506   1.693   3.610   0.460 -3.1576 -0.2744 -0.5306
 4291SOL    HW224507   1.642   3.475   0.455  0.1632  0.0754  1.0762
 4292SOL     OW24508   1.155   2.659   8.985  0.1210  1.1293 -0.0099
 4292SOL    HW124509   1.139   2.612   8.903 -0.8136  2.9680 -0.8615
 4292SOL    HW224510   1.099   2.733   8.963 -1.8736 -1.1833 -2.7594
 4293SOL     OW24511   3.654   1.750   8.500  0.3693 -0.1650 -0.7514
 4293SOL    HW124512   3.619   1.807   8.430  1.4807  0.3276 -0.9068
 4293SOL    HW224513   3.665   1.810   8.573  1.1689 -1.7118  0.3861
 4294SOL     OW24514   4.553   3.653   6.661  0.0354 -0.0996  0.2767
 4294SOL    HW124515   4.538   3.747   6.674  0.5224  0.1169 -0.7329
 4294SOL    HW224516   4.609   3.635   6.737  0.2896 -1.2092 -0.1803
 4295SOL     OW24517   1.529   2.594  14.969  0.0463  0.0996 -0.3545
 4295SOL    HW124518   1.615   2.591  15.011  1.0304  0.9964 -2.2732
 4295SOL    HW224519   1.483   2.637  15.040  0.9949 -1.2277  1.0674
 4296SOL     OW24520   2.155   0.554  13.187 -0.0169  0.0510  0.2032
 4296SOL    HW124521   2.214   0.569  13.261  0.3245 -0.0755 -0.0382
 4296SOL    HW224522   2.072   0.556  13.233  0.4440 -0.5061  1.0702
 4297SOL     OW24523   2.275   2.821   2.101 -0.2086 -0.0334 -0.2421
 4297SOL    HW124524   2.317   2.738   2.122  1.8509  1.4231  1.3455
 4297SOL    HW224525   2.280   2.812   2.006  1.4694 -0.6430 -0.0892
 4298SOL     OW24526   1.465   0.702   1.132 -0.0858  0.0977  0.3401
 4298SOL    HW124527   1.544   0.751   1.157  0.4780 -0.3385 -0.5773
 4298SOL    HW224528   1.465   0.649   1.211 -1.4307 -0.4216 -0.0222
 4299SOL     OW24529   0.991   0.276   9.558 -0.2674  0.0710 -0.0294
 4299SOL    HW124530   1.054   0.327   9.608 -1.4001 -0.8361  2.3012
 4299SOL    HW224531   0.929   0.243   9.623  0.8847  1.5403  1.8167
 4300SOL     OW24532   4.102   0.897   7.992  0.2466  0.3248 -1.0225
 4300SOL    HW124533   4.184   0.924   7.952  1.0475 -1.8067 -0.8259
 4300SOL    HW224534   4.098   0.802   8.001 -0.7222  0.2601 -2.0064
 4301SOL     OW24535   4.510   4.064   1.406  0.0307 -0.1501 -0.5173
 4301SOL    HW124536   4.439   4.010   1.442 -0.5664  0.4977 -0.7337
 4301SOL    HW224537   4.585   4.005   1.396  0.7547  0.4352  1.4844
 4302SOL     OW24538   1.361   4.154   7.005 -0.0624 -0.2533  0.3711
 4302SOL    HW124539   1.358   4.231   6.947  0.1185 -0.8762 -0.4759
 4302SOL    HW224540   1.327   4.087   6.946  1.3150  0.8124 -1.6903
 4303SOL     OW24541   1.474   0.429   9.253  0.2484 -0.7567  0.9407
 4303SOL    HW124542   1.390   0.462   9.220  1.5127  2.1910  0.6542
 4303SOL    HW224543   1.461   0.335   9.243  1.4895 -0.9407  1.0680
 4304SOL     OW24544   3.488   2.569   3.501 -0.1135  0.0622  0.0455
 4304SOL    HW124545   3.488   2.663   3.482 -1.0309 -0.2491 -1.5563
 4304SOL    HW224546   3.565   2.565   3.558 -1.7105 -3.2341  1.9607
 4305SOL     OW24547   3.644   4.271   4.089  0.2338 -0.0581  0.9483
 4305SOL    HW124548   3.667   4.349   4.038 -0.3634 -0.4543  0.0559
 4305SOL    HW224549   3.713   4.208   4.067 -1.8047 -1.0694 -2.6158
 4306SOL     OW24550   2.128   3.974   0.173  0.4053 -0.0300  0.3974
 4306SOL    HW124551   2.165   4.054   0.135  0.8203  0.1499  1.1706
 4306SOL    HW224552   2.074   3.937   0.104  0.4258 -0.2544  0.5003
 4307SOL     OW24553   1.241   2.466  14.609  0.0663  0.0011  0.0339
 4307SOL    HW124554   1.321   2.420  14.584 -0.0453 -0.3447  0.3084
 4307SOL    HW224555   1.274   2.544  14.653 -0.0925 -0.4386  0.9353
 4308SOL     OW24556   1.487   0.097   6.441 -0.1754  0.0321  0.0679
 4308SOL    HW124557   1.422   0.053   6.386  1.2831  0.0213 -1.6511
 4308SOL    HW224558   1.566   0.050   6.413  0.4248 -0.2308  2.2533
 4309SOL     OW24559   3.733   2.767  11.930 -0.0151 -0.2978  0.0092
 4309SOL    HW124560   3.689   2.845  11.963  0.2761  0.3738 -1.2084
 4309SOL    HW224561   3.768   2.726  12.009  1.6041  0.7250 -0.1741
 4310SOL     OW24562   3.981   4.447   5.126 -0.0340  0.7265 -0.5376
 4310SOL    HW124563   4.041   4.508   5.169  1.2933 -0.1825 -1.0969
 4310SOL    HW224564   4.001   4.367   5.173  0.5840  0.2814 -1.5631
 4311SOL     OW24565   2.008   4.249   9.831 -0.3522  0.0871 -0.3051
 4311SOL    HW124566   2.012   4.202   9.914  0.8037 -0.2104 -0.5203
 4311SOL    HW224567   2.094   4.225   9.796  0.9625  2.7155  1.1025
 4312SOL     OW24568   4.150   3.062   7.125  0.2044  0.0350 -0.6185
 4312SOL    HW124569   4.102   3.023   7.052 -1.0135 -0.9490  0.7082
 4312SOL    HW224570   4.133   2.991   7.188 -1.4425  0.5736 -0.4604
 4313SOL     OW24571   2.645   0.750   8.507  0.1297 -0.2807  0.5011
 4313SOL    HW124572   2.618   0.780   8.594 -0.0834 -0.9501  0.6687
 4313SOL    HW224573   2.735   0.729   8.532  0.1729  0.4843  1.0063
 4314SOL     OW24574   3.776   4.401   9.844 -0.1957 -0.5888 -0.0039
 4314SOL    HW124575   3.735   4.487   9.832 -0.0791 -0.5621 -0.2110
 4314SOL    HW224576   3.776   4.368   9.755 -0.9091 -0.3970 -0.0799
 4315SOL     OW24577   2.230   3.623   9.144  1.0347 -0.6343 -0.7253
 4315SOL    HW124578   2.135   3.615   9.143  1.0288 -0.8979  1.9849
 4315SOL    HW224579   2.238   3.719   9.141 -1.3891 -0.4337 -0.9276
 4316SOL     OW24580   0.666   3.132  17.426 -0.4375  0.3798  0.0110
 4316SOL    HW124581   0.652   3.173  17.341  1.8530  0.6588 -0.2328
 4316SOL    HW224582   0.585   3.080  17.423 -0.3084  0.2218 -0.6766
 4317SOL     OW24583   1.672   2.232   5.421  0.0292  0.2467 -0.2774
 4317SOL    HW124584   1.701   2.323   5.424  1.4664 -0.2276  0.2187
 4317SOL    HW224585   1.614   2.231   5.497  1.4527 -1.0001  0.7942
 4318SOL     OW24586   0.308   3.497  10.680 -0.2998  0.1061  0.2912
 4318SOL    HW124587   0.381   3.504  10.619 -0.4291 -0.8083  0.0263
 4318SOL    HW224588   0.341   3.517  10.767 -0.5140  3.0556 -0.3225
 4319SOL     OW24589   0.168   4.378   2.100  0.8850  0.0133 -0.2993
 4319SOL    HW124590   0.199   4.329   2.024 -1.1915 -0.2123 -0.9765
 4319SOL    HW224591   0.176   4.306   2.163  0.3816  1.3117  1.2430
 4320SOL     OW24592   4.354   2.297   8.076  0.7482  0.3656 -0.6846
 4320SOL    HW124593   4.421   2.231   8.057  0.9665  1.0553 -2.3071
 4320SOL    HW224594   4.283   2.240   8.105  1.2802 -0.5703 -1.2278
 4321SOL     OW24595   3.572   0.721   5.709 -0.2046 -0.2124 -0.3201
 4321SOL    HW124596   3.498   0.708   5.768 -0.0200 -1.2323 -0.3149
 4321SOL    HW224597   3.611   0.634   5.701  0.7369  0.0042  2.1349
 4322SOL     OW24598   2.197   0.877   1.272 -0.4681 -0.0127 -0.5104
 4322SOL    HW124599   2.277   0.893   1.322 -0.5190  0.3095 -0.5325
 4322SOL    HW224600   2.141   0.834   1.337 -0.8134 -1.2864 -1.6563
 4323SOL     OW24601   2.707   1.714   4.174  0.2170 -0.3368  0.3294
 4323SOL    HW124602   2.747   1.628   4.182  0.5968 -0.1253  0.7246
 4323SOL    HW224603   2.728   1.721   4.081 -2.6750  3.2657 -0.0581
 4324SOL     OW24604   2.946   1.050   6.566  0.3286 -0.2501  0.3914
 4324SOL    HW124605   2.876   1.048   6.502 -0.7422 -0.0197  1.5520
 4324SOL    HW224606   2.910   0.994   6.635  0.7381 -3.1161 -1.7265
 4325SOL     OW24607   1.910   1.063  11.023 -0.1721  0.1423  0.2190
 4325SOL    HW124608   1.949   1.076  11.109 -2.1744 -0.9987  1.3017
 4325SOL    HW224609   1.886   1.153  10.998 -3.2576 -0.5285  0.7609
 4326SOL     OW24610   3.511   2.073  13.663 -0.0193  0.0572 -0.4907
 4326SOL    HW124611   3.587   2.036  13.709  2.0778  3.8757 -0.9004
 4326SOL    HW224612   3.471   2.004  13.610  1.4765  0.0494 -1.6000
 4327SOL     OW24613   2.292   2.487   3.154 -0.0827 -0.1589 -0.0730
 4327SOL    HW124614   2.382   2.471   3.127  0.0341  1.1728 -0.4489
 4327SOL    HW224615   2.262   2.541   3.081  2.2708  0.2626 -0.7033
 4328SOL     OW24616   4.568   2.892  17.500  0.0140 -0.3865 -0.5045
 4328SOL    HW124617   4.509   2.855  17.435  1.2827 -1.4934 -1.0209
 4328SOL    HW224618   4.634   2.823  17.493  0.5689  0.1599 -0.6500
 4329SOL     OW24619   0.228   0.844  14.181  0.3417  0.0545  0.0546
 4329SOL    HW124620   0.212   0.841  14.087  1.1602 -0.0971 -0.0844
 4329SOL    HW224621   0.234   0.939  14.183 -0.0095  0.0888 -0.7473
 4330SOL     OW24622   2.385   4.488   3.003 -0.1777  0.1041  0.0381
 4330SOL    HW124623   2.408   4.470   3.094 -1.3716 -0.9026  0.1333
 4330SOL    HW224624   2.322   4.559   3.015  0.5079  0.4461  1.5729
 4331SOL     OW24625   2.139   0.933   6.316 -0.6770  0.2509  0.1594
 4331SOL    HW124626   2.212   0.958   6.372 -0.9625  2.5343 -0.4853
 4331SOL    HW224627   2.094   1.018   6.322 -1.9636 -0.5007  1.1155
 4332SOL     OW24628   4.046   1.729   6.419 -0.1479 -1.0546  0.2935
 4332SOL    HW124629   4.010   1.649   6.379 -0.0844  0.1653 -2.1810
 4332SOL    HW224630   3.966   1.766   6.457 -0.0718  0.3963 -0.9933
 4333SOL     OW24631   2.267   3.395   4.504 -0.2132 -0.4966 -0.0873
 4333SOL    HW124632   2.344   3.448   4.483 -0.6411  0.5063  0.9096
 4333SOL    HW224633   2.253   3.400   4.598  2.3091  2.9902  0.0786
 4334SOL     OW24634   0.757   0.657   8.683  0.3343  0.1143  0.6507
 4334SOL    HW124635   0.706   0.728   8.642  1.4380  1.4834  1.6248
 4334SOL    HW224636   0.818   0.711   8.734 -0.4984  2.2277 -0.5645
 4335SOL     OW24637   0.890   2.513   6.128  0.6232 -0.7129 -0.0281
 4335SOL    HW124638   0.919   2.556   6.209 -2.2218  1.2548 -0.0561
 4335SOL    HW224639   0.898   2.578   6.059 -1.9541 -0.8294 -0.4173
 4336SOL     OW24640   4.388   0.174  13.165 -0.2499  0.2951  0.3087
 4336SOL    HW124641   4.317   0.113  13.142  1.2981 -0.4539 -2.5860
 4336SOL    HW224642   4.375   0.178  13.259  0.0325 -1.3405  0.4278
 4337SOL     OW24643   4.214   3.771   2.922 -0.1977  0.0654  0.3445
 4337SOL    HW124644   4.137   3.737   2.967  1.3578  0.0845  3.0247
 4337SOL    HW224645   4.195   3.741   2.833 -0.4705 -0.3173  0.5359
 4338SOL     OW24646   3.554   3.783   8.625 -0.0460 -0.4114  0.2184
 4338SOL    HW124647   3.539   3.691   8.647  0.0064 -0.0185  1.8563
 4338SOL    HW224648   3.578   3.824   8.708  0.7456 -5.1159  2.3101
 4339SOL     OW24649   3.021   3.955   6.934  0.3322  0.2330 -0.3350
 4339SOL    HW124650   3.072   3.882   6.968 -0.9214  0.0304  1.1309
 4339SOL    HW224651   3.092   4.018   6.926 -0.1763  0.8988  0.3216
 4340SOL     OW24652   4.735   2.225   8.523 -0.6442  0.2461  0.1358
 4340SOL    HW124653   0.042   2.211   8.606 -0.0478  0.0451 -0.2272
 4340SOL    HW224654   0.035   2.308   8.498  1.4381 -1.2090 -1.5127
 4341SOL     OW24655   1.747   2.356   3.375 -0.6936  0.3389 -0.2014
 4341SOL    HW124656   1.816   2.390   3.432 -0.9192  1.1666 -0.4223
 4341SOL    HW224657   1.801   2.303   3.317  1.3724 -0.4138  2.3866
 4342SOL     OW24658   4.624   3.649   6.158  0.7756 -0.0817 -0.3531
 4342SOL    HW124659   4.610   3.577   6.096  1.4520  0.4422 -1.1255
 4342SOL    HW224660   4.533   3.675   6.165  0.7930  0.7066 -2.8036
 4343SOL     OW24661   3.736   1.566  12.988 -0.8268  0.5398  0.1451
 4343SOL    HW124662   3.779   1.608  13.062  0.2505 -0.4298  0.0689
 4343SOL    HW224663   3.652   1.611  12.993 -2.0212 -1.8723  1.1070
 4344SOL     OW24664   1.974   2.146   8.570 -0.5703  0.3147  0.1487
 4344SOL    HW124665   1.917   2.222   8.555  0.5768  0.5526 -3.0621
 4344SOL    HW224666   1.990   2.151   8.664  0.2376 -2.5313  0.1595
 4345SOL     OW24667   0.303   3.920   0.409  0.0001 -0.0276  0.2320
 4345SOL    HW124668   0.261   3.951   0.489 -0.2077  0.9034 -0.2313
 4345SOL    HW224669   0.325   4.006   0.372 -1.0099 -0.9757 -2.6192
 4346SOL     OW24670   4.075   3.316   8.746 -0.3353  0.1380 -0.4568
 4346SOL    HW124671   4.164   3.304   8.711 -1.2011 -2.1785 -1.8984
 4346SOL    HW224672   4.028   3.233   8.735 -1.1116  0.6898 -1.2751
 4347SOL     OW24673   2.849   3.739   7.068 -0.1421  0.1838 -0.2460
 4347SOL    HW124674   2.859   3.784   6.984 -1.0660 -0.8495 -0.9056
 4347SOL    HW224675   2.785   3.669   7.059  1.5737 -0.9478 -3.4823
 4348SOL     OW24676   3.426   3.251  12.802 -0.3516  0.2527 -0.4335
 4348SOL    HW124677   3.457   3.202  12.878 -0.0146  0.1151 -0.6629
 4348SOL    HW224678   3.501   3.308  12.785  0.5481  0.1633  3.1666
 4349SOL     OW24679   1.741   2.601   4.040 -0.5446 -0.2120 -0.5008
 4349SOL    HW124680   1.687   2.527   4.067 -0.1751 -0.3072 -0.0297
 4349SOL    HW224681   1.761   2.579   3.949  2.4520  0.8104 -0.0783
 4350SOL     OW24682   2.496   0.962   9.277 -0.5878  0.1446  0.1489
 4350SOL    HW124683   2.417   1.010   9.304  0.3042 -0.2988  3.4634
 4350SOL    HW224684   2.555   0.951   9.351 -0.4384 -1.8735 -0.2650
 4351SOL     OW24685   3.419   0.615  16.117  0.1079  0.1171 -0.2804
 4351SOL    HW124686   3.408   0.522  16.134  0.0612  0.4790  1.6694
 4351SOL    HW224687   3.465   0.612  16.033  0.6158  1.1745 -0.0370
 4352SOL     OW24688   3.480   2.271  12.306 -0.5216  0.5725 -0.2086
 4352SOL    HW124689   3.454   2.179  12.298 -0.8425  0.5030  1.6641
 4352SOL    HW224690   3.491   2.276  12.401 -2.3451 -2.7768  0.1936
 4353SOL     OW24691   4.323   2.693  12.264  0.0108  0.1754  0.3672
 4353SOL    HW124692   4.323   2.666  12.172  0.8072 -2.0606  1.0220
 4353SOL    HW224693   4.403   2.745  12.272  0.4558 -0.6829  1.4916
 4354SOL     OW24694   2.391   0.118  10.893 -0.3289 -0.2922  0.0081
 4354SOL    HW124695   2.486   0.121  10.896 -0.2803  0.4678 -2.6953
 4354SOL    HW224696   2.368   0.189  10.953 -0.6908  1.2909 -2.0376
 4355SOL     OW24697   1.704   3.641   5.556  0.1454 -0.2022  0.4671
 4355SOL    HW124698   1.718   3.548   5.539  0.9410 -0.2664  1.4592
 4355SOL    HW224699   1.668   3.628   5.643 -1.8317 -1.9742 -0.6137
 4356SOL     OW24700   2.187   0.577  16.775 -0.1798 -0.1480 -0.2248
 4356SOL    HW124701   2.241   0.640  16.823 -1.3628  0.4702  0.2987
 4356SOL    HW224702   2.140   0.533  16.846 -1.8526 -0.9603 -1.8333
 4357SOL     OW24703   3.110   3.737  13.598  0.7455 -0.1863  0.4157
 4357SOL    HW124704   3.120   3.830  13.578  2.3725 -0.9932 -2.6542
 4357SOL    HW224705   3.093   3.743  13.692  2.2979  0.3624  0.6626
 4358SOL     OW24706   1.056   0.137   3.595 -0.3552  0.1068  0.1301
 4358SOL    HW124707   1.093   0.173   3.675 -0.7242 -0.9105  0.7701
 4358SOL    HW224708   1.110   0.180   3.529 -0.1684 -1.4452 -0.7449
 4359SOL     OW24709   2.297   4.549   5.939  0.7713 -0.1411 -0.2961
 4359SOL    HW124710   2.315   4.640   5.913  0.2347 -0.1647 -0.7441
 4359SOL    HW224711   2.366   4.530   6.002 -0.7851 -0.6341  1.2492
 4360SOL     OW24712   4.143   2.048   8.533  0.5610  0.0603  0.5915
 4360SOL    HW124713   4.153   2.074   8.625 -0.4067 -0.9696  0.9980
 4360SOL    HW224714   4.227   2.080   8.499  0.0133 -2.3038 -3.0169
 4361SOL     OW24715   2.351   4.349  10.743 -0.3434 -0.1859 -0.0802
 4361SOL    HW124716   2.372   4.414  10.676 -1.2977  0.1129 -0.0870
 4361SOL    HW224717   2.427   4.357  10.801 -1.6151 -3.5567  2.0547
 4362SOL     OW24718   0.228   0.868   9.409 -0.2408  0.2963 -0.0269
 4362SOL    HW124719   0.297   0.817   9.452  0.9215  1.0864 -0.9459
 4362SOL    HW224720   0.153   0.849   9.465  0.1965 -1.8182 -0.1479
 4363SOL     OW24721   0.892   3.245   4.994 -0.1442 -0.0307  0.1265
 4363SOL    HW124722   0.894   3.339   4.975  0.6016  0.0512  0.6236
 4363SOL    HW224723   0.874   3.206   4.908 -1.7765  0.2242  0.3449
 4364SOL     OW24724   0.266   1.281   8.337 -0.5448 -0.0066 -0.6926
 4364SOL    HW124725   0.315   1.252   8.260  0.9275  0.5879  0.0347
 4364SOL    HW224726   0.267   1.376   8.331 -0.1600  0.0681  0.6266
 4365SOL     OW24727   2.110   0.947   5.660 -0.1884 -0.8732  0.1578
 4365SOL    HW124728   2.024   0.983   5.639  1.2041  0.9016 -2.4903
 4365SOL    HW224729   2.098   0.862   5.617  0.6157 -1.6192  1.3979
 4366SOL     OW24730   1.496   4.228   7.866 -0.0804 -0.0967 -0.6399
 4366SOL    HW124731   1.541   4.301   7.908 -0.4350  0.5916 -1.4432
 4366SOL    HW224732   1.485   4.174   7.944 -1.4997 -0.6169 -1.2029
 4367SOL     OW24733   4.312   3.179   6.322 -0.5129  0.8165 -0.0501
 4367SOL    HW124734   4.398   3.198   6.284 -0.3608 -0.1404 -0.1630
 4367SOL    HW224735   4.263   3.235   6.262 -2.0887  0.2423  0.7153
 4368SOL     OW24736   2.676   0.408   5.032 -0.1555 -0.8149 -0.5577
 4368SOL    HW124737   2.635   0.486   5.069  1.0732  0.1565 -1.2350
 4368SOL    HW224738   2.726   0.376   5.106  0.0050 -0.2876 -0.4387
 4369SOL     OW24739   3.824   1.638  12.137 -0.2664 -0.3328  0.3629
 4369SOL    HW124740   3.896   1.590  12.097  1.6947  0.3696  3.0590
 4369SOL    HW224741   3.842   1.607  12.226  0.3435  2.1879  1.1219
 4370SOL     OW24742   3.356   1.136   8.414  0.4914 -0.2444  0.5262
 4370SOL    HW124743   3.450   1.148   8.402  0.3703  1.4742  1.3147
 4370SOL    HW224744   3.347   1.052   8.458  0.2598 -1.1613 -1.2445
 4371SOL     OW24745   3.143   2.234   8.437  0.0982  0.2373 -0.0879
 4371SOL    HW124746   3.089   2.306   8.405  0.8110 -0.1712 -2.2318
 4371SOL    HW224747   3.137   2.175   8.362 -1.8445 -1.3394  1.2830
 4372SOL     OW24748   1.749   0.349   8.404 -0.1723  0.4300 -0.1633
 4372SOL    HW124749   1.762   0.330   8.497 -0.2072 -1.1774 -0.4852
 4372SOL    HW224750   1.839   0.349   8.372 -0.3845  2.9316 -0.7647
 4373SOL     OW24751   3.038   1.918  15.010  0.0217 -0.0964 -0.6516
 4373SOL    HW124752   3.015   1.908  14.918  1.1575 -0.7593 -0.8659
 4373SOL    HW224753   3.102   1.987  14.990 -0.8035  0.7660 -0.3225
 4374SOL     OW24754   0.404   0.294   0.751 -0.2974 -0.3286 -0.4263
 4374SOL    HW124755   0.371   0.204   0.746  0.9758 -0.9214  1.8007
 4374SOL    HW224756   0.483   0.274   0.802 -1.3370 -1.2583  0.8149
 4375SOL     OW24757   0.616   3.996   2.088 -0.3615 -0.0236  0.1069
 4375SOL    HW124758   0.693   3.941   2.099 -1.4499 -1.6573 -0.3132
 4375SOL    HW224759   0.633   4.078   2.133 -3.1736  0.2614  0.6738
 4376SOL     OW24760   0.094   2.901  12.260  0.2559 -0.1868  0.7164
 4376SOL    HW124761   0.177   2.862  12.285 -1.3770 -2.8657  1.9744
 4376SOL    HW224762   0.053   2.901  12.347  0.8216 -0.0960  0.9844
 4377SOL     OW24763   1.952   1.930  10.417 -0.0064  0.4930 -0.0303
 4377SOL    HW124764   1.959   1.948  10.510 -0.4344 -0.6094  0.2106
 4377SOL    HW224765   1.856   1.931  10.415  0.0309 -0.2964 -3.0703
 4378SOL     OW24766   0.307   4.668   2.723  0.2321  0.0908  0.1693
 4378SOL    HW124767   0.255   0.000   2.762 -0.9181 -0.2361 -0.7945
 4378SOL    HW224768   0.241   4.632   2.664 -0.1627 -1.1090  1.3555
 4379SOL     OW24769   2.304   3.178   1.180 -0.4379  0.0471 -0.2312
 4379SOL    HW124770   2.232   3.239   1.198 -2.4357 -1.6718 -2.3359
 4379SOL    HW224771   2.333   3.226   1.103 -1.7463  0.5795 -0.3952
 4380SOL     OW24772   4.035   0.884   8.524 -0.1493  0.2309 -0.0297
 4380SOL    HW124773   4.016   0.812   8.584  0.0401  0.6200  0.4965
 4380SOL    HW224774   4.094   0.836   8.466 -0.7731 -1.5376  0.8155
 4381SOL     OW24775   2.170   2.842   4.710 -0.2529  0.1392 -0.5318
 4381SOL    HW124776   2.118   2.848   4.791 -2.2226  1.2142 -1.8697
 4381SOL    HW224777   2.231   2.774   4.739 -0.9577 -0.7515 -1.1321
 4382SOL     OW24778   3.355   0.583   9.470  0.0812  0.5427 -0.3321
 4382SOL    HW124779   3.277   0.589   9.526  0.6650 -3.0618  0.8783
 4382SOL    HW224780   3.348   0.653   9.405  0.0863  0.2483 -0.6489
 4383SOL     OW24781   3.731   2.736  12.378 -0.2619 -0.1857  0.0255
 4383SOL    HW124782   3.774   2.780  12.305 -1.4789  1.2141  0.1793
 4383SOL    HW224783   3.655   2.710  12.326 -1.4645  2.4402  0.4945
 4384SOL     OW24784   2.958   4.491  13.821  0.2460 -0.4561  0.6790
 4384SOL    HW124785   2.881   4.471  13.873 -0.0457 -2.3658 -0.4647
 4384SOL    HW224786   2.917   4.559  13.769  1.7092  0.1034  0.2361
 4385SOL     OW24787   0.732   3.362   5.556  0.0647  0.0600  0.0557
 4385SOL    HW124788   0.711   3.303   5.628  0.8619 -1.3014 -0.8217
 4385SOL    HW224789   0.812   3.405   5.588  0.8373  0.3870 -2.2807
 4386SOL     OW24790   1.190   1.655   8.196 -0.1388  0.2480  0.4737
 4386SOL    HW124791   1.211   1.566   8.224 -0.3219 -0.2083 -0.8652
 4386SOL    HW224792   1.098   1.642   8.173  0.1824  1.8511 -1.6638
 4387SOL     OW24793   1.481   3.660   1.522  0.1407 -0.2395 -0.1852
 4387SOL    HW124794   1.540   3.720   1.566 -1.4879 -0.9886  3.0287
 4387SOL    HW224795   1.519   3.577   1.551 -0.4544 -0.1801  0.7805
 4388SOL     OW24796   0.605   3.624   0.602  0.2689 -0.3285 -0.5842
 4388SOL    HW124797   0.641   3.601   0.688  0.3054 -1.2812 -0.8584
 4388SOL    HW224798   0.517   3.585   0.601  0.3816 -0.6440  1.1720
 4389SOL     OW24799   2.268   0.885   6.078  0.7802  0.0694 -0.2420
 4389SOL    HW124800   2.239   0.973   6.051  1.8918  0.6486  0.4723
 4389SOL    HW224801   2.222   0.871   6.161  3.1870 -0.4046  1.0047
 4390SOL     OW24802   2.071   2.317   1.605 -0.0877  0.3180  0.2934
 4390SOL    HW124803   1.995   2.375   1.612  0.0611  0.5188  0.2572
 4390SOL    HW224804   2.090   2.289   1.694 -1.5621 -0.7120  0.2864
 4391SOL     OW24805   3.057   2.416   3.315 -0.1245  0.4138 -0.5271
 4391SOL    HW124806   3.004   2.337   3.320  0.1774  0.2478 -0.0114
 4391SOL    HW224807   3.141   2.387   3.278  1.7307  2.0360  2.3916
 4392SOL     OW24808   1.225   1.375   8.241  0.3572  0.3893  0.4074
 4392SOL    HW124809   1.161   1.334   8.300  0.4989  1.0897  1.0410
 4392SOL    HW224810   1.241   1.310   8.173  0.9352  1.7093 -0.7151
 4393SOL     OW24811   2.063   1.429  11.883  0.4286 -0.7341  0.4838
 4393SOL    HW124812   2.066   1.485  11.805  0.0310 -1.0622  0.2281
 4393SOL    HW224813   1.992   1.371  11.852  0.0200  1.0589 -1.9362
 4394SOL     OW24814   1.225   3.759   2.116  0.3780 -0.1351 -0.6786
 4394SOL    HW124815   1.164   3.685   2.108  1.5518 -1.1253 -0.4648
 4394SOL    HW224816   1.300   3.729   2.063  0.8501 -2.5575  1.3583
 4395SOL     OW24817   0.239   1.798  13.052 -0.3443 -0.1282  0.0319
 4395SOL    HW124818   0.279   1.777  12.968  0.0672 -0.2747  0.2686
 4395SOL    HW224819   0.261   1.891  13.060  0.6635 -0.3693 -0.0335
 4396SOL     OW24820   2.622   1.366   5.179 -0.4544 -0.1110  0.9767
 4396SOL    HW124821   2.665   1.386   5.096 -0.6261 -2.3443  0.3299
 4396SOL    HW224822   2.654   1.277   5.197  0.3621 -0.1415 -0.5802
 4397SOL     OW24823   2.705   1.637   9.119 -0.2226  0.3128 -0.3243
 4397SOL    HW124824   2.749   1.660   9.201 -1.4917  0.7195  0.2364
 4397SOL    HW224825   2.640   1.705   9.103  0.8678  0.7526 -3.0119
 4398SOL     OW24826   0.817   1.222   7.977 -0.2012 -0.0489 -0.1126
 4398SOL    HW124827   0.801   1.130   8.000 -1.0614  0.2052  0.2934
 4398SOL    HW224828   0.830   1.220   7.883  1.4631 -0.5935  0.1141
 4399SOL     OW24829   3.082   4.589  11.039 -0.3292 -0.0341  0.3030
 4399SOL    HW124830   3.138   4.645  10.986 -0.7502  1.2892  1.2608
 4399SOL    HW224831   3.079   4.650  11.113  1.0606 -2.4051  2.3524
 4400SOL     OW24832   1.611   2.315   8.008 -0.3258 -0.4222 -0.2097
 4400SOL    HW124833   1.547   2.379   7.977 -0.6549  1.9070  5.2832
 4400SOL    HW224834   1.554   2.274   8.073 -1.5774  0.5518 -0.6801
 4401SOL     OW24835   0.336   1.286   6.730  0.0548  1.1028 -0.5370
 4401SOL    HW124836   0.415   1.272   6.782 -0.6347 -2.2245 -0.3979
 4401SOL    HW224837   0.327   1.221   6.661  0.0420  1.2693 -0.6915
 4402SOL     OW24838   0.888   4.321   2.373 -0.0351 -0.2127 -0.4351
 4402SOL    HW124839   0.811   4.350   2.422  0.4913 -1.3188  1.0607
 4402SOL    HW224840   0.860   4.341   2.284 -2.6631 -1.3877  0.1343
 4403SOL     OW24841   2.940   4.334   8.677 -0.0699  0.0120  0.0929
 4403SOL    HW124842   3.026   4.296   8.658 -0.9129 -0.9222 -1.7217
 4403SOL    HW224843   2.898   4.342   8.592  3.4974 -1.6000 -1.8002
 4404SOL     OW24844   2.762   3.351   3.532 -0.0213  0.4641 -0.3003
 4404SOL    HW124845   2.785   3.299   3.456  0.0059  0.2074 -0.1165
 4404SOL    HW224846   2.695   3.297   3.573 -0.5441  0.5460 -1.0668
 4405SOL     OW24847   4.591   0.216   7.683 -0.5339  0.5949 -0.0555
 4405SOL    HW124848   4.622   0.126   7.700 -0.2662  0.3461 -1.8726
 4405SOL    HW224849   4.644   0.263   7.747  0.8050  1.6048 -1.9219
 4406SOL     OW24850   1.250   0.647   1.498 -0.0530 -0.3564  0.1734
 4406SOL    HW124851   1.326   0.621   1.447  0.3154 -1.2916  1.2033
 4406SOL    HW224852   1.203   0.714   1.448  1.0630  0.8639  0.7539
 4407SOL     OW24853   4.041   0.659   1.644  0.2559 -0.3190 -0.1982
 4407SOL    HW124854   4.062   0.749   1.618 -0.4961  0.1243  0.7261
 4407SOL    HW224855   4.006   0.675   1.732 -1.0938 -0.8320 -0.6319
 4408SOL     OW24856   1.062   3.641   0.330  0.3838 -0.2604 -0.1401
 4408SOL    HW124857   1.006   3.674   0.400  2.8527 -0.4780  1.9533
 4408SOL    HW224858   1.143   3.629   0.380  0.0475  1.4019  0.7995
 4409SOL     OW24859   2.190   4.587  12.907  0.1097  0.3867 -0.6374
 4409SOL    HW124860   2.273   4.586  12.954 -1.3239  3.0639  1.9567
 4409SOL    HW224861   2.223   4.603  12.819  2.7679  2.4056  0.7432
 4410SOL     OW24862   3.970   1.024   1.028  0.1810 -0.0210  0.0410
 4410SOL    HW124863   3.997   1.113   1.052  0.4377  0.4273 -1.9378
 4410SOL    HW224864   3.885   1.047   0.992  0.1559 -2.2316 -1.3000
 4411SOL     OW24865   2.739   0.322   2.403  0.0388  0.4266  0.2014
 4411SOL    HW124866   2.744   0.361   2.490  2.4064  0.2793  0.1375
 4411SOL    HW224867   2.717   0.230   2.417 -0.1672  0.0337 -2.5789
 4412SOL     OW24868   1.183   3.875   3.966 -0.5068 -0.5711 -0.0541
 4412SOL    HW124869   1.269   3.832   3.972 -0.9046 -1.5549 -1.2779
 4412SOL    HW224870   1.190   3.963   4.002 -2.1673 -0.1659 -0.7455
 4413SOL     OW24871   3.833   3.719   4.477  0.2239 -0.2730  0.6260
 4413SOL    HW124872   3.755   3.729   4.422  0.7496  4.4149  0.7219
 4413SOL    HW224873   3.788   3.707   4.561 -0.0645 -3.1289  0.0485
 4414SOL     OW24874   3.336   1.346   5.936  0.3218  0.5761 -0.2988
 4414SOL    HW124875   3.259   1.387   5.896 -0.6516 -2.5925 -1.6146
 4414SOL    HW224876   3.404   1.413   5.936  0.9884 -0.1076  0.2522
 4415SOL     OW24877   3.914   4.396   6.861 -0.0212  0.0093  0.0050
 4415SOL    HW124878   3.825   4.360   6.857  0.8145 -1.9367 -1.1773
 4415SOL    HW224879   3.945   4.361   6.944  0.3404  0.9127  0.2399
 4416SOL     OW24880   1.383   2.300  11.721 -0.2878  0.4027  0.2612
 4416SOL    HW124881   1.341   2.274  11.639 -0.2856  1.7312 -0.1550
 4416SOL    HW224882   1.324   2.369  11.752  2.2392  2.2259  0.9370
 4417SOL     OW24883   3.177   4.068   1.903 -0.4026 -0.0857 -0.2176
 4417SOL    HW124884   3.234   4.144   1.892  1.6592 -2.1025 -3.2405
 4417SOL    HW224885   3.089   4.106   1.889 -0.1333  0.3741 -0.6864
 4418SOL     OW24886   0.309   2.568  10.328  0.3855 -0.4899 -0.1205
 4418SOL    HW124887   0.383   2.511  10.310  1.4059  0.5622  0.7795
 4418SOL    HW224888   0.266   2.576  10.243 -0.0815 -1.6330  0.0063
 4419SOL     OW24889   1.800   3.782  15.126 -0.2022  0.0096  1.3369
 4419SOL    HW124890   1.763   3.765  15.213 -2.0185 -1.5889  0.2594
 4419SOL    HW224891   1.831   3.871  15.141  0.8364 -0.0611 -0.4088
 4420SOL     OW24892   3.513   3.602   5.385 -0.2133 -0.8648 -0.2250
 4420SOL    HW124893   3.535   3.688   5.348 -3.5629 -0.1812 -0.5821
 4420SOL    HW224894   3.524   3.623   5.477 -0.2329  1.4179 -0.7458
 4421SOL     OW24895   3.559   0.800  13.805 -0.0555 -0.6375 -0.4131
 4421SOL    HW124896   3.637   0.757  13.840  1.0076  0.7657 -1.0417
 4421SOL    HW224897   3.581   0.812  13.712 -0.1579 -2.4101 -0.6631
 4422SOL     OW24898   2.228   1.840  11.516  0.2035 -0.6702 -0.8404
 4422SOL    HW124899   2.308   1.827  11.567  2.1726  0.8307 -3.5198
 4422SOL    HW224900   2.258   1.798  11.436 -0.4222 -3.8117  0.6062
 4423SOL     OW24901   3.615   1.879   6.316 -0.2483 -0.7009  0.6535
 4423SOL    HW124902   3.552   1.928   6.369 -0.7883 -3.5995  2.6731
 4423SOL    HW224903   3.651   1.946   6.258 -0.9272  0.7698  1.9389
 4424SOL     OW24904   1.030   4.557  16.517 -0.2241  0.0188 -0.1318
 4424SOL    HW124905   0.974   4.617  16.567 -0.1006 -1.7395  2.1120
 4424SOL    HW224906   0.962   4.492  16.503 -0.2540  0.3795 -1.6382
 4425SOL     OW24907   4.493   2.054  12.468 -0.0264  0.2607 -0.1851
 4425SOL    HW124908   4.556   2.111  12.425 -0.7446 -0.4488 -2.1998
 4425SOL    HW224909   4.548   1.989  12.513 -0.2805 -0.4285 -0.8633
 4426SOL     OW24910   1.596   2.687   1.649  0.0985  0.6808 -0.3518
 4426SOL    HW124911   1.559   2.772   1.626 -0.1050  0.3999 -1.0779
 4426SOL    HW224912   1.551   2.627   1.589  0.8536 -0.9866  0.7448
 4427SOL     OW24913   0.484   0.285   5.119  0.4791 -0.0173 -0.1724
 4427SOL    HW124914   0.553   0.254   5.061  0.7981 -1.4385  0.9567
 4427SOL    HW224915   0.405   0.237   5.095  0.6034  0.0503 -0.7153
 4428SOL     OW24916   1.677   4.513   9.190 -0.0516  0.1877  0.2168
 4428SOL    HW124917   1.619   4.556   9.253  0.1221 -1.5255  1.5392
 4428SOL    HW224918   1.634   4.534   9.107 -1.7412 -2.4261  0.4286
 4429SOL     OW24919   0.156   2.660   6.349  0.2026 -0.4299 -0.1013
 4429SOL    HW124920   0.116   2.680   6.264  0.8371 -0.8174 -0.4929
 4429SOL    HW224921   0.098   2.713   6.404 -0.7970 -3.1691  1.4910
 4430SOL     OW24922   0.515   3.746   4.713  0.1616  0.0802  0.1331
 4430SOL    HW124923   0.580   3.721   4.648 -1.2727 -2.2827 -0.4117
 4430SOL    HW224924   0.447   3.783   4.657  1.0523 -2.7742 -2.7923
 4431SOL     OW24925   3.858   3.899   0.328 -0.2944  0.3714  0.4868
 4431SOL    HW124926   3.838   3.900   0.421 -2.9989  0.1891 -0.0949
 4431SOL    HW224927   3.951   3.923   0.322 -0.9432  2.7495 -0.3800
 4432SOL     OW24928   3.575   2.491   5.629  0.0512 -0.9235 -0.2830
 4432SOL    HW124929   3.591   2.508   5.536 -1.1891  2.5879  0.1481
 4432SOL    HW224930   3.650   2.536   5.667  1.5157 -1.9965 -1.8912
 4433SOL     OW24931   4.089   2.589   6.258 -0.1398 -0.2889 -0.0121
 4433SOL    HW124932   4.078   2.551   6.345  0.5763 -1.1576 -0.3063
 4433SOL    HW224933   3.997   2.607   6.238 -0.0780 -0.2224 -0.2294
 4434SOL     OW24934   1.413   3.721   6.967 -1.0546  0.2363  0.0295
 4434SOL    HW124935   1.436   3.655   7.034  1.6299 -0.7429 -1.8458
 4434SOL    HW224936   1.355   3.664   6.917 -1.1162  1.3109 -1.1024
 4435SOL     OW24937   1.251   0.266   3.734  0.0465 -0.5048  0.3019
 4435SOL    HW124938   1.331   0.282   3.683 -0.3831 -0.0638 -0.2390
 4435SOL    HW224939   1.281   0.194   3.789 -0.6542 -2.0462 -1.3432
 4436SOL     OW24940   4.026   4.519   6.485  0.5641 -0.3381 -0.1324
 4436SOL    HW124941   4.071   4.451   6.535 -1.3783  0.6422  2.9280
 4436SOL    HW224942   3.992   4.466   6.413  1.2409 -3.8162  2.0741
 4437SOL     OW24943   4.150   3.442   5.884 -0.1657  0.0813 -0.8248
 4437SOL    HW124944   4.196   3.517   5.847 -2.4005  0.8611 -2.0243
 4437SOL    HW224945   4.228   3.387   5.889  0.1080  0.5884  0.4948
 4438SOL     OW24946   0.052   4.172  10.833  0.2388 -0.3922  0.0062
 4438SOL    HW124947   4.728   4.229  10.877  2.8542  0.4676  2.6946
 4438SOL    HW224948   0.128   4.210  10.878  1.6816 -2.6115 -0.5368
 4439SOL     OW24949   0.552   4.562   2.665  0.1008 -0.0342 -0.4678
 4439SOL    HW124950   0.459   4.581   2.680  0.3438  0.7837 -0.0117
 4439SOL    HW224951   0.590   4.617   2.733  0.4452 -0.9418  0.0682
 4440SOL     OW24952   0.270   4.096   3.790 -0.1076 -0.6166  0.2216
 4440SOL    HW124953   0.331   4.128   3.857  1.0431 -0.7220 -0.7616
 4440SOL    HW224954   0.229   4.179   3.764 -0.2832 -0.1153  2.1550
 4441SOL     OW24955   2.714   3.920   2.124 -1.2471  0.4574  0.4167
 4441SOL    HW124956   2.789   3.910   2.182  0.5487  0.6629 -1.8556
 4441SOL    HW224957   2.651   3.944   2.192 -0.1182  0.5585  1.4185
 4442SOL     OW24958   4.734   1.590   3.499 -0.1061  1.0157 -0.2023
 4442SOL    HW124959   0.040   1.530   3.439 -1.8653  0.8408 -1.3754
 4442SOL    HW224960   0.061   1.623   3.560  0.6460 -0.5829 -0.1445
 4443SOL     OW24961   2.543   1.646   1.459  0.2286 -0.4423 -0.0465
 4443SOL    HW124962   2.498   1.606   1.534 -1.7867 -1.3043 -1.7210
 4443SOL    HW224963   2.627   1.601   1.465  1.2287  1.4552  0.2424
 4444SOL     OW24964   2.300   4.265   6.850 -0.1973  0.4757 -0.7685
 4444SOL    HW124965   2.340   4.279   6.936  1.7972 -2.2393 -1.2160
 4444SOL    HW224966   2.217   4.312   6.856  0.1145  1.2140 -2.3259
 4445SOL     OW24967   2.515   2.047   3.430 -0.1950 -0.3896  0.7575
 4445SOL    HW124968   2.570   1.978   3.467  3.7344  1.3827 -1.7129
 4445SOL    HW224969   2.432   2.003   3.413 -0.9717  1.0428  0.8014
 4446SOL     OW24970   0.223   1.911  15.790 -0.2019  0.1107 -0.0803
 4446SOL    HW124971   0.264   1.970  15.728 -0.8254 -1.3144 -1.8504
 4446SOL    HW224972   0.264   1.948  15.868  0.3989 -3.1031  1.1641
 4447SOL     OW24973   0.177   0.962  13.954  0.1477  0.2580  0.2548
 4447SOL    HW124974   0.178   0.932  13.863  2.2007 -0.7478  0.6065
 4447SOL    HW224975   0.265   0.999  13.954 -0.1972  1.0777 -1.4218
 4448SOL     OW24976   3.788   1.306  11.126  0.1601  0.5576 -0.2465
 4448SOL    HW124977   3.845   1.360  11.180  1.1782 -1.7142  0.9360
 4448SOL    HW224978   3.811   1.328  11.035  1.5020  0.2485  0.0166
 4449SOL     OW24979   2.800   4.362  16.059 -0.3442  0.6241 -0.5618
 4449SOL    HW124980   2.800   4.267  16.066 -0.8562  0.6006 -0.9123
 4449SOL    HW224981   2.887   4.389  16.028 -0.0548  0.8798  0.4497
 4450SOL     OW24982   0.321   3.746   5.717  0.0508  1.0102 -0.3925
 4450SOL    HW124983   0.378   3.702   5.780 -0.9885  1.2438  0.7339
 4450SOL    HW224984   0.248   3.685   5.724  0.5120  0.5243  0.1669
 4451SOL     OW24985   3.395   4.112   7.904 -0.0910  0.3470  0.0834
 4451SOL    HW124986   3.467   4.147   7.956 -0.5178 -0.2924  1.1095
 4451SOL    HW224987   3.418   4.132   7.813  0.7101 -0.1441  0.1738
 4452SOL     OW24988   2.070   1.197   3.280  0.2274  0.6358  0.1541
 4452SOL    HW124989   2.071   1.180   3.374  0.4046  1.7166  0.3507
 4452SOL    HW224990   2.024   1.117   3.256  0.3887  0.1666  1.4456
 4453SOL     OW24991   3.651   2.114   8.435 -0.2350 -0.5802 -0.0722
 4453SOL    HW124992   3.582   2.145   8.495  0.3087  0.7812 -0.1490
 4453SOL    HW224993   3.732   2.116   8.485  0.2042  0.4063 -0.8167
 4454SOL     OW24994   0.502   0.831   4.324  0.1762  0.0044 -0.1857
 4454SOL    HW124995   0.553   0.755   4.354 -0.8324 -0.4502  0.4006
 4454SOL    HW224996   0.560   0.899   4.360  1.1368 -0.7583 -0.2923
 4455SOL     OW24997   4.568   3.945   7.761  0.4065 -0.1463 -0.0924
 4455SOL    HW124998   4.492   3.993   7.795  1.1465  1.7519 -1.0723
 4455SOL    HW224999   4.642   3.988   7.804  0.8909 -2.0793  0.9702
 4456SOL     OW25000   4.398   4.493   7.586  0.5694 -0.0621  0.0377
 4456SOL    HW125001   4.476   4.541   7.560 -0.9485  2.8141  0.8021
 4456SOL    HW225002   4.326   4.555   7.573 -0.7170 -2.1298 -3.0904
 4457SOL     OW25003   4.312   2.063   5.372  0.3293  0.6603  0.1855
 4457SOL    HW125004   4.370   2.139   5.372 -1.1308  1.7745  0.5146
 4457SOL    HW225005   4.246   2.103   5.316 -2.0083  0.5647  2.8288
 4458SOL     OW25006   0.302   4.319   4.339 -0.3234  0.4705 -0.1104
 4458SOL    HW125007   0.214   4.286   4.327 -0.6471  0.1297  3.2028
 4458SOL    HW225008   0.301   4.373   4.260 -1.7916 -1.0002 -1.0822
 4459SOL     OW25009   2.436   2.032  14.554 -0.1424  0.1490 -0.2669
 4459SOL    HW125010   2.521   2.011  14.516  0.1942 -0.5191  0.8399
 4459SOL    HW225011   2.411   1.944  14.581  1.9849  1.3215  5.5266
 4460SOL     OW25012   1.294   4.589   7.266  0.4044  0.2409 -0.0538
 4460SOL    HW125013   1.208   4.631   7.254  0.9108  1.5980  1.0340
 4460SOL    HW225014   1.319   4.578   7.174 -0.2351  0.7100 -0.2881
 4461SOL     OW25015   1.965   0.886   4.448 -0.4276  0.3630  0.2853
 4461SOL    HW125016   1.891   0.916   4.502  2.8989  2.9820  3.3836
 4461SOL    HW225017   1.958   0.791   4.458  1.1163  0.1462 -0.7563
 4462SOL     OW25018   1.341   4.473   5.968 -0.1452 -0.8805 -0.2927
 4462SOL    HW125019   1.413   4.503   5.913  0.5440 -0.1375  1.0193
 4462SOL    HW225020   1.271   4.462   5.903 -0.3120  0.1269 -0.2828
 4463SOL     OW25021   1.578   2.108   4.218 -0.5075  0.1341 -0.1832
 4463SOL    HW125022   1.623   2.031   4.185  2.5846  1.6852  0.3997
 4463SOL    HW225023   1.489   2.077   4.233  0.0043 -0.7853  0.9149
 4464SOL     OW25024   2.332   2.088   3.096 -0.0032  0.1014  0.5634
 4464SOL    HW125025   2.322   2.021   3.029 -0.7809  1.9620 -1.1810
 4464SOL    HW225026   2.382   2.164   3.066 -0.5140 -0.3395 -1.4036
 4465SOL     OW25027   3.806   4.143   2.528 -0.1826 -0.1672  0.6824
 4465SOL    HW125028   3.894   4.123   2.559 -0.0521  0.4588  0.7265
 4465SOL    HW225029   3.765   4.153   2.614 -3.2903  1.2699 -0.9723
 4466SOL     OW25030   3.867   1.308  16.902 -0.4511  0.4391  0.7784
 4466SOL    HW125031   3.821   1.392  16.898 -2.2847 -0.6638 -1.0710
 4466SOL    HW225032   3.808   1.265  16.963  1.8994 -1.9481  1.3413
 4467SOL     OW25033   1.489   0.980  16.683  0.3364 -0.3796  0.0161
 4467SOL    HW125034   1.453   1.060  16.645 -2.1890 -0.5470  2.0229
 4467SOL    HW225035   1.457   0.917  16.619  2.3734 -2.5526  1.1287
 4468SOL     OW25036   1.106   1.550  13.472  0.6158  0.4164  0.0598
 4468SOL    HW125037   1.011   1.552  13.470  0.5242 -0.1720  3.6016
 4468SOL    HW225038   1.110   1.618  13.539  0.8973 -0.3288  0.7955
 4469SOL     OW25039   3.283   2.386   0.445 -0.0557 -0.1885  0.5559
 4469SOL    HW125040   3.237   2.469   0.462 -3.8684 -2.9678  3.6637
 4469SOL    HW225041   3.216   2.334   0.488  0.1414 -0.4460  0.5519
 4470SOL     OW25042   0.381   0.057   2.483 -0.1546 -0.2059 -0.1776
 4470SOL    HW125043   0.417   0.003   2.554 -1.4722  0.3082  0.8697
 4470SOL    HW225044   0.293   0.026   2.463 -0.2982 -0.5306  0.9538
 4471SOL     OW25045   3.805   1.314   0.789 -0.6971  0.5754 -0.0266
 4471SOL    HW125046   3.874   1.273   0.736  1.1031  0.8022  2.1212
 4471SOL    HW225047   3.774   1.236   0.834  0.5643  0.7379  1.1429
 4472SOL     OW25048   1.832   0.646   5.318  0.5700  0.1372 -0.0735
 4472SOL    HW125049   1.747   0.639   5.274  0.2682  1.8934  0.2144
 4472SOL    HW225050   1.900   0.647   5.251  0.5978  1.5944 -0.0171
 4473SOL     OW25051   2.997   2.829   7.512 -0.1600 -0.0861 -0.0257
 4473SOL    HW125052   2.916   2.880   7.504 -0.3997  0.0237  3.3610
 4473SOL    HW225053   2.963   2.743   7.537 -0.7822 -0.0727 -0.8170
 4474SOL     OW25054   2.810   0.313  16.002 -0.7679 -0.1648 -0.1233
 4474SOL    HW125055   2.774   0.262  16.075  0.8894 -0.8135  0.2329
 4474SOL    HW225056   2.815   0.253  15.928 -0.2023 -0.2319 -0.0262
 4475SOL     OW25057   1.919   0.155  15.328  0.2221 -1.0174  0.9416
 4475SOL    HW125058   1.852   0.137  15.394  0.0224 -1.3062  0.6622
 4475SOL    HW225059   1.912   0.085  15.262  0.4557  0.3185 -0.5045
 4476SOL     OW25060   2.968   2.528  15.130  0.0089  0.1374  0.4495
 4476SOL    HW125061   3.040   2.553  15.072 -1.0231  0.6473 -0.6223
 4476SOL    HW225062   2.945   2.442  15.096 -1.3408  0.0801  1.5149
 4477SOL     OW25063   0.711   2.059   2.853  0.1159  0.3919 -0.4514
 4477SOL    HW125064   0.718   2.031   2.761  1.5830  0.0841 -0.2492
 4477SOL    HW225065   0.779   2.002   2.889 -2.2474 -2.5317 -0.6228
 4478SOL     OW25066   4.431   1.670   8.297 -0.4342  0.0559  0.2422
 4478SOL    HW125067   4.421   1.626   8.381  0.4269 -0.9131 -0.1622
 4478SOL    HW225068   4.399   1.758   8.317  0.1481  0.8272 -2.1675
 4479SOL     OW25069   3.021   3.379   0.593 -0.2710  0.1807  0.5549
 4479SOL    HW125070   2.972   3.325   0.655 -0.5411  0.0482  0.2303
 4479SOL    HW225071   2.969   3.368   0.513 -0.6031  0.6416  0.7069
 4480SOL     OW25072   0.436   3.073   4.622 -0.7522 -0.3075  0.3807
 4480SOL    HW125073   0.524   3.034   4.632  0.3141  1.9291 -0.3474
 4480SOL    HW225074   0.447   3.122   4.541 -2.5015 -0.6862 -0.0891
 4481SOL     OW25075   4.072   1.601  14.664  0.0848 -0.2444  0.4277
 4481SOL    HW125076   4.126   1.673  14.696  0.2186 -1.0129  1.9326
 4481SOL    HW225077   4.018   1.585  14.742 -0.3438 -0.4973  0.0828
 4482SOL     OW25078   4.116   1.619   7.220 -0.2198 -0.4957  0.5044
 4482SOL    HW125079   4.103   1.711   7.196 -2.2569 -0.8588  0.2018
 4482SOL    HW225080   4.211   1.614   7.232 -0.2823 -0.6359  0.9105
 4483SOL     OW25081   0.211   1.766   5.774  0.1709  0.0407 -0.3213
 4483SOL    HW125082   0.116   1.764   5.760 -0.4431  0.8422  3.9030
 4483SOL    HW225083   0.235   1.825   5.702 -0.9700 -0.5349 -1.1890
 4484SOL     OW25084   0.141   3.028   4.262 -0.6819  0.0558  0.3033
 4484SOL    HW125085   0.121   2.967   4.333  0.5393  0.8527  1.3319
 4484SOL    HW225086   0.230   3.062   4.274 -1.4281  2.0449  0.1300
 4485SOL     OW25087   1.913   4.699  15.136  0.2094 -0.3807 -0.0604
 4485SOL    HW125088   1.915   4.728  15.045  1.0597  0.7689  0.3338
 4485SOL    HW225089   1.944   4.608  15.129  0.6744 -0.2621  0.4347
 4486SOL     OW25090   4.452   3.686   3.082 -0.5375 -0.0646 -0.3316
 4486SOL    HW125091   4.366   3.703   3.043 -0.3420 -2.0679 -1.6287
 4486SOL    HW225092   4.479   3.639   3.003 -0.9666  0.7405 -0.9594
 4487SOL     OW25093   1.264   0.883   2.694  0.7118 -0.0682 -0.4896
 4487SOL    HW125094   1.309   0.902   2.611 -0.4041 -0.4096 -1.1670
 4487SOL    HW225095   1.268   0.787   2.696 -0.1439 -0.0550  1.8001
 4488SOL     OW25096   2.923   4.685   2.970  0.2469  0.2504 -0.1767
 4488SOL    HW125097   2.992   4.635   2.926 -0.6703 -3.1527  2.3120
 4488SOL    HW225098   2.890   4.624   3.036  0.7621 -0.5283 -0.6261
 4489SOL     OW25099   0.344   1.446   0.597  0.5315 -0.0710  0.1239
 4489SOL    HW125100   0.429   1.474   0.630  1.2692 -0.8586 -1.1194
 4489SOL    HW225101   0.343   1.511   0.527 -0.0107  0.6440  0.7886
 4490SOL     OW25102   0.122   0.144  11.529  0.1397  0.0106 -0.4087
 4490SOL    HW125103   0.049   0.201  11.553 -0.2060 -0.6500  0.0808
 4490SOL    HW225104   0.083   0.057  11.534  1.4668 -0.5413  0.3876
 4491SOL     OW25105   2.909   2.622   6.874 -0.4179  0.2332 -0.5138
 4491SOL    HW125106   2.893   2.585   6.787 -1.4365 -1.0139  0.1986
 4491SOL    HW225107   2.922   2.545   6.930 -1.9066  0.9223  0.7753
 4492SOL     OW25108   0.965   0.419   2.862  0.4574  0.5018 -0.7214
 4492SOL    HW125109   0.995   0.479   2.794 -0.8712 -0.5311 -2.2201
 4492SOL    HW225110   1.051   0.383   2.881  0.3285  1.5099  1.7970
 4493SOL     OW25111   2.239   1.923   3.440  0.2202 -0.7852  0.0381
 4493SOL    HW125112   2.168   1.874   3.397  0.3119 -0.6100 -0.3097
 4493SOL    HW225113   2.207   2.010   3.415  0.6088 -1.1386 -1.6333
 4494SOL     OW25114   2.856   2.429  12.208  0.1148  0.6358  0.8419
 4494SOL    HW125115   2.904   2.485  12.148 -0.2081  2.3739  2.1869
 4494SOL    HW225116   2.820   2.491  12.272 -0.3141  0.8150  0.4239
 4495SOL     OW25117   3.222   1.948   0.715 -0.1738 -0.3690 -0.2669
 4495SOL    HW125118   3.217   1.855   0.735 -0.1117 -0.0849  1.0545
 4495SOL    HW225119   3.167   1.984   0.784 -0.4371 -0.1419 -0.5938
 4496SOL     OW25120   3.353   1.200   4.293 -0.1761  0.6800  0.0412
 4496SOL    HW125121   3.415   1.135   4.327 -1.7669 -0.4551  0.8281
 4496SOL    HW225122   3.268   1.167   4.324  0.3700 -0.8116 -0.0367
 4497SOL     OW25123   0.339   0.066   4.289  0.3470  0.4436 -0.5385
 4497SOL    HW125124   0.317   0.010   4.364  1.0435  1.9985  0.8329
 4497SOL    HW225125   0.249   0.094   4.269  0.1097  0.4715  0.5476
 4498SOL     OW25126   1.700   3.835   8.834 -0.1650 -0.0092 -0.1808
 4498SOL    HW125127   1.683   3.769   8.768 -1.7605  0.3645 -0.1449
 4498SOL    HW225128   1.773   3.809   8.891  0.0280  0.4327 -0.2204
 4499SOL     OW25129   2.289   0.262   6.923 -0.0860  0.4753  0.0286
 4499SOL    HW125130   2.202   0.297   6.943 -0.5306 -1.1498  0.9600
 4499SOL    HW225131   2.333   0.347   6.920  0.3725  0.1927 -1.9858
 4500SOL     OW25132   2.430   0.751   8.313  0.2594 -0.3400  0.2125
 4500SOL    HW125133   2.433   0.797   8.229 -1.0094 -1.6274 -0.5529
 4500SOL    HW225134   2.517   0.764   8.350  0.1455 -0.4164  0.5065
 4501SOL     OW25135   4.259   4.426   8.595  0.1768 -0.0378 -0.3182
 4501SOL    HW125136   4.297   4.353   8.645  1.7881  0.6811 -0.4820
 4501SOL    HW225137   4.208   4.376   8.532 -0.6262  0.8009 -0.3249
 4502SOL     OW25138   2.163   3.193   5.336 -0.2061 -0.1687 -0.5168
 4502SOL    HW125139   2.131   3.243   5.261  2.0707  1.1900 -0.5893
 4502SOL    HW225140   2.086   3.201   5.393  1.0794  0.9706  1.0636
 4503SOL     OW25141   4.203   2.722   2.546  0.2062  0.2990 -0.1913
 4503SOL    HW125142   4.238   2.697   2.460  0.3527 -1.0291  0.2436
 4503SOL    HW225143   4.203   2.817   2.539  1.3786  0.2340 -1.1847
 4504SOL     OW25144   4.064   2.441   8.268  0.3522 -0.3620 -0.3822
 4504SOL    HW125145   4.036   2.505   8.203  0.9581  0.3870  0.0771
 4504SOL    HW225146   3.999   2.373   8.255 -2.0977  1.5938  1.6393
 4505SOL     OW25147   4.506   2.568   5.928  0.1124 -0.3013 -0.2323
 4505SOL    HW125148   4.480   2.475   5.927 -0.6009 -0.1209  2.0014
 4505SOL    HW225149   4.465   2.601   6.008 -0.6402  1.1178 -1.2277
 4506SOL     OW25150   1.732   3.315  16.277 -0.3646 -0.3057  0.1063
 4506SOL    HW125151   1.783   3.395  16.285  0.4080 -0.7305 -0.5453
 4506SOL    HW225152   1.716   3.289  16.368 -1.7727 -0.3950 -0.1570
 4507SOL     OW25153   0.828   4.555   4.252  0.1005 -0.1584  0.3854
 4507SOL    HW125154   0.793   4.469   4.275 -0.7301  0.4125  1.2223
 4507SOL    HW225155   0.793   4.610   4.321  0.4904 -0.4140  0.7913
 4508SOL     OW25156   3.113   1.613   8.120  0.1266  0.3333 -0.1404
 4508SOL    HW125157   3.122   1.648   8.031  1.9322 -1.5752 -0.6888
 4508SOL    HW225158   3.053   1.674   8.164 -0.2531  0.5146 -0.9043
 4509SOL     OW25159   4.269   4.172   2.495 -0.3852  0.4835  0.9718
 4509SOL    HW125160   4.240   4.247   2.443  0.8531  0.7080  0.6222
 4509SOL    HW225161   4.300   4.108   2.431 -0.9320 -0.1013  1.2877
 4510SOL     OW25162   0.875   0.673   6.305  0.6405 -0.3626 -0.4526
 4510SOL    HW125163   0.969   0.654   6.309  0.3164 -1.4996  1.6728
 4510SOL    HW225164   0.857   0.695   6.213 -1.9355 -0.7654 -0.0491
 4511SOL     OW25165   4.688   1.459   6.184  0.4828 -0.0569  0.1026
 4511SOL    HW125166   4.729   1.400   6.121 -2.1931 -2.8369  0.9840
 4511SOL    HW225167   4.618   1.413   6.230  0.9908 -0.0749  0.8620
 4512SOL     OW25168   0.565   4.337   3.177 -0.2179 -0.2342 -0.0631
 4512SOL    HW125169   0.504   4.389   3.124  1.3553  1.7138  0.0292
 4512SOL    HW225170   0.592   4.396   3.247 -1.3265  0.1801  0.0261
 4513SOL     OW25171   4.116   1.380   0.455  0.0458  0.3523 -0.1180
 4513SOL    HW125172   4.104   1.331   0.374 -1.6124 -0.5714  0.7085
 4513SOL    HW225173   4.109   1.473   0.434  0.8852  0.2286 -0.9451
 4514SOL     OW25174   1.931   4.141   5.192  0.4105  0.4404  0.2257
 4514SOL    HW125175   1.839   4.123   5.173 -0.1624  0.8801  2.6050
 4514SOL    HW225176   1.920   4.232   5.221  0.6531  1.0207 -1.5251
 4515SOL     OW25177   1.568   0.281  15.224 -0.7156  0.9213  0.3796
 4515SOL    HW125178   1.556   0.375  15.232  5.0476  1.6795  0.2541
 4515SOL    HW225179   1.544   0.261  15.314  1.7741 -2.0193  0.3894
 4516SOL     OW25180   4.708   2.913  14.874 -0.5003 -0.1407  0.0406
 4516SOL    HW125181   4.637   2.977  14.881 -1.9710 -1.7919  0.1471
 4516SOL    HW225182   0.012   2.919  14.960 -0.3532 -2.0834  0.0922
 4517SOL     OW25183   1.339   1.265  11.243  0.3337  0.2128 -0.4207
 4517SOL    HW125184   1.270   1.213  11.203  2.8557 -2.1108 -1.7747
 4517SOL    HW225185   1.290   1.335  11.286  0.7753 -0.9102  1.9288
 4518SOL     OW25186   0.193   3.402  11.631  0.0893  0.4774  0.5222
 4518SOL    HW125187   0.248   3.401  11.709 -1.2488  2.2052  1.4737
 4518SOL    HW225188   0.230   3.327  11.583  0.2697  1.5409 -0.9940
 4519SOL     OW25189   1.399   4.650  15.314 -0.0416  0.0635  0.2535
 4519SOL    HW125190   1.350   4.724  15.278 -2.6192 -0.7854  1.9215
 4519SOL    HW225191   1.481   4.687  15.283 -0.1779 -0.1453 -0.3550
 4520SOL     OW25192   2.420   1.921  13.767 -1.0664  0.1764 -0.0343
 4520SOL    HW125193   2.340   1.900  13.719 -0.6949  0.9589 -1.0087
 4520SOL    HW225194   2.441   2.005  13.725 -2.2621  0.8321  0.6855
 4521SOL     OW25195   2.344   3.731   7.983 -0.6817 -1.1902 -0.0789
 4521SOL    HW125196   2.404   3.805   7.984 -1.9529 -0.1604  0.0482
 4521SOL    HW225197   2.336   3.722   8.078  1.1807  1.6921  0.3361
 4522SOL     OW25198   2.304   3.774   7.592  0.0152 -0.1711 -0.1183
 4522SOL    HW125199   2.241   3.838   7.558 -1.7393 -1.3193  0.9807
 4522SOL    HW225200   2.258   3.749   7.672 -0.8444  1.3445 -0.1341
 4523SOL     OW25201   1.567   1.934   6.342  0.1781  0.2377  0.6902
 4523SOL    HW125202   1.659   1.963   6.344  0.4414 -0.4515 -0.8929
 4523SOL    HW225203   1.558   1.926   6.247  0.9558 -2.3345  0.8194
 4524SOL     OW25204   1.719   1.044   8.406  0.3496 -0.3230 -0.0560
 4524SOL    HW125205   1.646   0.994   8.442  0.5803 -0.1998  0.5827
 4524SOL    HW225206   1.785   1.006   8.464 -0.8915  1.0681  2.3066
 4525SOL     OW25207   0.242   2.999   7.996  0.2998  0.2919  0.4694
 4525SOL    HW125208   0.194   2.973   7.917 -0.7145  0.4445  1.0366
 4525SOL    HW225209   0.180   3.065   8.027 -1.4834 -0.5549 -1.2256
 4526SOL     OW25210   4.542   3.264   2.960  0.5276 -0.1132 -0.0103
 4526SOL    HW125211   4.610   3.268   3.027 -2.4018  0.5505  2.8987
 4526SOL    HW225212   4.465   3.286   3.012 -0.1745  0.1782 -1.1744
 4527SOL     OW25213   2.399   0.784  11.407  0.6387 -0.3474  0.2810
 4527SOL    HW125214   2.373   0.822  11.491 -0.5357 -1.4267  0.3991
 4527SOL    HW225215   2.317   0.790  11.358  1.0439  2.8034 -0.0251
 4528SOL     OW25216   2.103   0.318   4.576 -0.1460 -0.2994  0.1102
 4528SOL    HW125217   2.014   0.331   4.609 -0.5567 -4.0828  0.4977
 4528SOL    HW225218   2.149   0.350   4.653 -2.3218  0.1869  1.2104
 4529SOL     OW25219   3.650   2.191   5.319 -0.6405 -0.2699 -0.2292
 4529SOL    HW125220   3.679   2.213   5.408 -0.1489 -0.6193 -0.3037
 4529SOL    HW225221   3.573   2.248   5.315  0.6305  1.3437 -2.2213
 4530SOL     OW25222   2.581   3.798   4.296 -0.2126  0.6051 -1.1173
 4530SOL    HW125223   2.518   3.726   4.290  1.8070 -1.0368 -2.7559
 4530SOL    HW225224   2.660   3.749   4.270  0.0230 -0.3117  1.2359
 4531SOL     OW25225   1.630   2.113  12.493  0.2322 -0.0347  0.6730
 4531SOL    HW125226   1.661   2.028  12.462  1.1943  0.3623  0.5570
 4531SOL    HW225227   1.550   2.127  12.442  0.4512 -1.4684 -0.0623
 4532SOL     OW25228   3.414   4.017   7.191  0.1400 -0.2552  0.0867
 4532SOL    HW125229   3.487   3.957   7.181 -0.3693 -1.1623  1.7361
 4532SOL    HW225230   3.347   3.954   7.215 -0.8787  0.3888 -1.1038
 4533SOL     OW25231   3.060   3.366   8.752 -0.0294 -0.3307 -0.4930
 4533SOL    HW125232   2.986   3.332   8.802  0.5748  1.5563  1.6796
 4533SOL    HW225233   3.085   3.426   8.822  0.0190  0.9705 -1.6379
 4534SOL     OW25234   3.785   2.649   2.706  0.3890 -0.1549 -0.2160
 4534SOL    HW125235   3.808   2.711   2.637 -0.6531  1.2311  0.6804
 4534SOL    HW225236   3.733   2.585   2.658 -2.4578  0.0213  2.6012
 4535SOL     OW25237   0.040   1.160   4.794 -0.0985  0.7021 -0.5784
 4535SOL    HW125238   0.041   1.236   4.736 -1.2110  0.6252 -0.6901
 4535SOL    HW225239   4.712   1.107   4.751 -0.7218  0.1307  1.1085
 4536SOL     OW25240   2.815   0.618   0.560  0.0484 -0.0578 -0.0744
 4536SOL    HW125241   2.905   0.586   0.554 -1.1244 -3.1013 -1.4855
 4536SOL    HW225242   2.805   0.609   0.654  2.4173  1.2397  0.3056
 4537SOL     OW25243   3.565   3.324   4.434  0.7264  0.0776  0.2398
 4537SOL    HW125244   3.561   3.418   4.450  3.3190  0.0345  1.1483
 4537SOL    HW225245   3.566   3.306   4.339  1.1571 -2.2924  0.6898
 4538SOL     OW25246   0.835   0.133   7.027  0.5683 -0.3158 -0.1615
 4538SOL    HW125247   0.741   0.150   7.018  0.0692 -2.3483  1.1311
 4538SOL    HW225248   0.849   0.139   7.121 -0.5181  1.0244 -0.0883
 4539SOL     OW25249   1.178   0.856   4.666  0.3082 -0.4327  0.2969
 4539SOL    HW125250   1.191   0.806   4.586  1.8809 -1.2320  1.0531
 4539SOL    HW225251   1.239   0.928   4.655 -0.8884  0.7841  1.5663
 4540SOL     OW25252   3.342   2.030   7.194  0.0517 -0.3577  0.3700
 4540SOL    HW125253   3.437   2.041   7.197  0.1264 -0.9643  0.1816
 4540SOL    HW225254   3.340   1.954   7.136  0.3617 -0.4402  0.4676
 4541SOL     OW25255   0.171   1.108   3.102 -0.2022 -0.3179  0.4166
 4541SOL    HW125256   0.155   1.014   3.090  1.7604 -0.7156  1.0243
 4541SOL    HW225257   0.081   1.137   3.120  0.1612  0.6780  0.6199
 4542SOL     OW25258   0.664   4.322   2.894  0.5680 -0.0316 -0.1847
 4542SOL    HW125259   0.682   4.247   2.837 -0.1273  0.5195 -1.1279
 4542SOL    HW225260   0.568   4.324   2.899  0.5744 -0.5300  0.2120
 4543SOL     OW25261   2.987   2.081   5.724 -0.5630  0.1275 -0.3267
 4543SOL    HW125262   2.952   2.165   5.753 -1.5224 -0.9801  1.7210
 4543SOL    HW225263   3.024   2.098   5.638 -1.4334  0.5517 -0.6094
 4544SOL     OW25264   1.315   1.850   1.017 -0.1001 -0.5619 -0.2158
 4544SOL    HW125265   1.366   1.787   1.068 -0.7125 -0.3667  0.6518
 4544SOL    HW225266   1.321   1.923   1.080 -2.5185  0.2470 -0.9298
 4545SOL     OW25267   2.676   0.927   3.208  0.0594 -0.0801 -0.0396
 4545SOL    HW125268   2.709   0.893   3.125 -1.2175 -0.2422 -0.4842
 4545SOL    HW225269   2.742   0.897   3.270 -0.5940  1.2157  1.2697
 4546SOL     OW25270   2.368   0.708  12.591 -0.4502 -0.2455  0.4591
 4546SOL    HW125271   2.431   0.699  12.663 -1.1534 -3.5294  0.6542
 4546SOL    HW225272   2.306   0.769  12.630 -0.6900  0.6595 -1.3112
 4547SOL     OW25273   1.871   3.454  11.073 -0.1837 -0.3037  0.2766
 4547SOL    HW125274   1.849   3.540  11.111  0.4335 -0.7174  1.5620
 4547SOL    HW225275   1.932   3.418  11.138  0.4701 -1.2358 -0.8684
 4548SOL     OW25276   2.555   4.604  14.328  0.5101 -0.0329  0.0119
 4548SOL    HW125277   2.527   4.695  14.341 -0.2179 -0.2207 -0.2338
 4548SOL    HW225278   2.483   4.560  14.374 -0.0064  1.6588  0.8110
 4549SOL     OW25279   4.011   0.935   8.835 -0.6922  0.5112  0.1573
 4549SOL    HW125280   3.983   0.855   8.791  0.9779  0.5788 -1.0340
 4549SOL    HW225281   4.025   0.896   8.921  0.1893 -0.0419 -0.2382
 4550SOL     OW25282   3.538   4.233   5.303  0.3903  0.2942 -0.1149
 4550SOL    HW125283   3.623   4.243   5.347  0.3963  3.1567 -0.7698
 4550SOL    HW225284   3.479   4.281   5.360 -0.7410 -1.8619  0.5414
 4551SOL     OW25285   1.492   0.613  14.845  0.1199 -0.3526 -0.3538
 4551SOL    HW125286   1.454   0.569  14.921  1.4864 -2.1846 -0.7340
 4551SOL    HW225287   1.556   0.542  14.841  0.0613 -0.4186 -0.1465
 4552SOL     OW25288   4.712   0.825   6.046 -0.0308 -0.2523  0.5110
 4552SOL    HW125289   4.658   0.808   6.123  2.0102 -0.9131  1.7790
 4552SOL    HW225290   4.651   0.875   5.992  1.4219 -1.3779 -2.1745
 4553SOL     OW25291   0.282   3.494   1.534 -0.4808  0.3643 -0.1626
 4553SOL    HW125292   0.233   3.553   1.477  2.3607 -0.3022 -3.3234
 4553SOL    HW225293   0.221   3.423   1.558  0.5065 -0.2163  0.6206
 4554SOL     OW25294   0.526   1.074  13.364 -0.7817  0.3100  0.3871
 4554SOL    HW125295   0.589   1.001  13.364 -1.6760 -0.4633  0.3860
 4554SOL    HW225296   0.514   1.105  13.454  1.6354  0.2401  0.7539
 4555SOL     OW25297   3.212   0.866   1.933  0.3849  0.0645  0.1821
 4555SOL    HW125298   3.210   0.806   1.858 -0.9241 -0.3736  0.5564
 4555SOL    HW225299   3.145   0.831   1.992 -0.0601  1.4133  0.4766
 4556SOL     OW25300   0.197   1.599  11.849 -0.3087 -0.3250  0.1248
 4556SOL    HW125301   0.143   1.629  11.776 -0.4343 -0.2267  0.2589
 4556SOL    HW225302   0.165   1.511  11.864 -0.9981  0.1145  1.2231
 4557SOL     OW25303   1.692   2.817   4.220 -0.0013  0.0682 -0.6951
 4557SOL    HW125304   1.709   2.759   4.146  0.9982 -1.9451  1.1168
 4557SOL    HW225305   1.703   2.763   4.298 -4.0871  0.8518  0.4318
 4558SOL     OW25306   1.327   1.402   2.119  0.6643  0.0535  0.2128
 4558SOL    HW125307   1.402   1.457   2.142  1.8169 -1.7261  0.6818
 4558SOL    HW225308   1.357   1.317   2.151  3.0768  0.4624 -0.9728
 4559SOL     OW25309   4.135   4.725   9.250 -0.9934  0.2090 -0.7893
 4559SOL    HW125310   4.065   4.662   9.264 -0.5157  0.0317  0.7580
 4559SOL    HW225311   4.187   4.707   9.328 -0.4484 -0.3430 -1.2734
 4560SOL     OW25312   3.604   0.587  14.716 -0.4480 -0.6746  0.5810
 4560SOL    HW125313   3.628   0.677  14.693 -0.2900 -1.4855 -2.5516
 4560SOL    HW225314   3.686   0.552  14.679 -0.9695  0.1774 -1.4049
 4561SOL     OW25315   0.007   0.493   3.174  0.2158 -0.7683 -0.0967
 4561SOL    HW125316   4.672   0.500   3.115 -0.0837 -3.0102  0.0025
 4561SOL    HW225317   0.076   0.515   3.111  2.5303 -0.6508  2.4784
 4562SOL     OW25318   1.699   4.697  13.274  0.0200  0.2326  0.0832
 4562SOL    HW125319   1.649   0.039  13.283  0.1242  0.2267  0.7221
 4562SOL    HW225320   1.629   4.634  13.257 -1.6420  1.3372  2.7523
 4563SOL     OW25321   0.909   3.957  11.049  0.4633 -0.9087  0.2080
 4563SOL    HW125322   0.976   3.889  11.049  0.8308 -0.5536 -1.4228
 4563SOL    HW225323   0.887   3.960  10.956 -1.4811 -1.1263  0.6526
 4564SOL     OW25324   3.573   3.746  13.282  0.1031  0.4482  0.0964
 4564SOL    HW125325   3.589   3.835  13.251 -0.9191  1.3533  2.2011
 4564SOL    HW225326   3.482   3.739  13.312 -0.3803  2.3141 -0.9622
 4565SOL     OW25327   4.507   1.091   7.603  0.2612  0.1289  0.1101
 4565SOL    HW125328   4.592   1.125   7.630  0.4539  0.4120 -0.8427
 4565SOL    HW225329   4.478   1.044   7.681  0.4138 -2.0974 -1.1742
 4566SOL     OW25330   1.594   1.254  11.630 -0.5704  0.4970 -0.2240
 4566SOL    HW125331   1.600   1.334  11.683 -1.3114  0.1254  0.4218
 4566SOL    HW225332   1.579   1.284  11.540 -0.6662 -0.5646 -0.5545
 4567SOL     OW25333   2.393   4.191   2.782  0.4307 -0.0858  0.0982
 4567SOL    HW125334   2.474   4.151   2.815  0.6216  0.6081  0.4832
 4567SOL    HW225335   2.349   4.180   2.866 -0.0810 -0.7742 -0.2578
 4568SOL     OW25336   3.546   3.536  13.875 -0.3371  0.8165  0.2115
 4568SOL    HW125337   3.498   3.470  13.825  0.5381  0.1507  0.2502
 4568SOL    HW225338   3.491   3.613  13.859 -0.5935  0.4752 -0.5177
 4569SOL     OW25339   1.924   3.197   1.398  0.3886  0.5521 -0.1062
 4569SOL    HW125340   1.917   3.103   1.383 -1.7577  0.7936 -0.6122
 4569SOL    HW225341   1.906   3.197   1.492 -1.9206  0.1759 -0.5301
 4570SOL     OW25342   0.297   0.673   0.522 -0.4962 -0.6217 -0.2598
 4570SOL    HW125343   0.313   0.592   0.474 -0.1939 -0.0249 -1.1568
 4570SOL    HW225344   0.299   0.741   0.455 -1.0598 -0.7035 -0.3586
 4571SOL     OW25345   3.691   0.291  14.778 -0.0333 -0.2752  0.3368
 4571SOL    HW125346   3.686   0.227  14.707  1.6929 -0.2104  0.1725
 4571SOL    HW225347   3.743   0.366  14.748  0.6737 -1.3997 -1.2562
 4572SOL     OW25348   3.397   2.744  10.917 -0.4169  0.4271  0.2713
 4572SOL    HW125349   3.387   2.839  10.926 -0.8275  0.6616 -2.6119
 4572SOL    HW225350   3.311   2.729  10.877 -0.6476 -2.2058  1.7588
 4573SOL     OW25351   2.687   3.646   7.613 -1.1146  0.3402 -0.4465
 4573SOL    HW125352   2.737   3.566   7.600 -1.5872  0.3457 -2.3979
 4573SOL    HW225353   2.692   3.685   7.525 -1.0375 -0.7153 -0.9075
 4574SOL     OW25354   0.310   0.499   6.829 -0.2670  0.3392 -0.0543
 4574SOL    HW125355   0.216   0.512   6.824 -0.2109 -0.1261 -2.3352
 4574SOL    HW225356   0.338   0.516   6.739 -0.0140  0.0351 -0.0347
 4575SOL     OW25357   2.574   4.341   9.185 -0.6290 -0.2778  0.6047
 4575SOL    HW125358   2.486   4.374   9.205 -0.8307  0.1738 -1.0866
 4575SOL    HW225359   2.557   4.290   9.106 -0.4401  0.6680 -0.0447
 4576SOL     OW25360   4.052   0.099  13.319 -0.2505 -0.9650 -0.3543
 4576SOL    HW125361   4.125   0.065  13.369  0.1301 -1.5529 -1.3063
 4576SOL    HW225362   3.983   0.032  13.317  1.0810 -2.2663 -2.5263
 4577SOL     OW25363   4.544   4.088  11.822  0.6280 -0.3922 -0.1021
 4577SOL    HW125364   4.509   4.013  11.773 -0.0394  1.1030 -1.9416
 4577SOL    HW225365   4.515   4.162  11.769 -0.0867 -0.9437 -0.4891
 4578SOL     OW25366   3.041   0.682   6.633  0.2111  0.1710  0.8413
 4578SOL    HW125367   3.014   0.671   6.724  1.9918 -0.7296  1.2584
 4578SOL    HW225368   2.953   0.670   6.596  0.9933 -0.0100 -0.9741
 4579SOL     OW25369   2.078   1.923   1.362 -0.2986  0.6641  0.0244
 4579SOL    HW125370   2.135   1.998   1.378 -1.3066  0.9860  2.1754
 4579SOL    HW225371   2.121   1.856   1.309 -1.2945 -0.8115  1.0766
 4580SOL     OW25372   3.066   3.416   3.739 -0.1855 -0.6932 -0.0522
 4580SOL    HW125373   3.025   3.501   3.758  2.0744  0.6648 -1.2358
 4580SOL    HW225374   3.018   3.353   3.793 -2.7319  1.1650 -0.1140
 4581SOL     OW25375   2.184   4.651   1.204 -0.3032  0.1868  0.3399
 4581SOL    HW125376   2.116   4.623   1.143 -0.6314 -0.0188  0.8040
 4581SOL    HW225377   2.205   4.567   1.245  1.9366 -0.1842 -1.5937
 4582SOL     OW25378   3.404   4.192   4.191 -0.3489 -0.1659 -0.0142
 4582SOL    HW125379   3.495   4.213   4.170 -0.2722  0.5663  1.0707
 4582SOL    HW225380   3.414   4.097   4.187  0.8143  0.0037 -1.1234
 4583SOL     OW25381   4.375   0.847  11.719 -0.1565  0.5762  0.3445
 4583SOL    HW125382   4.437   0.894  11.663 -2.3940  1.1534 -1.6629
 4583SOL    HW225383   4.418   0.866  11.803 -0.1985  1.2749  0.2101
 4584SOL     OW25384   2.932   1.529  10.810  0.3420  0.0317  0.1808
 4584SOL    HW125385   2.859   1.520  10.749  0.4937 -0.6795  0.0959
 4584SOL    HW225386   2.902   1.473  10.882  0.8540 -0.7006 -0.1754
 4585SOL     OW25387   1.188   3.916   9.215  0.3938 -0.0112  0.4619
 4585SOL    HW125388   1.095   3.922   9.235  0.4052  1.4443  0.1107
 4585SOL    HW225389   1.180   3.959   9.130  1.8485  0.5540  0.6080
 4586SOL     OW25390   0.036   3.662   1.681 -0.6056  0.3964  0.0716
 4586SOL    HW125391   4.697   3.612   1.703 -1.1808  1.8750  1.3690
 4586SOL    HW225392   0.097   3.603   1.726 -0.9267  0.6544  0.8515
 4587SOL     OW25393   4.520   4.200   3.024  0.0231 -0.1810  0.2373
 4587SOL    HW125394   4.604   4.217   2.982 -0.4820  1.7043 -0.0147
 4587SOL    HW225395   4.510   4.105   3.015 -0.5891 -0.0265 -0.6801
 4588SOL     OW25396   0.159   0.577   6.307 -0.4161 -0.0256 -0.0918
 4588SOL    HW125397   0.184   0.504   6.250 -1.8493  0.6076 -1.5419
 4588SOL    HW225398   0.075   0.542   6.338  0.1474 -0.8066  0.5543
 4589SOL     OW25399   1.948   4.288   4.546  0.4715  0.1890 -0.8730
 4589SOL    HW125400   2.013   4.286   4.476 -0.0202 -0.9427 -1.2927
 4589SOL    HW225401   1.946   4.375   4.585  3.7151  0.9565 -2.4179
 4590SOL     OW25402   3.161   0.175   3.100 -0.1216 -0.4201 -0.0281
 4590SOL    HW125403   3.186   0.207   3.013 -0.2036 -1.3584 -0.4028
 4590SOL    HW225404   3.176   0.081   3.086  0.7525 -0.5121  1.4931
 4591SOL     OW25405   0.847   2.276   5.132  0.1617  0.3713 -0.3818
 4591SOL    HW125406   0.875   2.247   5.045 -1.3368 -1.7955 -0.1681
 4591SOL    HW225407   0.817   2.366   5.119 -2.0105 -0.4250 -0.8942
 4592SOL     OW25408   1.846   2.807   6.216 -0.1031  0.1711  0.3920
 4592SOL    HW125409   1.941   2.818   6.225 -0.0826 -0.7644  1.4372
 4592SOL    HW225410   1.812   2.883   6.262 -1.3001 -0.7577  1.0401
 4593SOL     OW25411   3.990   3.379   3.672 -0.2326 -0.0627 -0.4995
 4593SOL    HW125412   3.911   3.325   3.677  0.8227 -1.6060 -0.5399
 4593SOL    HW225413   3.965   3.446   3.609 -2.0320  0.8670  1.1936
 4594SOL     OW25414   4.246   2.034  13.753  0.0006 -0.4496 -0.4232
 4594SOL    HW125415   4.302   1.957  13.758 -0.6787 -0.8835  0.4731
 4594SOL    HW225416   4.274   2.053  13.663  1.6242 -1.9963 -0.2271
 4595SOL     OW25417   3.644   2.999   9.661 -0.4022  0.3586  0.4922
 4595SOL    HW125418   3.699   3.007   9.739 -1.5096 -2.1107  1.5273
 4595SOL    HW225419   3.565   3.044   9.692 -0.5339  1.2486 -1.1633
 4596SOL     OW25420   2.740   0.606   2.313 -0.2642  0.4323  0.6124
 4596SOL    HW125421   2.827   0.620   2.275  0.6503  0.3084  2.6827
 4596SOL    HW225422   2.718   0.513   2.318  0.1721  0.2737 -0.4570
 4597SOL     OW25423   0.910   0.597   4.113  0.1630  0.0360 -0.1484
 4597SOL    HW125424   0.828   0.641   4.090  0.8664  1.6924  0.5692
 4597SOL    HW225425   0.917   0.616   4.207  1.0481 -0.4463 -0.1140
 4598SOL     OW25426   3.999   1.504   1.675  0.2861  0.1543 -0.8438
 4598SOL    HW125427   3.982   1.485   1.583  1.6529 -1.8679 -0.6875
 4598SOL    HW225428   4.091   1.476   1.681  1.2009  3.3148 -0.3866
 4599SOL     OW25429   1.642   3.939   5.923 -0.3058 -0.2672 -0.2375
 4599SOL    HW125430   1.655   4.034   5.919 -2.1697  0.1437  3.5820
 4599SOL    HW225431   1.734   3.914   5.917  0.4046  2.8158 -2.4123
 4600SOL     OW25432   0.548   1.359   6.912 -0.4178 -0.2887  0.0437
 4600SOL    HW125433   0.475   1.408   6.949 -1.1074 -0.7745 -0.6753
 4600SOL    HW225434   0.611   1.426   6.883 -1.6406  0.1484 -1.6117
 4601SOL     OW25435   4.709   1.684   4.916  0.9212 -0.2792 -0.0091
 4601SOL    HW125436   4.652   1.748   4.871  0.1801 -0.9851 -0.0735
 4601SOL    HW225437   4.711   1.730   5.000 -0.2122  0.8135 -0.5611
 4602SOL     OW25438   2.931   1.222   1.739 -0.0753 -0.3140  0.2288
 4602SOL    HW125439   2.878   1.186   1.810  3.0723 -1.8120  1.8127
 4602SOL    HW225440   2.854   1.242   1.685  0.9178 -1.4775 -1.6477
 4603SOL     OW25441   2.235   4.126   9.769 -0.0555 -0.0266 -0.3749
 4603SOL    HW125442   2.195   4.039   9.770 -1.5472  0.6198 -2.7654
 4603SOL    HW225443   2.320   4.109   9.808  0.1279 -2.4695 -1.8422
 4604SOL     OW25444   2.558   3.460  14.496 -0.5828 -0.2453 -0.0651
 4604SOL    HW125445   2.466   3.443  14.475 -1.0186  1.1917  0.6299
 4604SOL    HW225446   2.540   3.548  14.529  1.6009 -0.1680  0.9127
 4605SOL     OW25447   0.643   2.102  10.169  0.0396  0.4391  0.1940
 4605SOL    HW125448   0.732   2.098  10.132  0.3503  0.1236  0.9623
 4605SOL    HW225449   0.662   2.138  10.255  1.8155 -0.7033  0.2996
 4606SOL     OW25450   2.807   2.173   7.195  0.0168  0.0966  0.3624
 4606SOL    HW125451   2.744   2.159   7.125  0.2139  0.0907  0.1857
 4606SOL    HW225452   2.810   2.095   7.252 -0.3399  0.1767  0.4904
 4607SOL     OW25453   3.125   2.169   0.547 -0.1018 -0.2469  0.0476
 4607SOL    HW125454   3.064   2.204   0.613 -1.5824  0.1812 -1.5442
 4607SOL    HW225455   3.187   2.110   0.590  2.2392  0.5490 -2.3224
 4608SOL     OW25456   1.825   1.437   5.518  0.4126 -0.1168  0.0083
 4608SOL    HW125457   1.758   1.486   5.567 -0.5069 -1.4984  0.1165
 4608SOL    HW225458   1.787   1.410   5.435 -2.4056 -0.5839  1.4576
 4609SOL     OW25459   3.949   2.819  10.241  0.1851 -0.3394  0.0820
 4609SOL    HW125460   3.917   2.776  10.321 -0.0738 -0.5232 -0.1231
 4609SOL    HW225461   3.938   2.908  10.275 -0.5641 -1.1652  2.0005
 4610SOL     OW25462   0.084   1.568   8.411  0.4979 -0.2678  0.1894
 4610SOL    HW125463   0.157   1.629   8.399  0.6529 -0.6098 -0.6196
 4610SOL    HW225464   0.098   1.510   8.485 -0.4046 -1.8448 -0.8712
 4611SOL     OW25465   0.502   2.162  16.397 -0.0989 -0.4909  0.0016
 4611SOL    HW125466   0.451   2.136  16.474  0.1433  1.7358  0.9115
 4611SOL    HW225467   0.578   2.211  16.427  0.4320 -0.7935 -0.8535
 4612SOL     OW25468   2.835   1.617   9.720  0.0584 -0.0501 -0.1189
 4612SOL    HW125469   2.792   1.579   9.644 -1.7832 -2.7639  2.2742
 4612SOL    HW225470   2.920   1.574   9.717  0.4292  0.4243  3.3340
 4613SOL     OW25471   4.358   0.748   6.152  0.4752 -0.6005 -0.2680
 4613SOL    HW125472   4.300   0.672   6.142  2.4457 -2.0376 -0.6992
 4613SOL    HW225473   4.317   0.811   6.092 -0.5989  1.5854  2.7693
 4614SOL     OW25474   4.032   4.214   4.803  0.7975  0.4713  0.2869
 4614SOL    HW125475   3.953   4.211   4.748 -0.2039  0.7419  1.7334
 4614SOL    HW225476   4.091   4.267   4.750 -1.2724  3.4218  0.9500
 4615SOL     OW25477   1.146   1.110  16.639  0.3281 -0.2516  0.3653
 4615SOL    HW125478   1.227   1.130  16.592  0.9367 -1.3400  0.9685
 4615SOL    HW225479   1.118   1.200  16.660  1.3116 -0.2000  1.4666
 4616SOL     OW25480   3.789   2.801  17.236  0.3022 -0.5663  0.9037
 4616SOL    HW125481   3.723   2.870  17.243  1.5085  0.8077 -1.1930
 4616SOL    HW225482   3.863   2.849  17.272 -1.3497  2.1742  0.7199
 4617SOL     OW25483   3.580   0.338  12.239  0.5323 -0.5649  0.3234
 4617SOL    HW125484   3.491   0.308  12.259  0.0793 -0.4881 -1.5068
 4617SOL    HW225485   3.618   0.251  12.228 -3.0838 -2.1720  0.4694
 4618SOL     OW25486   4.101   3.272   3.443  0.0342  0.1963  0.1131
 4618SOL    HW125487   4.075   3.326   3.517  0.0275  0.9999 -0.4687
 4618SOL    HW225488   4.112   3.183   3.478 -3.0635 -0.5092 -0.6824
 4619SOL     OW25489   2.767   4.072   6.964  0.4400  0.6925 -0.5324
 4619SOL    HW125490   2.703   4.001   6.970  1.9180 -0.6310 -0.5575
 4619SOL    HW225491   2.849   4.028   6.941 -0.8268 -1.4828 -0.9056
 4620SOL     OW25492   1.012   1.692   2.736  0.0700  0.1338 -0.1253
 4620SOL    HW125493   1.071   1.623   2.766  0.3903  0.6627  0.4643
 4620SOL    HW225494   0.929   1.645   2.735  2.2441 -3.6876 -1.7614
 4621SOL     OW25495   3.468   0.220   7.166 -0.2149 -0.5281 -0.5160
 4621SOL    HW125496   3.562   0.207   7.155 -0.0866 -0.3567  0.3181
 4621SOL    HW225497   3.447   0.127   7.163 -1.3283 -0.3522  1.8678
 4622SOL     OW25498   3.000   0.578   5.472 -0.2379  0.3793 -0.1667
 4622SOL    HW125499   2.914   0.550   5.441 -0.5214  0.8207  0.2070
 4622SOL    HW225500   2.976   0.637   5.543 -0.4327  0.6484 -0.4536
 4623SOL     OW25501   3.692   1.329  12.846 -0.1051 -0.1546  0.2345
 4623SOL    HW125502   3.644   1.288  12.919  1.2020 -1.1785  0.5181
 4623SOL    HW225503   3.696   1.420  12.874 -2.9985  0.2066 -0.4841
 4624SOL     OW25504   2.137   0.769  11.967 -0.4456 -0.4215 -0.3506
 4624SOL    HW125505   2.108   0.816  12.046 -0.1277 -0.4534 -0.2175
 4624SOL    HW225506   2.210   0.717  11.999  1.2006  2.9732  1.4575
 4625SOL     OW25507   2.516   0.037   1.601 -0.1762 -0.4524 -0.6706
 4625SOL    HW125508   2.466   4.697   1.585 -1.8492 -0.0993  2.8755
 4625SOL    HW225509   2.602   0.003   1.623 -0.9606 -2.3348 -0.5505
 4626SOL     OW25510   3.338   3.630  16.875  0.3675  0.0436  0.2732
 4626SOL    HW125511   3.396   3.688  16.825  1.0009  1.1365  2.2863
 4626SOL    HW225512   3.256   3.621  16.827 -1.1249  2.5671  2.3862
 4627SOL     OW25513   0.906   2.969   3.390 -0.3575  0.5095  0.0669
 4627SOL    HW125514   0.824   2.923   3.407 -0.1833  0.2335  0.1573
 4627SOL    HW225515   0.943   2.965   3.479 -0.6567 -0.3692  0.1526
 4628SOL     OW25516   2.840   1.562   5.618  0.7048 -0.3246  0.8010
 4628SOL    HW125517   2.935   1.561   5.607  0.7795 -2.5489  1.6047
 4628SOL    HW225518   2.828   1.572   5.713  2.6178 -0.9867  1.1039
 4629SOL     OW25519   1.337   3.079   3.128  0.2790 -0.1894  0.1157
 4629SOL    HW125520   1.253   3.070   3.173 -0.3896  0.5523 -0.9812
 4629SOL    HW225521   1.348   2.995   3.084  1.6007 -0.2261  0.5240
 4630SOL     OW25522   1.171   0.874   3.317 -0.0350  0.1763 -0.4393
 4630SOL    HW125523   1.266   0.879   3.332 -0.4191  1.0323  1.7637
 4630SOL    HW225524   1.131   0.883   3.404  4.0208 -1.4938  1.6009
 4631SOL     OW25525   0.099   1.589  10.714  0.3153  0.2873  0.1471
 4631SOL    HW125526   0.094   1.507  10.666  0.6056 -0.8383  2.0137
 4631SOL    HW225527   0.185   1.576  10.754  0.5876  0.9073 -0.2526
 4632SOL     OW25528   2.132   3.815   4.030  0.4109 -0.0463  0.1218
 4632SOL    HW125529   2.039   3.836   4.044  0.4678  2.0928 -2.8759
 4632SOL    HW225530   2.145   3.827   3.936 -1.6977 -1.9598 -0.4235
 4633SOL     OW25531   3.643   0.013   6.449 -0.2348 -0.2962  0.0770
 4633SOL    HW125532   3.699   0.001   6.526 -2.1076 -1.5894  1.2563
 4633SOL    HW225533   3.700   4.729   6.375  1.1445  2.6702  0.2262
 4634SOL     OW25534   4.481   2.304   3.227  0.2210  0.3726 -0.1923
 4634SOL    HW125535   4.449   2.229   3.276  0.6649  0.5788  0.4069
 4634SOL    HW225536   4.438   2.375   3.275  1.1309  2.3870 -2.3169
 4635SOL     OW25537   4.282   1.037   5.166 -0.3028  0.2616 -0.7166
 4635SOL    HW125538   4.327   1.116   5.195 -2.0957  0.8651  0.4172
 4635SOL    HW225539   4.356   0.977   5.156 -0.2374  0.1684  0.2492
 4636SOL     OW25540   3.086   0.391  15.744  0.1424  0.0397 -0.2598
 4636SOL    HW125541   3.062   0.482  15.763 -0.3905 -0.0370 -0.5643
 4636SOL    HW225542   3.181   0.389  15.741  0.1227 -1.0266 -0.0262
 4637SOL     OW25543   0.711   2.049   5.203  0.0574  0.3726 -0.1285
 4637SOL    HW125544   0.728   2.041   5.297  0.4422  1.1088 -0.1449
 4637SOL    HW225545   0.722   2.141   5.182  1.1547  0.2730  0.0485
 4638SOL     OW25546   3.617   4.031   7.393 -0.1600 -0.0585 -0.2198
 4638SOL    HW125547   3.621   4.122   7.420 -1.0784 -0.0777 -0.0187
 4638SOL    HW225548   3.535   4.038   7.343 -1.7205 -0.1592  2.3231
 4639SOL     OW25549   3.002   2.091   4.109 -0.1255 -0.0702 -0.1883
 4639SOL    HW125550   2.906   2.092   4.111 -0.2025 -0.4624 -4.4528
 4639SOL    HW225551   3.017   1.997   4.095 -1.3749 -0.3382  0.2651
 4640SOL     OW25552   1.359   0.464  14.055  0.1497  0.3385 -0.0085
 4640SOL    HW125553   1.363   0.428  13.967  1.2850 -1.1301  0.6235
 4640SOL    HW225554   1.378   0.556  14.038  2.0152  0.2319  1.4407
 4641SOL     OW25555   3.123   2.692   6.547 -0.3142 -0.2872  0.5074
 4641SOL    HW125556   3.105   2.772   6.597 -2.1807  0.9647 -2.1738
 4641SOL    HW225557   3.039   2.647   6.556 -0.7378  0.1326 -1.2078
 4642SOL     OW25558   3.839   2.961   3.918 -0.8557  0.4534  0.5270
 4642SOL    HW125559   3.798   2.939   4.001  0.1140  2.3908  1.5109
 4642SOL    HW225560   3.887   3.038   3.947  0.0596 -1.3769  3.8175
 4643SOL     OW25561   0.182   1.961   6.865 -0.3635  0.3882  0.9340
 4643SOL    HW125562   0.093   1.993   6.871  0.0274  1.9665 -1.5850
 4643SOL    HW225563   0.174   1.934   6.773 -2.0943 -1.7454  1.6968
 4644SOL     OW25564   4.086   2.188   7.358 -0.2838  0.5326 -0.0158
 4644SOL    HW125565   4.109   2.145   7.440  0.1236 -2.0565 -1.4776
 4644SOL    HW225566   4.171   2.189   7.314 -1.7446 -0.7606 -2.8854
 4645SOL     OW25567   1.953   2.915   1.571 -0.0140  0.1497 -0.8296
 4645SOL    HW125568   1.925   2.898   1.661 -2.7642 -1.6888 -2.0115
 4645SOL    HW225569   2.033   2.864   1.578 -0.6263 -0.8398 -1.0428
 4646SOL     OW25570   3.395   3.904   6.162  0.4088  0.1735 -0.4831
 4646SOL    HW125571   3.331   3.867   6.102  0.5909  1.0279 -1.2060
 4646SOL    HW225572   3.354   3.913   6.248  0.6101 -0.6636 -0.3054
 4647SOL     OW25573   0.448   1.958  16.785 -0.0624  0.1332 -0.0135
 4647SOL    HW125574   0.399   1.933  16.864 -0.9177 -1.0872 -0.9319
 4647SOL    HW225575   0.522   2.009  16.818 -0.8042  0.7498  0.6889
 4648SOL     OW25576   2.752   2.457   3.903  0.3151 -0.4098 -0.0772
 4648SOL    HW125577   2.808   2.446   3.826  1.4114  1.0094  0.5259
 4648SOL    HW225578   2.726   2.368   3.928 -1.5583 -0.7563 -3.2969
 4649SOL     OW25579   1.109   3.052   6.015  0.1416  0.9982  0.0961
 4649SOL    HW125580   1.125   3.033   6.108 -3.0921  2.0505  0.8873
 4649SOL    HW225581   1.089   3.145   6.029 -1.0617  0.9085 -1.1073
 4650SOL     OW25582   3.173   1.564   1.226  0.5257 -0.1405  0.9069
 4650SOL    HW125583   3.115   1.602   1.291 -0.6151  1.3729 -0.9748
 4650SOL    HW225584   3.191   1.647   1.181  0.1523  0.1434  1.2856
 4651SOL     OW25585   2.269   3.714   0.738  0.0060 -0.4107 -0.1645
 4651SOL    HW125586   2.257   3.727   0.832  0.7235  2.1101 -0.4133
 4651SOL    HW225587   2.338   3.776   0.715 -1.2973  1.4999  1.0638
 4652SOL     OW25588   2.419   0.197   9.269  0.0017 -0.3109  0.0437
 4652SOL    HW125589   2.369   0.143   9.330  0.2028  0.5113  0.9372
 4652SOL    HW225590   2.510   0.178   9.292 -0.1322  0.5124  1.2575
 4653SOL     OW25591   3.457   3.467  14.163 -0.4287 -0.1553 -0.0601
 4653SOL    HW125592   3.439   3.374  14.156  0.2727 -0.3201  0.4500
 4653SOL    HW225593   3.504   3.479  14.081  0.6709  2.0427  0.8799
 4654SOL     OW25594   1.324   1.284   9.651 -0.1516 -0.3895 -0.4636
 4654SOL    HW125595   1.302   1.235   9.730  2.2341 -1.7009 -0.6279
 4654SOL    HW225596   1.287   1.366   9.682  1.5075  0.9711 -2.0833
 4655SOL     OW25597   0.156   4.672  13.943 -0.7164 -0.0689  0.5212
 4655SOL    HW125598   0.172   0.008  14.000 -1.5455  0.4053  0.1340
 4655SOL    HW225599   0.242   4.638  13.921 -1.2649  0.4047 -2.3828
 4656SOL     OW25600   4.340   2.746  16.058 -0.8077 -0.4225  0.0175
 4656SOL    HW125601   4.283   2.811  16.017 -0.3568  0.1908  0.3761
 4656SOL    HW225602   4.376   2.694  15.985 -0.1223  1.2349 -0.8146
 4657SOL     OW25603   1.794   0.304  10.446  0.2120 -0.4655  0.0332
 4657SOL    HW125604   1.819   0.389  10.482 -2.0169 -0.7270  2.1905
 4657SOL    HW225605   1.871   0.252  10.469  1.2690  0.6702 -0.9277
 4658SOL     OW25606   0.350   1.760   3.187  0.6131  0.3066 -0.2009
 4658SOL    HW125607   0.362   1.742   3.280  0.0675  0.2704 -0.1404
 4658SOL    HW225608   0.297   1.840   3.186 -1.9412 -1.3627  0.6439
 4659SOL     OW25609   1.697   0.047   4.525  0.0297  0.2046 -0.1707
 4659SOL    HW125610   1.604   0.065   4.510  0.1139 -0.5669 -1.6291
 4659SOL    HW225611   1.698   4.728   4.601  3.7866  2.0160  1.1669
 4660SOL     OW25612   3.020   2.072   2.488 -0.1146 -0.0754 -0.3609
 4660SOL    HW125613   2.979   1.987   2.476 -1.5905  0.4428  1.0217
 4660SOL    HW225614   3.029   2.103   2.398  0.0767  2.7861  0.6369
 4661SOL     OW25615   2.187   0.822  13.445 -0.3051  0.5172  0.0856
 4661SOL    HW125616   2.266   0.816  13.391  1.0121 -1.7801  2.2788
 4661SOL    HW225617   2.157   0.731  13.438 -0.8936  0.7597 -0.4914
 4662SOL     OW25618   0.752   0.591   7.101  1.0574 -0.0638 -0.1075
 4662SOL    HW125619   0.725   0.510   7.144  0.8503  0.3484  0.5176
 4662SOL    HW225620   0.736   0.562   7.011  0.1658 -2.4510  0.8287
 4663SOL     OW25621   3.178   3.024   7.284  0.4516 -0.0787  0.1014
 4663SOL    HW125622   3.265   3.049   7.255  0.1777  1.9104  1.0259
 4663SOL    HW225623   3.128   3.104   7.269  0.0850  0.0203  1.9030
 4664SOL     OW25624   0.560   3.355   3.959  0.0948  0.3634  0.6343
 4664SOL    HW125625   0.594   3.415   3.892  1.4958  0.7584  1.7113
 4664SOL    HW225626   0.514   3.412   4.020 -0.4063  0.5717  0.0614
 4665SOL     OW25627   1.334   2.663   2.274  0.1072  0.5422 -0.0738
 4665SOL    HW125628   1.327   2.646   2.368 -0.4424 -0.5174 -0.2978
 4665SOL    HW225629   1.253   2.709   2.253 -0.9948 -1.3067  0.0608
 4666SOL     OW25630   3.797   4.639   5.210  0.0533  0.6578  0.6808
 4666SOL    HW125631   3.730   4.681   5.156  1.3726  0.0887 -1.3907
 4666SOL    HW225632   3.806   4.559   5.158 -0.1205 -0.1346  1.8589
 4667SOL     OW25633   2.601   2.144   6.349 -0.1611 -0.3712  0.2252
 4667SOL    HW125634   2.518   2.109   6.381 -0.7209 -0.2698 -1.1043
 4667SOL    HW225635   2.652   2.065   6.363  0.5215  0.3886  2.0352
 4668SOL     OW25636   4.640   2.911  15.173  0.4027 -0.0756 -0.0080
 4668SOL    HW125637   4.722   2.867  15.193  1.0778  1.2712  0.2201
 4668SOL    HW225638   4.586   2.840  15.138 -1.3344 -0.2637  3.0456
 4669SOL     OW25639   1.176   0.243   1.975 -0.0475  0.2805 -0.4298
 4669SOL    HW125640   1.248   0.251   2.038  0.3425 -1.6010 -0.6618
 4669SOL    HW225641   1.176   0.323   1.922 -1.5692  0.9881  0.6294
 4670SOL     OW25642   3.458   0.844   3.489  0.0629 -0.2697 -0.3710
 4670SOL    HW125643   3.519   0.827   3.417 -1.4722  2.4426 -2.2938
 4670SOL    HW225644   3.509   0.825   3.568 -0.2541  0.6639  0.0534
 4671SOL     OW25645   0.331   3.254  10.884 -0.3247 -0.2254  0.1991
 4671SOL    HW125646   0.241   3.259  10.853 -0.9187  0.6341  2.0732
 4671SOL    HW225647   0.364   3.343  10.876  0.3790 -0.3107  1.9423
 4672SOL     OW25648   0.951   0.390  13.915  0.1859 -0.3802 -0.5846
 4672SOL    HW125649   0.981   0.412  14.003 -2.0945  1.0709 -0.1770
 4672SOL    HW225650   0.906   0.308  13.936  2.0771 -0.2328  3.9644
 4673SOL     OW25651   4.298   2.833  16.584 -0.4484  0.4457  0.1761
 4673SOL    HW125652   4.309   2.785  16.501  0.3994  0.5895  0.2003
 4673SOL    HW225653   4.377   2.799  16.626 -0.3786 -1.0660 -1.1807
 4674SOL     OW25654   0.672   4.590  12.537 -0.3783  0.0039  0.0172
 4674SOL    HW125655   0.609   4.620  12.471 -0.4598 -2.6152 -1.1065
 4674SOL    HW225656   0.742   4.552  12.485 -0.3601  0.1409 -0.0589
 4675SOL     OW25657   4.111   2.116   7.022  0.2501  0.0155 -0.0241
 4675SOL    HW125658   4.060   2.197   7.011  0.4686 -0.1309 -2.2369
 4675SOL    HW225659   4.190   2.159   7.054 -1.3179  1.7334  1.4881
 4676SOL     OW25660   4.181   4.678  11.320 -0.3653  0.3331  0.3164
 4676SOL    HW125661   4.107   4.693  11.379 -2.2923  0.7474 -2.1876
 4676SOL    HW225662   4.207   4.593  11.355 -1.4331  0.5531  1.6505
 4677SOL     OW25663   1.444   0.538  14.455 -0.2329 -0.1931 -0.3235
 4677SOL    HW125664   1.358   0.500  14.473 -0.3747  0.4636  0.3582
 4677SOL    HW225665   1.500   0.487  14.513  0.9881  1.1706 -0.2947
 4678SOL     OW25666   2.222   0.027   2.171 -0.4819  0.1876  0.4419
 4678SOL    HW125667   2.281   4.701   2.209  1.4220  2.6591  1.6808
 4678SOL    HW225668   2.146   4.717   2.138  0.0819 -0.0673 -0.4816
 4679SOL     OW25669   2.335   4.426   2.624 -0.2148 -0.2961  0.2936
 4679SOL    HW125670   2.244   4.427   2.652 -0.5388 -0.4224 -0.7547
 4679SOL    HW225671   2.366   4.346   2.668 -0.7695 -0.3104  0.6563
 4680SOL     OW25672   3.727   0.887   7.191 -0.1556 -0.2079  0.0145
 4680SOL    HW125673   3.786   0.813   7.205  3.2364  2.2913 -0.9091
 4680SOL    HW225674   3.649   0.835   7.210 -0.2353  0.5893  1.8890
 4681SOL     OW25675   2.587   2.101  10.217  0.2146  0.5362  0.4610
 4681SOL    HW125676   2.654   2.168  10.229  1.5143 -0.6019 -0.4250
 4681SOL    HW225677   2.541   2.106  10.300  1.7852  0.8252  1.3118
 4682SOL     OW25678   3.044   4.499   2.809  0.0665  0.6936 -0.6062
 4682SOL    HW125679   3.134   4.531   2.804  1.2244 -2.6147 -0.6555
 4682SOL    HW225680   3.004   4.489   2.722  0.0118  0.9244 -0.6077
 4683SOL     OW25681   1.419   2.475   6.359 -0.4608 -0.1059  0.0098
 4683SOL    HW125682   1.453   2.387   6.343  1.0527  0.2147  1.4165
 4683SOL    HW225683   1.491   2.530   6.329 -1.8442  1.7459  0.1053
 4684SOL     OW25684   1.524   0.201  15.488  0.5118  0.5789 -0.1257
 4684SOL    HW125685   1.428   0.205  15.496  0.3920 -2.9099 -0.0851
 4684SOL    HW225686   1.544   0.109  15.474  0.0232  0.7188 -1.7885
 4685SOL     OW25687   0.137   4.723   3.031 -0.1197 -0.3173 -0.0545
 4685SOL    HW125688   0.177   0.037   2.962  1.5869 -2.3325 -0.6213
 4685SOL    HW225689   0.048   4.726   2.995 -0.3145  0.8967  0.5121
 4686SOL     OW25690   0.048   2.684   1.468 -0.0635  0.5283  0.3562
 4686SOL    HW125691   0.049   2.597   1.430  1.1581  1.0045 -0.6788
 4686SOL    HW225692   4.713   2.678   1.529 -0.4988 -0.9273 -0.3113
 4687SOL     OW25693   0.086   0.998   2.237  0.1784  0.9854 -0.3518
 4687SOL    HW125694   0.148   1.063   2.204 -0.6688  1.3144 -1.2864
 4687SOL    HW225695   0.016   0.988   2.173  2.4206  0.2696 -2.6812
 4688SOL     OW25696   4.176   2.173   6.258 -0.6218 -0.4869 -0.6448
 4688SOL    HW125697   4.188   2.122   6.339  1.3810  2.2162  0.7348
 4688SOL    HW225698   4.190   2.259   6.298  1.6883 -0.6994 -0.9844
 4689SOL     OW25699   1.047   3.014   8.205  0.5864 -0.4278 -0.3531
 4689SOL    HW125700   1.129   3.002   8.158  0.6936 -0.9280 -0.0405
 4689SOL    HW225701   1.001   3.037   8.124  0.1970 -0.9069 -0.2708
 4690SOL     OW25702   2.819   1.742   9.389 -0.0121 -0.0284  0.0232
 4690SOL    HW125703   2.782   1.659   9.418  1.5017 -1.0259 -0.8760
 4690SOL    HW225704   2.904   1.732   9.432  0.9279  1.0685 -1.5825
 4691SOL     OW25705   4.385   2.667   2.723  0.4150 -0.1294  0.0911
 4691SOL    HW125706   4.310   2.682   2.665  1.6300 -0.7091 -1.6420
 4691SOL    HW225707   4.451   2.626   2.667  1.0399  1.4407 -0.3157
 4692SOL     OW25708   1.531   1.675   4.914 -0.0920 -0.0221 -0.4193
 4692SOL    HW125709   1.579   1.648   4.993 -1.1776  0.4034  0.3800
 4692SOL    HW225710   1.600   1.735   4.886 -0.3104  1.1084  1.5257
 4693SOL     OW25711   4.216   3.502   4.958 -0.0217 -0.1089  0.5387
 4693SOL    HW125712   4.279   3.519   4.888 -1.9691  2.5096 -0.5939
 4693SOL    HW225713   4.267   3.520   5.037  0.0455  0.0149  0.4662
 4694SOL     OW25714   4.670   4.232  15.251  0.1192  0.1611 -0.1211
 4694SOL    HW125715   4.602   4.192  15.306 -0.6599  0.2466 -1.0222
 4694SOL    HW225716   0.010   4.204  15.298 -0.0983  0.6921  0.5716
 4695SOL     OW25717   0.197   2.069   7.143  0.4018  0.9130 -0.3455
 4695SOL    HW125718   0.286   2.077   7.107  0.2297  2.8634 -0.3161
 4695SOL    HW225719   0.197   1.977   7.170  0.3514  1.3149  0.9877
 4696SOL     OW25720   4.244   1.855   7.372 -0.2416 -0.1339  0.3509
 4696SOL    HW125721   4.208   1.877   7.286  0.0266  1.2806  0.5974
 4696SOL    HW225722   4.284   1.934   7.409 -0.6635  0.1674  0.1624
 4697SOL     OW25723   2.146   0.384   9.395 -0.0077 -0.0129  0.4509
 4697SOL    HW125724   2.104   0.321   9.454 -1.5748  1.1127  0.5373
 4697SOL    HW225725   2.152   0.339   9.311 -2.5259  0.8921 -0.2349
 4698SOL     OW25726   3.321   1.541  11.921  0.1206  0.1127 -0.2380
 4698SOL    HW125727   3.256   1.510  11.860  0.4503 -2.7499  0.8785
 4698SOL    HW225728   3.351   1.623  11.880 -1.1760  0.4559 -0.4835
 4699SOL     OW25729   3.513   0.603   6.109  0.0666  0.4894  0.1181
 4699SOL    HW125730   3.560   0.683   6.134  1.5042  0.1934 -1.7307
 4699SOL    HW225731   3.571   0.530   6.132 -0.7427 -0.1472  0.1476
 4700SOL     OW25732   0.740   0.116   7.322 -0.1074  0.2935  0.3171
 4700SOL    HW125733   0.676   0.047   7.341  1.9589 -1.7985 -0.4791
 4700SOL    HW225734   0.697   0.197   7.292  0.2980 -0.7688 -3.1879
 4701SOL     OW25735   1.661   3.491   8.222 -0.1123  0.5636  0.0868
 4701SOL    HW125736   1.685   3.579   8.249  0.5374  0.0606  1.1399
 4701SOL    HW225737   1.574   3.512   8.190 -0.0702 -0.2059 -0.5451
 4702SOL     OW25738   4.012   1.826   8.369 -0.5150  0.2539 -0.4627
 4702SOL    HW125739   4.027   1.863   8.457  0.4108  0.2240 -0.6150
 4702SOL    HW225740   3.944   1.885   8.335 -0.6869  0.5767  0.4244
 4703SOL     OW25741   2.471   0.101   7.054  0.2588 -0.0622 -0.0820
 4703SOL    HW125742   2.551   0.153   7.059 -0.5281  1.3682 -2.7117
 4703SOL    HW225743   2.414   0.159   7.003  1.8452  1.1626 -0.4405
 4704SOL     OW25744   3.265   0.664   1.590 -0.3221 -0.4791  0.1893
 4704SOL    HW125745   3.233   0.606   1.520  1.3085 -1.4463  0.2517
 4704SOL    HW225746   3.229   0.747   1.559  0.3766 -0.6743 -1.1923
 4705SOL     OW25747   1.416   0.178   9.221  0.2512 -0.3771 -0.5712
 4705SOL    HW125748   1.430   0.087   9.247  0.4720  0.0009  0.6125
 4705SOL    HW225749   1.435   0.157   9.129  1.2806 -0.6387 -0.2938
 4706SOL     OW25750   0.967   2.086   7.810 -0.9605 -0.0441  0.0117
 4706SOL    HW125751   0.963   2.113   7.718 -0.5941  0.3261  0.1009
 4706SOL    HW225752   0.892   2.127   7.852 -1.4989 -0.0415 -0.9507
 4707SOL     OW25753   3.535   3.053   5.621 -0.3500 -0.2110 -0.3712
 4707SOL    HW125754   3.487   3.134   5.607 -1.1038 -0.7565 -0.9282
 4707SOL    HW225755   3.459   2.996   5.625 -1.4745  1.3545  0.5867
 4708SOL     OW25756   4.013   0.480   5.290 -0.0817 -0.2857 -0.0893
 4708SOL    HW125757   3.984   0.567   5.317  0.3413  0.6100 -2.5589
 4708SOL    HW225758   4.083   0.512   5.233 -1.2998  1.4169 -0.6274
 4709SOL     OW25759   1.120   3.380   9.287 -0.1086  0.2350  0.9445
 4709SOL    HW125760   1.088   3.379   9.377 -1.0806 -1.8462  0.5749
 4709SOL    HW225761   1.175   3.457   9.276  0.6655 -0.1757  1.9562
 4710SOL     OW25762   4.336   2.965   6.710 -0.0786 -0.4843  0.6555
 4710SOL    HW125763   4.286   3.037   6.747  0.8727  0.2807  0.4240
 4710SOL    HW225764   4.319   2.902   6.780  1.6045  0.2423  1.7086
 4711SOL     OW25765   1.218   4.558  12.440 -0.7218  0.3985  0.3050
 4711SOL    HW125766   1.156   4.613  12.489 -0.8229  1.4974 -1.0719
 4711SOL    HW225767   1.230   4.610  12.361 -1.1026  0.0931  0.0487
 4712SOL     OW25768   2.205   1.464   3.551  0.3200 -0.6337 -0.3595
 4712SOL    HW125769   2.291   1.427   3.569  0.6063 -0.7097 -1.8227
 4712SOL    HW225770   2.172   1.425   3.470  1.2366  1.8469 -1.9291
 4713SOL     OW25771   2.208   4.476   9.762  0.0634  0.1749  0.2630
 4713SOL    HW125772   2.163   4.405   9.808 -0.5703  0.0238 -0.5929
 4713SOL    HW225773   2.296   4.455   9.793 -0.0043 -1.0446 -0.3619
 4714SOL     OW25774   2.386   0.789   5.364 -0.5813 -0.2849  0.0802
 4714SOL    HW125775   2.437   0.713   5.337  1.8751  1.7693 -1.0755
 4714SOL    HW225776   2.371   0.841   5.285  0.0129  1.9970  1.4718
 4715SOL     OW25777   3.636   3.171  10.035 -0.3315  0.0224 -0.1440
 4715SOL    HW125778   3.553   3.131  10.061 -0.9375  0.4728 -1.3481
 4715SOL    HW225779   3.687   3.099   9.998  1.2660  0.9862  0.2128
 4716SOL     OW25780   4.480   2.828   0.199  0.6473  0.5135 -0.3964
 4716SOL    HW125781   4.391   2.828   0.162  0.3216 -2.6452  0.3839
 4716SOL    HW225782   4.486   2.924   0.205  0.1391  0.6775 -2.4610
 4717SOL     OW25783   1.838   4.273   6.147  0.3005 -0.0617 -0.2816
 4717SOL    HW125784   1.810   4.334   6.215  0.9342 -0.0935  0.0100
 4717SOL    HW225785   1.914   4.319   6.113 -1.5805  0.5995 -3.5992
 4718SOL     OW25786   3.162   3.259   0.069  0.0675  0.1275 -0.3338
 4718SOL    HW125787   3.215   3.249   0.148 -2.3035  0.6433  1.3127
 4718SOL    HW225788   3.094   3.320   0.099  0.6251 -0.2502  1.6721
 4719SOL     OW25789   3.464   1.587  10.779 -0.1459 -0.2058 -0.3521
 4719SOL    HW125790   3.413   1.514  10.744 -0.7618 -1.6321  3.5297
 4719SOL    HW225791   3.491   1.553  10.865 -0.4307 -1.4754 -0.7619
 4720SOL     OW25792   1.447   1.095   7.590  0.0808 -0.1116 -0.4643
 4720SOL    HW125793   1.432   1.141   7.507  1.1946 -0.8819 -1.0943
 4720SOL    HW225794   1.363   1.050   7.597  0.1463 -0.3205 -0.9905
 4721SOL     OW25795   3.044   2.541   6.194  0.0867 -0.0903  0.0461
 4721SOL    HW125796   2.966   2.552   6.249  1.1373 -1.7616  1.8759
 4721SOL    HW225797   3.118   2.533   6.254 -1.2514 -0.7899  1.6029
 4722SOL     OW25798   2.745   3.740  16.164 -0.0377  0.0937  0.4752
 4722SOL    HW125799   2.806   3.812  16.170  0.8291 -0.7215  1.4238
 4722SOL    HW225800   2.793   3.668  16.204 -1.4018 -1.5293 -0.7605
 4723SOL     OW25801   3.154   2.784  11.647 -0.0802  0.1838  0.1299
 4723SOL    HW125802   3.083   2.780  11.583  0.3072  1.0232 -0.3500
 4723SOL    HW225803   3.207   2.846  11.598 -0.6233  0.6268  0.0962
 4724SOL     OW25804   2.899   2.927  11.301 -0.0583 -0.1437  0.4101
 4724SOL    HW125805   2.992   2.952  11.303 -0.0564 -0.1213  0.1044
 4724SOL    HW225806   2.892   2.882  11.217  1.2403 -0.3835  0.4273
 4725SOL     OW25807   3.080   1.285   3.976  0.4406  0.3904  0.4706
 4725SOL    HW125808   3.130   1.248   3.903 -3.2460 -0.7916 -1.4424
 4725SOL    HW225809   3.024   1.207   3.985  2.0679 -0.9424 -0.9407
 4726SOL     OW25810   3.078   2.779   8.989 -0.1489  0.2426 -0.3929
 4726SOL    HW125811   3.159   2.795   9.038  0.0689  1.4667 -1.1296
 4726SOL    HW225812   3.008   2.793   9.052 -0.6396 -0.3774 -0.8129
 4727SOL     OW25813   1.417   1.066   3.926  0.2784  0.1526  0.1690
 4727SOL    HW125814   1.480   1.082   3.855 -0.4737  0.0025 -0.5294
 4727SOL    HW225815   1.402   1.150   3.969  1.2969  1.2568 -1.6242
 4728SOL     OW25816   2.230   0.802   3.335  0.3687  0.1748 -0.0210
 4728SOL    HW125817   2.204   0.844   3.253  0.9586 -0.0719 -0.3275
 4728SOL    HW225818   2.175   0.724   3.338 -0.8290  0.9855 -0.5861
 4729SOL     OW25819   1.581   1.768   9.302 -0.1167 -0.5484 -0.6095
 4729SOL    HW125820   1.605   1.676   9.300 -2.2355 -1.1281  0.1039
 4729SOL    HW225821   1.625   1.809   9.228 -1.6888  0.9574 -0.7061
 4730SOL     OW25822   1.171   1.367  13.271  0.8529  0.1834 -0.2132
 4730SOL    HW125823   1.106   1.421  13.227 -0.1563 -1.2909 -0.4895
 4730SOL    HW225824   1.183   1.418  13.351  0.6525  0.2610 -0.2326
 4731SOL     OW25825   2.827   1.878   5.295 -0.5579  0.0443  0.1464
 4731SOL    HW125826   2.807   1.786   5.314 -0.7667  0.0471 -0.0648
 4731SOL    HW225827   2.769   1.924   5.357  1.6222  1.0942  1.4018
 4732SOL     OW25828   4.369   3.279   5.889  0.2199 -0.2759 -0.8184
 4732SOL    HW125829   4.373   3.226   5.810 -2.4420 -1.3443 -0.2346
 4732SOL    HW225830   4.382   3.213   5.957 -1.8028  1.8092  1.6040
 4733SOL     OW25831   3.965   0.009   5.358  0.1520  0.0569 -0.6772
 4733SOL    HW125832   3.923   4.691   5.294  1.0904 -1.6485  0.2267
 4733SOL    HW225833   3.936   0.093   5.324 -1.8841  0.0869  1.1752
 4734SOL     OW25834   4.275   1.369  13.733  0.4954 -0.0706  0.0148
 4734SOL    HW125835   4.187   1.351  13.767  0.3527  0.6880  0.0589
 4734SOL    HW225836   4.307   1.286  13.699 -3.3592 -1.2036 -0.9162
 4735SOL     OW25837   1.972   0.125  12.052  0.1153 -0.0811  0.3979
 4735SOL    HW125838   2.005   0.209  12.082 -0.9653  0.3808  0.2931
 4735SOL    HW225839   1.895   0.149  12.000  2.3153  0.8608 -2.4076
 4736SOL     OW25840   1.042   0.132  11.976 -0.5305 -0.3446 -0.0193
 4736SOL    HW125841   1.007   0.081  12.048  0.0962  1.3115  1.4701
 4736SOL    HW225842   1.132   0.105  11.963 -1.1780 -2.3048 -0.3366
 4737SOL     OW25843   2.183   1.122   4.904 -0.4304  0.5482 -0.0979
 4737SOL    HW125844   2.164   1.194   4.964 -3.0979 -0.2033 -0.0704
 4737SOL    HW225845   2.189   1.050   4.966 -0.6786  0.1875 -0.4925
 4738SOL     OW25846   3.860   1.550   1.176  0.4155  0.2900  0.1104
 4738SOL    HW125847   3.818   1.553   1.262 -0.9657 -0.5511 -0.5386
 4738SOL    HW225848   3.939   1.604   1.185  0.7118 -0.5048  2.2451
 4739SOL     OW25849   0.254   4.695  16.092  0.2814  0.0914 -0.4431
 4739SOL    HW125850   0.225   0.047  16.095 -0.3634 -0.2027  2.5899
 4739SOL    HW225851   0.347   4.703  16.112 -0.4017  1.7995  2.0675
 4740SOL     OW25852   2.895   2.827  11.550 -0.0553 -0.3765 -0.5388
 4740SOL    HW125853   2.834   2.901  11.558 -2.5963 -2.3416 -1.6121
 4740SOL    HW225854   2.938   2.857  11.470  0.7201  1.5538  0.6136
 4741SOL     OW25855   1.525   1.387  13.158  0.0139  0.4330  0.4063
 4741SOL    HW125856   1.571   1.437  13.225  3.4271 -0.0187 -1.6208
 4741SOL    HW225857   1.597   1.388  13.096  1.3897  3.2501  2.0461
 4742SOL     OW25858   3.378   2.807  11.440 -0.3342  0.3129 -0.5041
 4742SOL    HW125859   3.345   2.740  11.499  0.2322  0.8301  0.3974
 4742SOL    HW225860   3.450   2.847  11.488 -0.4728  0.3462 -0.3231
 4743SOL     OW25861   1.549   0.894   5.253  0.4167 -0.0736  0.4994
 4743SOL    HW125862   1.626   0.922   5.204 -1.5758  1.5485 -1.6453
 4743SOL    HW225863   1.523   0.982   5.278  0.0764  0.1387 -0.6176
 4744SOL     OW25864   1.359   4.183   6.214 -0.6132  0.5424 -0.8167
 4744SOL    HW125865   1.353   4.125   6.138  1.0995  1.5616 -1.7343
 4744SOL    HW225866   1.453   4.165   6.220 -0.8616 -1.4682 -3.1759
 4745SOL     OW25867   0.186   3.032   6.391 -0.2694 -0.6171 -0.3381
 4745SOL    HW125868   0.121   3.095   6.421 -0.6531 -0.1466 -2.1452
 4745SOL    HW225869   0.203   3.063   6.302  0.0520  0.8363  0.2395
 4746SOL     OW25870   1.035   3.760  17.668 -0.1372 -0.4561 -0.0484
 4746SOL    HW125871   0.946   3.726  17.657 -1.4143  2.3526  1.6526
 4746SOL    HW225872   1.084   3.686  17.703 -0.8647 -0.0433  1.8008
 4747SOL     OW25873   1.640   0.020  15.230  0.0128  0.2524 -0.0706
 4747SOL    HW125874   1.603   0.108  15.220  0.7365  0.4374 -1.1541
 4747SOL    HW225875   1.698   0.008  15.154 -0.0416  3.2270 -0.5912
 4748SOL     OW25876   4.604   0.311   5.743  0.2143  0.5247  0.7526
 4748SOL    HW125877   4.679   0.255   5.723  1.0274  2.2156 -0.8647
 4748SOL    HW225878   4.593   0.346   5.655 -1.1432 -1.0793  0.2793
 4749SOL     OW25879   1.810   1.049   1.723 -0.1975  0.0210  0.4289
 4749SOL    HW125880   1.727   1.011   1.696 -0.1188 -0.1609  0.4454
 4749SOL    HW225881   1.847   0.968   1.758 -0.6643 -0.4014 -0.0710
 4750SOL     OW25882   0.468   1.669  17.080 -0.6117 -0.0302  0.5176
 4750SOL    HW125883   0.556   1.699  17.058  0.0560 -1.5455  1.1474
 4750SOL    HW225884   0.493   1.618  17.157 -1.6695 -1.0144  0.2100
 4751SOL     OW25885   0.066   1.346  11.889  0.4420 -0.5284  0.0833
 4751SOL    HW125886   0.029   1.306  11.967  0.8935 -0.6729  0.2224
 4751SOL    HW225887   0.157   1.318  11.896 -0.0925 -2.2200  0.2770
 4752SOL     OW25888   2.914   2.790  12.540 -0.2610  0.1719 -0.3917
 4752SOL    HW125889   2.893   2.749  12.456  0.7594 -2.9962  0.9173
 4752SOL    HW225890   2.997   2.837  12.531 -1.9141  3.0060 -0.9571
 4753SOL     OW25891   0.868   2.123   3.424 -0.5200 -0.4339  0.0923
 4753SOL    HW125892   0.858   2.173   3.343 -1.8195 -0.6242  0.1354
 4753SOL    HW225893   0.957   2.090   3.412 -0.7471 -0.7654 -0.7140
 4754SOL     OW25894   0.439   1.411  11.402 -0.1901  0.0596  0.2703
 4754SOL    HW125895   0.526   1.422  11.364 -0.6284  0.5981 -0.5844
 4754SOL    HW225896   0.411   1.501  11.383 -0.6858 -0.0923  0.2884
 4755SOL     OW25897   1.691   0.333   9.415 -0.2521  0.3419  0.1235
 4755SOL    HW125898   1.629   0.378   9.359  0.4452  0.2987 -0.6906
 4755SOL    HW225899   1.648   0.338   9.500  1.3358 -1.3928  1.0368
 4756SOL     OW25900   4.461   0.907  14.262  0.2677  0.0893 -0.1713
 4756SOL    HW125901   4.524   0.978  14.249  1.2306 -0.0448  3.7570
 4756SOL    HW225902   4.421   0.927  14.347  1.6231 -1.1700  0.7662
 4757SOL     OW25903   2.941   2.242   8.906 -0.0397 -0.1479  0.0913
 4757SOL    HW125904   2.867   2.250   8.966  0.7921 -0.2849  1.1285
 4757SOL    HW225905   3.003   2.204   8.968 -0.4237  1.2475  1.3510
 4758SOL     OW25906   0.733   3.830   5.925 -0.0690  0.4152 -0.1862
 4758SOL    HW125907   0.800   3.863   5.985 -0.8750  0.5737  0.6256
 4758SOL    HW225908   0.659   3.826   5.985  0.5757 -2.4611  0.4416
 4759SOL     OW25909   2.600   3.055   7.685  0.3159  0.2363 -0.7250
 4759SOL    HW125910   2.558   3.140   7.679  1.5372  0.9722  1.2284
 4759SOL    HW225911   2.523   3.000   7.668  1.7255 -2.5424  1.8851
 4760SOL     OW25912   0.416   0.238   0.189 -0.2940  0.2545  0.4709
 4760SOL    HW125913   0.397   0.185   0.266 -3.7344  2.1090  0.8913
 4760SOL    HW225914   0.402   0.173   0.120  1.6695  0.9189 -0.5350
 4761SOL     OW25915   4.679   1.718   2.741 -0.3825  0.0710  0.0322
 4761SOL    HW125916   4.596   1.692   2.782  0.2027 -1.1978  0.4072
 4761SOL    HW225917   4.724   1.725   2.825  1.5200  1.0880 -1.0655
 4762SOL     OW25918   4.253   0.174   5.309  0.4874 -0.1892 -0.0147
 4762SOL    HW125919   4.264   0.206   5.220  3.0760  0.3862  0.5152
 4762SOL    HW225920   4.189   0.103   5.298  1.5802 -1.5257  2.0692
 4763SOL     OW25921   0.761   3.173  16.140  0.1240 -0.3834  0.6581
 4763SOL    HW125922   0.719   3.259  16.131  0.7039 -0.2030 -0.2511
 4763SOL    HW225923   0.713   3.145  16.218  2.2417  0.4671  2.2697
 4764SOL     OW25924   3.172   3.222   3.551  0.3407 -0.2580  0.3583
 4764SOL    HW125925   3.125   3.139   3.544 -0.9837  0.7556 -2.3469
 4764SOL    HW225926   3.123   3.265   3.621 -3.0586  2.0970 -3.5401
 4765SOL     OW25927   3.391   2.978   5.307 -0.5591 -0.0380  0.6975
 4765SOL    HW125928   3.366   3.055   5.358 -1.8377 -1.4626  2.2120
 4765SOL    HW225929   3.320   2.914   5.301 -0.0858 -0.7727  2.8622
 4766SOL     OW25930   0.893   2.658   5.866  0.1731  0.3304  0.4908
 4766SOL    HW125931   0.928   2.683   5.781  1.9803 -3.4519  0.1246
 4766SOL    HW225932   0.912   2.734   5.920  0.8531  0.7507 -0.3436
 4767SOL     OW25933   1.735   4.462  11.240 -0.3528  0.2176  0.2922
 4767SOL    HW125934   1.721   4.427  11.152  1.4655 -1.0369  0.5128
 4767SOL    HW225935   1.800   4.532  11.231 -2.4906  2.0391 -1.2195
 4768SOL     OW25936   0.889   0.437   8.841 -0.1271 -0.2436  0.5011
 4768SOL    HW125937   0.901   0.427   8.936  2.3205 -1.2783  0.0960
 4768SOL    HW225938   0.796   0.457   8.827  0.6984  2.5487 -1.0751
 4769SOL     OW25939   2.009   1.403   7.340  0.0549  0.1296  0.3281
 4769SOL    HW125940   2.029   1.490   7.375  1.2053 -0.6233  1.5231
 4769SOL    HW225941   2.048   1.346   7.406 -1.3851 -0.3544  0.7655
 4770SOL     OW25942   2.618   3.513   9.953  0.8057  0.5380 -0.1007
 4770SOL    HW125943   2.530   3.533   9.923  0.7602  0.1315 -0.2433
 4770SOL    HW225944   2.590   3.506  10.044  0.0020 -1.8503 -0.5196
 4771SOL     OW25945   3.332   2.760   1.358 -0.0479  0.1113 -0.2207
 4771SOL    HW125946   3.346   2.799   1.445 -1.7911 -2.2297  1.1119
 4771SOL    HW225947   3.369   2.673   1.375 -3.3144 -1.3516 -0.6911
 4772SOL     OW25948   3.121   1.256   0.787 -0.4331 -0.2751 -0.4646
 4772SOL    HW125949   3.194   1.241   0.727  0.4014 -0.6372  0.6411
 4772SOL    HW225950   3.154   1.330   0.837 -2.3304 -0.8952  1.6920
 4773SOL     OW25951   2.940   3.236   5.399 -0.2165 -0.1841  0.0850
 4773SOL    HW125952   2.947   3.266   5.309 -0.8918 -4.3218 -1.3364
 4773SOL    HW225953   2.942   3.320   5.445 -0.2688  1.2737 -2.5775
 4774SOL     OW25954   3.300   0.619   7.651 -0.3230  0.7281  0.3145
 4774SOL    HW125955   3.238   0.587   7.587  0.9911 -0.4967 -0.3473
 4774SOL    HW225956   3.232   0.632   7.716  0.5309  2.1430  0.9363
 4775SOL     OW25957   0.475   3.861   4.023 -0.2292  0.0734 -0.3806
 4775SOL    HW125958   0.548   3.878   3.963 -0.4822  2.5653  0.0375
 4775SOL    HW225959   0.415   3.926   3.988  0.4702  0.4532 -0.8774
 4776SOL     OW25960   2.818   3.529   0.860  0.5413  0.3044 -0.0647
 4776SOL    HW125961   2.823   3.567   0.948 -1.4576 -0.8444  0.5325
 4776SOL    HW225962   2.740   3.570   0.822  0.0888 -0.0426  0.4967
 4777SOL     OW25963   4.395   4.443   2.959  0.2605  0.3121 -0.2126
 4777SOL    HW125964   4.405   4.410   2.870 -0.7822  1.5652 -0.7909
 4777SOL    HW225965   4.419   4.365   3.008 -1.6909 -0.2646 -0.1915
 4778SOL     OW25966   1.138   4.646   3.209  0.6337  0.2788 -0.0425
 4778SOL    HW125967   1.181   4.729   3.232  0.4904  0.7709 -1.5681
 4778SOL    HW225968   1.126   4.649   3.114 -1.4769  3.0035  0.2865
 4779SOL     OW25969   1.706   3.340   7.108  0.4445 -0.3364  0.0355
 4779SOL    HW125970   1.788   3.365   7.064  0.1521 -0.4211 -0.5622
 4779SOL    HW225971   1.653   3.419   7.098  2.8476  1.5474  2.0118
 4780SOL     OW25972   4.061   4.253   5.691  0.2599 -0.3083  0.0582
 4780SOL    HW125973   4.113   4.329   5.667 -0.2617  0.1721  0.4623
 4780SOL    HW225974   4.123   4.180   5.695  1.1096  0.5641  2.6653
 4781SOL     OW25975   4.568   3.077   2.585 -1.0225 -0.5759  0.4186
 4781SOL    HW125976   4.530   3.165   2.588  0.1922  0.0220 -2.1571
 4781SOL    HW225977   4.519   3.022   2.523 -0.0101  0.7233 -1.5124
 4782SOL     OW25978   1.489   3.489   5.249 -0.1019 -0.4352  0.0640
 4782SOL    HW125979   1.542   3.457   5.176  0.2610  0.1319  0.0769
 4782SOL    HW225980   1.463   3.410   5.296  2.3020 -0.4694  1.3464
 4783SOL     OW25981   1.594   4.562   4.224  0.5208  0.2410  0.0887
 4783SOL    HW125982   1.556   4.624   4.286  0.4146 -2.0445  2.3252
 4783SOL    HW225983   1.625   4.496   4.286 -0.5206  1.9158  2.3881
 4784SOL     OW25984   1.614   0.609   7.881 -0.3076 -0.1369  0.1319
 4784SOL    HW125985   1.631   0.561   7.962 -0.3513 -2.0551 -0.9955
 4784SOL    HW225986   1.539   0.554   7.858 -0.3960 -1.1278  2.7701
 4785SOL     OW25987   1.944   2.393   3.577  0.1056 -0.2809  0.0688
 4785SOL    HW125988   2.022   2.448   3.570 -0.9754  1.1324 -0.8963
 4785SOL    HW225989   1.970   2.320   3.633  0.4844  0.7861  1.2999
 4786SOL     OW25990   0.559   0.816   5.774 -0.4790  0.3025  0.2502
 4786SOL    HW125991   0.550   0.910   5.787 -0.8071  0.2565  0.3604
 4786SOL    HW225992   0.503   0.771   5.838 -0.6995  1.6659  1.0157
 4787SOL     OW25993   4.303   0.558   3.481 -0.2174 -0.7506  0.3501
 4787SOL    HW125994   4.290   0.506   3.559  2.4163 -0.8024  0.7626
 4787SOL    HW225995   4.298   0.646   3.519  3.2844 -0.2194 -0.3721
 4788SOL     OW25996   3.613   2.631   8.679  0.0768 -0.2626  0.0443
 4788SOL    HW125997   3.610   2.709   8.734 -0.5508  1.2500 -2.1876
 4788SOL    HW225998   3.550   2.569   8.717  0.0183  0.7692  1.6608
 4789SOL     OW25999   0.414   3.049   4.262  0.1070 -0.4712  0.6883
 4789SOL    HW126000   0.411   3.135   4.305  0.5755 -1.3382  2.4484
 4789SOL    HW226001   0.481   3.051   4.193 -1.2987  0.9516 -0.6290
 4790SOL     OW26002   1.547   1.629   8.446  0.2809  0.3436  0.6554
 4790SOL    HW126003   1.538   1.597   8.357 -1.5148 -0.3628  1.1008
 4790SOL    HW226004   1.638   1.659   8.443  0.8464 -1.1970  2.3733
 4791SOL     OW26005   1.467   1.043  12.080 -0.7334  0.5212  0.2359
 4791SOL    HW126006   1.480   1.060  12.173 -1.5670  1.3395  0.2055
 4791SOL    HW226007   1.391   1.101  12.069  0.0802  1.8110  1.5785
 4792SOL     OW26008   1.679   1.501  11.736 -0.2680 -0.1284  0.3737
 4792SOL    HW126009   1.716   1.533  11.818 -0.6497  1.3271 -0.0334
 4792SOL    HW226010   1.715   1.568  11.679  2.0270 -1.4717  0.2835
 4793SOL     OW26011   0.825   2.021   1.239  0.8494 -0.7944  0.3595
 4793SOL    HW126012   0.905   2.042   1.193  0.5622 -0.5677 -0.0318
 4793SOL    HW226013   0.825   1.926   1.252  2.4863 -0.9392 -0.8020
 4794SOL     OW26014   0.226   0.455  16.849 -0.5796 -0.3196 -0.2223
 4794SOL    HW126015   0.214   0.361  16.861  1.1398 -0.6320 -1.0040
 4794SOL    HW226016   0.237   0.479  16.941  1.4746  1.1148 -0.8525
 4795SOL     OW26017   2.509   3.083   7.982  0.3111  0.5809 -0.8379
 4795SOL    HW126018   2.450   3.148   7.944 -0.5922 -0.4389 -1.1401
 4795SOL    HW226019   2.585   3.135   8.010  0.6699 -0.1370 -0.4815
 4796SOL     OW26020   0.857   0.829   5.680 -0.5078 -0.0578 -0.3887
 4796SOL    HW126021   0.766   0.802   5.690 -0.3187 -0.3072  0.7064
 4796SOL    HW226022   0.851   0.925   5.679  0.7748  0.0631  1.7481
 4797SOL     OW26023   2.054   2.704   5.826 -0.2610 -0.0332  0.2643
 4797SOL    HW126024   2.000   2.657   5.889  1.0743 -0.1241  1.3408
 4797SOL    HW226025   2.060   2.788   5.871  3.2109 -0.4052  0.5074
 4798SOL     OW26026   1.884   1.121   2.050  0.5328 -0.1308  0.0056
 4798SOL    HW126027   1.891   1.176   2.128  0.3703 -0.1476  0.0321
 4798SOL    HW226028   1.976   1.126   2.025  0.3979 -0.1040 -0.4732
 4799SOL     OW26029   2.571   2.699   3.857  0.6093 -0.3218 -0.0656
 4799SOL    HW126030   2.502   2.634   3.872  0.3484  0.5281  2.3290
 4799SOL    HW226031   2.650   2.650   3.878  0.1762 -0.7021  0.6610
 4800SOL     OW26032   1.190   2.078  12.619  0.4760 -0.6874  0.1596
 4800SOL    HW126033   1.196   2.174  12.615  1.8950 -0.8195 -0.8563
 4800SOL    HW226034   1.190   2.054  12.526  0.0419  2.5206 -0.6913
 4801SOL     OW26035   1.585   3.705   6.213 -0.1803 -0.2296  0.3501
 4801SOL    HW126036   1.633   3.717   6.132 -0.5569  2.3212  0.5131
 4801SOL    HW226037   1.654   3.667   6.268  0.2702  0.3336  0.1721
 4802SOL     OW26038   3.397   2.417  15.399 -0.3597 -0.3165 -0.2151
 4802SOL    HW126039   3.464   2.482  15.376 -1.5987  0.1124 -2.6579
 4802SOL    HW226040   3.327   2.454  15.345 -0.4026  1.9241  1.3583
 4803SOL     OW26041   1.760   2.482   7.335 -0.2149  0.2415  0.1975
 4803SOL    HW126042   1.736   2.531   7.257 -0.1454  2.8007  1.7629
 4803SOL    HW226043   1.837   2.533   7.360 -0.5572 -0.0044  1.7895
 4804SOL     OW26044   4.252   2.986   1.003 -0.0106  0.2737  0.0438
 4804SOL    HW126045   4.306   3.062   1.026 -0.4828  0.3721  0.8255
 4804SOL    HW226046   4.322   2.922   0.990  0.9098  1.1066  0.8928
 4805SOL     OW26047   2.139   1.597   4.053  0.3241  0.0215 -0.2989
 4805SOL    HW126048   2.114   1.587   3.961  1.0200  0.4392 -0.5291
 4805SOL    HW226049   2.055   1.573   4.092 -0.0331 -0.5631 -1.4119
 4806SOL     OW26050   0.882   4.712   8.376 -0.1568 -0.3680 -0.3786
 4806SOL    HW126051   0.939   4.691   8.302  2.1028 -2.0880  1.8443
 4806SOL    HW226052   0.932   4.716   8.457  0.0309  0.1091 -0.5204
 4807SOL     OW26053   0.934   2.154  12.339 -0.0572 -0.1561  0.3288
 4807SOL    HW126054   0.901   2.225  12.394 -0.3698  0.1809 -0.2935
 4807SOL    HW226055   0.866   2.088  12.355  0.2109  0.1971  3.0512
 4808SOL     OW26056   3.201   4.430  11.267 -0.3674 -0.1236  0.8570
 4808SOL    HW126057   3.144   4.503  11.293 -1.7554 -1.0251  0.3826
 4808SOL    HW226058   3.162   4.415  11.180  2.7955 -0.1761 -0.5338
 4809SOL     OW26059   3.645   1.556   3.374 -0.0996 -0.3087  0.0869
 4809SOL    HW126060   3.710   1.577   3.306 -0.1242  0.8799  0.4290
 4809SOL    HW226061   3.673   1.467   3.396 -2.0844 -0.4759  1.8512
 4810SOL     OW26062   0.744   3.613   8.209 -0.7182 -0.2204 -0.1311
 4810SOL    HW126063   0.728   3.679   8.276  1.6694  0.0259  0.1981
 4810SOL    HW226064   0.658   3.595   8.170 -0.5807 -0.7324 -0.1990
 4811SOL     OW26065   4.255   3.540  11.948 -0.1425 -0.1329 -0.1901
 4811SOL    HW126066   4.256   3.487  11.868 -0.1409 -0.1554 -0.1747
 4811SOL    HW226067   4.269   3.472  12.013 -1.2715  1.0053  1.2573
 4812SOL     OW26068   3.590   0.200   3.970  0.3170 -0.2667 -0.4302
 4812SOL    HW126069   3.613   0.235   4.056 -1.7817  0.2690 -0.0816
 4812SOL    HW226070   3.626   0.112   3.965 -0.4592 -0.6274  0.4240
 4813SOL     OW26071   2.304   1.399  17.298  0.2019  0.5986  0.3159
 4813SOL    HW126072   2.321   1.493  17.307  3.0223  0.1109  0.0402
 4813SOL    HW226073   2.213   1.395  17.328  1.0065 -1.4063  2.4694
 4814SOL     OW26074   2.279   3.364   4.101 -0.1714  0.4555 -0.2595
 4814SOL    HW126075   2.268   3.427   4.173 -1.3781  2.8718 -2.5406
 4814SOL    HW226076   2.212   3.297   4.116  1.1517 -0.8288 -0.0782
 4815SOL     OW26077   1.325   2.323   8.957  0.1749 -0.4585  0.7291
 4815SOL    HW126078   1.334   2.375   8.878 -0.9555 -1.5896 -0.1425
 4815SOL    HW226079   1.392   2.371   9.005 -2.1919  0.6571  2.9241
 4816SOL     OW26080   4.268   3.245   2.532 -0.2930 -0.1744  0.1560
 4816SOL    HW126081   4.247   3.220   2.622  1.0056 -0.7172  0.3068
 4816SOL    HW226082   4.351   3.291   2.539  0.2509 -1.1843  0.4002
 4817SOL     OW26083   2.577   2.108   2.779 -0.2747 -0.5009 -0.1753
 4817SOL    HW126084   2.577   2.082   2.871 -0.9366  0.2333  0.0347
 4817SOL    HW226085   2.656   2.162   2.776 -0.1708 -0.5401  1.7750
 4818SOL     OW26086   3.240   0.524   5.346  0.0900  0.1061  0.3057
 4818SOL    HW126087   3.312   0.571   5.388  1.2287 -2.7140  1.5599
 4818SOL    HW226088   3.164   0.543   5.401 -0.0656  1.0374 -0.2475
 4819SOL     OW26089   0.504   0.945  10.769 -0.0298  0.1940 -0.2746
 4819SOL    HW126090   0.504   1.011  10.700  2.3515 -0.4488 -0.8655
 4819SOL    HW226091   0.438   0.979  10.830  1.1123  1.0974  0.4473
 4820SOL     OW26092   1.898   1.307   2.232  0.1566 -1.0345 -0.3779
 4820SOL    HW126093   1.899   1.246   2.306 -0.7571 -1.4865 -0.7433
 4820SOL    HW226094   1.954   1.378   2.263 -0.7034 -0.9299  0.9598
 4821SOL     OW26095   2.046   3.418   4.350 -0.7560 -0.2021  0.3523
 4821SOL    HW126096   2.010   3.333   4.377 -0.8109  0.4278  2.2590
 4821SOL    HW226097   2.136   3.409   4.383 -0.4451 -3.4075 -1.3237
 4822SOL     OW26098   0.492   1.266   4.052  0.0231  0.1844  0.2610
 4822SOL    HW126099   0.419   1.241   4.110  0.8003 -2.2057  0.1875
 4822SOL    HW226100   0.525   1.341   4.102  0.2778  0.3590 -0.1727
 4823SOL     OW26101   3.991   0.723   6.478  0.2652 -0.1309  0.2205
 4823SOL    HW126102   3.992   0.644   6.425  1.0678 -0.1738  0.3001
 4823SOL    HW226103   3.961   0.789   6.416 -1.1077 -0.5483  0.4424
 4824SOL     OW26104   4.018   2.252  14.646  0.2520 -0.1675 -0.0311
 4824SOL    HW126105   3.955   2.302  14.594 -0.1642  0.5411  1.1733
 4824SOL    HW226106   3.975   2.166  14.652 -0.6016  0.3739  1.4058
 4825SOL     OW26107   3.682   2.051  16.580 -0.1845  0.6890 -0.2415
 4825SOL    HW126108   3.760   2.008  16.545  0.3087  0.3228  1.3137
 4825SOL    HW226109   3.729   2.125  16.619  0.4658  0.0268  0.2191
 4826SOL     OW26110   0.673   0.446   3.842 -0.4224  0.4941  0.1930
 4826SOL    HW126111   0.618   0.378   3.802 -1.6127  0.6796  1.4951
 4826SOL    HW226112   0.716   0.486   3.767  1.4601 -2.9160 -0.5441
 4827SOL     OW26113   3.636   1.193   3.736  0.4506  0.2497 -0.2877
 4827SOL    HW126114   3.544   1.208   3.757 -0.2111 -1.7133 -1.7233
 4827SOL    HW226115   3.653   1.109   3.780  2.6784 -0.0551 -1.7294
 4828SOL     OW26116   0.081   2.570  15.336 -0.6412  0.0845  0.4140
 4828SOL    HW126117   0.028   2.547  15.413 -3.0338 -0.5329 -1.4331
 4828SOL    HW226118   0.165   2.542  15.374 -0.0114  1.4247 -0.0098
 4829SOL     OW26119   2.652   3.448   8.765  0.0506  0.3271  0.1795
 4829SOL    HW126120   2.742   3.482   8.774  0.0507 -0.4528  3.2562
 4829SOL    HW226121   2.611   3.511   8.824  3.1673  0.3211  2.4169
 4830SOL     OW26122   2.420   4.737   5.588 -0.0900 -0.3250  0.3012
 4830SOL    HW126123   2.478   0.001   5.512 -0.3899  1.9447  0.1506
 4830SOL    HW226124   2.340   4.721   5.538  0.2908  0.9499 -0.7149
 4831SOL     OW26125   0.762   0.552   4.994 -0.6212 -0.1569  0.3170
 4831SOL    HW126126   0.673   0.568   5.026 -0.7962  0.0974 -0.2915
 4831SOL    HW226127   0.758   0.461   4.964 -1.6393  0.4574 -1.4062
 4832SOL     OW26128   3.018   3.832  14.915 -0.7511  0.5165  0.5920
 4832SOL    HW126129   3.094   3.791  14.959 -0.1098  2.1367  0.9806
 4832SOL    HW226130   3.041   3.793  14.830 -1.1490 -1.3668  1.3520
 4833SOL     OW26131   0.974   3.272   7.970 -0.1562  0.1696  0.3789
 4833SOL    HW126132   0.929   3.187   7.971 -2.6611  1.4828 -2.2572
 4833SOL    HW226133   0.997   3.292   8.061 -0.2780  0.8940  0.2478
 4834SOL     OW26134   0.924   3.251   9.166 -0.5123  0.1562 -0.2507
 4834SOL    HW126135   0.880   3.229   9.248  1.4682 -0.7658  0.5974
 4834SOL    HW226136   1.011   3.275   9.198 -0.3728 -1.0165  0.2484
 4835SOL     OW26137   0.821   4.241  11.602  0.4502  0.5037  0.0910
 4835SOL    HW126138   0.800   4.293  11.679 -0.3415  0.3780 -0.0468
 4835SOL    HW226139   0.855   4.315  11.550 -0.8480  1.2467  0.3170
 4836SOL     OW26140   2.522   2.443   0.446  0.7755  0.6390 -0.2480
 4836SOL    HW126141   2.491   2.396   0.523  0.4901  0.6489 -0.3565
 4836SOL    HW226142   2.452   2.508   0.437  0.3616 -0.0884 -2.4260
 4837SOL     OW26143   1.611   3.456   6.451 -0.0039  0.0773 -0.6875
 4837SOL    HW126144   1.679   3.394   6.422 -0.9305 -0.7560 -1.0651
 4837SOL    HW226145   1.573   3.406   6.524  1.8472 -1.5102 -0.8155
 4838SOL     OW26146   0.731   1.190  15.036 -0.1250 -0.5237  0.4948
 4838SOL    HW126147   0.785   1.185  14.957  1.7899  0.5400  1.7470
 4838SOL    HW226148   0.753   1.275  15.072  1.6588 -0.3630 -0.9872
 4839SOL     OW26149   4.196   1.289   4.292 -0.2942 -0.8263  0.3342
 4839SOL    HW126150   4.276   1.340   4.276 -0.7699 -0.5722 -1.2397
 4839SOL    HW226151   4.177   1.332   4.375  0.1112  1.2231 -0.6366
 4840SOL     OW26152   2.285   3.682   0.030  0.4687 -0.4713 -0.1703
 4840SOL    HW126153   2.296   3.591   0.058 -0.8956 -0.9909 -1.3403
 4840SOL    HW226154   2.191   3.678   0.016 -0.1016  1.2966  3.1556
 4841SOL     OW26155   3.342   3.776   5.789  0.2361  0.3250  0.2162
 4841SOL    HW126156   3.416   3.725   5.754 -1.0065 -1.8082  0.6631
 4841SOL    HW226157   3.321   3.844   5.725  0.2841  0.0400 -0.1013
 4842SOL     OW26158   0.317   1.078   7.896  0.1058  0.8743  0.1442
 4842SOL    HW126159   0.280   1.009   7.952  0.6005  1.4947  1.2533
 4842SOL    HW226160   0.264   1.062   7.819 -1.2352 -1.1159  1.4651
 4843SOL     OW26161   4.174   4.001   8.143 -0.2124  0.5782 -0.2749
 4843SOL    HW126162   4.150   4.089   8.170  2.7070  1.5327 -0.6974
 4843SOL    HW226163   4.117   3.940   8.189 -0.6914  0.0858 -1.5185
 4844SOL     OW26164   2.254   4.425   8.834  0.6607  0.4758  0.0783
 4844SOL    HW126165   2.322   4.463   8.779  1.5547  0.5088  1.2064
 4844SOL    HW226166   2.181   4.423   8.772  0.1037 -0.8162  0.7835
 4845SOL     OW26167   4.278   1.847   7.997  0.3077  0.1965 -0.2058
 4845SOL    HW126168   4.371   1.825   7.992  0.4444  1.4681 -3.1525
 4845SOL    HW226169   4.230   1.766   7.981  0.1652  0.0246  1.0967
 4846SOL     OW26170   1.263   1.795  13.882 -0.4636 -0.0938  0.0677
 4846SOL    HW126171   1.235   1.876  13.924 -1.3025 -1.4434  2.0706
 4846SOL    HW226172   1.249   1.742  13.960 -0.3405  0.9276  0.7857
 4847SOL     OW26173   2.978   4.342   7.832 -0.0942 -0.2915  0.1197
 4847SOL    HW126174   3.066   4.373   7.853 -0.9877  1.2393  1.6359
 4847SOL    HW226175   2.939   4.333   7.919  0.3979 -0.8442  0.2813
 4848SOL     OW26176   3.418   3.681   2.563 -0.1423 -0.3443 -0.1014
 4848SOL    HW126177   3.413   3.776   2.568 -0.2828 -0.3017 -1.1091
 4848SOL    HW226178   3.440   3.659   2.653 -3.1012 -1.0914  0.4345
 4849SOL     OW26179   2.188   3.605   6.808 -0.0933 -0.2944 -0.0487
 4849SOL    HW126180   2.152   3.533   6.756 -0.1348  1.1303 -2.0118
 4849SOL    HW226181   2.269   3.564   6.837  1.3273  2.7748  0.2845
 4850SOL     OW26182   0.077   0.291   6.394 -0.2074  0.5307  0.1947
 4850SOL    HW126183   0.002   0.233   6.407  1.7514 -1.4977  2.4950
 4850SOL    HW226184   0.098   0.295   6.487 -1.3583  0.6618  0.4415
 4851SOL     OW26185   2.825   0.060   5.143  0.4792  0.0579  0.0989
 4851SOL    HW126186   2.803   4.731   5.207  0.5353 -0.2275 -0.1856
 4851SOL    HW226187   2.796   0.139   5.188 -0.6258 -1.1292  1.4953
 4852SOL     OW26188   0.840   3.946   2.802  0.0821 -0.0659 -0.2221
 4852SOL    HW126189   0.908   3.887   2.835 -0.1656 -1.1786 -1.6621
 4852SOL    HW226190   0.762   3.905   2.839  1.1986 -0.3113  1.8596
 4853SOL     OW26191   1.519   1.739   6.082 -0.2886  0.3442 -0.1298
 4853SOL    HW126192   1.538   1.831   6.064 -3.5085  1.1353  0.5323
 4853SOL    HW226193   1.583   1.689   6.032 -0.3412 -1.0224  1.1550
 4854SOL     OW26194   0.957   3.274   3.442  0.0791 -0.3897  0.3941
 4854SOL    HW126195   0.891   3.275   3.512 -1.3151  1.8865 -0.9717
 4854SOL    HW226196   0.941   3.185   3.411 -0.4178 -0.4558  0.8436
 4855SOL     OW26197   4.704   3.451   8.613 -0.0980  0.1368  0.1825
 4855SOL    HW126198   4.659   3.369   8.632 -1.5830  1.2220  1.2997
 4855SOL    HW226199   4.714   3.453   8.518 -3.7580 -0.7176 -0.2152
 4856SOL     OW26200   1.460   3.333   2.882 -0.5731  0.0863 -0.0244
 4856SOL    HW126201   1.492   3.264   2.941 -2.6229  0.0284  1.0172
 4856SOL    HW226202   1.368   3.328   2.908 -0.8852 -0.4328 -1.2257
 4857SOL     OW26203   2.571   4.292   6.062 -0.2073  0.4713  0.4793
 4857SOL    HW126204   2.480   4.303   6.090 -0.2094  2.3722 -0.2324
 4857SOL    HW226205   2.618   4.291   6.146  1.4538  1.3768 -0.4411
 4858SOL     OW26206   2.540   0.206   4.901 -0.1691  0.4242 -0.0238
 4858SOL    HW126207   2.461   0.256   4.921 -2.2879 -2.9798 -0.0095
 4858SOL    HW226208   2.604   0.257   4.952 -0.5416  0.3992  0.4628
 4859SOL     OW26209   1.410   0.996  14.065 -0.3171 -0.5777  0.2398
 4859SOL    HW126210   1.476   0.929  14.048  0.4485 -0.0232  0.9721
 4859SOL    HW226211   1.465   1.036  14.133  1.2056  1.6720 -2.3108
 4860SOL     OW26212   3.069   3.894   3.853 -0.5780  0.1266  0.0048
 4860SOL    HW126213   3.159   3.906   3.881 -1.3779 -0.1576  2.7032
 4860SOL    HW226214   3.057   3.971   3.798  1.0107 -0.5173 -1.2293
 4861SOL     OW26215   3.240   2.777   9.241 -0.7801  0.4187 -0.7535
 4861SOL    HW126216   3.323   2.771   9.195 -0.9353 -0.2451 -0.9515
 4861SOL    HW226217   3.234   2.858   9.292 -1.0284 -1.6344  2.5233
 4862SOL     OW26218   2.650   0.493   8.414 -0.2602 -0.3249  0.3043
 4862SOL    HW126219   2.659   0.502   8.319  2.9209  1.8596  0.8227
 4862SOL    HW226220   2.623   0.582   8.438  1.8101 -0.1744  1.9700
 4863SOL     OW26221   3.773   0.065   9.290 -0.5374 -0.2323 -0.4002
 4863SOL    HW126222   3.747   0.060   9.382 -0.7994  1.3605 -0.3787
 4863SOL    HW226223   3.818   4.722   9.270  1.2267  0.8934 -1.0469
 4864SOL     OW26224   3.123   0.097  10.850  0.7111 -0.0895 -0.3603
 4864SOL    HW126225   3.031   0.102  10.877  1.5114 -0.1032  2.4196
 4864SOL    HW226226   3.141   0.191  10.841  0.0641  0.0735  0.0440
 4865SOL     OW26227   4.670   2.870   5.244 -0.2595 -0.0622 -0.4201
 4865SOL    HW126228   4.661   2.955   5.200  2.0204  1.6724  2.4752
 4865SOL    HW226229   4.733   2.828   5.185 -2.3884  0.2170 -2.9110
 4866SOL     OW26230   0.480   1.180  13.618  0.2008  0.3634 -0.1176
 4866SOL    HW126231   0.444   1.185  13.706  2.1700  2.5228  0.5489
 4866SOL    HW226232   0.453   1.264  13.581  0.0284  0.2762 -0.1869
 4867SOL     OW26233   1.039   1.093  11.349  0.6432 -0.3650  0.2003
 4867SOL    HW126234   1.122   1.098  11.395  0.1427 -1.3207  1.1900
 4867SOL    HW226235   1.032   0.998  11.358  1.0193 -0.2667  1.5262
 4868SOL     OW26236   3.914   2.598  17.654 -0.0082 -0.1422 -0.0560
 4868SOL    HW126237   3.966   2.664  17.608 -1.2063  1.0040  0.2164
 4868SOL    HW226238   3.975   2.577  17.725  1.1834  0.5069 -0.8938
 4869SOL     OW26239   2.771   3.374  11.218  0.2602  0.0393 -0.2473
 4869SOL    HW126240   2.701   3.419  11.170  0.8001 -1.8898 -2.8722
 4869SOL    HW226241   2.715   3.344  11.289 -0.5937 -0.2677 -1.0389
 4870SOL     OW26242   2.995   2.978  17.570 -0.2270 -0.2388  0.5888
 4870SOL    HW126243   2.950   2.894  17.581 -1.1332  0.0395 -0.9233
 4870SOL    HW226244   3.080   2.960  17.610 -0.2485 -1.1163  0.2460
 4871SOL     OW26245   1.685   0.380   3.490 -0.6696  0.0784  0.4583
 4871SOL    HW126246   1.701   0.466   3.528 -0.2827 -0.4109  1.4008
 4871SOL    HW226247   1.775   0.361   3.466 -1.0422  2.1867 -2.5872
 4872SOL     OW26248   4.498   2.473  16.350  0.2205  0.3624 -0.0843
 4872SOL    HW126249   4.469   2.392  16.308 -0.1990 -0.2603  1.3947
 4872SOL    HW226250   4.537   2.443  16.432 -1.9246  1.7129  1.4207
 4873SOL     OW26251   3.352   3.396   1.751  0.0182  0.1523 -0.3442
 4873SOL    HW126252   3.376   3.467   1.811 -1.4666  2.2993 -2.2759
 4873SOL    HW226253   3.437   3.356   1.735 -0.3853 -0.2762 -1.4625
 4874SOL     OW26254   1.016   1.958  16.854 -0.2494 -0.3407 -0.2518
 4874SOL    HW126255   0.980   1.871  16.871  0.3595 -0.0210  2.6644
 4874SOL    HW226256   1.097   1.953  16.904 -1.0774 -1.0820  1.0407
 4875SOL     OW26257   1.162   4.287  11.442 -0.6285 -0.5541 -0.2237
 4875SOL    HW126258   1.149   4.197  11.473 -1.9496  0.2067  1.3403
 4875SOL    HW226259   1.178   4.333  11.524  0.2345 -0.9158 -0.1899
 4876SOL     OW26260   1.614   1.820   0.482 -0.1521  0.5355 -0.3581
 4876SOL    HW126261   1.603   1.835   0.576 -1.3620 -0.8585 -0.2874
 4876SOL    HW226262   1.631   1.726   0.477  1.8323  0.7861  1.5693
 4877SOL     OW26263   3.889   4.295  11.560  0.3449  0.8865 -0.5971
 4877SOL    HW126264   3.958   4.233  11.587  0.2155 -0.6527 -3.8460
 4877SOL    HW226265   3.890   4.360  11.631 -1.0510 -1.8252  1.9120
 4878SOL     OW26266   2.907   0.723   8.605 -0.1198 -0.3957  0.3297
 4878SOL    HW126267   2.953   0.739   8.688  0.7089 -0.9297 -0.0257
 4878SOL    HW226268   2.934   0.803   8.562 -2.7490  0.3642  0.1134
 4879SOL     OW26269   4.734   2.242   7.202  0.2818 -0.1829 -0.0533
 4879SOL    HW126270   4.701   2.260   7.114  0.4588  0.1019 -0.0613
 4879SOL    HW226271   0.078   2.198   7.183  1.6933  2.2723  0.3998
 4880SOL     OW26272   1.911   0.889   8.525  0.5100  0.0880  0.3099
 4880SOL    HW126273   1.984   0.894   8.464 -1.6581 -0.4605 -2.3057
 4880SOL    HW226274   1.887   0.796   8.523  1.0210 -0.1007  2.6325
 4881SOL     OW26275   3.841   3.112   4.901 -0.4438  0.0012 -0.0685
 4881SOL    HW126276   3.891   3.190   4.925 -0.1202  0.1566 -1.2678
 4881SOL    HW226277   3.757   3.148   4.931  0.2662  0.9292  0.7906
 4882SOL     OW26278   2.509   4.490   8.701 -0.2628  0.2415  0.7132
 4882SOL    HW126279   2.548   4.511   8.616 -0.7431  1.6630  0.8489
 4882SOL    HW226280   2.535   4.398   8.702  0.0733  0.3198 -0.1410
 4883SOL     OW26281   4.372   2.631   2.338  0.5182 -0.5105  0.0809
 4883SOL    HW126282   4.374   2.546   2.295  0.3946 -0.4183 -0.1069
 4883SOL    HW226283   4.446   2.623   2.399  1.3663 -0.9157 -0.9904
 4884SOL     OW26284   4.468   1.321   3.285  0.0458 -0.2401 -0.5252
 4884SOL    HW126285   4.531   1.271   3.336  1.3945  1.3544 -0.6157
 4884SOL    HW226286   4.415   1.345   3.361 -0.6659  0.0262 -1.0994
 4885SOL     OW26287   1.855   0.607   8.562  0.2869 -0.1534  0.0845
 4885SOL    HW126288   1.774   0.569   8.594  2.0056 -2.7856  1.3682
 4885SOL    HW226289   1.920   0.580   8.627  1.5255 -0.1140 -1.1419
 4886SOL     OW26290   3.171   0.365  10.856 -0.4268  0.6627 -0.4380
 4886SOL    HW126291   3.190   0.387  10.947  0.8024  1.0941 -0.8025
 4886SOL    HW226292   3.088   0.410  10.843  0.4654  2.3378 -0.3552
 4887SOL     OW26293   0.657   2.340   6.123  0.1391 -0.0625  0.0302
 4887SOL    HW126294   0.671   2.290   6.043  1.4030 -1.6260  1.2268
 4887SOL    HW226295   0.743   2.383   6.118  0.7415 -1.3758 -0.8939
 4888SOL     OW26296   3.614   1.961   7.182 -0.0116 -0.0473  0.1304
 4888SOL    HW126297   3.708   1.978   7.181  0.4177 -2.4679  0.2446
 4888SOL    HW226298   3.604   1.896   7.252  1.7919  0.4023  0.8115
 4889SOL     OW26299   4.265   3.163   6.888 -0.2385  0.3393  0.3106
 4889SOL    HW126300   4.239   3.114   6.966  0.8717 -1.8051 -0.6788
 4889SOL    HW226301   4.205   3.237   6.890 -0.8927 -0.2094  1.0568
 4890SOL     OW26302   1.806   0.940  13.982 -0.4859  0.1050 -0.6232
 4890SOL    HW126303   1.876   0.875  13.980  1.8680  2.5558  0.9032
 4890SOL    HW226304   1.735   0.903  14.034 -1.1281 -1.3753 -2.5497
 4891SOL     OW26305   3.567   0.824   4.269 -0.1964  0.0287  0.1423
 4891SOL    HW126306   3.493   0.812   4.210  0.9827 -1.8489 -0.9584
 4891SOL    HW226307   3.532   0.892   4.327  0.4864 -0.2616  0.8905
 4892SOL     OW26308   4.232   2.485   7.900 -0.1940  0.4403 -0.6385
 4892SOL    HW126309   4.252   2.565   7.948 -0.1326 -0.2801  0.5316
 4892SOL    HW226310   4.279   2.423   7.956 -1.1018 -0.0929 -0.4683
 4893SOL     OW26311   2.007   0.836  14.263 -0.1459 -0.3588 -0.5248
 4893SOL    HW126312   2.002   0.746  14.232 -0.5902 -0.3038 -0.6184
 4893SOL    HW226313   1.921   0.838  14.305 -0.7631 -1.7772 -1.7499
 4894SOL     OW26314   4.641   1.658   1.514  0.7707 -0.2845  0.0026
 4894SOL    HW126315   4.573   1.724   1.529  0.8768 -0.8823  3.0473
 4894SOL    HW226316   4.696   1.685   1.587 -2.1790 -1.2785  2.5821
 4895SOL     OW26317   4.008   1.535   7.468  0.0065 -0.1485  0.5660
 4895SOL    HW126318   3.926   1.572   7.435  2.4552  2.2200 -2.8791
 4895SOL    HW226319   4.072   1.565   7.403 -1.9763 -0.5968 -1.5751
 4896SOL     OW26320   3.196   3.477   5.347  0.1995  0.1398 -0.3123
 4896SOL    HW126321   3.281   3.519   5.355 -2.1678  4.7123  1.0649
 4896SOL    HW226322   3.184   3.474   5.252  0.6564  1.0294 -0.3961
 4897SOL     OW26323   1.940   0.895  10.712 -0.0982 -0.3256  0.1705
 4897SOL    HW126324   2.024   0.898  10.667 -0.4734  1.4255 -0.4158
 4897SOL    HW226325   1.947   0.814  10.763  1.5799  0.3700  1.0591
 4898SOL     OW26326   2.785   1.108   1.933  0.0964  0.5727  0.7362
 4898SOL    HW126327   2.694   1.124   1.909 -0.3932 -1.4486  1.2710
 4898SOL    HW226328   2.774   1.013   1.943  2.6346  0.1392 -0.5081
 4899SOL     OW26329   1.299   2.894   4.075  0.1084  0.0260 -0.0164
 4899SOL    HW126330   1.313   2.842   3.996 -0.0703  2.6240 -1.7785
 4899SOL    HW226331   1.368   2.958   4.090 -0.5169  0.5514  0.6048
 4900SOL     OW26332   1.054   0.148   2.720  0.5109 -0.2126  0.4558
 4900SOL    HW126333   1.099   0.193   2.792 -0.6743 -0.3643  1.2889
 4900SOL    HW226334   1.117   0.089   2.680  1.6938  1.3040  0.0649
 4901SOL     OW26335   4.391   3.798   6.469 -0.1349 -0.1568  0.2459
 4901SOL    HW126336   4.358   3.749   6.544 -1.7549  1.3543  0.5125
 4901SOL    HW226337   4.412   3.887   6.494 -1.3034  1.0628 -2.9941
 4902SOL     OW26338   3.476   1.543   6.730  0.3571  0.2793 -0.4838
 4902SOL    HW126339   3.482   1.552   6.825  2.9660  2.0124 -0.7883
 4902SOL    HW226340   3.565   1.517   6.705  0.1575 -2.2023  1.4964
 4903SOL     OW26341   2.998   1.958   0.978  0.5111 -0.7648  0.0405
 4903SOL    HW126342   2.962   1.874   1.006  1.0070  0.0530  3.1317
 4903SOL    HW226343   2.957   2.021   1.037 -0.6586 -0.3677 -1.2057
 4904SOL     OW26344   1.823   4.449   1.196  0.0616 -0.1888  0.3335
 4904SOL    HW126345   1.901   4.404   1.163  1.9132  0.7293  3.4565
 4904SOL    HW226346   1.854   4.532   1.232 -1.3255  0.4025  0.1485
 4905SOL     OW26347   4.063   4.301   6.640 -0.2117  0.2886 -0.4089
 4905SOL    HW126348   4.135   4.277   6.699 -0.6439  0.5750  0.2371
 4905SOL    HW226349   4.007   4.337   6.709  0.8389 -0.2329  0.7218
 4906SOL     OW26350   1.338   0.386   8.400  0.1513 -0.5046  0.6579
 4906SOL    HW126351   1.281   0.463   8.403  0.3105 -0.4279  1.6540
 4906SOL    HW226352   1.415   0.420   8.355  0.2597  0.1913  1.3618
 4907SOL     OW26353   1.584   1.721   3.086  0.0549 -0.2763  0.2660
 4907SOL    HW126354   1.564   1.760   3.001 -3.2426 -1.6425  0.3955
 4907SOL    HW226355   1.527   1.644   3.093  1.2074 -1.2655 -1.2962
 4908SOL     OW26356   0.175   1.867  15.420 -0.5094  0.4507  0.3774
 4908SOL    HW126357   0.085   1.876  15.388  0.0162  1.5228 -0.7989
 4908SOL    HW226358   0.195   1.805  15.350 -0.5833 -2.8826  3.2956
 4909SOL     OW26359   4.719   3.625   3.187 -0.1612 -0.1426  0.5003
 4909SOL    HW126360   0.018   3.708   3.158  1.4150 -1.0720 -0.0774
 4909SOL    HW226361   0.002   3.629   3.280 -2.2545 -0.3873  1.0148
 4910SOL     OW26362   0.165   2.608   3.902 -0.3343 -0.1121 -0.3998
 4910SOL    HW126363   0.077   2.625   3.935  0.1000  1.1664  0.0965
 4910SOL    HW226364   0.154   2.634   3.811  0.1599 -0.6676 -0.6191
 4911SOL     OW26365   3.499   4.610  16.147 -0.1895 -0.6629 -0.2100
 4911SOL    HW126366   3.539   4.677  16.202 -0.2117 -1.3381  0.6261
 4911SOL    HW226367   3.406   4.630  16.140  0.3899  1.8834 -0.5200
 4912SOL     OW26368   4.035   2.732   8.806  0.7700 -0.3200  0.0886
 4912SOL    HW126369   3.969   2.664   8.790  0.5581 -0.3958  1.3149
 4912SOL    HW226370   4.050   2.717   8.899 -2.3510  2.1982  1.0019
 4913SOL     OW26371   1.488   0.530   3.655  0.0583  0.0790  0.2806
 4913SOL    HW126372   1.453   0.478   3.727 -0.8166 -1.0016 -0.9151
 4913SOL    HW226373   1.583   0.528   3.663  0.1347  2.3486 -0.0671
 4914SOL     OW26374   2.797   3.079   3.345  0.1928  0.1724  0.1075
 4914SOL    HW126375   2.717   3.126   3.322  1.5980  1.9384 -1.1833
 4914SOL    HW226376   2.762   2.995   3.373 -1.5715  0.7869 -0.2850
 4915SOL     OW26377   2.416   2.438   7.997 -0.0183 -0.0963 -0.1127
 4915SOL    HW126378   2.488   2.403   8.050 -0.4672  2.2454  2.0395
 4915SOL    HW226379   2.338   2.420   8.050 -0.4425  0.9030 -0.3924
 4916SOL     OW26380   2.707   0.532   1.892  0.1256 -0.0478 -0.0626
 4916SOL    HW126381   2.796   0.506   1.868  0.2692 -0.3237  0.7710
 4916SOL    HW226382   2.704   0.490   1.978  0.4385  0.4507  0.1971
 4917SOL     OW26383   0.865   0.134   9.791 -0.6434  0.8556 -0.3723
 4917SOL    HW126384   0.849   0.086   9.873  1.0023 -2.3367 -1.9387
 4917SOL    HW226385   0.888   0.063   9.731  1.8809  0.5878  0.9335
 4918SOL     OW26386   2.283   2.264   2.572  0.1528 -0.0666  0.3245
 4918SOL    HW126387   2.259   2.310   2.492 -1.3529  0.8486  1.3008
 4918SOL    HW226388   2.353   2.212   2.533  2.6082  2.8036  0.8975
 4919SOL     OW26389   1.184   3.539  10.915  0.1670 -0.5820  0.2542
 4919SOL    HW126390   1.244   3.508  10.983  0.3971  0.7685  0.6745
 4919SOL    HW226391   1.187   3.633  10.934 -0.0410 -0.2881 -1.1814
 4920SOL     OW26392   3.962   3.586   1.444 -0.3008 -0.0648 -0.1036
 4920SOL    HW126393   3.870   3.581   1.469 -0.1534  0.2378  0.5092
 4920SOL    HW226394   4.009   3.596   1.527  1.7641  1.4244 -1.4248
 4921SOL     OW26395   4.380   0.325  10.027  0.4800  0.2094  0.4829
 4921SOL    HW126396   4.391   0.391   9.959  2.6445  1.6026  2.1901
 4921SOL    HW226397   4.360   0.381  10.102 -2.8970  0.2580 -0.4526
 4922SOL     OW26398   1.265   1.914   4.611  0.6273  0.5295  0.0567
 4922SOL    HW126399   1.292   1.843   4.670 -1.2129  1.0707  1.5360
 4922SOL    HW226400   1.173   1.888   4.608  0.5744  1.0132 -2.4178
 4923SOL     OW26401   1.335   3.397  12.811 -0.2292 -0.0459  0.5152
 4923SOL    HW126402   1.299   3.423  12.727  1.9403  1.3057  0.0201
 4923SOL    HW226403   1.396   3.331  12.778 -0.3901  0.3121 -0.4821
 4924SOL     OW26404   0.791   0.986  11.077 -0.3190  0.4249 -0.2565
 4924SOL    HW126405   0.843   0.913  11.113  1.0317  1.0114 -0.9998
 4924SOL    HW226406   0.750   0.954  10.997  0.4732 -1.6575  0.1744
 4925SOL     OW26407   3.138   2.169   7.889  0.8756  0.1784  0.0061
 4925SOL    HW126408   3.211   2.190   7.829  0.8059 -2.8195 -1.1094
 4925SOL    HW226409   3.086   2.239   7.849 -0.3009 -0.5727  0.2543
 4926SOL     OW26410   3.413   0.387   7.743  0.3173  0.0236 -0.4750
 4926SOL    HW126411   3.379   0.468   7.707  1.5315  0.5710 -0.3926
 4926SOL    HW226412   3.436   0.426   7.828  0.8566 -1.4629  0.0679
 4927SOL     OW26413   1.120   2.020   3.382 -0.5202  0.3901 -0.0381
 4927SOL    HW126414   1.152   2.031   3.292 -1.9963 -0.4610 -0.6739
 4927SOL    HW226415   1.178   1.958   3.425  0.6599  0.9998 -0.7462
 4928SOL     OW26416   1.105   3.967   7.251  0.1987 -0.1077 -0.1091
 4928SOL    HW126417   1.161   4.036   7.286 -1.2198  2.8053 -3.5385
 4928SOL    HW226418   1.057   4.007   7.178  0.0014  1.4180  0.8451
 4929SOL     OW26419   0.150   3.155   4.984  0.1800 -0.9889 -0.0149
 4929SOL    HW126420   0.089   3.206   5.038  0.3365  0.3387 -1.1130
 4929SOL    HW226421   0.086   3.108   4.930 -0.0537 -0.9161  0.1935
 4930SOL     OW26422   1.545   3.126   8.758  0.3528 -0.5251  0.3074
 4930SOL    HW126423   1.523   3.206   8.712 -0.1188 -0.5975  0.4026
 4930SOL    HW226424   1.598   3.152   8.833 -0.0338  0.3210  0.2890
 4931SOL     OW26425   2.663   2.088   1.248  0.5204  0.2560 -0.0751
 4931SOL    HW126426   2.582   2.078   1.199  0.8547  0.0483 -0.5819
 4931SOL    HW226427   2.622   2.093   1.335  0.5051  1.4243 -0.1588
 4932SOL     OW26428   3.893   1.023  11.099  0.0897  0.1933 -0.4740
 4932SOL    HW126429   3.963   1.085  11.078  0.4884 -1.0231 -2.8179
 4932SOL    HW226430   3.830   1.088  11.131  1.8283  1.0882  1.1328
 4933SOL     OW26431   2.893   1.161   3.198  0.1215  0.4726 -0.6324
 4933SOL    HW126432   2.806   1.123   3.189  0.9046 -1.0659 -1.8251
 4933SOL    HW226433   2.878   1.192   3.287  0.1002 -0.1272 -0.4275
 4934SOL     OW26434   0.398   1.702  16.076 -0.3275 -0.5643 -0.2380
 4934SOL    HW126435   0.381   1.761  16.149  1.5706  0.2896 -0.4960
 4934SOL    HW226436   0.489   1.725  16.057 -0.4761  0.0824 -0.1680
 4935SOL     OW26437   4.356   3.171  16.861  0.5837 -0.0232 -0.4553
 4935SOL    HW126438   4.293   3.220  16.914  0.3513  1.0215 -1.6944
 4935SOL    HW226439   4.301   3.164  16.783  1.3350  0.3931 -1.0183
 4936SOL     OW26440   3.903   0.471   5.902  0.6655  0.2363 -0.3327
 4936SOL    HW126441   3.971   0.405   5.918  1.7141  1.5250  0.4707
 4936SOL    HW226442   3.904   0.454   5.808  3.1230 -2.0202  0.1094
 4937SOL     OW26443   2.106   3.097   0.082 -0.0561  0.3976  0.2918
 4937SOL    HW126444   2.049   3.061   0.014 -0.5714  1.5763  0.0940
 4937SOL    HW226445   2.180   3.119   0.024 -0.3414 -0.5260 -0.4273
 4938SOL     OW26446   3.921   3.560  16.944  0.1321  0.5208  0.0803
 4938SOL    HW126447   3.836   3.522  16.967 -0.6639  2.4829  0.3712
 4938SOL    HW226448   3.972   3.544  17.023  0.8086 -0.3567 -0.5254
 4939SOL     OW26449   2.489   4.511   2.388 -0.7048  0.2822  0.2854
 4939SOL    HW126450   2.481   4.563   2.468  2.7866  0.3028  0.5961
 4939SOL    HW226451   2.399   4.476   2.385 -0.3518 -0.4875 -1.5318
 4940SOL     OW26452   2.948   3.516   7.426  0.4087  0.4820  0.2686
 4940SOL    HW126453   2.975   3.470   7.505 -1.3342 -0.5924  0.2351
 4940SOL    HW226454   2.860   3.481   7.416  0.7710 -1.1923  3.0347
 4941SOL     OW26455   3.610   2.456   2.605  0.0195  0.1431  0.5249
 4941SOL    HW126456   3.581   2.402   2.532  0.6804  0.2211  0.2060
 4941SOL    HW226457   3.560   2.423   2.680  0.1143  1.3436  1.1202
 4942SOL     OW26458   1.535   4.308  12.351 -0.1659  0.0961 -0.4116
 4942SOL    HW126459   1.572   4.386  12.309 -0.9742  0.9566  0.4854
 4942SOL    HW226460   1.440   4.309  12.350 -0.1603 -0.4350 -1.7260
 4943SOL     OW26461   2.747   1.749   8.816  0.0720 -0.3793  0.1655
 4943SOL    HW126462   2.790   1.703   8.887 -0.6474  0.3803  1.0930
 4943SOL    HW226463   2.819   1.776   8.759  0.9191 -0.6028  1.1364
 4944SOL     OW26464   4.592   4.667   2.347  0.1860  0.1291 -0.4205
 4944SOL    HW126465   4.653   4.728   2.390  0.6543  0.1129 -1.0621
 4944SOL    HW226466   4.643   4.622   2.280 -0.8851 -1.1576 -0.3569
 4945SOL     OW26467   2.068   2.360   0.625 -0.4289  0.1982 -0.2101
 4945SOL    HW126468   2.055   2.357   0.720  0.1533  1.6617 -0.0882
 4945SOL    HW226469   2.007   2.290   0.602  0.0390 -0.2428 -0.1166
 4946SOL     OW26470   2.621   4.022   7.454  0.2719  0.5164  0.6969
 4946SOL    HW126471   2.632   3.937   7.411 -1.3867  0.3216  0.6301
 4946SOL    HW226472   2.704   4.019   7.501 -0.7238 -0.2863  2.3958
 4947SOL     OW26473   1.525   3.376   3.355  0.0255 -0.8088 -0.3009
 4947SOL    HW126474   1.548   3.367   3.448 -0.4880 -0.4073 -0.1307
 4947SOL    HW226475   1.541   3.470   3.347  2.0969 -1.2037 -0.7737
 4948SOL     OW26476   0.358   1.988  16.223 -0.0240 -0.0771 -0.1130
 4948SOL    HW126477   0.279   1.962  16.269 -2.1969  2.5651 -2.3886
 4948SOL    HW226478   0.411   2.044  16.279  0.1138 -2.5213  2.2033
 4949SOL     OW26479   1.158   3.069   3.841 -0.1856  0.1263  0.0690
 4949SOL    HW126480   1.193   3.156   3.861 -3.3206  0.9668  1.8148
 4949SOL    HW226481   1.237   3.016   3.852  0.7419  0.9301 -2.6569
 4950SOL     OW26482   1.600   3.125   9.656  0.5624 -0.0177 -0.0938
 4950SOL    HW126483   1.616   3.034   9.679 -0.5520 -0.5734 -1.4995
 4950SOL    HW226484   1.678   3.177   9.677 -0.1851  1.3575 -0.6815
 4951SOL     OW26485   2.089   1.988  13.098 -0.8014  0.5030 -0.4605
 4951SOL    HW126486   2.181   1.970  13.081 -0.7847  1.5799 -1.5483
 4951SOL    HW226487   2.075   1.979  13.192  1.1923  1.2372 -0.0875
 4952SOL     OW26488   3.512   0.876  16.191  0.1934  0.8689  0.1793
 4952SOL    HW126489   3.464   0.799  16.163  1.4881  0.7381 -1.6665
 4952SOL    HW226490   3.495   0.879  16.285 -1.5323  0.4644 -0.1335
 4953SOL     OW26491   1.275   3.326   7.170  0.5726  0.4908 -0.2898
 4953SOL    HW126492   1.324   3.378   7.233  1.7464 -0.5864 -0.2975
 4953SOL    HW226493   1.201   3.302   7.225  1.4400 -1.8235 -0.1272
 4954SOL     OW26494   0.754   3.538   6.148 -0.2838  1.1697 -0.0098
 4954SOL    HW126495   0.807   3.618   6.153  0.8529  0.5714 -2.5720
 4954SOL    HW226496   0.713   3.556   6.064  1.0942 -1.5494 -1.2340
 4955SOL     OW26497   0.455   4.322   2.351  0.3568 -0.1124  0.8891
 4955SOL    HW126498   0.471   4.271   2.271  1.3009  1.0644  0.3212
 4955SOL    HW226499   0.540   4.359   2.373  0.9571 -1.2180  0.4342
 4956SOL     OW26500   2.237   1.790   8.384 -0.0600 -0.0934  0.0571
 4956SOL    HW126501   2.266   1.745   8.464  0.7347  1.5185  0.6652
 4956SOL    HW226502   2.166   1.844   8.418 -0.9429 -1.0770 -0.2254
 4957SOL     OW26503   2.539   2.703   7.274  0.0581 -0.6608 -0.6890
 4957SOL    HW126504   2.619   2.657   7.297 -0.6786 -0.5665  2.0062
 4957SOL    HW226505   2.498   2.633   7.224 -0.3217 -1.2004  0.3892
 4958SOL     OW26506   3.522   2.972   4.230  0.3290 -0.1744 -0.2744
 4958SOL    HW126507   3.599   2.976   4.286  0.2066  4.0933 -0.3744
 4958SOL    HW226508   3.503   2.881   4.207  2.3315 -0.5887 -0.3097
 4959SOL     OW26509   1.057   4.701   5.685 -0.1662 -0.2102 -0.0859
 4959SOL    HW126510   0.997   0.028   5.652 -0.0233 -1.4402 -2.7975
 4959SOL    HW226511   1.122   0.006   5.740 -1.0421  2.2184 -1.0261
 4960SOL     OW26512   0.686   0.998   7.410  0.4148 -0.0447 -0.3377
 4960SOL    HW126513   0.650   1.066   7.354  1.4792  0.2306 -0.6952
 4960SOL    HW226514   0.606   0.969   7.453  0.5246  1.3489  0.8238
 4961SOL     OW26515   2.915   4.385   2.233 -0.2171  0.4133 -0.0807
 4961SOL    HW126516   2.829   4.427   2.229 -1.8521 -2.8355  1.4640
 4961SOL    HW226517   2.894   4.304   2.279  0.7216  1.5454  2.3838
 4962SOL     OW26518   4.420   3.164  16.164 -0.6491 -0.1577 -0.1801
 4962SOL    HW126519   4.491   3.100  16.159 -0.1254  0.4936 -0.9596
 4962SOL    HW226520   4.376   3.117  16.234  1.5436 -1.5336  0.2830
 4963SOL     OW26521   1.280   0.414   8.693  0.9036  0.8845  0.6910
 4963SOL    HW126522   1.316   0.402   8.606 -0.7532 -2.4214  0.4510
 4963SOL    HW226523   1.282   0.328   8.736 -1.5011  0.0219 -0.8989
 4964SOL     OW26524   2.268   1.319   6.585 -0.0782  0.0449 -0.0121
 4964SOL    HW126525   2.356   1.297   6.616  0.0920  0.0495 -0.4929
 4964SOL    HW226526   2.289   1.379   6.513 -1.4175  0.2126 -0.2642
 4965SOL     OW26527   4.395   0.946   8.384  0.2265 -0.5647 -0.2449
 4965SOL    HW126528   4.431   0.972   8.300 -0.8389  0.7668 -0.2996
 4965SOL    HW226529   4.474   0.935   8.437 -0.3828 -1.2076  0.5414
 4966SOL     OW26530   4.381   1.486   0.899 -1.0554 -0.0524  0.1241
 4966SOL    HW126531   4.321   1.479   0.825 -0.0818 -1.6333 -0.5180
 4966SOL    HW226532   4.463   1.459   0.858 -0.3555 -2.1163  2.8227
 4967SOL     OW26533   2.746   1.836   7.896  0.0668  0.4283 -0.0030
 4967SOL    HW126534   2.704   1.760   7.938 -0.4332 -0.1462 -1.5337
 4967SOL    HW226535   2.684   1.856   7.827  1.6005 -0.8035 -1.7258
 4968SOL     OW26536   0.890   1.458  11.124  0.4286  0.2903  0.1122
 4968SOL    HW126537   0.922   1.371  11.101 -0.0534  0.2693 -0.4951
 4968SOL    HW226538   0.957   1.506  11.075 -0.2815  1.7292  0.5556
 4969SOL     OW26539   1.408   0.798  16.504 -0.2570 -0.2063  0.2708
 4969SOL    HW126540   1.325   0.757  16.528  0.7084 -2.6473 -0.5224
 4969SOL    HW226541   1.461   0.724  16.472 -1.1431 -0.6003 -0.3019
 4970SOL     OW26542   3.848   1.915   4.699  0.0119  0.2113 -0.0263
 4970SOL    HW126543   3.790   1.842   4.724  1.5321 -1.0542 -0.1839
 4970SOL    HW226544   3.934   1.875   4.709 -0.3538 -0.6951 -0.4845
 4971SOL     OW26545   0.621   1.014   2.007  0.4819 -0.1726  0.8992
 4971SOL    HW126546   0.568   1.002   1.928  1.9019 -1.0334  0.0697
 4971SOL    HW226547   0.587   0.940   2.058  1.2675 -1.8390 -0.9948
 4972SOL     OW26548   1.453   4.129   4.762 -0.2742  0.5685 -0.4010
 4972SOL    HW126549   1.517   4.111   4.831 -0.5931  1.7972  0.2091
 4972SOL    HW226550   1.458   4.224   4.750  0.3667  0.4955 -0.7427
 4973SOL     OW26551   3.125   2.721  13.398 -0.5616  0.2314 -0.6405
 4973SOL    HW126552   3.184   2.654  13.432 -2.0552 -0.9733 -0.4514
 4973SOL    HW226553   3.057   2.702  13.462  0.8436  0.0511  0.7960
 4974SOL     OW26554   3.427   0.567   2.484  0.2646 -0.0605 -0.5413
 4974SOL    HW126555   3.463   0.654   2.466 -1.2313  0.5889 -0.3593
 4974SOL    HW226556   3.418   0.529   2.397  2.9319 -2.5991  0.2786
 4975SOL     OW26557   2.353   3.387   9.051  0.2989 -0.2278 -0.3489
 4975SOL    HW126558   2.325   3.476   9.072 -0.6464 -0.6689  0.2629
 4975SOL    HW226559   2.285   3.341   9.100 -0.0373  1.2137  0.5446
 4976SOL     OW26560   0.994   1.661   3.345 -0.3314 -0.0152 -0.3753
 4976SOL    HW126561   1.024   1.578   3.383  0.4951  1.7450  2.8968
 4976SOL    HW226562   0.954   1.709   3.418 -0.3870 -0.9336  0.2088
 4977SOL     OW26563   1.045   2.639   3.469 -0.3244 -0.6267  0.0537
 4977SOL    HW126564   1.000   2.662   3.388  0.3504 -0.2131 -0.1939
 4977SOL    HW226565   1.001   2.557   3.495  0.7775 -1.3013 -0.1884
 4978SOL     OW26566   0.144   0.726   7.849 -0.0090 -0.2305 -0.1279
 4978SOL    HW126567   0.161   0.667   7.775  1.5498 -1.2546  1.0564
 4978SOL    HW226568   0.128   0.669   7.924 -0.4269  1.6827  1.2184
 4979SOL     OW26569   3.681   4.272   7.485 -0.1238  0.5595  0.5303
 4979SOL    HW126570   3.743   4.327   7.534  0.5632  0.9038 -0.7349
 4979SOL    HW226571   3.600   4.306   7.523 -0.4439  1.7983 -1.2489
 4980SOL     OW26572   4.502   2.788  11.333  0.0995  0.5733  0.1653
 4980SOL    HW126573   4.567   2.725  11.365 -1.0669 -0.1212  1.1738
 4980SOL    HW226574   4.541   2.874  11.347  1.2642  0.1509 -0.4100
 4981SOL     OW26575   0.320   1.386   7.738  0.2185 -0.7297  0.4685
 4981SOL    HW126576   0.398   1.361   7.788 -0.4556 -0.1470  1.8146
 4981SOL    HW226577   0.335   1.346   7.653 -1.2995 -0.8858  0.2851
 4982SOL     OW26578   0.173   4.335   2.922  0.7226 -0.0349 -0.1214
 4982SOL    HW126579   0.244   4.348   2.858  1.0399 -0.9188  0.0465
 4982SOL    HW226580   0.201   4.398   2.988 -1.1246  1.5562 -0.8568
 4983SOL     OW26581   0.362   1.269  13.844 -0.0035  0.0828  0.2140
 4983SOL    HW126582   0.400   1.356  13.843  0.9907 -0.3637 -1.5123
 4983SOL    HW226583   0.275   1.292  13.876 -1.3503 -1.8796 -1.9875
 4984SOL     OW26584   2.384   2.230   2.148 -0.1257  0.0999  0.2554
 4984SOL    HW126585   2.328   2.158   2.119  0.9815 -0.1204 -1.3726
 4984SOL    HW226586   2.320   2.291   2.184 -1.4729 -0.6111 -0.9498
 4985SOL     OW26587   4.138   1.066  16.206  0.1556  0.0698 -0.7017
 4985SOL    HW126588   4.065   1.069  16.144 -1.1878 -1.0964  0.8293
 4985SOL    HW226589   4.105   0.984  16.240 -1.5262  2.1362  2.6246
 4986SOL     OW26590   3.762   1.113   9.867  0.3247  0.0905  0.4291
 4986SOL    HW126591   3.670   1.112   9.895 -0.0020 -1.2587 -0.6935
 4986SOL    HW226592   3.802   1.122   9.953  1.4606 -2.7421  0.1886
 4987SOL     OW26593   2.807   3.625   6.256  0.1086 -0.5782  0.1876
 4987SOL    HW126594   2.872   3.574   6.207  0.8854  0.1232  0.4881
 4987SOL    HW226595   2.780   3.699   6.201  0.5191 -0.8589 -0.3887
 4988SOL     OW26596   3.928   1.030  13.792 -0.4189 -0.1907 -0.2996
 4988SOL    HW126597   3.999   0.985  13.747 -2.9674 -2.5014 -2.0232
 4988SOL    HW226598   3.858   1.006  13.732  0.0436 -2.8366  0.1729
 4989SOL     OW26599   3.007   0.221  13.712  0.3195  0.1360  0.6961
 4989SOL    HW126600   3.016   0.314  13.732  1.8967 -0.4570  2.7272
 4989SOL    HW226601   3.095   0.185  13.701  0.0118 -0.4988  0.3012
 4990SOL     OW26602   3.183   1.344   6.678  0.2138 -0.8426 -0.1398
 4990SOL    HW126603   3.123   1.392   6.735 -0.0594  0.4015 -1.4809
 4990SOL    HW226604   3.139   1.352   6.594  0.5517 -0.5734 -0.2877
 4991SOL     OW26605   2.897   3.548   2.054 -0.0116  0.0336  0.5158
 4991SOL    HW126606   2.885   3.526   2.147  1.4235  2.2676  1.2313
 4991SOL    HW226607   2.979   3.499   2.047  0.2735  0.7015 -0.6563
 4992SOL     OW26608   4.055   3.519  16.706  0.6056  0.6615 -0.3631
 4992SOL    HW126609   4.010   3.528  16.790 -2.7328 -1.5496 -1.9031
 4992SOL    HW226610   4.137   3.496  16.749  0.1355 -3.0999 -1.4589
 4993SOL     OW26611   3.390   0.667  13.965 -0.0015  0.5496 -0.6085
 4993SOL    HW126612   3.376   0.732  14.034  2.7235  0.8146 -0.2807
 4993SOL    HW226613   3.432   0.726  13.903  1.9247 -0.0688  0.1047
 4994SOL     OW26614   1.355   1.796   5.486 -0.4598  0.1615  0.0526
 4994SOL    HW126615   1.326   1.821   5.573 -0.9545  0.8805 -0.3140
 4994SOL    HW226616   1.276   1.783   5.433  0.6108  2.9261 -2.2527
 4995SOL     OW26617   1.682   0.431   7.150 -0.3366  0.0798 -0.3856
 4995SOL    HW126618   1.696   0.347   7.108  2.1463 -0.7350  2.0492
 4995SOL    HW226619   1.762   0.440   7.203 -0.5025  3.4336 -0.7089
 4996SOL     OW26620   3.173   2.065   3.736  0.5014  0.1904 -1.1539
 4996SOL    HW126621   3.098   2.115   3.703 -0.0537  0.2024  0.1402
 4996SOL    HW226622   3.249   2.110   3.698  1.0149 -0.4478 -0.8859
 4997SOL     OW26623   1.479   4.234  12.623 -0.0297 -0.0893  0.0263
 4997SOL    HW126624   1.472   4.329  12.631  0.7081  0.1338 -2.2173
 4997SOL    HW226625   1.494   4.234  12.529 -1.1906 -0.5113 -0.1677
 4998SOL     OW26626   4.303   1.608   1.472 -0.3659  0.2838  0.3766
 4998SOL    HW126627   4.226   1.553   1.459  0.3128 -0.7835  0.8819
 4998SOL    HW226628   4.378   1.557   1.439  0.5451  2.4436 -0.8916
 4999SOL     OW26629   2.611   1.987   6.922 -0.4351 -0.9624 -0.3783
 4999SOL    HW126630   2.520   1.956   6.925 -0.4596 -0.5821  2.4772
 4999SOL    HW226631   2.601   2.082   6.913  1.4264 -1.0151 -3.0922
 5000SOL     OW26632   0.578   2.099   3.818 -0.2935 -0.4598  0.2148
 5000SOL    HW126633   0.663   2.068   3.848 -0.3766 -0.6460  0.2535
 5000SOL    HW226634   0.612   2.158   3.750 -1.7147 -0.9074 -0.8797
 5001SOL     OW26635   1.599   3.724   5.316  0.1445  0.5494 -0.0164
 5001SOL    HW126636   1.565   3.639   5.286  0.6263  1.2841 -2.6214
 5001SOL    HW226637   1.634   3.702   5.402  0.8199  0.4238 -0.3265
 5002SOL     OW26638   0.392   1.890   2.334 -0.0414  0.7496 -0.7389
 5002SOL    HW126639   0.416   1.809   2.289 -2.6151 -0.6981  0.5478
 5002SOL    HW226640   0.302   1.880   2.364  0.3410  1.0866  0.5134
 5003SOL     OW26641   0.701   0.639   6.067  0.0959  0.3429  0.0542
 5003SOL    HW126642   0.698   0.591   5.985 -0.2772 -2.1057  1.4878
 5003SOL    HW226643   0.661   0.571   6.122 -1.8001  0.3878 -1.2639
 5004SOL     OW26644   3.800   3.427   8.460  0.0918 -0.1731  0.4422
 5004SOL    HW126645   3.760   3.346   8.429  0.1165  0.2633 -0.7465
 5004SOL    HW226646   3.746   3.500   8.428  1.1218  0.5944  0.4472
 5005SOL     OW26647   3.505   3.498   8.673 -0.7058  0.0091 -0.0708
 5005SOL    HW126648   3.558   3.488   8.752 -1.9109  3.0736  1.1294
 5005SOL    HW226649   3.506   3.409   8.639 -1.2887  0.9305 -2.5522
 5006SOL     OW26650   1.383   1.940   0.747 -0.1440  0.4315 -0.0644
 5006SOL    HW126651   1.472   1.904   0.743  0.5171  2.2443 -1.3557
 5006SOL    HW226652   1.338   1.875   0.802 -3.5187  1.4832 -1.5643
 5007SOL     OW26653   2.768   3.493   5.279  0.3802  0.5070 -0.5812
 5007SOL    HW126654   2.789   3.534   5.196 -0.6528  0.6152 -0.7883
 5007SOL    HW226655   2.710   3.420   5.256  0.1060  0.4360  0.3009
 5008SOL     OW26656   2.266   4.080  12.079  0.1549 -0.1040  0.4539
 5008SOL    HW126657   2.186   4.057  12.125  0.8380 -0.6830  1.3589
 5008SOL    HW226658   2.234   4.074  11.989 -0.0100 -1.0180  0.5723
 5009SOL     OW26659   3.054   1.744   7.667 -0.0785  0.1131  0.1129
 5009SOL    HW126660   2.983   1.799   7.699  1.1935  0.2605  2.6679
 5009SOL    HW226661   3.024   1.712   7.582  3.2272  0.5751 -1.2381
 5010SOL     OW26662   0.661   0.268  11.312  0.2929 -0.4876  0.5721
 5010SOL    HW126663   0.647   0.325  11.387 -1.1279 -0.7789  0.5321
 5010SOL    HW226664   0.572   0.233  11.320 -0.0129 -0.1641 -1.3055
 5011SOL     OW26665   3.801   2.169   4.919 -0.2103  0.1945  0.3277
 5011SOL    HW126666   3.715   2.129   4.924  0.0077 -0.2471  0.5370
 5011SOL    HW226667   3.797   2.180   4.824  1.6265  1.1790  0.3616
 5012SOL     OW26668   4.105   3.925  14.793  0.1791 -0.6568 -0.2189
 5012SOL    HW126669   4.032   3.925  14.731  0.1639 -3.9737 -0.1787
 5012SOL    HW226670   4.086   3.856  14.857 -1.3214 -0.3768 -0.3500
 5013SOL     OW26671   3.658   0.580   4.237 -0.0163  0.0527 -0.2325
 5013SOL    HW126672   3.630   0.670   4.252 -0.2418  0.2230 -1.6522
 5013SOL    HW226673   3.651   0.577   4.142  0.5946  0.0772 -0.2800
 5014SOL     OW26674   4.490   3.934   8.642  0.4346  0.2028 -0.2890
 5014SOL    HW126675   4.511   4.014   8.593  0.4440 -0.1777 -0.9145
 5014SOL    HW226676   4.466   3.870   8.575 -0.7407 -0.1452  0.4626
 5015SOL     OW26677   0.808   1.502   5.906 -0.0839 -0.1448  0.6266
 5015SOL    HW126678   0.900   1.522   5.890 -0.6914  0.9925 -1.4426
 5015SOL    HW226679   0.820   1.476   5.997 -2.3892 -1.0083  0.6762
 5016SOL     OW26680   4.455   3.287   0.233  0.0100 -0.6192  0.3063
 5016SOL    HW126681   4.361   3.275   0.248  0.1011 -1.3196  0.3415
 5016SOL    HW226682   4.465   3.231   0.156 -0.6544 -2.2257  1.3690
 5017SOL     OW26683   0.690   4.052   3.584 -0.5581 -0.4438  0.5155
 5017SOL    HW126684   0.743   3.972   3.590  0.1016 -0.0098  0.4530
 5017SOL    HW226685   0.607   4.012   3.558 -1.7383  0.4600  2.9232
 5018SOL     OW26686   2.726   0.532   3.801  0.2431 -0.3810  0.1676
 5018SOL    HW126687   2.802   0.475   3.813  1.8658  1.9477  0.9593
 5018SOL    HW226688   2.705   0.509   3.711  2.0512 -0.9055 -0.0957
 5019SOL     OW26689   2.302   0.463   3.807 -0.1258 -0.3019  0.0054
 5019SOL    HW126690   2.244   0.523   3.853  1.6619  1.0055  0.5558
 5019SOL    HW226691   2.377   0.447   3.865  0.1877  0.3530 -0.2156
 5020SOL     OW26692   2.584   1.879  12.736  0.1312 -0.2119  0.0155
 5020SOL    HW126693   2.650   1.847  12.675 -1.1196 -1.3183 -0.7463
 5020SOL    HW226694   2.516   1.812  12.730  0.0371  0.0239 -1.7020
 5021SOL     OW26695   3.834   0.693   4.650  0.3341 -0.0707  0.0100
 5021SOL    HW126696   3.768   0.754   4.680 -0.3488 -0.1768 -1.2661
 5021SOL    HW226697   3.910   0.704   4.707 -0.9224  0.1717  1.6091
 5022SOL     OW26698   1.569   2.721  13.622 -0.2619  0.1963  0.6972
 5022SOL    HW126699   1.510   2.794  13.601 -0.8682 -0.9599 -1.6486
 5022SOL    HW226700   1.634   2.756  13.684  0.3202 -2.4605  1.5613
 5023SOL     OW26701   3.000   4.661   7.277  0.5621  0.3487 -0.7176
 5023SOL    HW126702   3.044   4.719   7.215  0.3078  1.9251  0.5680
 5023SOL    HW226703   2.928   4.629   7.223  0.5517 -0.9454  0.0643
 5024SOL     OW26704   3.543   2.678   2.391  0.3124  0.5212 -0.0033
 5024SOL    HW126705   3.506   2.648   2.308  1.2079 -2.6410  0.7352
 5024SOL    HW226706   3.519   2.605   2.449  2.8281 -0.3736 -0.1009
 5025SOL     OW26707   3.876   3.225   3.966  0.5237  0.5408 -0.3725
 5025SOL    HW126708   3.966   3.242   3.995 -0.2843  2.2280  1.1840
 5025SOL    HW226709   3.847   3.316   3.955  0.4570  0.8410  2.0573
 5026SOL     OW26710   4.598   4.191   2.444  0.2208 -0.5689  0.0479
 5026SOL    HW126711   4.604   4.187   2.348 -1.8544 -0.3622 -0.0898
 5026SOL    HW226712   4.602   4.098   2.466 -3.9780 -0.9568 -0.7369
 5027SOL     OW26713   3.100   3.562   8.929  0.2780  0.5934 -0.3515
 5027SOL    HW126714   3.091   3.555   9.024 -0.4175 -0.9069 -0.5325
 5027SOL    HW226715   3.183   3.609   8.922  0.6058  0.1976  0.9559
 5028SOL     OW26716   1.665   2.040   2.933 -0.1100 -0.4796  0.2863
 5028SOL    HW126717   1.574   2.012   2.926 -0.3197  0.0936  0.7534
 5028SOL    HW226718   1.649   2.110   2.996  0.3361 -0.7340  0.6775
 5029SOL     OW26719   3.668   1.427   5.064 -0.1328 -0.4861  0.0538
 5029SOL    HW126720   3.630   1.366   5.000  0.3484 -0.8835  0.1410
 5029SOL    HW226721   3.681   1.495   4.999  1.0205  0.7424  1.5689
 5030SOL     OW26722   0.685   3.935   6.457 -0.2942 -0.1929 -0.3836
 5030SOL    HW126723   0.777   3.959   6.471 -0.4901 -1.4545  3.1835
 5030SOL    HW226724   0.656   3.894   6.539 -1.5773  0.6103 -0.4539
 5031SOL     OW26725   2.466   4.004   2.232 -0.2191 -0.5204 -0.0839
 5031SOL    HW126726   2.412   3.937   2.273 -0.7917 -0.3069 -0.4879
 5031SOL    HW226727   2.456   4.076   2.294 -0.0376 -0.7015  0.1519
 5032SOL     OW26728   1.966   3.214   6.050 -0.2817  0.1025 -0.5099
 5032SOL    HW126729   2.010   3.131   6.067 -2.6736 -0.5816  2.3569
 5032SOL    HW226730   2.013   3.234   5.969  0.6410  1.2904  0.3228
 5033SOL     OW26731   1.498   1.544  15.823 -0.7489  0.3349  0.2462
 5033SOL    HW126732   1.533   1.522  15.737 -0.3162  3.4127 -0.3811
 5033SOL    HW226733   1.414   1.585  15.800 -0.4924  0.4261 -0.5191
 5034SOL     OW26734   1.459   0.613  16.737  0.2517 -0.0762 -0.2610
 5034SOL    HW126735   1.381   0.664  16.715  0.8908  1.3212  0.7083
 5034SOL    HW226736   1.479   0.571  16.654  0.1064  0.7647 -0.7237
 5035SOL     OW26737   2.142   2.019   2.346 -0.1802 -0.0325 -0.5088
 5035SOL    HW126738   2.099   1.934   2.341 -1.3711  0.5025  0.5306
 5035SOL    HW226739   2.228   1.996   2.380 -1.2717  0.5506  2.5846
 5036SOL     OW26740   0.641   2.733  12.656  0.2934 -0.6122  0.7626
 5036SOL    HW126741   0.702   2.744  12.728  1.4215 -0.4339 -0.2305
 5036SOL    HW226742   0.690   2.710  12.577  0.1397  0.5921  0.3239
 5037SOL     OW26743   0.223   2.065   8.156 -0.1413 -0.1762 -0.1411
 5037SOL    HW126744   0.132   2.094   8.157 -0.1036 -0.0989  0.9346
 5037SOL    HW226745   0.224   2.006   8.081  0.9142 -0.2322 -0.0927
 5038SOL     OW26746   1.077   0.871   0.036 -0.1902 -0.1315  0.4182
 5038SOL    HW126747   1.170   0.874   0.055  0.7381 -3.1753 -3.5517
 5038SOL    HW226748   1.052   0.799   0.095  0.9196 -0.9958 -0.1585
 5039SOL     OW26749   0.506   1.863  11.511 -0.1765  0.0805 -0.4908
 5039SOL    HW126750   0.569   1.843  11.580  1.4467  1.0604 -1.7022
 5039SOL    HW226751   0.443   1.929  11.539  1.5664  1.6021 -0.1428
 5040SOL     OW26752   4.264   3.332   3.784  0.0142 -0.3657 -0.6197
 5040SOL    HW126753   4.181   3.369   3.754 -0.9765 -1.8218  0.3392
 5040SOL    HW226754   4.327   3.385   3.735  1.1824  0.9839  2.3645
 5041SOL     OW26755   3.477   3.636   7.162  0.7071 -0.0517  0.5261
 5041SOL    HW126756   3.501   3.703   7.098  1.3690 -0.4832  0.3225
 5041SOL    HW226757   3.424   3.692   7.219 -1.8753 -1.4620 -0.4907
 5042SOL     OW26758   1.490   1.957   5.273  0.0336  0.1577  0.1859
 5042SOL    HW126759   1.447   1.876   5.300  0.5260  0.2205  1.1930
 5042SOL    HW226760   1.417   2.019   5.282  0.8369  1.1722 -0.2482
 5043SOL     OW26761   0.449   1.068   3.830  0.3499 -0.3660  0.2501
 5043SOL    HW126762   0.384   1.106   3.770 -0.8128 -0.2989  1.5700
 5043SOL    HW226763   0.455   1.120   3.910  0.3455 -0.2322  0.1640
 5044SOL     OW26764   4.589   4.246   4.019 -0.3204 -0.1748  0.1085
 5044SOL    HW126765   4.537   4.184   4.070 -0.2679 -0.8466 -0.6472
 5044SOL    HW226766   4.617   4.188   3.948 -1.7045  1.3312 -1.6885
 5045SOL     OW26767   0.196   3.040  16.328 -0.6194 -0.2512  0.8006
 5045SOL    HW126768   0.267   3.033  16.264 -1.8730  0.6522 -0.6805
 5045SOL    HW226769   0.145   2.961  16.311 -0.6817 -0.4462  1.8991
 5046SOL     OW26770   2.958   0.274   8.806 -0.0313 -0.2992 -0.5476
 5046SOL    HW126771   3.051   0.254   8.799  0.1917 -0.1236  1.8850
 5046SOL    HW226772   2.932   0.289   8.715 -0.5659 -1.5917 -0.6156
 5047SOL     OW26773   2.413   2.672  17.429  0.6379  0.2796  0.4334
 5047SOL    HW126774   2.456   2.587  17.443  1.0244  0.3157 -0.5130
 5047SOL    HW226775   2.332   2.637  17.392  0.1545  0.9719  0.8385
 5048SOL     OW26776   4.451   1.849   1.639 -0.1951  0.3367  0.0800
 5048SOL    HW126777   4.513   1.921   1.633  1.3159 -0.9382  0.5554
 5048SOL    HW226778   4.396   1.877   1.566 -0.5628  0.1640  0.2913
 5049SOL     OW26779   2.625   1.636  12.248 -0.1106 -0.1014 -0.4197
 5049SOL    HW126780   2.668   1.718  12.270 -1.8393 -0.1118  3.0135
 5049SOL    HW226781   2.624   1.649  12.153 -5.3445  0.9921 -0.1797
 5050SOL     OW26782   0.620   4.274   2.140 -0.2878 -0.2178  0.0067
 5050SOL    HW126783   0.596   4.343   2.079 -0.8990  1.2199  1.8597
 5050SOL    HW226784   0.714   4.289   2.137 -0.0241 -1.7042  0.6390
 5051SOL     OW26785   0.885   3.125   7.234 -0.1508  0.3116  0.3481
 5051SOL    HW126786   0.922   3.199   7.283  0.5577 -0.5048  1.0357
 5051SOL    HW226787   0.935   3.130   7.153 -2.9347  2.2212 -1.2836
 5052SOL     OW26788   1.262   0.228  14.148 -0.3296 -0.1964  0.5922
 5052SOL    HW126789   1.171   0.250  14.168  0.7476  3.4913  1.3950
 5052SOL    HW226790   1.298   0.313  14.120  1.8982 -0.9967  0.9957
 5053SOL     OW26791   3.677   2.755   8.154  0.0088 -0.5014 -0.0800
 5053SOL    HW126792   3.674   2.729   8.246  0.6274  0.9846  0.3619
 5053SOL    HW226793   3.612   2.691   8.123 -1.3702  0.4075  0.9015
 5054SOL     OW26794   1.730   3.743   2.287  0.3709 -0.0856  0.3297
 5054SOL    HW126795   1.645   3.784   2.271  0.2466 -0.7763 -0.7359
 5054SOL    HW226796   1.775   3.821   2.319 -1.4432  0.7980  0.7409
 5055SOL     OW26797   1.459   1.152   5.217  0.7550 -0.4666  0.5331
 5055SOL    HW126798   1.365   1.133   5.219  0.3507  1.4488 -0.6165
 5055SOL    HW226799   1.458   1.246   5.197 -1.0248 -0.8803 -1.3143
 5056SOL     OW26800   4.000   0.488   6.346  0.0698  0.2334 -0.1371
 5056SOL    HW126801   3.944   0.431   6.399  1.5214 -0.7420  0.3407
 5056SOL    HW226802   3.994   0.440   6.264 -2.4325  0.8357 -0.3172
 5057SOL     OW26803   2.110   2.320  15.697  0.4649  0.2442  0.6820
 5057SOL    HW126804   2.143   2.401  15.737  0.2139  0.3374  0.6948
 5057SOL    HW226805   2.018   2.340  15.685 -0.2672 -3.4474  0.2229
 5058SOL     OW26806   2.705   3.406   7.486 -0.4388 -0.2836 -0.0919
 5058SOL    HW126807   2.660   3.389   7.568  1.6363 -4.1013  0.2161
 5058SOL    HW226808   2.646   3.366   7.423  1.0340 -1.7114 -0.5649
 5059SOL     OW26809   3.443   1.535   2.143 -0.0306  0.0371  0.2757
 5059SOL    HW126810   3.399   1.525   2.228  0.0746 -0.3053  0.2901
 5059SOL    HW226811   3.388   1.600   2.099  2.4936 -0.0741 -2.9571
 5060SOL     OW26812   4.123   3.147   7.426  0.3139 -0.1568 -0.3660
 5060SOL    HW126813   4.188   3.078   7.418  1.3453  0.7737 -0.0296
 5060SOL    HW226814   4.164   3.234   7.428  1.5161 -0.6107 -3.8767
 5061SOL     OW26815   1.666   1.526   6.305 -0.7709  0.5281  0.3694
 5061SOL    HW126816   1.665   1.590   6.376  1.0094 -0.0530  0.9308
 5061SOL    HW226817   1.613   1.580   6.247 -1.1306 -0.8754 -0.5984
 5062SOL     OW26818   1.924   0.972   2.971  0.4320 -0.2544 -0.6212
 5062SOL    HW126819   1.935   1.062   2.941  4.1184 -0.9266 -1.3976
 5062SOL    HW226820   1.884   0.931   2.894  1.0436 -1.9319 -0.0606
 5063SOL     OW26821   1.386   3.369   6.044  0.2978 -0.5369 -0.0642
 5063SOL    HW126822   1.430   3.427   6.106 -0.1255 -2.1965  1.7595
 5063SOL    HW226823   1.308   3.421   6.024 -0.0177 -0.5550  1.1700
 5064SOL     OW26824   3.702   2.571   5.018  0.3837 -0.3220 -0.5861
 5064SOL    HW126825   3.683   2.664   5.002 -0.5785 -1.0114 -3.5039
 5064SOL    HW226826   3.667   2.524   4.942 -1.3626 -0.9041  0.5876
 5065SOL     OW26827   0.904   2.920   8.426 -0.5181  0.2912  0.5301
 5065SOL    HW126828   0.932   2.975   8.353 -2.2131 -0.6044 -0.8100
 5065SOL    HW226829   0.872   2.839   8.386  2.0972 -0.0125 -0.8875
 5066SOL     OW26830   1.869   1.294   3.930  0.0053  0.1619  0.2571
 5066SOL    HW126831   1.937   1.263   3.989 -0.6308 -1.4644  0.1474
 5066SOL    HW226832   1.868   1.232   3.857  1.5521 -0.1915  0.5575
 5067SOL     OW26833   0.272   2.243   5.742 -0.1086 -0.5281 -0.9846
 5067SOL    HW126834   0.340   2.297   5.701  0.7039 -0.4636  0.4331
 5067SOL    HW226835   0.317   2.212   5.821 -1.4726  2.2718  0.9218
 5068SOL     OW26836   4.693   1.716   3.012 -0.7024  0.0735 -0.1397
 5068SOL    HW126837   4.622   1.659   3.045 -1.7303  0.6854 -1.2958
 5068SOL    HW226838   0.035   1.668   3.028  0.3157  1.0202 -2.4992
 5069SOL     OW26839   0.955   1.541   8.625 -0.0678  0.1894 -0.4580
 5069SOL    HW126840   0.988   1.452   8.622  1.4057  0.7752 -1.4438
 5069SOL    HW226841   1.032   1.577   8.668 -0.4037 -0.4610  0.6721
 5070SOL     OW26842   3.708   1.536  13.548  0.0207 -0.0501  0.0617
 5070SOL    HW126843   3.718   1.464  13.610 -2.0674 -0.6610 -0.3336
 5070SOL    HW226844   3.763   1.495  13.482  2.3992  2.5463  0.4064
 5071SOL     OW26845   3.716   3.937  14.059  0.2780 -0.7886  0.3870
 5071SOL    HW126846   3.658   4.013  14.045  1.6622  0.5567  2.0012
 5071SOL    HW226847   3.650   3.876  14.093 -1.0365  0.2352 -0.3068
 5072SOL     OW26848   1.513   3.845   7.930 -0.4012 -0.4165  0.4042
 5072SOL    HW126849   1.538   3.755   7.908 -1.0610 -1.0191  2.1277
 5072SOL    HW226850   1.420   3.834   7.949 -0.0919 -1.1471  1.5250
 5073SOL     OW26851   2.873   3.142   7.778  0.0409  0.3572  0.0702
 5073SOL    HW126852   2.798   3.089   7.751  1.1058 -1.2701  0.2980
 5073SOL    HW226853   2.829   3.219   7.815 -1.6048  0.0960 -1.3500
 5074SOL     OW26854   3.854   3.406   6.512 -0.1459 -0.0179  0.0829
 5074SOL    HW126855   3.849   3.492   6.470 -2.9121  0.4154  1.2729
 5074SOL    HW226856   3.892   3.352   6.442 -0.0060 -0.4347  0.4826
 5075SOL     OW26857   0.281   1.709   2.773  0.8331 -0.2324  0.1932
 5075SOL    HW126858   0.256   1.656   2.849 -2.1321  0.0571 -0.5893
 5075SOL    HW226859   0.280   1.795   2.816 -1.9797 -0.2858  0.2275
 5076SOL     OW26860   2.723   4.184   2.066  0.4257 -0.3706 -0.0913
 5076SOL    HW126861   2.741   4.226   2.150 -1.3628 -1.7459  0.9757
 5076SOL    HW226862   2.731   4.094   2.097  2.8295 -0.6944 -1.6913
 5077SOL     OW26863   1.122   2.701   8.009  0.0065  0.2435  0.2665
 5077SOL    HW126864   1.028   2.687   8.012  0.0447 -0.2688 -1.1535
 5077SOL    HW226865   1.146   2.656   7.928  0.0736 -1.1308  1.0426
 5078SOL     OW26866   0.957   4.058   9.324  0.2101 -0.3025 -0.1375
 5078SOL    HW126867   0.918   4.117   9.259 -0.0375 -1.8568 -1.4017
 5078SOL    HW226868   0.875   4.019   9.355  0.2298  0.2560  0.6135
 5079SOL     OW26869   0.183   4.330   5.954  0.4174 -0.1288 -0.4854
 5079SOL    HW126870   0.253   4.280   5.913  1.0819 -2.0310  2.9797
 5079SOL    HW226871   0.124   4.315   5.881  0.8467 -0.1176 -0.8329
 5080SOL     OW26872   1.580   0.562  14.187 -0.1372  0.2777 -0.0380
 5080SOL    HW126873   1.498   0.516  14.171  0.5933 -1.2803  0.7361
 5080SOL    HW226874   1.575   0.568  14.282  0.6912  1.7053 -0.0895
 5081SOL     OW26875   0.380   1.056   8.445  0.3610 -0.4369  0.0397
 5081SOL    HW126876   0.462   1.101   8.424 -0.4601  1.8112  1.5499
 5081SOL    HW226877   0.327   1.130   8.415 -1.0051 -0.4158  2.5096
 5082SOL     OW26878   1.226   0.135   5.836  0.4430  0.3297  0.0009
 5082SOL    HW126879   1.293   0.204   5.838 -1.0274  1.8298 -2.1989
 5082SOL    HW226880   1.220   0.113   5.929 -2.3727  0.3982 -0.1667
 5083SOL     OW26881   1.236   0.931   5.565  0.0222  0.1043 -0.2903
 5083SOL    HW126882   1.322   0.973   5.554 -0.3157  1.0002  0.5606
 5083SOL    HW226883   1.235   0.920   5.660  3.5649  0.4717 -0.2118
 5084SOL     OW26884   4.186   2.679   4.242  0.3571  0.1695 -0.9614
 5084SOL    HW126885   4.118   2.686   4.308  1.2757 -2.3620  0.2629
 5084SOL    HW226886   4.252   2.633   4.293  0.2768  1.6746  0.4936
 5085SOL     OW26887   0.836   0.864   8.844  0.5849  0.0559  0.1351
 5085SOL    HW126888   0.850   0.928   8.914 -3.0525 -1.9900  2.7365
 5085SOL    HW226889   0.800   0.791   8.894 -0.8156 -0.2842 -1.3827
 5086SOL     OW26890   4.640   2.629   9.036  0.3393 -0.1713 -0.0846
 5086SOL    HW126891   4.670   2.720   9.027  2.6213 -0.9064  0.1563
 5086SOL    HW226892   4.553   2.642   9.076  0.4740  1.5414 -0.3329
 5087SOL     OW26893   1.163   2.551   3.079  0.5608  0.1742  0.2248
 5087SOL    HW126894   1.124   2.545   3.166  2.3898  1.1723  1.1046
 5087SOL    HW226895   1.174   2.459   3.054  0.1722  0.2278 -0.1459
 5088SOL     OW26896   2.517   0.995   3.722 -0.0646  0.0857 -0.6026
 5088SOL    HW126897   2.462   0.917   3.731 -1.6981  1.1890 -1.0550
 5088SOL    HW226898   2.603   0.966   3.690  1.2349  0.6542  2.3576
 5089SOL     OW26899   2.644   2.776   1.862  0.7253 -0.0099  0.0331
 5089SOL    HW126900   2.576   2.782   1.795 -1.0452 -0.1071  1.8273
 5089SOL    HW226901   2.648   2.685   1.892 -1.4252  0.7591  2.5532
 5090SOL     OW26902   1.462   2.652  17.584 -0.2698 -0.1297 -0.6300
 5090SOL    HW126903   1.508   2.646  17.500  1.4312 -1.7618  0.4375
 5090SOL    HW226904   1.371   2.637  17.559 -0.6929 -0.5867  1.1509
 5091SOL     OW26905   1.565   0.797   4.923 -0.1261 -0.5050  0.4647
 5091SOL    HW126906   1.469   0.793   4.921  0.0524 -3.4515 -0.9957
 5091SOL    HW226907   1.585   0.869   4.983  1.4704 -1.4923  1.1128
 5092SOL     OW26908   1.637   0.254  12.622 -0.1456 -0.2866  0.2535
 5092SOL    HW126909   1.612   0.290  12.707  0.2608  0.7874 -0.0923
 5092SOL    HW226910   1.715   0.305  12.602 -0.6084  0.2984 -0.0167
 5093SOL     OW26911   4.629   1.104   7.210  0.0456  0.0930 -0.0010
 5093SOL    HW126912   4.565   1.035   7.228  0.4767 -0.6228 -1.2432
 5093SOL    HW226913   4.581   1.165   7.153 -1.1016 -1.2010 -0.4153
 5094SOL     OW26914   4.064   1.743   6.126  0.4643  0.5135 -0.0290
 5094SOL    HW126915   4.027   1.832   6.125  1.6599  1.0597  2.4672
 5094SOL    HW226916   4.081   1.736   6.220 -1.5196  0.0532  0.2831
 5095SOL     OW26917   4.623   3.666   5.657 -0.2979 -0.2434 -0.1951
 5095SOL    HW126918   4.630   3.571   5.652 -1.7025 -0.3312 -0.5089
 5095SOL    HW226919   4.713   3.693   5.639  0.6343 -3.1084  0.2808
 5096SOL     OW26920   3.450   4.437  15.309 -0.1554  0.5173  0.2793
 5096SOL    HW126921   3.522   4.470  15.363 -1.2787  1.2056  1.3272
 5096SOL    HW226922   3.380   4.499  15.327  1.0484  2.2010 -0.7850
 5097SOL     OW26923   0.205   4.579   8.868 -0.3469  0.1597 -0.6002
 5097SOL    HW126924   0.214   4.656   8.924 -1.7150  0.4115 -0.7238
 5097SOL    HW226925   0.163   4.515   8.926 -0.5832  0.6034 -0.2804
 5098SOL     OW26926   4.187   2.889   3.869 -0.1947  0.1121 -0.1348
 5098SOL    HW126927   4.272   2.867   3.908 -1.3503 -2.4272  0.9719
 5098SOL    HW226928   4.131   2.825   3.913  0.5282 -1.7719 -1.9363
 5099SOL     OW26929   0.524   1.249   2.139  1.3266 -0.6209  0.1107
 5099SOL    HW126930   0.554   1.167   2.100 -1.8590  0.0830 -3.8018
 5099SOL    HW226931   0.568   1.238   2.224  2.5310  0.6174 -0.3495
 5100SOL     OW26932   0.355   2.595   7.819 -0.3391  0.3212 -0.3972
 5100SOL    HW126933   0.307   2.612   7.738 -2.3940 -1.1961  0.4911
 5100SOL    HW226934   0.434   2.555   7.783 -2.2051 -2.3795 -1.5115
 5101SOL     OW26935   0.589   0.046   7.705  0.3087 -0.0156  0.0573
 5101SOL    HW126936   0.498   0.072   7.713  0.6867  0.8378  1.6178
 5101SOL    HW226937   0.584   4.705   7.758  0.0435 -0.4051 -0.5656
 5102SOL     OW26938   1.493   3.163   7.086 -0.5155  0.0602 -0.7061
 5102SOL    HW126939   1.418   3.213   7.118 -0.0130  0.9864 -0.9472
 5102SOL    HW226940   1.562   3.223   7.116  0.4259 -1.8463  0.9554
 5103SOL     OW26941   1.242   2.331   0.731  0.0327 -0.1327 -0.1330
 5103SOL    HW126942   1.333   2.354   0.711  0.2205  0.1277  1.0732
 5103SOL    HW226943   1.243   2.243   0.694  1.2550 -0.5068  0.8034
 5104SOL     OW26944   1.720   0.353   3.831 -0.1270 -0.5532  0.4932
 5104SOL    HW126945   1.811   0.382   3.832 -0.4567  0.5737 -1.8300
 5104SOL    HW226946   1.720   0.293   3.756 -0.9643 -2.8711  2.3768
 5105SOL     OW26947   4.456   2.585  15.358  0.0253  0.1919 -0.4270
 5105SOL    HW126948   4.414   2.499  15.356 -0.7096  0.4878  1.7810
 5105SOL    HW226949   4.474   2.613  15.269 -2.0882  0.7604 -0.6810
 5106SOL     OW26950   0.755   2.226   5.883 -0.1263  0.1211  0.1759
 5106SOL    HW126951   0.795   2.171   5.816  0.9758  0.8732  0.2285
 5106SOL    HW226952   0.814   2.206   5.955  0.9038  0.7662 -0.4921
 5107SOL     OW26953   1.320   1.242  13.038 -0.8076  0.1172  0.1558
 5107SOL    HW126954   1.404   1.241  13.085  0.7513 -0.2272 -2.6693
 5107SOL    HW226955   1.264   1.284  13.103 -0.5152  1.7915 -0.6905
 5108SOL     OW26956   2.473   3.793  10.252 -0.1774  0.1886 -0.1316
 5108SOL    HW126957   2.530   3.803  10.329 -0.8086 -0.7643  0.4447
 5108SOL    HW226958   2.504   3.874  10.211  1.5228  0.7852  2.3328
 5109SOL     OW26959   0.669   2.950   7.187  0.2680 -0.3773 -0.0245
 5109SOL    HW126960   0.604   3.003   7.139  0.1974  0.7737  1.3481
 5109SOL    HW226961   0.736   3.014   7.210  0.3847 -0.8768  0.9965
 5110SOL     OW26962   0.281   1.792   4.093 -0.2495  0.3032 -0.0193
 5110SOL    HW126963   0.283   1.704   4.054  0.4459  0.5556 -0.5401
 5110SOL    HW226964   0.328   1.842   4.027  0.6206 -0.8248 -0.2692
 5111SOL     OW26965   0.774   1.125   4.005  0.0994  0.0786 -0.1128
 5111SOL    HW126966   0.754   1.039   4.042 -0.0280 -0.0771 -0.5437
 5111SOL    HW226967   0.685   1.148   3.976 -0.7306 -0.8416  1.6963
 5112SOL     OW26968   2.981   0.101  15.143 -0.3922  0.1595  0.1577
 5112SOL    HW126969   2.921   0.053  15.200 -2.5748  1.2952 -1.2109
 5112SOL    HW226970   2.927   0.179  15.130 -1.0184 -0.0723  1.3366
 5113SOL     OW26971   3.953   4.729   7.874  0.4177  0.3890 -0.1254
 5113SOL    HW126972   3.979   4.642   7.904 -0.0652  0.0442 -0.7163
 5113SOL    HW226973   3.925   0.018   7.962  0.3069 -2.4061  0.7140
 5114SOL     OW26974   3.623   2.798   1.873  0.7943 -0.4534  0.2003
 5114SOL    HW126975   3.661   2.837   1.952 -0.8430  2.3345 -0.4132
 5114SOL    HW226976   3.639   2.868   1.810 -0.3966 -2.3473 -2.2266
 5115SOL     OW26977   2.296   0.965   5.157 -0.3677  0.1122  0.1092
 5115SOL    HW126978   2.324   1.056   5.149  1.5212 -0.3491  1.3763
 5115SOL    HW226979   2.225   0.972   5.220 -0.3185 -1.7513  0.3585
 5116SOL     OW26980   0.040   2.335  11.368 -0.1580  0.3490 -0.2216
 5116SOL    HW126981   0.062   2.338  11.274 -1.5850 -0.4102 -0.5849
 5116SOL    HW226982   0.071   2.250  11.399  0.9482 -0.3082 -3.0825
 5117SOL     OW26983   4.388   2.080   5.734 -0.3458 -0.2727  0.3856
 5117SOL    HW126984   4.390   2.161   5.786 -1.9091 -0.7042  1.1220
 5117SOL    HW226985   4.415   2.017   5.802 -0.1772 -0.9747 -0.3262
 5118SOL     OW26986   2.609   0.416   7.340 -0.3434  0.0846  0.1063
 5118SOL    HW126987   2.665   0.479   7.296 -0.1461  0.7984  1.3831
 5118SOL    HW226988   2.529   0.468   7.339 -0.5589 -0.3035 -2.1505
 5119SOL     OW26989   3.731   1.310  13.681 -0.2239  0.3717 -0.4712
 5119SOL    HW126990   3.693   1.285  13.765  1.2527 -2.4407 -0.6487
 5119SOL    HW226991   3.737   1.222  13.644  1.8333 -0.2858  1.3795
 5120SOL     OW26992   1.203   3.240  12.980 -0.0373  0.0234  0.2268
 5120SOL    HW126993   1.154   3.204  12.905  1.8734 -0.8071 -0.6015
 5120SOL    HW226994   1.262   3.285  12.919 -1.9237  2.4903  0.2051
 5121SOL     OW26995   2.201   4.219  11.044 -0.2306  0.1977 -0.2259
 5121SOL    HW126996   2.113   4.254  11.029 -0.3314  1.0047  2.1980
 5121SOL    HW226997   2.223   4.267  11.124 -0.5566 -0.1746  0.0861
 5122SOL     OW26998   1.745   3.746   8.292 -0.3314  0.3840 -0.2992
 5122SOL    HW126999   1.725   3.814   8.228 -0.4523 -0.8133 -1.5475
 5122SOL    HW227000   1.815   3.794   8.336 -0.3870 -2.6290  3.0525
 5123SOL     OW27001   0.683   2.780   8.947 -0.3583 -0.2892 -0.0997
 5123SOL    HW127002   0.626   2.767   9.022 -0.1199  0.5813  0.2298
 5123SOL    HW227003   0.633   2.741   8.875 -2.1042 -1.9775  2.0505
 5124SOL     OW27004   2.958   4.178   3.948 -0.0486 -0.0598  0.5889
 5124SOL    HW127005   3.037   4.221   3.981  0.1175  0.2334 -0.1825
 5124SOL    HW227006   2.936   4.120   4.021  1.5645 -2.3149 -0.7391
 5125SOL     OW27007   4.067   1.783  17.449  0.5685  0.7517  1.0402
 5125SOL    HW127008   4.032   1.859  17.495  1.5725  1.7124  0.2341
 5125SOL    HW227009   4.059   1.716  17.516  0.5611  0.1422  0.4248
 5126SOL     OW27010   0.069   4.126   6.214 -0.1582 -0.5291  0.2603
 5126SOL    HW127011   0.160   4.154   6.202  0.6544 -2.4947  1.8929
 5126SOL    HW227012   0.023   4.175   6.146 -1.1840  1.3947  2.3565
 5127SOL     OW27013   1.427   0.215   1.763  0.2146 -0.2022 -0.2031
 5127SOL    HW127014   1.374   0.276   1.711  0.0502 -0.3983 -0.2670
 5127SOL    HW227015   1.402   0.214   1.856  1.2262 -1.3607  0.0525
 5128SOL     OW27016   0.246   3.127  16.605  0.2897  0.5246 -0.2070
 5128SOL    HW127017   0.278   3.134  16.515  0.0395 -0.0786 -0.3455
 5128SOL    HW227018   0.155   3.107  16.583 -0.0923  2.0339 -0.0018
 5129SOL     OW27019   0.565   0.610   4.726  0.1656 -0.0202  0.1424
 5129SOL    HW127020   0.637   0.665   4.755 -0.2918  1.3146 -1.3148
 5129SOL    HW227021   0.512   0.682   4.691  0.0035 -1.4743 -2.5289
 5130SOL     OW27022   4.170   1.206   9.574  0.0655 -0.0720  0.3229
 5130SOL    HW127023   4.155   1.142   9.644 -1.0697 -0.8366 -0.6206
 5130SOL    HW227024   4.108   1.270   9.608  2.5895  1.9006  1.1894
 5131SOL     OW27025   2.177   0.079  12.456 -0.2363 -0.0528  0.0914
 5131SOL    HW127026   2.096   0.097  12.504  0.3928 -0.8678  1.4655
 5131SOL    HW227027   2.193   0.166  12.420  0.2446 -0.3862 -0.5051
 5132SOL     OW27028   3.149   3.828   5.270 -0.7849 -0.1507 -1.1585
 5132SOL    HW127029   3.239   3.851   5.248 -0.3996  0.9215  1.4010
 5132SOL    HW227030   3.123   3.902   5.326  0.8389 -1.4714  1.3187
 5133SOL     OW27031   2.337   4.388   9.316  0.4875  0.0956 -0.2027
 5133SOL    HW127032   2.261   4.378   9.258  0.0512 -1.0743  0.5709
 5133SOL    HW227033   2.320   4.334   9.393 -1.7338  1.4320  0.2373
 5134SOL     OW27034   2.559   1.223   8.822 -0.4687 -0.2881  0.5943
 5134SOL    HW127035   2.549   1.311   8.787  0.1167 -0.5418 -0.1969
 5134SOL    HW227036   2.634   1.245   8.877 -0.8780 -1.8400  1.7870
 5135SOL     OW27037   1.274   2.981  10.656  0.2989 -0.0412  0.3316
 5135SOL    HW127038   1.193   2.931  10.654  0.3547 -0.2059  2.2136
 5135SOL    HW227039   1.332   2.922  10.609  1.1007 -0.0401  1.3280
 5136SOL     OW27040   4.033   4.627  16.919  0.3777 -0.8031 -0.3068
 5136SOL    HW127041   4.099   4.676  16.967 -1.8087 -0.8005  2.7032
 5136SOL    HW227042   3.953   4.678  16.930  2.8066  2.4870  2.1783
 5137SOL     OW27043   1.097   2.518  16.240 -0.0020  0.2586  0.2520
 5137SOL    HW127044   1.084   2.604  16.279 -1.8805  0.3483 -0.5306
 5137SOL    HW227045   1.039   2.527  16.164  0.4796  1.1495 -0.0107
 5138SOL     OW27046   0.210   4.086   3.204  0.0187 -0.0138 -0.5039
 5138SOL    HW127047   0.238   4.151   3.140 -0.2894 -1.2478 -1.8763
 5138SOL    HW227048   0.290   4.035   3.206 -0.0527 -0.1458 -1.0750
 5139SOL     OW27049   2.784   1.565   7.252  0.3092  0.1207  1.0632
 5139SOL    HW127050   2.709   1.595   7.200  0.8669 -1.3145 -0.5603
 5139SOL    HW227051   2.756   1.478   7.279 -1.4431  0.9563  1.9323
 5140SOL     OW27052   0.632   3.281  11.967 -0.2124 -0.5399  0.2308
 5140SOL    HW127053   0.706   3.338  11.986 -0.9957  0.1919  1.1190
 5140SOL    HW227054   0.606   3.308  11.879  1.7772 -2.8196 -1.0373
 5141SOL     OW27055   3.071   0.249  16.661  0.8648  0.3318  0.4635
 5141SOL    HW127056   3.150   0.267  16.610  0.1849  0.8184 -0.4146
 5141SOL    HW227057   3.004   0.236  16.595 -0.0117  0.9838  1.2227
 5142SOL     OW27058   1.353   3.387   9.657  0.0796  0.7106 -0.0122
 5142SOL    HW127059   1.386   3.383   9.747  1.1588  1.9012 -0.3552
 5142SOL    HW227060   1.284   3.453   9.659 -1.5126 -0.9154 -1.1166
 5143SOL     OW27061   4.095   2.190   5.218  0.3690  0.0635 -1.4737
 5143SOL    HW127062   4.064   2.280   5.219 -0.5975 -0.3155  1.2251
 5143SOL    HW227063   4.093   2.184   5.122  2.2512  0.1711 -1.5209
 5144SOL     OW27064   4.732   0.911   4.443  0.2984 -0.3429  0.3643
 5144SOL    HW127065   4.724   0.833   4.388  1.5070  1.5341 -2.4943
 5144SOL    HW227066   0.059   0.958   4.392 -0.0584 -0.8895 -0.6046
 5145SOL     OW27067   2.560   1.904  17.722 -0.2011  0.3671 -0.7901
 5145SOL    HW127068   2.503   1.941   0.036 -1.8405 -0.4760 -1.7069
 5145SOL    HW227069   2.590   1.836   0.028 -1.0627  0.0968 -0.6584
 5146SOL     OW27070   0.366   1.421  14.824  0.0713 -0.3204 -0.0215
 5146SOL    HW127071   0.338   1.330  14.832 -1.3177 -0.0395 -1.9540
 5146SOL    HW227072   0.422   1.434  14.901  1.5183 -1.0526 -0.9513
 5147SOL     OW27073   3.050   1.450   6.418 -0.3911 -0.2075  0.3435
 5147SOL    HW127074   3.077   1.378   6.361 -2.8671  0.2274 -1.3753
 5147SOL    HW227075   2.957   1.439   6.435 -0.0212 -2.8493  0.5767
 5148SOL     OW27076   3.915   0.966   4.832  0.0281 -0.2514 -0.3695
 5148SOL    HW127077   3.953   0.887   4.870 -0.9574 -2.4170 -3.8401
 5148SOL    HW227078   3.962   1.036   4.878 -1.3545 -0.7441  1.7865
 5149SOL     OW27079   1.499   1.106   2.106  0.3032 -0.0102 -0.5779
 5149SOL    HW127080   1.559   1.032   2.114 -0.6636 -0.6733  0.6748
 5149SOL    HW227081   1.557   1.181   2.094  0.9940 -0.6341 -1.1682
 5150SOL     OW27082   2.882   0.428   6.764 -0.4368 -0.6220 -0.6989
 5150SOL    HW127083   2.787   0.430   6.774 -0.1328 -1.4377  2.6206
 5150SOL    HW227084   2.919   0.506   6.805 -0.6180 -0.7353 -0.3151
 5151SOL     OW27085   1.707   0.137   2.737 -0.0543  0.4556  0.0291
 5151SOL    HW127086   1.778   0.190   2.701  2.1017 -0.3129  3.1343
 5151SOL    HW227087   1.691   0.076   2.665  1.1426  0.0082  0.1340
 5152SOL     OW27088   2.474   4.349   6.472 -0.4067  0.1420 -0.2676
 5152SOL    HW127089   2.499   4.318   6.559  1.0504  0.4191 -0.5882
 5152SOL    HW227090   2.458   4.442   6.490 -2.8967 -0.7137  1.9610
 5153SOL     OW27091   4.681   3.297   2.071 -0.3555 -0.8152  0.0902
 5153SOL    HW127092   4.668   3.365   2.004 -1.2113  0.3735  1.4605
 5153SOL    HW227093   0.030   3.324   2.096  0.1409 -0.7389 -1.7485
 5154SOL     OW27094   4.240   1.309   8.982  0.3591  0.7940  0.4495
 5154SOL    HW127095   4.166   1.250   8.964 -0.2226  1.6515  0.0218
 5154SOL    HW227096   4.203   1.388   9.020 -0.1734 -0.1749  1.9320
 5155SOL     OW27097   0.371   2.529  16.373  0.2844 -0.2859  0.3532
 5155SOL    HW127098   0.385   2.609  16.324 -0.8791  0.5783  1.4245
 5155SOL    HW227099   0.292   2.552  16.422 -0.7745 -2.3845 -0.3496
 5156SOL     OW27100   3.287   2.871  15.258  0.6801 -0.2007 -0.5332
 5156SOL    HW127101   3.300   2.840  15.168  1.0196 -0.0431 -0.5376
 5156SOL    HW227102   3.372   2.914  15.270  1.3430 -1.2939 -1.3377
 5157SOL     OW27103   0.691   0.636   3.435 -0.5062  0.0994 -0.7829
 5157SOL    HW127104   0.629   0.707   3.446 -0.8791 -0.2437 -0.6681
 5157SOL    HW227105   0.656   0.586   3.361 -2.3370 -2.6565  1.9606
 5158SOL     OW27106   0.206   3.607   5.143  0.0793  0.0058 -0.1717
 5158SOL    HW127107   0.209   3.661   5.064 -1.2895  1.3260  0.6805
 5158SOL    HW227108   0.267   3.536   5.123  0.0848 -0.6297  2.1526
 5159SOL     OW27109   2.234   0.067  11.748 -0.9067  0.3457  0.3681
 5159SOL    HW127110   2.200   0.011  11.817 -2.0725  1.1250  0.4214
 5159SOL    HW227111   2.157   0.070  11.691  0.3001 -1.9202 -1.3704
 5160SOL     OW27112   2.969   3.242   2.288  0.0891 -0.4399  0.1728
 5160SOL    HW127113   2.943   3.192   2.366  1.8052  0.3034  1.2221
 5160SOL    HW227114   2.918   3.323   2.297 -2.0450 -1.5383 -2.1219
 5161SOL     OW27115   0.366   2.655  12.678  0.0299 -0.4099  0.4084
 5161SOL    HW127116   0.444   2.710  12.669  0.5942 -0.9296  2.3195
 5161SOL    HW227117   0.371   2.612  12.593 -0.6274  0.2229  0.0405
 5162SOL     OW27118   0.159   0.203   1.580  0.2145  0.3388  0.5200
 5162SOL    HW127119   0.102   0.224   1.506  0.7875 -0.8227 -0.2518
 5162SOL    HW227120   0.238   0.195   1.527  0.6544 -1.5910  1.4836
 5163SOL     OW27121   4.437   0.527  14.451  0.0004 -0.7101  0.4885
 5163SOL    HW127122   4.427   0.466  14.523 -1.8669 -0.9821 -0.0117
 5163SOL    HW227123   4.527   0.554  14.471 -0.4294  0.7949  0.3582
 5164SOL     OW27124   2.388   1.103  15.580  0.9332 -0.1513  0.0214
 5164SOL    HW127125   2.446   1.027  15.587  0.3120 -0.6300 -0.0442
 5164SOL    HW227126   2.344   1.112  15.664  0.5033 -1.1963 -0.0879
 5165SOL     OW27127   4.363   0.354   6.713  0.6317  0.2689 -0.1556
 5165SOL    HW127128   4.410   0.326   6.792  1.2217  1.1065 -0.2093
 5165SOL    HW227129   4.316   0.278   6.680 -0.7223  0.4993  1.2629
 5166SOL     OW27130   4.603   2.765   6.794 -0.0477 -0.9434 -0.5763
 5166SOL    HW127131   4.600   2.775   6.889 -1.4809 -1.2461 -0.5939
 5166SOL    HW227132   4.695   2.745   6.775  0.6757  1.6022  0.2993
 5167SOL     OW27133   1.625   0.689   6.970 -1.0191  0.0801  0.0724
 5167SOL    HW127134   1.719   0.690   6.957 -1.1290  2.2623 -0.4932
 5167SOL    HW227135   1.602   0.600   6.997  0.5303 -0.6116 -0.9656
 5168SOL     OW27136   0.959   3.353   6.128 -0.0941 -0.2961 -0.0710
 5168SOL    HW127137   1.001   3.303   6.197  0.0218  0.3819  0.3411
 5168SOL    HW227138   0.889   3.400   6.172  1.9388  2.7259 -0.0576
 5169SOL     OW27139   3.825   2.259  13.334  0.0460 -0.8170 -0.1426
 5169SOL    HW127140   3.904   2.236  13.382 -0.2525 -0.7358  0.3943
 5169SOL    HW227141   3.776   2.297  13.407  1.9639 -2.6303  2.0732
 5170SOL     OW27142   2.378   2.128   8.012  0.0877  0.1416  0.0336
 5170SOL    HW127143   2.382   2.072   8.090 -0.4226  2.4220  1.6828
 5170SOL    HW227144   2.360   2.213   8.052  2.3341 -0.3523  2.0744
 5171SOL     OW27145   2.857   1.937  10.444 -0.1483  0.1296 -0.1200
 5171SOL    HW127146   2.820   1.919  10.531  1.2011  0.8327  0.5865
 5171SOL    HW227147   2.850   2.032  10.442  0.1903  0.1657  0.4574
 5172SOL     OW27148   1.366   4.066  13.706  0.2590  0.1120 -0.0850
 5172SOL    HW127149   1.340   4.158  13.698 -0.0334 -0.0981 -1.5223
 5172SOL    HW227150   1.316   4.028  13.634 -0.1313  0.2586  0.1106
 5173SOL     OW27151   4.418   1.360   2.466  0.0925  0.0843 -0.3768
 5173SOL    HW127152   4.331   1.330   2.440 -0.3010  0.3118  0.6862
 5173SOL    HW227153   4.465   1.344   2.384  1.2953  0.3164  0.2712
 5174SOL     OW27154   2.522   4.612  10.169 -0.0824 -0.1288  0.2199
 5174SOL    HW127155   2.581   4.636  10.098 -1.8288 -2.4120 -2.0012
 5174SOL    HW227156   2.563   4.664  10.238 -1.3017  1.4706 -0.2735
 5175SOL     OW27157   3.875   0.354  13.554  0.4073  0.2448 -0.3468
 5175SOL    HW127158   3.846   0.265  13.571 -1.2001  0.4181 -2.0978
 5175SOL    HW227159   3.805   0.392  13.500 -0.2692 -3.8157 -2.3298
 5176SOL     OW27160   1.461   3.161   9.412 -0.1918  0.0956 -0.6850
 5176SOL    HW127161   1.448   3.066   9.403 -1.0819 -0.1237  2.9025
 5176SOL    HW227162   1.504   3.164   9.497  0.3302 -0.3232 -0.9297
 5177SOL     OW27163   2.156   2.875   3.962 -0.0165 -0.4473  0.8832
 5177SOL    HW127164   2.099   2.799   3.974 -1.1462 -0.4642 -4.1742
 5177SOL    HW227165   2.199   2.851   3.880 -0.2458  0.0295  0.6217
 5178SOL     OW27166   2.096   3.796  10.161 -0.3223  0.3383  0.6229
 5178SOL    HW127167   2.121   3.871  10.216 -0.1855  0.4615  0.3912
 5178SOL    HW227168   2.002   3.810  10.170 -0.2366  1.6267 -0.4238
 5179SOL     OW27169   3.902   3.021   1.140  0.5149 -0.5753  0.2217
 5179SOL    HW127170   3.901   3.011   1.045  1.1276  3.1776 -0.1717
 5179SOL    HW227171   3.808   3.022   1.160  0.8324  0.5516  1.7155
 5180SOL     OW27172   1.444   1.134   5.929  0.6500 -0.4240 -0.1546
 5180SOL    HW127173   1.435   1.102   6.019 -0.9857  0.1691 -0.1052
 5180SOL    HW227174   1.522   1.188   5.936  0.2929 -0.1178  1.4861
 5181SOL     OW27175   0.357   2.160   6.812 -0.1870 -0.8010  0.3045
 5181SOL    HW127176   0.320   2.195   6.731  2.0547  2.5091  0.7099
 5181SOL    HW227177   0.291   2.097   6.841 -0.1515 -0.7642  0.4679
 5182SOL     OW27178   2.556   1.346  11.969 -0.1759 -0.1327  0.0377
 5182SOL    HW127179   2.462   1.333  11.959 -0.4826  1.8513  0.3656
 5182SOL    HW227180   2.579   1.291  12.043  1.3734  2.3233  1.3724
 5183SOL     OW27181   2.309   2.975   5.252  0.6325  0.5710 -0.9144
 5183SOL    HW127182   2.266   3.051   5.290 -0.4422  0.6002 -2.1767
 5183SOL    HW227183   2.395   3.010   5.229  0.7816  0.7572 -0.0555
 5184SOL     OW27184   3.561   2.431   9.553 -0.3902 -0.6243 -0.7976
 5184SOL    HW127185   3.492   2.457   9.613 -1.6302 -2.1668 -1.5611
 5184SOL    HW227186   3.600   2.363   9.607  1.0566  0.9033  0.0948
 5185SOL     OW27187   0.786   3.700  17.590 -0.3475 -0.1439  0.0176
 5185SOL    HW127188   0.782   3.608  17.564  0.1330 -0.3373  0.6354
 5185SOL    HW227189   0.695   3.726  17.572  0.3908 -0.3506 -4.0600
 5186SOL     OW27190   3.209   4.727   5.378 -0.3660 -0.0047  0.1836
 5186SOL    HW127191   3.280   0.052   5.384  0.2847 -0.7123  0.0825
 5186SOL    HW227192   3.179   0.022   5.293 -0.8391 -0.4528  0.1730
 5187SOL     OW27193   4.274   3.282   8.503  0.3464 -0.6165  0.5529
 5187SOL    HW127194   4.292   3.190   8.482  0.1940 -0.6442  0.5451
 5187SOL    HW227195   4.198   3.292   8.446 -0.4286  0.7356  1.8394
 5188SOL     OW27196   0.301   0.864   8.062  0.6083 -0.2784  0.0452
 5188SOL    HW127197   0.306   0.771   8.085  1.8248  0.2787  2.0107
 5188SOL    HW227198   0.385   0.893   8.097  0.3185 -1.1558  1.5020
 5189SOL     OW27199   0.621   1.235  11.112  0.6030  0.2382 -0.0867
 5189SOL    HW127200   0.540   1.228  11.061  0.5258 -3.1635  0.5353
 5189SOL    HW227201   0.644   1.144  11.094  2.4029  0.4545  1.1544
 5190SOL     OW27202   0.949   2.342  12.859  0.1434  0.4249  0.4437
 5190SOL    HW127203   0.915   2.267  12.906  0.9107  0.2730  0.7627
 5190SOL    HW227204   1.043   2.321  12.861  0.0520 -0.0732 -0.3274
 5191SOL     OW27205   2.466   1.478   9.351 -0.0233  0.1901 -0.5001
 5191SOL    HW127206   2.520   1.400   9.360 -1.8296 -1.2085 -2.0049
 5191SOL    HW227207   2.397   1.454   9.289 -0.1823 -0.7639  0.0552
 5192SOL     OW27208   0.748   3.528   7.153 -0.0560 -0.1631 -0.5597
 5192SOL    HW127209   0.668   3.582   7.156 -0.0753 -0.0692 -2.6039
 5192SOL    HW227210   0.750   3.496   7.063 -2.9463  0.4233 -0.8441
 5193SOL     OW27211   2.352   0.888   1.021  0.0453  0.4595 -0.3693
 5193SOL    HW127212   2.431   0.834   1.022  0.7964  1.5369 -2.9443
 5193SOL    HW227213   2.313   0.854   1.102  4.3812  0.2896  1.6835
 5194SOL     OW27214   1.491   0.346   4.177 -0.5614 -0.0001  0.5015
 5194SOL    HW127215   1.437   0.359   4.255  0.7443 -0.1882  1.4335
 5194SOL    HW227216   1.516   0.254   4.186 -0.8634 -0.1454 -0.0989
 5195SOL     OW27217   2.591   1.648  11.580 -0.4205  0.0887  0.3107
 5195SOL    HW127218   2.578   1.555  11.596 -0.1187  0.4327  2.5746
 5195SOL    HW227219   2.553   1.691  11.657  0.5274 -0.3555  1.0373
 5196SOL     OW27220   2.305   2.446   6.152 -0.3827  0.0232 -0.1236
 5196SOL    HW127221   2.378   2.507   6.148  0.9067 -1.6065 -1.1687
 5196SOL    HW227222   2.240   2.497   6.201 -0.7772  0.7551 -1.4052
 5197SOL     OW27223   1.370   0.177   9.491 -0.0243 -0.4081 -0.3419
 5197SOL    HW127224   1.457   0.161   9.527  0.6356  1.4689 -1.0644
 5197SOL    HW227225   1.405   0.215   9.410 -0.3343 -0.4434 -0.4954
 5198SOL     OW27226   1.404   4.371   7.408 -0.8983 -0.2181 -0.4132
 5198SOL    HW127227   1.337   4.331   7.463  0.4094 -0.8182  0.7417
 5198SOL    HW227228   1.357   4.438   7.359  2.5072  3.3707  1.2283
 5199SOL     OW27229   1.711   1.803  16.169 -0.0659 -0.7419  0.5622
 5199SOL    HW127230   1.785   1.837  16.218  0.9768 -2.0157 -0.1283
 5199SOL    HW227231   1.707   1.717  16.211  0.7093 -1.2610 -0.4234
 5200SOL     OW27232   0.151   3.600   6.792 -0.2808 -0.3239 -0.5437
 5200SOL    HW127233   0.128   3.635   6.706 -0.4902 -0.3234 -0.4879
 5200SOL    HW227234   0.120   3.509   6.792 -1.1118 -0.0524  1.7057
 5201SOL     OW27235   3.611   3.258   4.895 -0.0209 -0.9782 -0.4965
 5201SOL    HW127236   3.542   3.221   4.950  0.0491  0.5137  0.6143
 5201SOL    HW227237   3.589   3.351   4.906 -0.5029 -0.9907 -1.3221
 5202SOL     OW27238   1.629   3.089   5.238  0.1909  0.2966 -0.1631
 5202SOL    HW127239   1.622   3.069   5.145  0.9145 -1.0981  0.0854
 5202SOL    HW227240   1.543   3.129   5.250 -0.3649 -0.9931  0.1553
 5203SOL     OW27241   0.400   2.077   2.547 -0.5960 -0.2998 -0.6388
 5203SOL    HW127242   0.472   2.016   2.566  1.4958  2.0711 -1.0222
 5203SOL    HW227243   0.383   2.048   2.457 -1.3393  2.9941 -1.5521
 5204SOL     OW27244   2.663   4.349   1.601 -0.6435 -0.3845 -0.3236
 5204SOL    HW127245   2.743   4.384   1.640  0.5465 -2.3882 -0.9607
 5204SOL    HW227246   2.643   4.284   1.669  1.4985  2.1078  2.6874
 5205SOL     OW27247   2.245   3.524  12.771 -0.0730 -0.1219 -0.1461
 5205SOL    HW127248   2.229   3.571  12.853  2.3028  3.3994 -1.6802
 5205SOL    HW227249   2.191   3.446  12.785  0.3305 -0.4865 -0.6250
 5206SOL     OW27250   4.396   4.584   6.132 -0.2442 -0.4201  0.1492
 5206SOL    HW127251   4.475   4.633   6.108 -1.7105  1.7793 -0.2153
 5206SOL    HW227252   4.428   4.494   6.125 -0.3593 -0.4975  0.6215
 5207SOL     OW27253   1.881   2.611   6.022 -0.6757 -0.1216  0.2360
 5207SOL    HW127254   1.844   2.691   5.985 -0.6989  0.1742  0.8939
 5207SOL    HW227255   1.865   2.637   6.113 -0.1214  2.6103 -0.4344
 5208SOL     OW27256   1.159   2.261   4.628 -0.5552 -0.3645  0.2434
 5208SOL    HW127257   1.144   2.210   4.548  0.4116  1.2948 -0.9866
 5208SOL    HW227258   1.222   2.201   4.667 -1.3389  0.4069  2.6413
 5209SOL     OW27259   0.568   1.336   7.838  0.0237 -0.2067 -0.1081
 5209SOL    HW127260   0.637   1.395   7.812 -0.5467  0.4149 -0.2086
 5209SOL    HW227261   0.596   1.295   7.920 -1.0356  1.6100  1.1513
 5210SOL     OW27262   2.869   0.783   5.593  0.1042 -0.3409  0.0312
 5210SOL    HW127263   2.817   0.810   5.518  2.2829  1.9278 -0.6552
 5210SOL    HW227264   2.836   0.848   5.655 -2.3011 -0.3742 -1.2299
 5211SOL     OW27265   1.484   0.874   7.146  0.1000 -0.1464 -0.2282
 5211SOL    HW127266   1.535   0.945   7.185  0.3815 -0.2961 -0.3202
 5211SOL    HW227267   1.555   0.813   7.123  0.0826  0.1306 -1.0443
 5212SOL     OW27268   2.946   0.017   5.725 -0.3489  0.3095  0.6387
 5212SOL    HW127269   2.871   0.013   5.784 -0.5990 -2.4322  0.1279
 5212SOL    HW227270   3.026   0.037   5.775 -0.0911  0.6421  0.0972
 5213SOL     OW27271   4.342   3.381   5.548  0.2088 -0.2623 -0.1523
 5213SOL    HW127272   4.382   3.305   5.589  2.0978  0.2589 -1.0405
 5213SOL    HW227273   4.260   3.336   5.524  1.2055 -0.1850 -3.7580
 5214SOL     OW27274   4.030   3.848  16.999 -0.1937  0.2033  0.0556
 5214SOL    HW127275   4.083   3.880  16.926  1.7606 -0.9792  0.9645
 5214SOL    HW227276   4.038   3.754  16.980 -2.1627 -0.1411  0.8965
 5215SOL     OW27277   2.688   1.740   3.405  0.2040  0.1483 -0.4817
 5215SOL    HW127278   2.726   1.652   3.411 -0.4039 -0.1906 -1.4946
 5215SOL    HW227279   2.594   1.725   3.397  0.0482  0.7375  0.2842
 5216SOL     OW27280   2.511   3.648   8.944 -0.2545 -0.2210 -0.2730
 5216SOL    HW127281   2.433   3.703   8.952 -1.1470 -1.6826  1.0416
 5216SOL    HW227282   2.533   3.647   9.037 -1.2478  0.8243 -0.0272
 5217SOL     OW27283   3.127   0.776   9.042  0.5278  0.3184 -0.4581
 5217SOL    HW127284   3.115   0.805   8.952  0.6185  0.0395 -0.5623
 5217SOL    HW227285   3.171   0.695   9.015 -2.5486  0.5014 -5.8921
 5218SOL     OW27286   2.125   3.275   5.836  0.2578 -1.0544  0.4891
 5218SOL    HW127287   2.094   3.264   5.746  2.3068  1.4656 -0.5321
 5218SOL    HW227288   2.217   3.300   5.825  0.3736 -1.4129  0.6170
 5219SOL     OW27289   4.739   2.948   8.793  0.4152  0.3745  0.5387
 5219SOL    HW127290   0.033   2.870   8.748  0.1484  0.9804 -0.7351
 5219SOL    HW227291   4.686   2.988   8.724  1.3538  1.2251  0.3041
 5220SOL     OW27292   2.842   4.431   2.508  0.1447  0.2954 -0.1217
 5220SOL    HW127293   2.889   4.504   2.468  1.6364  0.4316  1.8748
 5220SOL    HW227294   2.806   4.474   2.586  1.6866 -2.8934  2.3288
 5221SOL     OW27295   0.906   1.150   5.382  0.3946  0.7532 -0.2343
 5221SOL    HW127296   0.810   1.144   5.384  0.7935 -4.2141  3.4991
 5221SOL    HW227297   0.912   1.244   5.364  0.2326  1.2039  1.9708
 5222SOL     OW27298   1.051   4.069  11.565 -0.3197  0.0373  0.2296
 5222SOL    HW127299   1.025   3.978  11.551  0.1413 -0.3711  1.9225
 5222SOL    HW227300   0.968   4.116  11.566 -0.3947 -0.0668 -2.6409
 5223SOL     OW27301   1.502   4.597  11.001 -0.2997 -0.3170  0.5852
 5223SOL    HW127302   1.498   4.687  11.035 -2.5250 -0.1162 -0.1478
 5223SOL    HW227303   1.566   4.548  11.052  0.4218  0.0314  0.0190
 5224SOL     OW27304   0.606   0.200   3.729 -0.1345 -0.0627 -0.4047
 5224SOL    HW127305   0.617   0.106   3.742  2.6633  0.3399 -0.0543
 5224SOL    HW227306   0.650   0.212   3.645 -0.6189 -1.7394 -0.9014
 5225SOL     OW27307   3.247   1.523   7.368  0.0663 -0.1938 -0.4325
 5225SOL    HW127308   3.333   1.493   7.341  0.9254  1.0082  0.9657
 5225SOL    HW227309   3.239   1.470   7.448  0.0935  0.0955 -0.2376
 5226SOL     OW27310   1.073   4.395   8.422  0.0453  0.1547  0.2758
 5226SOL    HW127311   1.113   4.481   8.409  0.8954  0.0377  2.0740
 5226SOL    HW227312   1.146   4.354   8.469  0.4275  2.1567  1.4360
 5227SOL     OW27313   2.514   1.765   1.192  0.0558  0.7087  0.2034
 5227SOL    HW127314   2.524   1.853   1.157  0.4186  0.8627  0.6840
 5227SOL    HW227315   2.541   1.769   1.284  1.1418  0.1885 -0.0828
 5228SOL     OW27316   1.630   3.452   0.782  0.0296 -0.1380 -0.1186
 5228SOL    HW127317   1.596   3.448   0.692 -1.2705  0.3842  0.3467
 5228SOL    HW227318   1.724   3.453   0.767  0.3527  0.8107  1.9124
 5229SOL     OW27319   1.812   0.274  17.426 -0.0844 -0.1989 -0.0327
 5229SOL    HW127320   1.833   0.342  17.363 -0.6046 -0.1944 -0.2034
 5229SOL    HW227321   1.807   0.192  17.379  0.5441  1.2081 -2.5176
 5230SOL     OW27322   3.248   1.025   3.748 -0.4498 -0.6760 -0.0411
 5230SOL    HW127323   3.285   0.968   3.816  1.2663 -0.9662 -1.2056
 5230SOL    HW227324   3.183   0.971   3.704  0.5349 -0.9489 -1.1710
 5231SOL     OW27325   2.361   0.698   5.048  0.6825  0.1674 -0.3102
 5231SOL    HW127326   2.353   0.794   5.050 -2.1485 -0.0730 -0.3337
 5231SOL    HW227327   2.384   0.678   4.957  2.1343  1.1137 -0.1584
 5232SOL     OW27328   1.217   2.917   7.114  0.3841  0.0031 -0.2662
 5232SOL    HW127329   1.312   2.926   7.108  0.2705  0.8242 -1.0163
 5232SOL    HW227330   1.189   2.848   7.054 -1.5333  0.6484 -0.1206
 5233SOL     OW27331   1.870   4.687   9.118 -0.2921  0.2396 -0.5894
 5233SOL    HW127332   1.923   4.721   9.190  0.3558  1.6302 -1.7308
 5233SOL    HW227333   1.784   4.676   9.158  0.3764  1.3597  1.1668
 5234SOL     OW27334   4.639   2.660   0.973  0.2777 -0.4431 -0.3801
 5234SOL    HW127335   4.623   2.602   0.898  0.4861 -0.0522 -0.7280
 5234SOL    HW227336   4.699   2.721   0.931  1.3443 -2.1324 -1.3605
 5235SOL     OW27337   0.230   0.477   3.739 -0.8276  0.4405  0.3037
 5235SOL    HW127338   0.316   0.448   3.706 -1.2523 -1.4036  0.8315
 5235SOL    HW227339   0.177   0.403   3.710  0.2474 -0.2172  0.0143
 5236SOL     OW27340   2.627   3.432  13.583  0.3285  0.0433 -0.7650
 5236SOL    HW127341   2.605   3.365  13.649 -1.6513 -0.1024 -1.5714
 5236SOL    HW227342   2.548   3.448  13.531 -0.4593 -0.4801  0.2662
 5237SOL     OW27343   2.585   3.056   5.260 -0.2760 -0.8066 -0.7363
 5237SOL    HW127344   2.679   3.064   5.244  0.2851  0.5951  3.3513
 5237SOL    HW227345   2.589   2.993   5.332  0.9175 -0.0271 -0.1199
 5238SOL     OW27346   1.759   4.548   8.108 -0.4316  0.6247 -0.2362
 5238SOL    HW127347   1.816   4.624   8.101 -2.0663  1.9065  0.3832
 5238SOL    HW227348   1.737   4.543   8.201 -0.1446 -1.3794 -0.2663
 5239SOL     OW27349   1.422   1.689  15.436  0.5914 -0.4274 -0.0769
 5239SOL    HW127350   1.439   1.613  15.492 -0.7883 -1.0163 -0.4587
 5239SOL    HW227351   1.509   1.717  15.410  1.1785 -2.4750 -0.2954
 5240SOL     OW27352   1.825   4.363   3.652 -0.0932 -0.0654  0.1103
 5240SOL    HW127353   1.789   4.319   3.574  2.8597  2.1095 -2.4747
 5240SOL    HW227354   1.872   4.431   3.605  0.1677 -0.5164 -0.2838
 5241SOL     OW27355   3.998   4.457   8.462 -0.1417 -0.3800  0.2594
 5241SOL    HW127356   3.903   4.449   8.470 -0.2355 -0.3572 -0.8055
 5241SOL    HW227357   4.006   4.523   8.530 -0.1888  0.6954 -0.7805
 5242SOL     OW27358   3.568   0.495  15.911  0.3055  0.4734  0.2580
 5242SOL    HW127359   3.649   0.500  15.860  0.1251 -0.7152 -0.1526
 5242SOL    HW227360   3.515   0.561  15.866  0.9715  1.6175  1.1638
 5243SOL     OW27361   4.467   2.162   3.468  0.2479  0.0915  0.1923
 5243SOL    HW127362   4.515   2.101   3.413 -0.3410 -1.0615  0.9480
 5243SOL    HW227363   4.481   2.118   3.552 -0.8349 -2.3476 -0.9332
 5244SOL     OW27364   0.691   2.547   0.762  0.3347 -0.0132  0.0902
 5244SOL    HW127365   0.758   2.511   0.704  2.1236  0.8652  1.6240
 5244SOL    HW227366   0.728   2.534   0.848  1.3919 -2.4689 -0.7436
 5245SOL     OW27367   3.979   0.736   1.935 -0.2045  0.3442  0.2093
 5245SOL    HW127368   3.936   0.822   1.939  1.8346  1.3168  1.4455
 5245SOL    HW227369   3.907   0.674   1.945 -0.5211  0.3919 -1.6804
 5246SOL     OW27370   4.513   1.491   1.192  0.9702  0.5080 -0.5920
 5246SOL    HW127371   4.594   1.494   1.139  1.3304 -0.5519 -0.0945
 5246SOL    HW227372   4.450   1.446   1.137  0.0821 -0.9632  1.6310
 5247SOL     OW27373   3.893   3.562   3.505 -0.1137 -0.0988 -0.3384
 5247SOL    HW127374   3.846   3.557   3.422 -0.2227 -0.1964 -0.2712
 5247SOL    HW227375   3.964   3.622   3.481 -0.2307  0.4990  0.8186
 5248SOL     OW27376   1.829   0.239   4.150 -0.0350  0.4360  0.4598
 5248SOL    HW127377   1.805   0.276   4.235 -0.6687  0.8344  0.1098
 5248SOL    HW227378   1.768   0.282   4.089  1.0490 -0.3733 -1.1927
 5249SOL     OW27379   3.056   2.054   2.215  0.3883  0.4391 -0.0239
 5249SOL    HW127380   2.963   2.077   2.205 -0.5014 -2.8548  0.6712
 5249SOL    HW227381   3.070   2.023   2.125  1.1089 -1.8129  0.8493
 5250SOL     OW27382   2.667   3.974  13.846  0.7331 -0.5560  0.1385
 5250SOL    HW127383   2.625   4.046  13.801 -1.3470 -1.0893  1.2565
 5250SOL    HW227384   2.749   3.971  13.796  0.2263 -2.3456 -0.6020
 5251SOL     OW27385   0.747   4.491   9.258 -0.1975 -0.0612 -0.1330
 5251SOL    HW127386   0.671   4.523   9.209  0.7911  2.1650 -0.2458
 5251SOL    HW227387   0.706   4.500   9.344  0.3307 -1.7296  0.2903
 5252SOL     OW27388   4.413   1.026   2.411 -0.2282 -0.5876 -0.5338
 5252SOL    HW127389   4.376   1.110   2.439  0.6452 -0.1427 -0.7244
 5252SOL    HW227390   4.430   1.053   2.321 -1.1145  1.2104 -0.1471
 5253SOL     OW27391   4.636   1.440   5.128 -0.3489  0.6388  0.1803
 5253SOL    HW127392   4.624   1.401   5.215 -1.1406 -0.4717 -0.4280
 5253SOL    HW227393   4.620   1.534   5.134  1.3397  0.8851  0.6627
 5254SOL     OW27394   1.371   4.175   3.495  0.0192  0.5380 -0.1091
 5254SOL    HW127395   1.412   4.101   3.541 -0.3755  0.6740  0.4630
 5254SOL    HW227396   1.284   4.171   3.534  0.6692 -2.2263  1.0609
 5255SOL     OW27397   2.735   1.088   7.491 -0.2677  0.2711 -0.0936
 5255SOL    HW127398   2.796   1.087   7.565  0.9080 -1.0723 -1.0951
 5255SOL    HW227399   2.761   1.006   7.451  0.8433  1.7189 -2.3409
 5256SOL     OW27400   4.660   1.774   6.615  0.2629  0.4133  0.3498
 5256SOL    HW127401   4.626   1.687   6.635 -0.1036  0.1722 -1.3325
 5256SOL    HW227402   4.652   1.781   6.520  1.4452  0.9299  0.2870
 5257SOL     OW27403   3.967   2.300  17.521 -0.0424 -0.2110 -0.5652
 5257SOL    HW127404   3.878   2.332  17.537  0.4023 -0.2181  1.9206
 5257SOL    HW227405   4.026   2.370  17.550 -0.4251  0.0426 -0.4041
 5258SOL     OW27406   4.238   1.177   3.092 -0.3307 -0.1142 -0.0397
 5258SOL    HW127407   4.277   1.193   3.006  0.2182 -0.9369  0.0543
 5258SOL    HW227408   4.296   1.217   3.157  0.7026 -0.9990 -0.4337
 5259SOL     OW27409   1.032   1.759   4.645 -0.3721 -0.4585  0.2500
 5259SOL    HW127410   0.955   1.731   4.596  0.4143 -0.6657 -0.8971
 5259SOL    HW227411   1.047   1.684   4.702  3.7611  2.4135  2.9109
 5260SOL     OW27412   3.426   2.923   9.471  0.1320 -0.2201  0.4558
 5260SOL    HW127413   3.516   2.898   9.494 -1.0764 -1.2858  3.9827
 5260SOL    HW227414   3.399   2.988   9.535  1.2233  1.3589 -0.7007
 5261SOL     OW27415   4.345   0.090  13.449  0.5519 -0.1055 -0.6721
 5261SOL    HW127416   4.261   0.119  13.486  0.0083 -1.2930 -0.9901
 5261SOL    HW227417   4.391   0.061  13.528 -0.1825  1.5460  0.3678
 5262SOL     OW27418   2.407   2.058  12.180 -0.2302  0.2320  0.0901
 5262SOL    HW127419   2.467   2.120  12.221  0.9885 -0.5132 -0.5787
 5262SOL    HW227420   2.349   2.034  12.253 -1.1612 -0.2316 -0.7890
 5263SOL     OW27421   1.877   2.823   2.221 -0.2346 -0.7710 -0.0206
 5263SOL    HW127422   1.826   2.747   2.193 -1.1464 -1.1384  2.6900
 5263SOL    HW227423   1.808   2.882   2.250  0.4353  0.2313 -0.4605
 5264SOL     OW27424   1.529   1.898   8.454  0.0171  0.0990 -0.3985
 5264SOL    HW127425   1.521   1.804   8.472 -1.8230  0.2948 -0.2511
 5264SOL    HW227426   1.607   1.923   8.504 -0.8721  2.5266 -0.2092
 5265SOL     OW27427   4.345   0.244  11.035  0.1360  0.5078  0.4596
 5265SOL    HW127428   4.407   0.308  10.999  0.6428 -2.5600 -4.0931
 5265SOL    HW227429   4.359   0.264  11.128  1.3558  1.1847  0.1361
 5266SOL     OW27430   3.488   2.115  15.581  0.5524 -0.2873 -0.0809
 5266SOL    HW127431   3.462   2.103  15.672 -1.1708  2.0109 -0.2721
 5266SOL    HW227432   3.428   2.050  15.544  1.1671 -0.9379  0.0670
 5267SOL     OW27433   1.584   3.498   9.503  0.4864  0.1333 -0.2506
 5267SOL    HW127434   1.651   3.544   9.553 -1.4995 -1.2489  3.7285
 5267SOL    HW227435   1.521   3.457   9.563 -0.0306 -0.2129 -1.0261
 5268SOL     OW27436   2.909   1.356   9.576  0.4854  0.0130 -0.2893
 5268SOL    HW127437   2.919   1.297   9.651  0.0116 -0.3359 -0.5003
 5268SOL    HW227438   2.970   1.426   9.599  1.7024 -1.1815  0.1241
 5269SOL     OW27439   3.030   4.169   7.345  0.3254  0.2017 -0.2784
 5269SOL    HW127440   3.047   4.108   7.417  2.1881 -0.7808 -1.5278
 5269SOL    HW227441   2.951   4.211   7.377 -0.4725 -1.6656  0.2303
 5270SOL     OW27442   2.069   4.288   9.219 -0.6059 -0.4323 -0.7516
 5270SOL    HW127443   1.983   4.291   9.261 -0.2940 -1.6616 -0.0381
 5270SOL    HW227444   2.098   4.201   9.245  0.6999 -0.5130 -2.4330
 5271SOL     OW27445   0.879   1.072   7.047  0.0935  0.0028  0.0658
 5271SOL    HW127446   0.916   1.160   7.048  1.4457 -0.5976  2.1342
 5271SOL    HW227447   0.956   1.016   7.049 -0.0569 -0.3126 -2.5777
 5272SOL     OW27448   0.445   2.190   8.991  0.0976  0.2159  0.7179
 5272SOL    HW127449   0.388   2.268   8.984 -1.2618 -0.8590 -0.3140
 5272SOL    HW227450   0.457   2.176   9.084  2.1392 -0.6467  0.3057
 5273SOL     OW27451   4.667   0.139   4.770  0.7598 -0.0958 -0.3380
 5273SOL    HW127452   4.641   0.201   4.837 -1.5720 -0.1752 -1.1844
 5273SOL    HW227453   4.624   0.176   4.693  0.4970  1.6202  0.6474
 5274SOL     OW27454   0.362   2.242   8.314  0.1425 -0.5684 -0.5064
 5274SOL    HW127455   0.313   2.169   8.275 -1.6939  0.4748 -0.1357
 5274SOL    HW227456   0.325   2.319   8.270  0.4910 -0.5042 -0.6857
 5275SOL     OW27457   0.569   3.011   7.422  0.3617 -0.2721  0.1990
 5275SOL    HW127458   0.574   2.969   7.336  0.4336  1.7424 -0.7789
 5275SOL    HW227459   0.660   3.037   7.435 -0.7581  2.7430  1.9702
 5276SOL     OW27460   3.602   4.671   1.877 -0.5982  0.3257 -0.0408
 5276SOL    HW127461   3.697   4.665   1.880 -0.6033 -0.0178 -0.4838
 5276SOL    HW227462   3.591   0.011   1.824 -2.3324  1.7433  2.4199
 5277SOL     OW27463   0.731   2.749   1.649 -0.6289  0.3636 -0.4053
 5277SOL    HW127464   0.747   2.841   1.628 -0.3609 -0.0785 -2.1580
 5277SOL    HW227465   0.643   2.738   1.613 -0.0696 -0.1963 -1.6002
 5278SOL     OW27466   3.800   2.454   4.608 -0.0939  0.1942 -0.0736
 5278SOL    HW127467   3.815   2.361   4.626 -1.7544 -0.2170 -0.7737
 5278SOL    HW227468   3.711   2.468   4.575  0.0138 -1.2869 -0.9923
 5279SOL     OW27469   1.983   4.095   8.833  0.6943 -0.3832  0.6762
 5279SOL    HW127470   2.007   4.047   8.753  1.7500 -0.1052  0.8249
 5279SOL    HW227471   2.060   4.122   8.883  1.8016  0.5644 -1.5198
 5280SOL     OW27472   3.591   2.579   1.725 -1.0006 -0.3332 -0.0450
 5280SOL    HW127473   3.656   2.538   1.784 -0.5957  1.8979  1.0633
 5280SOL    HW227474   3.586   2.660   1.776 -0.2033 -0.2855 -0.0356
 5281SOL     OW27475   0.080   2.123   6.618 -0.0705 -0.0606  0.4552
 5281SOL    HW127476   0.073   2.217   6.604 -1.2109 -0.3734 -1.1541
 5281SOL    HW227477   0.170   2.107   6.589 -0.0614 -0.7816  0.8834
 5282SOL     OW27478   1.795   1.748   2.781 -0.5795 -0.3991  0.1038
 5282SOL    HW127479   1.866   1.767   2.843 -1.3051  2.0487  0.1790
 5282SOL    HW227480   1.774   1.839   2.757 -0.3407  0.1266  1.8725
 5283SOL     OW27481   2.049   3.355   7.073  0.0285  0.6754  0.0823
 5283SOL    HW127482   2.043   3.401   7.156 -0.7887  1.4166 -0.3826
 5283SOL    HW227483   2.051   3.430   7.014 -1.2856  0.0808 -0.7053
 5284SOL     OW27484   0.270   1.025  17.423 -0.4024  0.2083  0.2979
 5284SOL    HW127485   0.206   1.093  17.402 -0.1153  0.3795 -0.0359
 5284SOL    HW227486   0.304   1.010  17.334  1.7978 -1.9373  1.4738
 5285SOL     OW27487   0.364   3.196   1.544 -0.7499  0.3868 -0.6251
 5285SOL    HW127488   0.294   3.214   1.606 -3.4385  0.6804 -3.7996
 5285SOL    HW227489   0.340   3.271   1.491 -0.0449  0.6630 -0.5581
 5286SOL     OW27490   0.268   4.097   5.168 -0.0617 -0.1752  0.0647
 5286SOL    HW127491   0.325   4.082   5.092  0.3036  3.1966 -0.3413
 5286SOL    HW227492   0.280   4.014   5.213  0.0447  0.6925  1.6276
 5287SOL     OW27493   4.350   4.225   8.769 -0.3146  0.1315 -0.8902
 5287SOL    HW127494   4.413   4.251   8.837 -1.1867  1.4581 -0.5785
 5287SOL    HW227495   4.348   4.131   8.784 -0.7851  0.2800 -0.0155
 5288SOL     OW27496   3.450   0.373   5.556 -0.7748 -0.2390  0.0849
 5288SOL    HW127497   3.460   0.446   5.494 -0.5749  0.2438  0.6865
 5288SOL    HW227498   3.513   0.396   5.624 -2.1449  0.0254  1.2575
 5289SOL     OW27499   3.466   3.679   3.277  0.0565 -0.6606 -0.4287
 5289SOL    HW127500   3.415   3.760   3.278  1.0337  0.0373 -4.8401
 5289SOL    HW227501   3.477   3.678   3.182  1.6411 -2.9808 -0.2249
 5290SOL     OW27502   2.731   0.079   4.733 -0.1951  0.3115 -0.1311
 5290SOL    HW127503   2.793   0.152   4.730  1.1124 -0.8194 -1.1592
 5290SOL    HW227504   2.681   0.119   4.804 -1.6422  1.3332 -1.7365
 5291SOL     OW27505   0.699   1.062   9.280 -0.5481  0.1232  0.4514
 5291SOL    HW127506   0.714   1.153   9.305  0.0911  0.5188 -1.3561
 5291SOL    HW227507   0.717   1.058   9.186  0.2539 -0.8712  0.6453
 5292SOL     OW27508   4.308   4.067  13.139  0.3003 -0.6572 -0.0853
 5292SOL    HW127509   4.271   4.146  13.100 -1.4639 -0.9545  1.0229
 5292SOL    HW227510   4.285   4.005  13.070 -2.1937 -1.0521  1.1100
 5293SOL     OW27511   2.162   0.346   8.101  0.0464 -0.1456 -0.3787
 5293SOL    HW127512   2.231   0.304   8.049 -0.2807 -1.8267  0.5475
 5293SOL    HW227513   2.147   0.422   8.045 -1.8915  0.7478  1.3626
 5294SOL     OW27514   3.828   3.995   4.206  0.1180  0.4694  0.3680
 5294SOL    HW127515   3.891   3.928   4.183  2.1481  2.8182 -0.8819
 5294SOL    HW227516   3.757   3.941   4.240  0.9250 -0.6169  0.3223
 5295SOL     OW27517   2.098   2.123   6.268  0.0231 -0.3053 -0.1906
 5295SOL    HW127518   2.033   2.185   6.299  1.0519  1.4677 -1.5911
 5295SOL    HW227519   2.128   2.164   6.186  1.9711 -0.4915  0.4241
 5296SOL     OW27520   2.692   4.315   7.114 -0.2267 -0.3957 -0.0714
 5296SOL    HW127521   2.729   4.234   7.079  1.7685 -0.4495  2.1787
 5296SOL    HW227522   2.701   4.306   7.209  1.5260  1.6190 -0.0457
 5297SOL     OW27523   1.840   1.906   5.656 -0.0666  0.2366 -0.6711
 5297SOL    HW127524   1.900   1.856   5.600 -0.4813 -1.5715  0.4946
 5297SOL    HW227525   1.778   1.936   5.589 -0.0390  0.2136 -0.7075
 5298SOL     OW27526   0.020   3.293   4.421 -0.8738  0.2842  0.3813
 5298SOL    HW127527   4.702   3.247   4.483  1.5431  0.5787  2.8477
 5298SOL    HW227528   0.050   3.221   4.366 -1.3613  1.1177 -0.9494
 5299SOL     OW27529   2.651   3.162  11.815 -0.2425  0.6376 -0.0935
 5299SOL    HW127530   2.612   3.244  11.785 -1.5124 -0.4196 -1.3846
 5299SOL    HW227531   2.714   3.191  11.880 -0.9412  0.5520  0.6239
 5300SOL     OW27532   2.311   3.680  11.204 -0.4220 -0.2765 -0.0291
 5300SOL    HW127533   2.246   3.676  11.134 -0.1199 -2.2053 -0.1970
 5300SOL    HW227534   2.262   3.710  11.280  0.4681  0.9822  0.0360
 5301SOL     OW27535   3.215   0.481   4.070  0.3566 -0.3555 -0.0934
 5301SOL    HW127536   3.123   0.476   4.094  0.3158  0.6650 -0.0492
 5301SOL    HW227537   3.264   0.485   4.153  1.2920  0.2811 -0.6667
 5302SOL     OW27538   2.792   0.211   2.979  0.4219  0.4677  0.1080
 5302SOL    HW127539   2.819   0.125   2.947 -1.7864  0.0272 -0.5478
 5302SOL    HW227540   2.821   0.265   2.906  1.3458  0.4703  0.4725
 5303SOL     OW27541   0.187   4.309   2.458  0.4151 -0.3272  0.5486
 5303SOL    HW127542   0.151   4.262   2.383 -0.6518  1.5407 -0.1053
 5303SOL    HW227543   0.276   4.317   2.424 -0.6446 -0.4052 -2.2386
 5304SOL     OW27544   2.231   1.187  14.838 -0.0553  0.1648  0.2168
 5304SOL    HW127545   2.297   1.185  14.770  1.2236  2.5807  1.3815
 5304SOL    HW227546   2.287   1.217  14.910  0.5076  0.6999 -0.4512
 5305SOL     OW27547   2.198   0.533   1.399 -0.4896 -0.3827  0.6134
 5305SOL    HW127548   2.261   0.498   1.336  0.0973  1.4676  0.1532
 5305SOL    HW227549   2.121   0.500   1.353 -0.1435  0.3278 -0.5058
 5306SOL     OW27550   3.048   1.109   2.686 -0.3467  0.4174  0.3253
 5306SOL    HW127551   3.109   1.084   2.755  0.1224  1.8693  0.4177
 5306SOL    HW227552   3.045   1.022   2.646 -0.8324 -0.0520  1.3813
 5307SOL     OW27553   1.542   3.193   1.789 -0.1768 -0.1161 -0.8335
 5307SOL    HW127554   1.621   3.184   1.736 -0.4638 -0.0118 -1.2767
 5307SOL    HW227555   1.576   3.175   1.876 -0.4372  1.8477 -0.3349
 5308SOL     OW27556   0.775   0.230   5.191 -0.3070  0.1686  0.1857
 5308SOL    HW127557   0.680   0.234   5.186 -0.3028 -0.9082 -0.9047
 5308SOL    HW227558   0.802   0.277   5.270 -1.2968  1.9972 -0.5676
 5309SOL     OW27559   1.405   1.363  14.626  0.8960  0.5035  0.0870
 5309SOL    HW127560   1.344   1.435  14.620 -2.2864 -2.2015 -0.0002
 5309SOL    HW227561   1.412   1.348  14.720 -2.1160 -0.1924  0.1740
 5310SOL     OW27562   1.467   0.568   1.359 -0.1450 -0.3774  0.5536
 5310SOL    HW127563   1.453   0.482   1.321 -2.2530  0.7367 -1.1878
 5310SOL    HW227564   1.525   0.546   1.432 -0.6964 -0.7976  0.8686
 5311SOL     OW27565   2.099   0.032   8.620 -0.3878 -0.5039 -0.5663
 5311SOL    HW127566   2.171   4.724   8.661  0.2694  1.2152  0.2704
 5311SOL    HW227567   2.121   0.124   8.637  1.7528 -0.7584 -2.0386
 5312SOL     OW27568   0.762   1.502   1.999 -0.3145 -0.3093  0.2290
 5312SOL    HW127569   0.836   1.457   2.040 -0.5122 -0.8792 -0.0373
 5312SOL    HW227570   0.810   1.562   1.942  2.3694 -1.6473  1.0550
 5313SOL     OW27571   4.196   2.574  17.388  0.1073  0.1366  0.0880
 5313SOL    HW127572   4.178   2.503  17.449  0.9378  0.3695  0.6055
 5313SOL    HW227573   4.203   2.533  17.302 -1.3828 -1.4301  0.7150
 5314SOL     OW27574   0.941   2.774   2.984 -0.3206  0.1738  0.3497
 5314SOL    HW127575   0.893   2.830   2.924  0.6446  1.3513  0.6649
 5314SOL    HW227576   0.987   2.711   2.927 -1.6682 -1.5729  1.2043
 5315SOL     OW27577   3.178   0.126  15.941  0.1078 -0.6357 -0.1588
 5315SOL    HW127578   3.138   0.101  15.857 -2.9168 -0.2571  1.1776
 5315SOL    HW227579   3.233   0.196  15.906  0.2779 -1.2264 -1.0880
 5316SOL     OW27580   2.376   3.714  17.251  0.1093  0.1746  0.4344
 5316SOL    HW127581   2.436   3.641  17.234  0.0715  0.5380 -1.2730
 5316SOL    HW227582   2.398   3.734  17.341 -0.0061 -1.4306  0.8232
 5317SOL     OW27583   3.732   0.780  11.029  0.2313 -0.0405  0.0733
 5317SOL    HW127584   3.809   0.835  11.043  0.3411 -0.4803  1.2313
 5317SOL    HW227585   3.682   0.796  11.109 -1.9319 -1.8423 -0.9398
 5318SOL     OW27586   3.563   0.636   3.685  0.5207 -0.2930  0.9060
 5318SOL    HW127587   3.633   0.663   3.625 -1.0118 -1.0115 -1.2473
 5318SOL    HW227588   3.504   0.581   3.632  0.4225 -0.2635  0.9845
 5319SOL     OW27589   2.519   1.165   6.731 -0.0495 -0.2938  0.0870
 5319SOL    HW127590   2.466   1.206   6.799 -0.5325  0.7194 -0.9146
 5319SOL    HW227591   2.485   1.076   6.738 -2.6583  0.5183 -2.2059
 5320SOL     OW27592   3.402   1.650   3.498 -0.1135  0.7619 -0.0578
 5320SOL    HW127593   3.439   1.732   3.531 -0.5496  0.1360  2.0374
 5320SOL    HW227594   3.466   1.613   3.437  0.6219 -1.9269  2.3229
 5321SOL     OW27595   2.753   4.661   5.891  0.0210  0.4555 -0.0372
 5321SOL    HW127596   2.705   4.662   5.974 -0.1144  1.1078 -0.1242
 5321SOL    HW227597   2.751   4.567   5.872 -3.2664  0.7900 -1.2057
 5322SOL     OW27598   0.043   2.733  17.516  0.2638 -0.5228 -0.2499
 5322SOL    HW127599   0.096   2.794  17.464 -1.3497  1.4066  0.3272
 5322SOL    HW227600   0.017   2.664  17.456 -1.5814 -0.5409  0.5848
 5323SOL     OW27601   4.445   1.260   7.087  0.0590  0.7886 -0.0674
 5323SOL    HW127602   4.378   1.213   7.039  0.6150  0.8658 -0.9233
 5323SOL    HW227603   4.417   1.254   7.179  0.0991  2.6765  0.0602
 5324SOL     OW27604   0.144   3.670   6.026  0.0690  0.2555 -0.2435
 5324SOL    HW127605   0.085   3.704   6.093 -0.9640 -0.5005 -0.7612
 5324SOL    HW227606   0.116   3.727   5.954 -1.5301 -1.7626 -1.2434
 5325SOL     OW27607   4.296   4.074   7.816 -0.5112 -0.8059 -0.0439
 5325SOL    HW127608   4.261   4.147   7.765  1.9832 -0.8419 -1.7745
 5325SOL    HW227609   4.222   4.014   7.810 -1.1338 -0.0509 -0.0138
 5326SOL     OW27610   2.680   3.239   4.906 -0.0831  0.9041  0.7516
 5326SOL    HW127611   2.652   3.263   4.818  1.9623 -1.0723 -0.4371
 5326SOL    HW227612   2.597   3.221   4.949 -0.1296 -1.0776 -0.1372
 5327SOL     OW27613   0.180   3.137   3.032  0.0952 -0.5835 -0.3298
 5327SOL    HW127614   0.156   3.218   3.077 -0.2080 -0.5116 -0.6135
 5327SOL    HW227615   0.098   3.102   2.995 -0.0897  0.1825 -0.6493
 5328SOL     OW27616   3.622   4.635   5.429  0.7957 -0.1648 -0.8835
 5328SOL    HW127617   3.652   4.717   5.468  0.8718 -1.4336  1.7416
 5328SOL    HW227618   3.672   4.655   5.349  2.4935  1.1134  0.5038
 5329SOL     OW27619   4.207   2.396  17.590  0.3211 -0.0968  0.7895
 5329SOL    HW127620   4.296   2.414  17.620  0.9524  0.7502 -1.5872
 5329SOL    HW227621   4.176   2.340  17.662 -0.8369  2.5326  2.3478
 5330SOL     OW27622   2.930   1.144   5.294  0.3367  0.0591 -0.0722
 5330SOL    HW127623   2.927   1.085   5.369 -1.3481  2.9091  2.0961
 5330SOL    HW227624   2.845   1.124   5.254  0.0133  2.1656 -0.4549
 5331SOL     OW27625   4.362   2.866  13.436  0.1730  0.1963  0.3268
 5331SOL    HW127626   4.448   2.902  13.415 -0.2840  1.9687  1.4415
 5331SOL    HW227627   4.334   2.943  13.486 -1.8058 -0.8190  0.7907
 5332SOL     OW27628   1.128   2.350   7.714  0.5329  0.1795 -0.5507
 5332SOL    HW127629   1.054   2.325   7.770 -0.3658 -1.3158 -2.4080
 5332SOL    HW227630   1.205   2.346   7.771  0.6075 -0.4684 -0.6983
 5333SOL     OW27631   1.314   3.204   1.542 -0.1811 -0.3633 -0.1481
 5333SOL    HW127632   1.357   3.285   1.570 -2.2755  0.2575  1.3207
 5333SOL    HW227633   1.346   3.190   1.453  0.1372  1.4301 -0.3087
 5334SOL     OW27634   1.352   0.555   6.830 -0.2603 -0.1437 -0.4027
 5334SOL    HW127635   1.266   0.518   6.810 -0.2408 -2.0964  3.1201
 5334SOL    HW227636   1.372   0.512   6.914  1.9901 -0.7680 -1.2550
 5335SOL     OW27637   4.104   2.204   2.564 -0.4305  0.0069  0.0336
 5335SOL    HW127638   4.027   2.230   2.615 -1.5536 -0.6395 -1.3194
 5335SOL    HW227639   4.102   2.264   2.489 -1.7073  2.1659  1.7889
 5336SOL     OW27640   2.482   2.262   4.601 -0.0825  0.0198  0.3893
 5336SOL    HW127641   2.391   2.257   4.571 -0.1650  1.2548  0.4347
 5336SOL    HW227642   2.461   2.237   4.691 -2.5720  0.5514 -0.0457
 5337SOL     OW27643   0.605   3.831   2.843  0.4091 -0.2609 -0.5201
 5337SOL    HW127644   0.510   3.839   2.831  0.0637 -3.1588  0.3433
 5337SOL    HW227645   0.606   3.785   2.927  0.6481  0.8396  0.0744
 5338SOL     OW27646   1.665   4.005   4.482 -0.6443  0.0316 -0.2557
 5338SOL    HW127647   1.718   4.016   4.403 -0.2746 -0.2065 -0.0455
 5338SOL    HW227648   1.581   4.044   4.458 -0.5366  1.8205  2.2474
 5339SOL     OW27649   1.233   1.647  16.362  0.1882  0.3822 -0.0237
 5339SOL    HW127650   1.206   1.716  16.301  2.6527  0.4895 -0.9881
 5339SOL    HW227651   1.301   1.608  16.306  0.3651 -2.0066  1.8621
 5340SOL     OW27652   2.437   3.921   0.664 -0.3643  0.4142 -0.4738
 5340SOL    HW127653   2.526   3.906   0.696 -0.6506  0.6379  0.4096
 5340SOL    HW227654   2.453   3.908   0.570 -2.0010  1.0228 -0.8367
 5341SOL     OW27655   4.608   2.388   5.031 -0.4323 -0.3233  0.5452
 5341SOL    HW127656   4.680   2.406   5.092  0.5283  1.1461 -0.9803
 5341SOL    HW227657   4.532   2.423   5.078 -1.0767  0.8720 -1.3728
 5342SOL     OW27658   3.671   3.435   2.523 -0.2540  0.2853 -0.2315
 5342SOL    HW127659   3.739   3.369   2.513 -2.5914 -2.1370  0.1731
 5342SOL    HW227660   3.693   3.507   2.463  0.8877 -0.2367 -0.4359
 5343SOL     OW27661   2.122   0.316  15.958  0.1206 -0.3338 -0.2361
 5343SOL    HW127662   2.087   0.402  15.936 -1.8826 -0.7885  1.1966
 5343SOL    HW227663   2.036   0.276  15.946  0.6880 -0.9761 -2.0555
 5344SOL     OW27664   3.413   2.708   7.543  0.0355 -0.8994  0.1548
 5344SOL    HW127665   3.335   2.763   7.535  0.9828  0.4920  0.4711
 5344SOL    HW227666   3.372   2.637   7.494 -1.3897 -0.1775  0.3047
 5345SOL     OW27667   1.582   4.567  12.261  0.5360 -0.6134  0.8525
 5345SOL    HW127668   1.589   4.578  12.166 -0.9195  1.4155  0.9776
 5345SOL    HW227669   1.509   4.626  12.281 -0.7639 -1.6173 -1.0197
 5346SOL     OW27670   4.105   1.039   3.773  0.1262  0.2764 -0.7270
 5346SOL    HW127671   4.113   1.044   3.678  0.8808 -0.1235 -0.6786
 5346SOL    HW227672   4.009   1.043   3.782 -0.1085 -0.1172 -3.0128
 5347SOL     OW27673   3.902   4.737   0.425  0.0193  0.6175  0.4521
 5347SOL    HW127674   3.892   0.080   0.472  1.0470  1.5085 -0.8667
 5347SOL    HW227675   3.911   4.677   0.499  1.4996  1.4426  0.9319
 5348SOL     OW27676   0.256   3.655   7.032 -0.0510  0.0891 -0.0425
 5348SOL    HW127677   0.175   3.706   7.025 -0.1711 -0.2662 -1.1427
 5348SOL    HW227678   0.230   3.594   6.963  0.0084  1.5644 -1.3629
 5349SOL     OW27679   0.366   1.961   9.169 -0.2606 -0.4277  0.8095
 5349SOL    HW127680   0.384   2.039   9.222 -0.6530 -0.4421  0.9607
 5349SOL    HW227681   0.284   1.977   9.124  0.4897 -0.3266 -0.5046
 5350SOL     OW27682   0.550   0.946  15.458  0.4840 -0.1565 -0.3175
 5350SOL    HW127683   0.480   0.892  15.421 -0.4437  0.6208  0.2900
 5350SOL    HW227684   0.505   1.016  15.506 -2.4796 -0.5309 -2.5589
 5351SOL     OW27685   0.439   3.543  10.929 -0.4172  0.0853  0.1740
 5351SOL    HW127686   0.458   3.529  11.022  2.5934 -2.2747 -0.7989
 5351SOL    HW227687   0.462   3.635  10.919 -1.5373  0.1273 -1.9819
 5352SOL     OW27688   0.802   2.282   6.716 -0.8202 -0.3249 -0.2988
 5352SOL    HW127689   0.728   2.291   6.656 -0.6016  2.0710 -0.1920
 5352SOL    HW227690   0.879   2.273   6.661 -1.4496  0.2907 -1.2788
 5353SOL     OW27691   0.218   0.396   8.673  0.4654 -0.4674  0.3653
 5353SOL    HW127692   0.234   0.341   8.596  0.1264  0.5770 -0.4644
 5353SOL    HW227693   0.165   0.463   8.630 -0.1066 -2.4125 -1.9604
 5354SOL     OW27694   4.009   1.132   9.336 -0.3383 -0.2957  0.2080
 5354SOL    HW127695   4.074   1.160   9.401  0.1697 -2.1524  0.5129
 5354SOL    HW227696   3.931   1.184   9.353  0.7598  0.9729  1.3924
 5355SOL     OW27697   2.236   1.958   0.996 -0.3268 -0.1120  0.0867
 5355SOL    HW127698   2.301   1.946   0.927 -2.2207  1.1235 -1.8846
 5355SOL    HW227699   2.234   1.877   1.046 -2.1497  1.1544  2.0963
 5356SOL     OW27700   1.073   4.336  11.173 -0.2034 -0.0580 -1.1743
 5356SOL    HW127701   1.156   4.380  11.156 -0.4002  0.9485  0.5291
 5356SOL    HW227702   1.087   4.328  11.267 -4.9275  1.0666 -0.3742
 5357SOL     OW27703   1.423   1.960  13.227 -0.1015 -0.1013  0.1666
 5357SOL    HW127704   1.378   2.002  13.299  1.4359  1.8320 -0.0008
 5357SOL    HW227705   1.373   1.879  13.227 -0.2625 -0.0006  0.4323
 5358SOL     OW27706   2.801   2.720   7.897 -0.1936 -0.4457  0.2032
 5358SOL    HW127707   2.737   2.775   7.943  0.0050  1.2074 -1.4612
 5358SOL    HW227708   2.738   2.674   7.841 -1.3419  0.7766  0.4624
 5359SOL     OW27709   0.728   3.482   1.421 -0.6093 -0.0925 -0.0519
 5359SOL    HW127710   0.665   3.449   1.485 -1.7420  1.6262 -0.2951
 5359SOL    HW227711   0.709   3.575   1.411 -0.5439  0.0470  1.2029
 5360SOL     OW27712   0.696   0.861   0.228 -0.1683  0.3411  0.2100
 5360SOL    HW127713   0.748   0.853   0.148  0.1093 -1.7351  0.6023
 5360SOL    HW227714   0.763   0.893   0.287  0.3310 -0.8398  0.2925
 5361SOL     OW27715   0.304   0.867   3.966  0.8295  0.3460 -0.4165
 5361SOL    HW127716   0.368   0.812   4.011 -0.8225 -1.6374 -0.4475
 5361SOL    HW227717   0.367   0.922   3.921  2.4720 -0.8497  0.4126
 5362SOL     OW27718   4.040   2.425   9.543  0.2831  0.2223 -0.2228
 5362SOL    HW127719   3.979   2.454   9.612  0.8484 -2.0192  1.2063
 5362SOL    HW227720   4.117   2.402   9.595 -0.8825 -0.2478  1.2979
 5363SOL     OW27721   1.963   3.594   7.297 -0.0673  0.3133 -0.0756
 5363SOL    HW127722   1.907   3.614   7.223  0.7113 -0.3585 -0.8426
 5363SOL    HW227723   1.899   3.588   7.368  1.2177  0.9715  1.1585
 5364SOL     OW27724   2.317   1.831   7.556  0.0358 -0.4534 -0.2813
 5364SOL    HW127725   2.363   1.875   7.484  1.5303  0.9375  1.5249
 5364SOL    HW227726   2.342   1.886   7.630  0.3566 -0.8272 -0.1148
 5365SOL     OW27727   3.237   1.955   2.678 -0.1286  0.3091  0.9351
 5365SOL    HW127728   3.202   2.006   2.605 -1.8441 -1.8024  0.2894
 5365SOL    HW227729   3.297   2.020   2.716  1.0624 -1.2350  1.7192
 5366SOL     OW27730   4.306   0.352   5.802 -0.0271  0.4916 -0.5192
 5366SOL    HW127731   4.388   0.303   5.792 -0.6138 -0.2923 -1.4931
 5366SOL    HW227732   4.331   0.442   5.783  0.7320 -0.0650 -2.2138
 5367SOL     OW27733   4.493   3.579   4.864 -0.4785  0.1462  0.0115
 5367SOL    HW127734   4.474   3.578   4.958 -0.4273 -0.0299  0.0195
 5367SOL    HW227735   4.527   3.666   4.846 -0.6272  0.3386  0.6960
 5368SOL     OW27736   3.659   3.891  11.835 -0.0745  0.4396  0.1380
 5368SOL    HW127737   3.754   3.893  11.845 -0.3026 -0.0808  2.2481
 5368SOL    HW227738   3.645   3.960  11.770  0.4110  0.5731  0.1760
 5369SOL     OW27739   3.245   4.550  13.796  0.5963 -0.3465  0.0973
 5369SOL    HW127740   3.158   4.526  13.828  1.7114 -0.7899  2.7872
 5369SOL    HW227741   3.222   4.586  13.710 -2.7418 -2.4819  0.1071
 5370SOL     OW27742   2.428   3.433   8.092 -0.1553 -0.4034  0.0658
 5370SOL    HW127743   2.357   3.497   8.089  0.0422 -0.0853  2.1983
 5370SOL    HW227744   2.414   3.419   8.186 -0.4512  0.7008  0.1890
 5371SOL     OW27745   2.971   3.851   8.351  0.6294 -0.1981 -0.2034
 5371SOL    HW127746   2.970   3.774   8.408 -0.8838 -1.2583 -1.6805
 5371SOL    HW227747   2.928   3.810   8.276  3.0910 -1.9541 -0.6276
 5372SOL     OW27748   0.001   3.433   3.624 -0.2555 -0.0774 -0.6213
 5372SOL    HW127749   0.087   3.450   3.586 -1.0748  0.0175 -2.4259
 5372SOL    HW227750   0.009   3.492   3.699 -0.1130  1.2912 -1.7147
 5373SOL     OW27751   3.065   1.883   8.498  0.3736  0.5243  0.4870
 5373SOL    HW127752   3.106   1.895   8.412  1.4677 -1.3088  0.7714
 5373SOL    HW227753   2.975   1.866   8.472  0.1178  1.9274  0.4138
 5374SOL     OW27754   4.117   0.883  13.674 -0.7362 -0.0485  0.5061
 5374SOL    HW127755   4.109   0.807  13.732 -0.5954 -2.0434 -2.0757
 5374SOL    HW227756   4.140   0.846  13.589  0.7853  3.2425 -0.5340
 5375SOL     OW27757   4.548   3.047  13.358 -0.1834 -0.2113  0.3381
 5375SOL    HW127758   4.525   3.128  13.403  1.7303  0.5249  0.0106
 5375SOL    HW227759   4.642   3.055  13.343 -0.0057  0.1834  1.6662
 5376SOL     OW27760   2.283   4.055   9.237  0.0332  0.3685 -0.3067
 5376SOL    HW127761   2.331   4.121   9.188 -0.7396  1.2373  0.1029
 5376SOL    HW227762   2.339   4.046   9.313  0.2213  1.7491 -0.2739
 5377SOL     OW27763   0.350   2.902   6.781  0.1423 -0.0188  0.1456
 5377SOL    HW127764   0.345   2.997   6.791  0.6922 -0.1340  1.4921
 5377SOL    HW227765   0.336   2.891   6.687 -2.1531  0.7467  0.4011
 5378SOL     OW27766   1.045   4.513   5.168  0.5143  0.6303 -0.0348
 5378SOL    HW127767   1.033   4.480   5.257  2.2148 -0.6998 -0.2926
 5378SOL    HW227768   0.973   4.576   5.166 -0.8942 -0.9509  1.1227
 5379SOL     OW27769   4.612   1.520   8.849  0.4479 -0.1573  0.2257
 5379SOL    HW127770   4.586   1.444   8.797 -4.3478  0.6698  1.4757
 5379SOL    HW227771   4.594   1.484   8.936  0.6481  1.3295  0.8879
 5380SOL     OW27772   1.964   0.744   2.096 -1.1198  0.4454  0.6845
 5380SOL    HW127773   1.991   0.835   2.085  1.0107 -0.2131  0.3402
 5380SOL    HW227774   2.037   0.694   2.134  1.4113  3.1049 -0.6646
 5381SOL     OW27775   4.246   1.031   8.698  0.0942 -0.2715 -0.3415
 5381SOL    HW127776   4.175   0.967   8.702 -1.1397  1.2215  1.6104
 5381SOL    HW227777   4.222   1.076   8.617  0.4088  1.0937  0.3183
 5382SOL     OW27778   0.351   4.409  12.879 -0.5632  0.0525  0.1027
 5382SOL    HW127779   0.409   4.469  12.926  2.6819 -0.4838 -3.1506
 5382SOL    HW227780   0.269   4.432  12.923  0.6045  2.2016  1.1978
 5383SOL     OW27781   0.318   1.061  14.395 -0.9049  0.1140  0.1806
 5383SOL    HW127782   0.300   1.106  14.312  0.8255 -1.0468 -0.8354
 5383SOL    HW227783   0.231   1.047  14.432 -1.0126  1.0014  0.2635
 5384SOL     OW27784   2.512   0.597   2.574 -0.2077  0.1990 -0.3051
 5384SOL    HW127785   2.460   0.553   2.507 -0.0417 -0.2535 -0.1335
 5384SOL    HW227786   2.538   0.678   2.530 -1.6439  0.7066 -0.2088
 5385SOL     OW27787   1.322   4.614   6.650  0.6033  0.0404  0.2222
 5385SOL    HW127788   1.239   4.647   6.684 -0.0082 -0.6912 -0.5465
 5385SOL    HW227789   1.315   4.633   6.556  3.5002 -0.6145 -0.1490
 5386SOL     OW27790   4.596   1.136  14.191 -0.0746  0.1709 -0.2367
 5386SOL    HW127791   4.594   1.184  14.274 -0.7544 -0.1321 -0.0723
 5386SOL    HW227792   4.521   1.166  14.138  0.7110 -0.8767 -1.9294
 5387SOL     OW27793   3.632   2.466   7.715 -0.4497  0.6509  0.1665
 5387SOL    HW127794   3.665   2.432   7.798  0.2822  0.3477 -0.2431
 5387SOL    HW227795   3.597   2.549   7.746 -1.6564 -0.2175  1.1194
 5388SOL     OW27796   4.107   2.709   1.008  0.6115  0.0455  0.4399
 5388SOL    HW127797   4.143   2.798   1.013 -1.6626  1.0603 -1.7336
 5388SOL    HW227798   4.190   2.664   0.990 -0.1534 -2.0222  2.0717
 5389SOL     OW27799   0.328   1.438   6.059  0.0288  0.1041  0.3367
 5389SOL    HW127800   0.399   1.424   6.121  1.4265 -0.8855 -1.4856
 5389SOL    HW227801   0.248   1.415   6.107 -0.9847  0.0877 -1.3788
 5390SOL     OW27802   4.550   2.520   6.725  0.6193  0.5028 -0.5203
 5390SOL    HW127803   4.566   2.612   6.746  1.1406  0.4068 -0.4986
 5390SOL    HW227804   4.476   2.533   6.665  0.4124 -3.2371 -1.0833
 5391SOL     OW27805   1.209   1.918  12.395 -0.1719 -0.3376  0.3835
 5391SOL    HW127806   1.120   1.885  12.407  0.0721 -1.3913 -0.6389
 5391SOL    HW227807   1.259   1.889  12.472 -0.9879 -0.5339  0.8331
 5392SOL     OW27808   3.838   0.246   0.508 -0.5576  0.2376  0.0730
 5392SOL    HW127809   3.761   0.288   0.546 -2.2408 -0.5212 -2.5273
 5392SOL    HW227810   3.901   0.232   0.579  0.5791  1.2364 -0.7335
 5393SOL     OW27811   3.415   2.809   2.912  0.2138  0.5672  0.4585
 5393SOL    HW127812   3.346   2.791   2.976  1.3933 -0.5922  1.4054
 5393SOL    HW227813   3.474   2.736   2.932 -1.2152 -0.1683  1.9510
 5394SOL     OW27814   2.751   3.796   4.536 -0.3847 -0.5901  0.0997
 5394SOL    HW127815   2.757   3.889   4.513 -0.3830  0.0074  2.5710
 5394SOL    HW227816   2.671   3.778   4.487  0.1101  1.5713 -1.5147
 5395SOL     OW27817   3.627   3.792   8.941 -0.1437 -0.1707 -0.0679
 5395SOL    HW127818   3.676   3.717   8.908 -1.0984  0.0466 -1.9853
 5395SOL    HW227819   3.681   3.834   9.008 -1.3577 -0.9257  1.3857
 5396SOL     OW27820   4.631   4.384   2.606  0.0524  0.2055 -0.2044
 5396SOL    HW127821   4.640   4.331   2.526 -3.6297 -1.1654  0.2783
 5396SOL    HW227822   4.577   4.319   2.652  0.2191 -0.3119 -0.7424
 5397SOL     OW27823   3.905   1.705   7.930 -0.5044 -0.2296  0.2339
 5397SOL    HW127824   3.854   1.743   8.001 -1.0462  0.6047 -0.6064
 5397SOL    HW227825   3.994   1.735   7.947  0.7054 -2.8465 -1.3923
 5398SOL     OW27826   1.773   2.011   8.214 -0.5865  0.6320  0.5865
 5398SOL    HW127827   1.714   2.001   8.139 -0.0380  3.6211 -0.2164
 5398SOL    HW227828   1.728   2.050   8.288 -0.8182 -1.7479  1.7207
 5399SOL     OW27829   2.109   2.877   5.620 -0.2340  0.0011  0.3104
 5399SOL    HW127830   2.201   2.858   5.635  0.4385  1.5776 -1.6729
 5399SOL    HW227831   2.073   2.799   5.662  1.0916 -0.7290  0.0736
 5400SOL     OW27832   3.378   1.112   7.338  0.0047 -0.1423 -0.0041
 5400SOL    HW127833   3.337   1.043   7.389 -0.4394 -0.4929 -0.8365
 5400SOL    HW227834   3.345   1.083   7.253  3.0971  0.4141 -1.4169
 5401SOL     OW27835   0.334   3.545   2.024  0.2034  0.5833  0.0230
 5401SOL    HW127836   0.325   3.610   1.954  0.7601  0.1776 -0.4398
 5401SOL    HW227837   0.421   3.574   2.051  0.5820  0.6492 -1.2646
 5402SOL     OW27838   3.995   3.224   6.366 -0.5049 -0.0454 -0.7115
 5402SOL    HW127839   3.953   3.175   6.295 -1.6798  0.9102 -0.6760
 5402SOL    HW227840   4.068   3.264   6.319 -0.5746 -0.1712 -0.9293
 5403SOL     OW27841   4.205   4.553  16.723 -0.0516 -0.1004 -0.6364
 5403SOL    HW127842   4.157   4.574  16.803 -0.2290 -0.9759 -0.5099
 5403SOL    HW227843   4.126   4.537  16.670 -1.9577  3.1973  1.1864
 5404SOL     OW27844   1.607   3.365   1.149  0.2436  0.3954 -0.4995
 5404SOL    HW127845   1.569   3.450   1.124 -2.5983 -0.1255  2.1149
 5404SOL    HW227846   1.699   3.374   1.124  0.2047  0.1366 -0.7386
 5405SOL     OW27847   3.023   1.147   8.788 -0.1225  0.5596 -0.0896
 5405SOL    HW127848   3.022   1.241   8.802  0.1018  0.6638 -0.7877
 5405SOL    HW227849   2.953   1.141   8.723  1.9752 -1.5330 -2.1753
 5406SOL     OW27850   1.383   2.903  13.535 -0.3649  0.1158  0.3416
 5406SOL    HW127851   1.351   2.993  13.526 -1.4028 -0.4623 -1.8398
 5406SOL    HW227852   1.378   2.867  13.446 -4.3039  0.3887  0.4948
 5407SOL     OW27853   3.754   3.340   7.709  0.2957  0.5526  0.5437
 5407SOL    HW127854   3.758   3.244   7.709 -0.7479  0.5155 -0.7822
 5407SOL    HW227855   3.683   3.349   7.774 -0.5718  1.4175 -0.5298
 5408SOL     OW27856   3.802   1.162   6.754 -0.4858 -0.0894  0.0159
 5408SOL    HW127857   3.738   1.091   6.757 -1.2552  0.6297  0.5867
 5408SOL    HW227858   3.857   1.148   6.831  0.6150 -1.1525 -0.9657
 5409SOL     OW27859   3.149   1.994  15.629  0.1839 -0.3277  0.3100
 5409SOL    HW127860   3.055   2.013  15.621  0.3254 -0.2147 -1.0495
 5409SOL    HW227861   3.164   2.050  15.705  0.7684 -1.7727  1.2577
 5410SOL     OW27862   2.109   1.266  14.156  0.3011  0.3748 -0.1316
 5410SOL    HW127863   2.038   1.225  14.206 -0.7004  0.9261 -1.1041
 5410SOL    HW227864   2.088   1.227  14.071  0.9156 -2.2423  0.9319
 5411SOL     OW27865   3.068   1.634  14.764 -0.4261  0.5530  0.6648
 5411SOL    HW127866   3.140   1.695  14.779 -0.7002  1.4464 -1.6397
 5411SOL    HW227867   3.074   1.622  14.669  2.4236 -0.1925  0.9614
 5412SOL     OW27868   3.675   1.491   4.557 -0.1768  0.3780  0.3004
 5412SOL    HW127869   3.697   1.490   4.464  1.5638 -0.2340  0.7220
 5412SOL    HW227870   3.731   1.416   4.576  0.5038  0.3690 -1.7474
 5413SOL     OW27871   3.669   1.769   5.838  0.3594  0.2039  0.2396
 5413SOL    HW127872   3.593   1.825   5.855  0.3221  0.6141 -1.2563
 5413SOL    HW227873   3.725   1.832   5.794 -1.1262  0.5149 -1.2172
 5414SOL     OW27874   3.940   3.364  12.027  0.0988 -0.1497  0.0217
 5414SOL    HW127875   3.860   3.313  12.040  0.2600 -0.5930 -0.7126
 5414SOL    HW227876   3.998   3.304  11.980  1.7679  1.6675 -0.2656
 5415SOL     OW27877   4.120   4.147   2.966  0.1065  0.2844 -0.3037
 5415SOL    HW127878   4.155   4.130   3.054  1.3524 -2.0851 -1.2598
 5415SOL    HW227879   4.027   4.135   2.986  0.1832 -0.5109 -0.4170
 5416SOL     OW27880   1.335   1.543   3.420 -0.2651 -0.4914  0.2230
 5416SOL    HW127881   1.244   1.516   3.430 -0.5901  0.2832 -0.6838
 5416SOL    HW227882   1.384   1.464   3.398  1.9576  1.0079 -0.2380
 5417SOL     OW27883   0.443   3.197   7.563  0.3845  0.4744 -0.0226
 5417SOL    HW127884   0.451   3.113   7.518 -0.7492 -0.0492  0.7700
 5417SOL    HW227885   0.512   3.245   7.517  0.0840 -0.4681 -1.4305
 5418SOL     OW27886   4.249   1.945   1.834  0.1673 -0.1062  0.1688
 5418SOL    HW127887   4.206   1.887   1.772 -1.6229  2.1833 -0.7207
 5418SOL    HW227888   4.338   1.909   1.826  1.0003  1.5447  1.9283
 5419SOL     OW27889   3.798   0.975   1.922  0.4302 -0.5811  0.0548
 5419SOL    HW127890   3.745   1.022   1.987 -0.8313  0.1147 -1.5048
 5419SOL    HW227891   3.733   0.907   1.905  0.3469 -0.3142 -0.6973
 5420SOL     OW27892   1.569   1.945   3.424 -0.1571  0.3209  0.1217
 5420SOL    HW127893   1.548   2.034   3.451 -1.1988  0.7997 -2.2792
 5420SOL    HW227894   1.492   1.917   3.375  0.3744  2.7767 -2.0970
 5421SOL     OW27895   3.918   2.719   9.563 -0.5227 -0.6980  0.1371
 5421SOL    HW127896   3.831   2.697   9.527 -1.2779 -0.0341  1.5589
 5421SOL    HW227897   3.905   2.681   9.650 -1.1578  2.1524  1.2757
 5422SOL     OW27898   0.104   4.312   3.729 -0.2014 -0.5067  0.2067
 5422SOL    HW127899   0.054   4.393   3.736  1.9734  0.8052  0.6422
 5422SOL    HW227900   0.044   4.261   3.675 -0.9527 -0.4465  0.9824
 5423SOL     OW27901   4.353   0.399   2.321 -0.3964 -0.5394  0.0243
 5423SOL    HW127902   4.322   0.427   2.407 -1.3178 -0.2735 -0.3965
 5423SOL    HW227903   4.276   0.403   2.264  0.6201  2.2495 -1.1006
 5424SOL     OW27904   3.696   2.517   0.062 -0.0639 -0.0034 -0.3228
 5424SOL    HW127905   3.726   2.597   0.018 -0.5734  2.1164  3.1948
 5424SOL    HW227906   3.683   2.550   0.151  0.9067 -1.3592  0.3168
 5425SOL     OW27907   0.513   1.473   8.911 -0.6417 -0.1571 -0.4168
 5425SOL    HW127908   0.455   1.415   8.960  0.9116  0.4642  2.1280
 5425SOL    HW227909   0.456   1.550   8.901 -1.2051 -0.6838 -1.2704
 5426SOL     OW27910   0.262   4.114  11.883  0.1956  0.7611 -0.0979
 5426SOL    HW127911   0.185   4.081  11.837  0.6932  0.7495 -0.9228
 5426SOL    HW227912   0.258   4.087  11.974  0.2957  2.7326  0.5054
 5427SOL     OW27913   3.371   2.420  10.769  0.4000 -0.0612 -0.3327
 5427SOL    HW127914   3.349   2.467  10.688 -3.2145 -1.3198 -0.0793
 5427SOL    HW227915   3.437   2.361  10.733 -0.0675 -0.8107  0.0460
 5428SOL     OW27916   3.426   4.531   7.948  0.0979  0.6477  0.3970
 5428SOL    HW127917   3.371   4.455   7.966  0.0405  0.1060 -2.0792
 5428SOL    HW227918   3.431   4.535   7.853  1.2211 -0.5185  0.3971
 5429SOL     OW27919   2.165   4.670  10.055 -0.2949 -0.2536  0.4138
 5429SOL    HW127920   2.118   4.586  10.054  0.9737 -0.9629  0.3649
 5429SOL    HW227921   2.251   4.647  10.092  0.4499 -0.3642 -1.4031
 5430SOL     OW27922   0.672   3.580   5.867 -0.3504 -0.3930  0.6703
 5430SOL    HW127923   0.753   3.540   5.837  0.4198 -0.3339  2.6446
 5430SOL    HW227924   0.697   3.667   5.898  0.4996  0.0542 -1.3139
 5431SOL     OW27925   1.812   1.681   8.428 -0.0719 -0.0101  0.3890
 5431SOL    HW127926   1.899   1.708   8.456  0.6317 -0.2853 -1.5440
 5431SOL    HW227927   1.810   1.714   8.338  0.1545 -1.0281  0.0183
 5432SOL     OW27928   3.290   2.277   6.025  0.4386 -0.4428 -0.2615
 5432SOL    HW127929   3.301   2.251   6.117  0.1266  1.5668  0.3320
 5432SOL    HW227930   3.321   2.197   5.983 -1.0196 -0.5493 -1.1192
 5433SOL     OW27931   1.490   2.862   6.156  0.0535 -0.7005 -0.6470
 5433SOL    HW127932   1.522   2.952   6.167  0.2161 -0.6422 -1.6063
 5433SOL    HW227933   1.545   2.825   6.225 -0.1511 -1.5532 -0.9486
 5434SOL     OW27934   4.688   2.503   1.220  0.1482  0.5091  0.0774
 5434SOL    HW127935   4.715   2.420   1.181 -1.2281 -0.3513  0.9380
 5434SOL    HW227936   4.675   2.552   1.139  0.5062  1.2853  0.4942
 5435SOL     OW27937   0.976   1.490   7.933 -0.5007 -0.1446 -0.1325
 5435SOL    HW127938   0.900   1.512   7.987 -1.1940 -0.3208 -1.0307
 5435SOL    HW227939   0.972   1.395   7.927  0.3851 -0.2040  0.2245
 5436SOL     OW27940   1.490   1.011  11.637  0.0244  0.3387 -0.1387
 5436SOL    HW127941   1.528   0.964  11.563  3.6450 -0.2124  2.0857
 5436SOL    HW227942   1.559   1.076  11.645  1.6601 -1.4474  0.2838
 5437SOL     OW27943   1.339   2.676  11.938  0.0169 -0.0074  0.4235
 5437SOL    HW127944   1.410   2.723  11.895 -0.5735  0.2017 -0.3335
 5437SOL    HW227945   1.389   2.613  11.990  1.5792  0.6364 -0.2809
 5438SOL     OW27946   1.760   3.681   4.289 -0.2804 -0.1350 -0.3233
 5438SOL    HW127947   1.665   3.672   4.300 -0.0588 -0.1654  1.5954
 5438SOL    HW227948   1.793   3.630   4.363 -2.2076  0.8727  1.2469
 5439SOL     OW27949   4.042   2.425   1.860  0.0573  0.3000  0.0399
 5439SOL    HW127950   4.086   2.467   1.934 -2.0379 -1.3794  2.2497
 5439SOL    HW227951   4.061   2.332   1.872  0.9536  0.1493 -2.5452
 5440SOL     OW27952   3.136   0.991   4.186 -0.6875 -0.5954  0.1542
 5440SOL    HW127953   3.092   1.003   4.102 -0.3128 -0.4282 -0.0198
 5440SOL    HW227954   3.090   1.060   4.233  0.6604  1.9494 -2.2865
 5441SOL     OW27955   2.292   3.200   6.240 -0.2251 -0.5540 -0.3526
 5441SOL    HW127956   2.375   3.220   6.283  0.4461  0.1262 -1.9460
 5441SOL    HW227957   2.312   3.158   6.156 -0.5497  0.1085 -0.7613
 5442SOL     OW27958   2.013   2.315   0.891 -0.3260  0.3224 -0.5738
 5442SOL    HW127959   1.939   2.352   0.940 -0.7049 -1.4143  0.1487
 5442SOL    HW227960   2.007   2.221   0.908 -0.3180  0.1620 -1.4636
 5443SOL     OW27961   2.306   0.914   7.701  0.9317 -0.1873 -0.2866
 5443SOL    HW127962   2.223   0.867   7.703  0.6272  0.4559  2.1833
 5443SOL    HW227963   2.297   0.943   7.610 -2.0368  1.2157  0.4314
 5444SOL     OW27964   1.877   1.930   3.047  0.3574 -0.3554 -0.2893
 5444SOL    HW127965   1.827   1.899   3.123  0.7263 -1.4543 -0.5065
 5444SOL    HW227966   1.806   1.982   3.009  2.3335  2.2106 -0.4565
 5445SOL     OW27967   4.444   4.733  11.242 -0.1806  0.3509 -0.1331
 5445SOL    HW127968   4.363   4.715  11.289 -1.3819 -3.4574 -3.7404
 5445SOL    HW227969   4.462   0.086  11.263  1.6324 -0.1123  0.3528
 5446SOL     OW27970   2.037   1.454   9.069 -0.9215  0.3812  0.4890
 5446SOL    HW127971   1.944   1.478   9.062 -0.7189  1.0114 -0.0993
 5446SOL    HW227972   2.045   1.404   8.988  0.7361  0.4398  0.6247
 5447SOL     OW27973   2.726   2.555  14.322  0.1657  0.3886  0.4876
 5447SOL    HW127974   2.707   2.463  14.339 -1.9461  0.8246  0.5980
 5447SOL    HW227975   2.663   2.564  14.250 -0.5080 -2.2803  0.7578
 5448SOL     OW27976   4.442   4.069   4.154  0.3697 -0.8976 -0.4786
 5448SOL    HW127977   4.381   3.999   4.133 -0.3493  0.0797 -1.6569
 5448SOL    HW227978   4.410   4.091   4.242 -0.9988 -2.4058 -0.6133
 5449SOL     OW27979   3.500   2.785   9.126  0.4170 -0.1701 -0.1682
 5449SOL    HW127980   3.514   2.869   9.170 -2.3597 -0.5342  1.4360
 5449SOL    HW227981   3.579   2.790   9.073 -0.8540  0.7353 -1.9723
 5450SOL     OW27982   4.652   2.064  11.450  0.4824  0.0060 -0.4690
 5450SOL    HW127983   4.598   2.123  11.399  1.0571  0.8177 -0.1380
 5450SOL    HW227984   4.628   1.973  11.433 -0.8348  0.0167  1.3180
 5451SOL     OW27985   3.386   2.436  14.255  0.0595  0.4762  0.6136
 5451SOL    HW127986   3.331   2.399  14.185 -1.3518  2.4536  0.6845
 5451SOL    HW227987   3.328   2.494  14.303 -2.8271 -0.8278 -1.2952
 5452SOL     OW27988   2.260   1.120   8.142  0.1012  0.4456 -0.4234
 5452SOL    HW127989   2.249   1.199   8.088 -3.3564  0.3826  0.1913
 5452SOL    HW227990   2.199   1.141   8.212 -0.6850  0.1718 -1.0247
 5453SOL     OW27991   0.706   2.880  17.216 -0.1393  0.2668 -0.0425
 5453SOL    HW127992   0.671   2.869  17.127 -0.5089 -2.8052  0.5129
 5453SOL    HW227993   0.678   2.970  17.233 -2.0199 -0.5889  1.3992
 5454SOL     OW27994   4.580   0.827   2.477 -0.4950 -0.1744  0.3880
 5454SOL    HW127995   4.556   0.769   2.405  1.2486 -1.3099  0.7218
 5454SOL    HW227996   4.520   0.900   2.460 -0.0005 -0.0286 -0.7625
 5455SOL     OW27997   3.113   1.675   3.580  0.0749  0.1020  0.0441
 5455SOL    HW127998   3.200   1.642   3.559  0.2053  0.4933 -0.0426
 5455SOL    HW227999   3.142   1.731   3.652  0.7339  0.2536 -0.3393
 5456SOL     OW28000   4.431   1.370  16.573 -0.2429 -0.1155  0.3194
 5456SOL    HW128001   4.439   1.294  16.630 -1.3654  0.7030  1.5591
 5456SOL    HW228002   4.374   1.338  16.503 -0.7686 -2.9655  2.0626
 5457SOL     OW28003   2.983   1.443   3.556 -0.4952  0.3282  0.3910
 5457SOL    HW128004   3.019   1.375   3.612  0.3786  1.3945  1.1096
 5457SOL    HW228005   3.041   1.516   3.575  1.3692 -1.3745  1.1855
 5458SOL     OW28006   3.881   1.059   3.092 -0.7634 -0.9892  0.1075
 5458SOL    HW128007   3.888   1.053   2.997 -0.6596  0.9459 -0.0150
 5458SOL    HW228008   3.965   1.019   3.114 -1.5581 -2.2683  0.8219
 5459SOL     OW28009   0.097   3.839  11.535 -0.4030 -0.5119 -0.1657
 5459SOL    HW128010   0.114   3.894  11.611 -0.1275 -0.5114 -0.2268
 5459SOL    HW228011   0.178   3.787  11.541 -0.4518 -0.7046 -1.1574
 5460SOL     OW28012   1.919   4.447  16.128 -0.4629  0.2248  0.2296
 5460SOL    HW128013   1.911   4.410  16.216  1.8197 -0.6702  0.0527
 5460SOL    HW228014   1.906   4.371  16.071 -0.9912 -1.0868  2.1352
 5461SOL     OW28015   4.338   2.966   7.895 -0.7668 -0.3755  0.2922
 5461SOL    HW128016   4.382   3.044   7.862 -0.8966  0.0717  1.1809
 5461SOL    HW228017   4.272   2.948   7.828  0.5254  0.9416 -1.3246
 5462SOL     OW28018   2.046   2.814  16.597 -0.2634  0.0875 -0.0237
 5462SOL    HW128019   1.972   2.848  16.546  0.4227  1.3651 -0.1620
 5462SOL    HW228020   2.028   2.862  16.678  0.3318 -0.4621  0.4357
 5463SOL     OW28021   1.816   2.705   4.868  0.4876 -0.2512  0.1465
 5463SOL    HW128022   1.875   2.638   4.835  0.8726 -0.2521  0.8369
 5463SOL    HW228023   1.742   2.646   4.885  0.0305  0.6843  1.3961
 5464SOL     OW28024   0.631   3.248   5.782 -0.3773  0.3358  0.1489
 5464SOL    HW128025   0.540   3.273   5.800 -0.8387 -0.7261 -0.7517
 5464SOL    HW228026   0.636   3.157   5.811  1.3050  0.5685  0.5891
 5465SOL     OW28027   3.181   2.657   1.626  0.0905  0.6645 -0.1589
 5465SOL    HW128028   3.147   2.711   1.554  0.0934  1.4983  0.4797
 5465SOL    HW228029   3.254   2.620   1.576 -0.6054 -1.1842  0.1904
 5466SOL     OW28030   0.136   4.160   2.256 -0.2065  0.7525  0.6653
 5466SOL    HW128031   0.159   4.082   2.307 -1.6815  0.2099  0.4956
 5466SOL    HW228032   0.049   4.139   2.220 -1.0014  2.2667  1.7262
 5467SOL     OW28033   3.360   0.876   6.981 -0.7254  0.2652 -0.0545
 5467SOL    HW128034   3.265   0.874   6.983 -0.6918  0.7483  2.7284
 5467SOL    HW228035   3.379   0.970   6.989  0.9940 -0.0989  0.2444
 5468SOL     OW28036   2.848   2.443   0.072  0.0152  0.2249 -0.0179
 5468SOL    HW128037   2.932   2.482   0.096  0.6018 -1.3353  0.5008
 5468SOL    HW228038   2.786   2.515   0.061  1.8612  2.0831  1.8470
 5469SOL     OW28039   3.042   1.766   5.649 -0.2155  0.0255 -0.2673
 5469SOL    HW128040   3.106   1.768   5.721 -0.9679  0.7792  0.3791
 5469SOL    HW228041   3.101   1.797   5.581 -1.8620 -0.9443 -2.1342
 5470SOL     OW28042   2.459   4.510   7.458  0.8850  0.5158  0.1946
 5470SOL    HW128043   2.529   4.448   7.440 -1.5622 -1.5507 -2.1052
 5470SOL    HW228044   2.399   4.450   7.501  0.2959  2.5969  2.2729
 5471SOL     OW28045   4.618   1.435   0.786 -0.1191 -0.7790 -0.3026
 5471SOL    HW128046   4.649   1.408   0.872  0.8421 -1.2402 -0.7940
 5471SOL    HW228047   4.698   1.462   0.741 -0.2872  0.0011 -0.1239
 5472SOL     OW28048   0.617   3.361   7.707 -0.4432  0.1303 -0.3004
 5472SOL    HW128049   0.617   3.273   7.743 -1.2934 -0.5930 -2.0841
 5472SOL    HW228050   0.538   3.389   7.753  0.2091 -0.1393  0.9962
 5473SOL     OW28051   3.382   3.755  13.830  0.3041 -0.1822 -0.6226
 5473SOL    HW128052   3.288   3.770  13.840  0.2397  0.4161 -2.1026
 5473SOL    HW228053   3.404   3.804  13.750  0.7051  0.8474  0.1201
 5474SOL     OW28054   0.986   3.495  11.712 -0.0223  0.1786 -0.0037
 5474SOL    HW128055   1.034   3.412  11.702 -0.0314 -0.0957  2.3591
 5474SOL    HW228056   0.936   3.501  11.631 -1.7075 -0.9021  0.9653
 5475SOL     OW28057   4.096   3.967   3.368  0.7792 -0.4683  0.4500
 5475SOL    HW128058   4.140   4.008   3.294  1.6487 -1.0135  0.6559
 5475SOL    HW228059   4.170   3.930   3.417 -0.4600 -3.1185  0.3569
 5476SOL     OW28060   0.868   1.844   8.783  0.7856 -0.1951 -0.3215
 5476SOL    HW128061   0.873   1.894   8.702  0.1362  0.6658  0.1659
 5476SOL    HW228062   0.777   1.813   8.783  1.1692 -1.3166  1.5905
 5477SOL     OW28063   4.641   1.699  14.294  0.0277 -0.1571  0.0967
 5477SOL    HW128064   4.604   1.681  14.208 -1.7142 -0.1230  0.8413
 5477SOL    HW228065   4.730   1.670  14.276 -0.1594 -2.3238  2.6646
 5478SOL     OW28066   2.141   3.488   0.296 -0.6238  0.3757 -0.5722
 5478SOL    HW128067   2.072   3.485   0.362  0.2275  0.9369  0.3341
 5478SOL    HW228068   2.179   3.575   0.307  0.3420 -0.4185  2.4901
 5479SOL     OW28069   3.776   0.546   1.863  0.6845  0.4445  0.0644
 5479SOL    HW128070   3.686   0.577   1.873  0.2270 -0.2854 -1.7175
 5479SOL    HW228071   3.779   0.464   1.814  2.4387  1.5386 -1.6801
 5480SOL     OW28072   0.447   0.654   9.407 -0.2019  0.1901  0.4351
 5480SOL    HW128073   0.530   0.630   9.448  0.0381 -0.8366 -0.6380
 5480SOL    HW228074   0.480   0.682   9.322 -1.7797 -0.4937 -0.4182
 5481SOL     OW28075   4.729   3.488   9.343 -0.6438  0.3002  0.3144
 5481SOL    HW128076   4.674   3.413   9.323  3.2605 -2.3891 -0.4781
 5481SOL    HW228077   0.026   3.459   9.427  0.5731 -0.8569 -0.6035
 5482SOL     OW28078   0.687   1.343   2.746 -0.1316  0.0018  0.0858
 5482SOL    HW128079   0.695   1.249   2.731 -1.2945  0.0234 -0.6697
 5482SOL    HW228080   0.592   1.346   2.758  0.0336  0.9051  1.1703
 5483SOL     OW28081   2.355   0.457   7.238  0.3658  1.0993  0.0322
 5483SOL    HW128082   2.376   0.366   7.255  2.6374  1.6674  0.2313
 5483SOL    HW228083   2.270   0.454   7.193 -0.7843 -0.6190  2.3556
 5484SOL     OW28084   2.888   0.008   2.170 -0.0272 -0.0737 -0.3787
 5484SOL    HW128085   2.872   0.035   2.080 -0.2898 -2.2371 -0.9779
 5484SOL    HW228086   2.851   4.659   2.172 -3.2408  1.2494 -2.5281
 5485SOL     OW28087   2.433   0.044   0.248  0.1255  0.3516 -0.4691
 5485SOL    HW128088   2.505   0.068   0.308  0.6004 -0.0082 -0.8915
 5485SOL    HW228089   2.442   0.116   0.185 -1.9781  1.6365  0.7039
 5486SOL     OW28090   0.152   3.837   8.563 -0.5173 -0.0034 -0.7702
 5486SOL    HW128091   0.083   3.828   8.498 -0.2126 -0.6874 -0.9910
 5486SOL    HW228092   0.113   3.909   8.614 -0.9589 -0.8853  0.1437
 5487SOL     OW28093   4.407   1.991   0.565  0.1774  0.0163  0.7028
 5487SOL    HW128094   4.396   1.898   0.543  1.6868  0.2176 -0.8232
 5487SOL    HW228095   4.501   1.997   0.576  0.1047 -0.2622  1.5359
 5488SOL     OW28096   4.619   1.812  11.437 -0.6476 -0.1452  0.1920
 5488SOL    HW128097   4.552   1.749  11.411  0.7411 -1.8267  0.7330
 5488SOL    HW228098   4.657   1.823  11.350 -1.4439 -1.2463 -0.2889
 5489SOL     OW28099   0.852   3.983   4.711 -0.5757 -0.6656  0.0859
 5489SOL    HW128100   0.906   3.990   4.632 -0.5872  0.6662  0.1958
 5489SOL    HW228101   0.769   4.005   4.669 -0.7686  1.3155  1.5211
 5490SOL     OW28102   0.313   1.432  17.455  0.0659 -0.1004  0.1095
 5490SOL    HW128103   0.379   1.465  17.395 -1.0408  0.5450 -0.7425
 5490SOL    HW228104   0.242   1.447  17.393 -0.3810  0.2840  0.7106
 5491SOL     OW28105   0.065   3.850   7.431 -0.2449 -0.5862 -0.9624
 5491SOL    HW128106   0.029   3.938   7.419 -0.7900 -0.4736  1.6551
 5491SOL    HW228107   0.127   3.873   7.501 -1.8962 -0.5706  0.4730
 5492SOL     OW28108   1.203   0.274  17.216 -0.2766  0.1628 -0.1859
 5492SOL    HW128109   1.190   0.235  17.130  1.5296 -1.1775  0.1455
 5492SOL    HW228110   1.197   0.369  17.205  0.9579  0.2039 -0.5011
 5493SOL     OW28111   0.868   2.638   3.841 -0.0177  0.1930 -0.2464
 5493SOL    HW128112   0.845   2.712   3.897 -1.5624 -0.9308  0.6160
 5493SOL    HW228113   0.801   2.644   3.773 -0.0822 -1.0921 -0.3050
 5494SOL     OW28114   0.932   1.424   5.337  0.3285 -0.4011  0.4628
 5494SOL    HW128115   0.846   1.451   5.371  0.5351 -1.1417  1.5771
 5494SOL    HW228116   0.991   1.446   5.409 -0.2893 -0.6901  1.0655
 5495SOL     OW28117   1.375   0.273   4.783  0.1261 -0.5979  0.4186
 5495SOL    HW128118   1.375   0.187   4.825 -0.2385 -1.3020 -1.0146
 5495SOL    HW228119   1.282   0.293   4.771  0.2906 -1.0398 -1.4864
 5496SOL     OW28120   1.359   2.618   2.539 -0.6027 -0.6633  0.1462
 5496SOL    HW128121   1.315   2.535   2.559  2.9301 -2.8267 -1.0694
 5496SOL    HW228122   1.444   2.606   2.582 -0.1390 -0.7536 -0.8089
 5497SOL     OW28123   4.252   1.440   2.661  0.2326  0.3495  0.4893
 5497SOL    HW128124   4.321   1.402   2.606 -1.0645  1.7377 -2.0632
 5497SOL    HW228125   4.173   1.424   2.610 -0.3066 -0.6398  1.6365
 5498SOL     OW28126   2.945   0.180  12.565 -0.1074 -0.0339 -0.3811
 5498SOL    HW128127   2.986   0.096  12.585  0.4779  0.2303 -0.4808
 5498SOL    HW228128   2.919   0.166  12.474 -0.0986  0.9404 -0.5345
 5499SOL     OW28129   1.727   2.748   5.284 -0.0980 -0.1473  0.1259
 5499SOL    HW128130   1.697   2.779   5.198 -0.8887 -0.9243  0.1185
 5499SOL    HW228131   1.804   2.802   5.303  0.8354 -0.5735 -2.4851
 5500SOL     OW28132   1.770   2.628  15.535  0.2195 -0.7865  0.5065
 5500SOL    HW128133   1.836   2.697  15.548  0.8178 -0.7300 -2.9612
 5500SOL    HW228134   1.800   2.563  15.599 -4.6761 -0.2952  3.2649
 5501SOL     OW28135   1.671   0.067   9.557 -0.1881 -0.4114 -0.5491
 5501SOL    HW128136   1.747   0.078   9.498  0.4996 -0.4854  0.3254
 5501SOL    HW228137   1.705   0.045   9.644 -0.2652 -1.3495 -0.7580
 5502SOL     OW28138   4.271   2.194  10.782  0.3302  0.4305  0.3282
 5502SOL    HW128139   4.297   2.133  10.713 -0.2268  1.6296 -0.9503
 5502SOL    HW228140   4.332   2.180  10.854 -1.6266  3.4643  2.6243
 5503SOL     OW28141   3.252   0.453  10.611 -0.1888 -0.2927  0.0055
 5503SOL    HW128142   3.232   0.421  10.699  2.3138  1.1840  1.0991
 5503SOL    HW228143   3.306   0.376  10.592 -0.8793 -0.5606 -0.8918
 5504SOL     OW28144   2.995   0.246  14.843 -0.1630  0.4844 -0.0229
 5504SOL    HW128145   3.074   0.295  14.865 -0.0645  1.6528 -2.9491
 5504SOL    HW228146   2.952   0.238  14.928 -1.2808  2.2228 -0.4135
 5505SOL     OW28147   0.645   4.240   8.192 -0.6617 -0.0421  0.4706
 5505SOL    HW128148   0.703   4.315   8.204  0.5089 -1.2654  2.4106
 5505SOL    HW228149   0.680   4.180   8.258  0.9787 -1.8478 -2.0258
 5506SOL     OW28150   2.852   4.383   7.573  0.0873 -0.5544  0.3992
 5506SOL    HW128151   2.928   4.415   7.524 -1.0161 -0.3450 -1.1539
 5506SOL    HW228152   2.898   4.366   7.655 -0.4490 -1.5449  0.4908
 5507SOL     OW28153   4.570   2.579   2.532 -0.1356  1.0313  0.4554
 5507SOL    HW128154   4.638   2.512   2.536 -3.2964 -2.2657 -1.6177
 5507SOL    HW228155   4.632   2.649   2.509 -1.3655  2.4484  1.4517
 5508SOL     OW28156   1.547   1.259   7.019  0.6968  0.0400 -0.1364
 5508SOL    HW128157   1.548   1.353   7.004 -0.9551 -0.0327 -0.6962
 5508SOL    HW228158   1.476   1.232   6.961  0.3588 -1.6614  1.0757
 5509SOL     OW28159   0.781   1.081  15.402  0.5512 -0.5576  0.3146
 5509SOL    HW128160   0.758   1.165  15.441  0.9280 -0.3563  0.1040
 5509SOL    HW228161   0.701   1.033  15.420 -1.6436  2.8980 -0.1927
 5510SOL     OW28162   4.695   0.641  11.966  0.2717 -0.2335 -0.2947
 5510SOL    HW128163   4.726   0.721  11.924  0.3622 -0.0278  0.1698
 5510SOL    HW228164   0.012   0.643  12.044 -0.4465 -0.7845  0.2308
 5511SOL     OW28165   2.401   0.875   8.089 -0.2581 -0.3092 -0.5942
 5511SOL    HW128166   2.368   0.963   8.108  0.9796  0.1254 -0.4216
 5511SOL    HW228167   2.458   0.885   8.012  2.2982 -1.2770  1.1613
 5512SOL     OW28168   0.636   2.525   3.294 -0.9421  0.1519 -0.0395
 5512SOL    HW128169   0.609   2.547   3.383 -1.1130 -1.3410  0.2752
 5512SOL    HW228170   0.592   2.594   3.243  2.1205  0.8646 -1.7107
 5513SOL     OW28171   2.854   1.111   9.461  0.5673 -0.2414 -0.3165
 5513SOL    HW128172   2.930   1.089   9.406 -1.1592 -2.0007 -2.0116
 5513SOL    HW228173   2.888   1.194   9.492  2.0757 -1.6174  1.6906
 5514SOL     OW28174   4.361   1.089  16.058  0.1015 -0.1036  0.4291
 5514SOL    HW128175   4.304   1.083  16.134 -0.2203 -0.8200  0.1377
 5514SOL    HW228176   4.373   1.183  16.067 -1.2934  0.0826  0.3523
 5515SOL     OW28177   1.274   4.563  15.540  0.5830 -0.6127 -0.5550
 5515SOL    HW128178   1.343   4.570  15.606  0.8525 -1.7489 -0.7285
 5515SOL    HW228179   1.322   4.578  15.459 -0.9107 -1.2862 -1.5600
 5516SOL     OW28180   0.566   0.273   2.621 -0.6046 -0.0469  0.0231
 5516SOL    HW128181   0.620   0.207   2.579 -0.4125 -0.1640  0.4509
 5516SOL    HW228182   0.615   0.291   2.702 -0.6033 -0.6207  0.1466
 5517SOL     OW28183   2.124   4.077   6.358  0.3837 -0.3641  0.5018
 5517SOL    HW128184   2.120   3.997   6.411  0.6060  0.6687  2.0712
 5517SOL    HW228185   2.148   4.147   6.419 -0.0518 -1.1189  1.5393
 5518SOL     OW28186   1.016   3.180  11.265  0.7500  0.0125  0.2800
 5518SOL    HW128187   0.965   3.133  11.330 -1.5183  1.0810 -0.7421
 5518SOL    HW228188   0.941   3.221  11.222  2.4994 -1.0482 -3.8318
 5519SOL     OW28189   0.891   1.772  13.269  0.1801 -0.5257 -0.3183
 5519SOL    HW128190   0.804   1.812  13.257 -0.2108 -1.9610 -2.2601
 5519SOL    HW228191   0.873   1.706  13.336 -0.1744  0.6612  0.7691
 5520SOL     OW28192   4.460   4.707   4.750  0.1200 -0.2696 -0.3708
 5520SOL    HW128193   4.473   4.694   4.656 -1.7784 -0.0070 -0.6670
 5520SOL    HW228194   4.527   0.033   4.769  1.2873 -0.7137 -3.0997
 5521SOL     OW28195   3.988   1.337   3.127 -0.6606  0.2435  0.2400
 5521SOL    HW128196   3.922   1.324   3.059  1.2962  2.1462 -2.0350
 5521SOL    HW228197   4.031   1.254   3.108 -3.3790 -1.0517 -0.2091
 5522SOL     OW28198   1.590   1.424   2.500 -0.3642  0.2536 -0.6070
 5522SOL    HW128199   1.579   1.482   2.575 -0.1364  0.6943 -0.9136
 5522SOL    HW228200   1.677   1.390   2.516 -2.2806 -3.4137  2.0054
 5523SOL     OW28201   2.430   3.710   3.610  0.3062 -0.5879 -0.3284
 5523SOL    HW128202   2.503   3.676   3.557  0.1647  0.3672 -1.1392
 5523SOL    HW228203   2.409   3.638   3.669 -2.4176  0.0906 -0.4916
 5524SOL     OW28204   2.683   0.119   3.956  0.4796 -0.7640 -0.3552
 5524SOL    HW128205   2.647   0.072   4.032 -0.4739 -2.9431 -2.1577
 5524SOL    HW228206   2.651   0.206   3.980 -2.9466 -1.4065 -2.5019
 5525SOL     OW28207   4.711   1.397  11.519 -0.0003  0.3784 -0.1249
 5525SOL    HW128208   4.651   1.416  11.591  0.3125 -0.7854  0.4349
 5525SOL    HW228209   0.053   1.422  11.563  0.2262 -0.6302  0.0078
 5526SOL     OW28210   0.249   3.936   2.358 -0.0378  0.0210 -0.5186
 5526SOL    HW128211   0.230   3.908   2.447 -1.8361  0.4884 -0.7508
 5526SOL    HW228212   0.344   3.946   2.364  0.1064 -3.0053  2.0054
 5527SOL     OW28213   0.113   3.933   5.634 -0.4825 -0.3581 -0.1252
 5527SOL    HW128214   0.187   3.875   5.648  0.6310  0.8863 -0.8459
 5527SOL    HW228215   0.100   3.925   5.539  0.6518  3.2252 -0.5742
 5528SOL     OW28216   3.613   0.859   6.139  0.5961  0.0785 -0.2508
 5528SOL    HW128217   3.653   0.919   6.201 -1.6320  0.3318  0.9592
 5528SOL    HW228218   3.547   0.916   6.099 -1.3471 -2.1227 -0.2275
 5529SOL     OW28219   3.865   3.248   2.497  0.3955  0.3902 -0.3374
 5529SOL    HW128220   3.904   3.161   2.498  0.9612  0.6542  2.4827
 5529SOL    HW228221   3.933   3.299   2.452  0.1294  0.1170 -1.0400
 5530SOL     OW28222   2.838   3.457   2.318  0.2808 -0.5261  0.2538
 5530SOL    HW128223   2.752   3.418   2.333  0.4268 -0.9593 -0.0443
 5530SOL    HW228224   2.848   3.516   2.393 -0.1074  4.2086 -3.3953
 5531SOL     OW28225   1.993   4.479   7.766 -0.4678  0.0324 -0.0917
 5531SOL    HW128226   1.916   4.479   7.824 -0.9300 -0.4108 -0.7050
 5531SOL    HW228227   1.967   4.497   7.676 -0.1363  3.1925  0.4176
 5532SOL     OW28228   4.056   2.754   8.370  0.1345 -0.7964  0.1229
 5532SOL    HW128229   4.007   2.705   8.436 -0.4001 -1.8915 -1.0858
 5532SOL    HW228230   4.004   2.739   8.290  0.8714  0.1829 -0.5321
 5533SOL     OW28231   2.945   4.025  14.492  0.0399  0.2128 -0.1854
 5533SOL    HW128232   2.949   3.977  14.409 -1.4242  0.1691 -0.2256
 5533SOL    HW228233   2.898   3.967  14.551 -0.0978  1.5229  1.0033
 5534SOL     OW28234   4.081   0.257   5.936 -0.2004  0.0811  0.1278
 5534SOL    HW128235   4.093   0.224   5.846  0.1436  0.2788  0.1021
 5534SOL    HW228236   4.175   0.274   5.945 -0.1000 -1.2442  1.5331
 5535SOL     OW28237   3.158   1.555   4.025  0.0490  0.0510 -0.4415
 5535SOL    HW128238   3.119   1.469   4.009 -1.8030  0.8346 -0.1462
 5535SOL    HW228239   3.233   1.539   4.083 -0.9978 -1.6773  0.4460
 5536SOL     OW28240   2.212   1.237   7.829 -0.6446  0.6977 -0.9741
 5536SOL    HW128241   2.149   1.165   7.828 -2.5030  2.2968  1.5148
 5536SOL    HW228242   2.178   1.280   7.750 -0.5030  2.6254  0.0034
 5537SOL     OW28243   4.085   1.880   9.000 -0.1970  0.3049  0.5390
 5537SOL    HW128244   4.058   1.807   9.056  2.9553 -0.9953  0.3349
 5537SOL    HW228245   3.997   1.914   8.984 -0.4639 -0.1691  0.9776
 5538SOL     OW28246   3.123   0.806   5.265 -0.6431 -0.3962  0.2153
 5538SOL    HW128247   3.127   0.852   5.349 -0.0871  0.7329 -0.4218
 5538SOL    HW228248   3.119   0.716   5.297  3.6949 -0.8298 -0.5154
 5539SOL     OW28249   3.216   3.467   4.269 -0.5004 -0.1827  0.5327
 5539SOL    HW128250   3.146   3.407   4.294 -1.9720  0.2579 -2.4211
 5539SOL    HW228251   3.243   3.437   4.182  0.2045  1.3833  0.2084
 5540SOL     OW28252   4.353   4.433   3.342 -0.2336  0.2535 -0.6796
 5540SOL    HW128253   4.409   4.493   3.391 -1.0333 -0.1704  0.7608
 5540SOL    HW228254   4.297   4.497   3.300  1.5793  1.5654 -1.0988
 5541SOL     OW28255   3.241   4.545   2.119 -0.2408 -0.0507 -0.6035
 5541SOL    HW128256   3.308   4.501   2.066  0.0054 -1.2804  0.7044
 5541SOL    HW228257   3.164   4.542   2.063 -1.7604 -2.0874  1.5925
 5542SOL     OW28258   0.052   4.065  11.702  0.0375  0.0390 -0.1348
 5542SOL    HW128259   0.067   4.137  11.640 -0.2819  0.1685 -0.0564
 5542SOL    HW228260   4.698   4.075  11.720  0.0036  1.6808 -1.1834
 5543SOL     OW28261   1.176   0.888  16.819  0.0712  0.3170  0.4174
 5543SOL    HW128262   1.206   0.917  16.905  0.9328 -0.3064  0.3202
 5543SOL    HW228263   1.186   0.974  16.777  0.4257  0.7748  1.4345
 5544SOL     OW28264   0.194   1.391   4.166 -0.3457  0.2461 -0.5494
 5544SOL    HW128265   0.133   1.338   4.216  1.5689 -1.1370  0.2877
 5544SOL    HW228266   0.161   1.479   4.184  1.9996  0.6994  1.4521
 5545SOL     OW28267   0.343   3.426   8.285  0.6953 -0.3244 -0.4301
 5545SOL    HW128268   0.421   3.429   8.340  1.4369 -2.6192 -1.3461
 5545SOL    HW228269   0.362   3.362   8.216  1.9329 -0.1069 -0.2816
 5546SOL     OW28270   0.747   0.037   1.408 -0.2703  0.1019  0.8620
 5546SOL    HW128271   0.830   0.081   1.426 -0.1472  0.5596 -0.8302
 5546SOL    HW228272   0.745   4.697   1.462  1.6237 -0.8184 -0.4026
 5547SOL     OW28273   2.065   3.002   2.081  0.5176 -0.2822  0.2152
 5547SOL    HW128274   2.129   2.934   2.099 -1.0194 -2.1718 -1.3738
 5547SOL    HW228275   1.985   2.956   2.107  0.6676  0.7093  2.3649
 5548SOL     OW28276   0.106   1.512   3.768 -0.5366  0.8701 -0.6651
 5548SOL    HW128277   0.042   1.562   3.818  0.4086  0.8933  0.5259
 5548SOL    HW228278   0.157   1.580   3.725  1.4657 -0.6762 -0.7760
 5549SOL     OW28279   4.574   0.317   9.395 -0.0228 -0.3741 -0.3280
 5549SOL    HW128280   4.555   0.308   9.488  1.9754  0.1005  0.1362
 5549SOL    HW228281   4.670   0.310   9.389 -0.0422 -0.8376 -0.1266
 5550SOL     OW28282   2.906   3.545   5.806  0.5283  0.0792  0.1092
 5550SOL    HW128283   2.879   3.631   5.775  0.9216  0.4861  0.9035
 5550SOL    HW228284   2.917   3.506   5.719 -2.0990 -0.8078  0.1787
 5551SOL     OW28285   0.737   1.660   2.220 -0.1736 -0.2437  0.2060
 5551SOL    HW128286   0.743   1.606   2.141 -1.8871 -2.4501  1.5954
 5551SOL    HW228287   0.712   1.592   2.283  1.1988 -0.8286  0.1067
 5552SOL     OW28288   3.976   1.143   3.442 -0.0742  0.1312  0.0665
 5552SOL    HW128289   3.886   1.114   3.432  0.5360 -1.8340  0.1936
 5552SOL    HW228290   4.032   1.066   3.434  3.4639  2.7053 -0.0464
 5553SOL     OW28291   1.781   0.784  14.399 -0.0699 -0.3163 -0.1894
 5553SOL    HW128292   1.817   0.845  14.463  0.1193 -1.3947  0.7300
 5553SOL    HW228293   1.822   0.706  14.435  3.2004  1.7946  0.6582
 5554SOL     OW28294   2.199   3.360  16.910 -0.4499  0.5224  0.1542
 5554SOL    HW128295   2.110   3.374  16.877 -0.1475  1.7037 -0.1368
 5554SOL    HW228296   2.208   3.266  16.892  0.2978  0.5621  0.3530
 5555SOL     OW28297   4.519   4.705   5.199  0.2022 -0.5011 -0.2378
 5555SOL    HW128298   4.590   4.677   5.141 -0.2084 -1.3155 -0.3467
 5555SOL    HW228299   4.574   0.025   5.251 -0.7963  0.0366  0.2184
 5556SOL     OW28300   1.281   0.531   2.406  0.3290 -0.4524 -0.2307
 5556SOL    HW128301   1.359   0.476   2.408 -0.1399 -1.2302 -2.4568
 5556SOL    HW228302   1.238   0.499   2.326  0.6662 -0.1912 -0.5204
 5557SOL     OW28303   1.292   1.258   8.000  0.1692 -0.4295  0.2765
 5557SOL    HW128304   1.375   1.215   7.979  2.4644  4.2623 -0.1930
 5557SOL    HW228305   1.284   1.335   7.944  0.6904 -0.5195  0.0840
 5558SOL     OW28306   2.439   3.117  11.371 -0.2292  0.2755  0.3268
 5558SOL    HW128307   2.518   3.090  11.324 -2.2578 -1.5636 -2.0318
 5558SOL    HW228308   2.445   3.061  11.448  0.7417 -2.7211 -1.9126
 5559SOL     OW28309   4.557   0.425   6.536  0.0959 -0.1441  0.1096
 5559SOL    HW128310   4.477   0.430   6.590 -0.0451  0.1114 -0.1242
 5559SOL    HW228311   4.579   0.332   6.546 -2.2972 -0.8518 -1.0708
 5560SOL     OW28312   1.451   4.431   9.496 -0.2997  0.0245 -0.1644
 5560SOL    HW128313   1.447   4.445   9.590  1.2184  0.2914 -0.1361
 5560SOL    HW228314   1.497   4.347   9.491  2.6334  1.5745  0.9842
 5561SOL     OW28315   2.906   0.160   6.080  0.0032 -0.0835 -0.4832
 5561SOL    HW128316   2.982   0.127   6.032  0.4863  0.8355 -0.3528
 5561SOL    HW228317   2.904   0.245   6.036 -0.5226  0.1838  0.0559
 5562SOL     OW28318   4.359   2.536  14.649  0.1802 -0.3649 -0.2346
 5562SOL    HW128319   4.405   2.457  14.677  2.4284  0.9441 -0.2677
 5562SOL    HW228320   4.282   2.530  14.705 -0.4744 -0.1352 -1.1102
 5563SOL     OW28321   1.126   2.997   9.702 -0.0002  0.1053 -0.2388
 5563SOL    HW128322   1.204   3.051   9.717 -1.5444  1.6922  2.1424
 5563SOL    HW228323   1.108   3.016   9.609 -0.6437  1.0533  0.0804
 5564SOL     OW28324   0.071   3.169   9.014  0.8831  0.4243 -0.1728
 5564SOL    HW128325   4.729   3.118   9.017  1.4659 -0.5065 -0.2508
 5564SOL    HW228326   0.123   3.120   8.950 -0.2884 -2.7961  1.3488
 5565SOL     OW28327   2.862   2.222  17.410  0.4275 -0.1086 -0.3821
 5565SOL    HW128328   2.932   2.160  17.431  0.0895 -0.2234  0.3734
 5565SOL    HW228329   2.800   2.181  17.470  0.4505  1.6192  0.8099
 5566SOL     OW28330   2.812   4.033   4.720 -0.0157  0.7300  0.0445
 5566SOL    HW128331   2.839   4.097   4.786  2.3902 -0.8421  0.5859
 5566SOL    HW228332   2.880   4.049   4.654  0.8738  2.7095  1.4432
 5567SOL     OW28333   0.215   0.008   6.761 -0.3832  0.1631  0.2973
 5567SOL    HW128334   0.179   4.708   6.682  1.4115  0.2773 -0.5591
 5567SOL    HW228335   0.292   0.055   6.729  1.0481 -0.9277  2.1452
 5568SOL     OW28336   1.303   4.021   9.460  0.0171  0.6403  0.2379
 5568SOL    HW128337   1.313   4.107   9.417  1.6427  0.0853 -0.5168
 5568SOL    HW228338   1.259   3.980   9.385 -2.9817  1.3494  1.6304
 5569SOL     OW28339   2.943   4.413   6.604  0.3105 -0.2655 -0.7553
 5569SOL    HW128340   2.851   4.439   6.609  0.4101 -0.1587  0.3929
 5569SOL    HW228341   2.933   4.323   6.635  2.0615 -1.2120 -2.9419
 5570SOL     OW28342   2.344   1.210   6.933 -0.0360 -0.4200  0.3651
 5570SOL    HW128343   2.357   1.265   7.010  0.5092  1.9336 -1.4471
 5570SOL    HW228344   2.250   1.203   6.948 -0.0082 -0.1410  0.6680
 5571SOL     OW28345   3.577   3.421   9.095  0.0979  0.4437  0.2820
 5571SOL    HW128346   3.628   3.426   9.014 -1.8853  1.6188 -0.8918
 5571SOL    HW228347   3.627   3.357   9.146 -2.1076  0.1529  2.0736
 5572SOL     OW28348   3.876   2.246   8.883 -0.5405 -0.3702  0.0904
 5572SOL    HW128349   3.798   2.279   8.929 -2.4029 -3.5292 -0.7643
 5572SOL    HW228350   3.845   2.156   8.874 -0.2474 -0.2170 -2.5253
 5573SOL     OW28351   3.183   3.099  14.196 -0.0302  0.3172  0.3160
 5573SOL    HW128352   3.164   3.073  14.106  2.1210 -0.0966 -0.0172
 5573SOL    HW228353   3.103   3.064  14.235 -0.6358 -0.4198 -1.6160
 5574SOL     OW28354   1.165   0.841  17.526  0.3038  0.2122 -0.1438
 5574SOL    HW128355   1.213   0.760  17.543 -0.8948 -0.3642  0.4931
 5574SOL    HW228356   1.112   0.844  17.605  1.5265  0.6122  0.6622
 5575SOL     OW28357   0.648   1.669   4.302 -0.0399  0.1937 -0.5793
 5575SOL    HW128358   0.611   1.726   4.369  1.5703 -0.1199  0.5826
 5575SOL    HW228359   0.735   1.665   4.341 -0.8064  0.0356  1.1049
 5576SOL     OW28360   2.573   0.385   7.610  0.0015  0.1867 -0.1103
 5576SOL    HW128361   2.490   0.429   7.590  1.0092  1.3112 -1.8296
 5576SOL    HW228362   2.601   0.402   7.520  0.6736  1.5268  0.3581
 5577SOL     OW28363   2.992   0.987   9.170 -0.4995 -0.3933 -0.0832
 5577SOL    HW128364   3.066   1.048   9.169  1.2292 -2.5492 -1.1871
 5577SOL    HW228365   3.024   0.919   9.112 -1.1302  1.2038 -2.3231
 5578SOL     OW28366   1.865   3.313   6.428  0.2979 -0.0733  0.1083
 5578SOL    HW128367   1.946   3.347   6.390  0.8097 -0.7346  0.5977
 5578SOL    HW228368   1.870   3.331   6.522  0.4048  2.3747 -0.3737
 5579SOL     OW28369   1.139   1.501   4.707  0.0647  0.1284  0.1827
 5579SOL    HW128370   1.209   1.437   4.691  2.7582  3.2614 -0.4158
 5579SOL    HW228371   1.067   1.455   4.750 -0.3206  1.2593  0.7496
 5580SOL     OW28372   1.706   4.419   9.722  0.4091 -0.7933  0.2191
 5580SOL    HW128373   1.626   4.379   9.689  0.4536 -2.4064  2.0229
 5580SOL    HW228374   1.702   4.407   9.817  1.1261  0.1763  0.3703
 5581SOL     OW28375   2.584   1.236  15.790  0.4686 -0.3192  0.4915
 5581SOL    HW128376   2.527   1.311  15.774 -0.5496 -1.0630  0.5567
 5581SOL    HW228377   2.524   1.162  15.778  0.4084 -0.5564  2.2844
 5582SOL     OW28378   0.918   0.201   6.747 -0.1212 -0.5205  0.5747
 5582SOL    HW128379   0.840   0.234   6.703 -0.1818  0.8921  1.7344
 5582SOL    HW228380   0.890   0.192   6.839 -0.1298  0.5727  0.6715
 5583SOL     OW28381   2.007   3.610  15.134  0.3994 -0.5396  0.0569
 5583SOL    HW128382   1.927   3.659  15.116 -0.1300 -0.5473  2.4271
 5583SOL    HW228383   2.077   3.670  15.107  0.0099  0.5760  1.5112
 5584SOL     OW28384   1.656   3.766   7.498  0.3540 -0.2082 -0.4932
 5584SOL    HW128385   1.730   3.798   7.549 -0.1147  1.1558 -0.6643
 5584SOL    HW228386   1.590   3.835   7.504  2.3757  1.5949  0.8184
 5585SOL     OW28387   2.137   2.008   7.095 -0.3841  0.5221 -0.1258
 5585SOL    HW128388   2.079   2.079   7.120 -1.7395 -0.4674 -0.4523
 5585SOL    HW228389   2.081   1.934   7.071 -0.9632 -0.0162  2.9841
 5586SOL     OW28390   2.500   1.962   0.626 -0.6934 -0.7824  0.4751
 5586SOL    HW128391   2.455   1.928   0.549  0.1423  0.9732 -0.8048
 5586SOL    HW228392   2.589   1.927   0.621 -0.0401  1.0963 -1.0692
 5587SOL     OW28393   2.832   2.019   7.557 -0.2131  0.0652 -1.6437
 5587SOL    HW128394   2.759   1.979   7.603  0.9077  1.8695  1.7205
 5587SOL    HW228395   2.845   1.950   7.492 -0.1366 -0.1942 -1.3523
 5588SOL     OW28396   1.400   0.739   2.109  0.6833  0.3163 -0.1309
 5588SOL    HW128397   1.398   0.786   2.192  0.6485 -0.3198  0.2196
 5588SOL    HW228398   1.333   0.782   2.056 -0.5539 -0.1108  1.0872
 5589SOL     OW28399   0.346   1.828   4.895 -0.0789  0.2634  0.3269
 5589SOL    HW128400   0.327   1.783   4.978 -1.2430  1.3550  0.6588
 5589SOL    HW228401   0.439   1.809   4.885 -0.5581 -2.1925  0.4423
 5590SOL     OW28402   3.188   0.111   2.654 -0.1432 -0.7232  0.1916
 5590SOL    HW128403   3.213   0.040   2.595 -1.6163 -1.0837  0.0010
 5590SOL    HW228404   3.256   0.087   2.717  1.6047  0.1505 -1.3942
 5591SOL     OW28405   4.671   1.900   7.180  0.0407  0.1689 -0.4683
 5591SOL    HW128406   4.683   1.809   7.207  2.9989  0.9285  0.7928
 5591SOL    HW228407   4.703   1.952   7.254 -0.3990 -1.5973  0.9629
 5592SOL     OW28408   0.026   3.458  16.112  0.5959 -0.4050  0.3429
 5592SOL    HW128409   0.017   3.543  16.156 -1.0727  0.1825 -1.1390
 5592SOL    HW228410   0.088   3.418  16.173 -0.5567 -4.3325 -1.1035
 5593SOL     OW28411   3.725   2.731  15.585  0.3250  0.3266 -0.1810
 5593SOL    HW128412   3.725   2.640  15.616  1.9390  0.3871  0.0227
 5593SOL    HW228413   3.738   2.766  15.673 -0.0215  0.1133 -0.0464
 5594SOL     OW28414   3.203   1.507  10.840 -0.5809 -0.0659 -0.3005
 5594SOL    HW128415   3.112   1.516  10.812 -0.7260 -1.3441 -0.2497
 5594SOL    HW228416   3.228   1.599  10.849  1.5262 -0.8205  1.3832
 5595SOL     OW28417   4.529   2.020   4.992  0.1981  0.1757  0.3623
 5595SOL    HW128418   4.439   1.987   4.990 -0.5041  2.0367  1.8215
 5595SOL    HW228419   4.551   2.031   5.084  2.6833  1.0306 -0.3467
 5596SOL     OW28420   4.577   1.549   8.558  0.1379  0.5617 -0.0048
 5596SOL    HW128421   4.646   1.554   8.492  0.4965  3.1322  0.5892
 5596SOL    HW228422   4.605   1.593   8.638  1.2116  0.9791 -0.6132
 5597SOL     OW28423   3.406   3.622   9.021  0.9232 -0.4618  0.3245
 5597SOL    HW128424   3.465   3.551   9.045  1.4118  0.6467  2.3979
 5597SOL    HW228425   3.463   3.695   8.997 -0.5631  0.3880 -0.6119
 5598SOL     OW28426   2.524   2.459   2.423  0.3463  0.4713  0.3490
 5598SOL    HW128427   2.559   2.498   2.502  0.8824  0.3417  0.1749
 5598SOL    HW228428   2.542   2.370   2.452 -1.2507 -0.3958 -1.3237
 5599SOL     OW28429   0.617   3.214  14.655 -0.4316  0.5064  0.0394
 5599SOL    HW128430   0.702   3.172  14.642 -0.5129  0.3938 -0.1196
 5599SOL    HW228431   0.571   3.201  14.573 -1.1805 -0.3742  0.5989
 5600SOL     OW28432   4.178   0.338   9.500 -0.2749 -0.0845 -1.0665
 5600SOL    HW128433   4.092   0.330   9.541  0.7742  3.1679  1.7199
 5600SOL    HW228434   4.158   0.346   9.407 -0.5397  1.2139 -0.8907
 5601SOL     OW28435   0.550   1.097   0.140 -0.2142 -0.0752  0.6097
 5601SOL    HW128436   0.579   1.008   0.161  1.0245  0.5719  1.6318
 5601SOL    HW228437   0.480   1.076   0.078  1.4966 -1.9501 -0.7070
 5602SOL     OW28438   0.226   3.484   7.598 -0.0087  0.0693 -0.0225
 5602SOL    HW128439   0.215   3.389   7.606  0.8712 -0.2553 -2.6674
 5602SOL    HW228440   0.139   3.506   7.564 -0.1922 -0.4103  0.1363
 5603SOL     OW28441   3.734   2.199  15.515  0.6567  0.2258  0.4430
 5603SOL    HW128442   3.735   2.285  15.557 -1.4891  0.1283  0.7210
 5603SOL    HW228443   3.657   2.160  15.557 -1.6573  3.5449 -0.7038
 5604SOL     OW28444   2.321   4.233   4.869 -0.2642 -0.3505  0.5553
 5604SOL    HW128445   2.400   4.285   4.852 -1.1911  0.4695 -1.2602
 5604SOL    HW228446   2.254   4.286   4.827 -1.1224 -1.4543  0.5204
 5605SOL     OW28447   4.032   1.436   3.375  0.1990 -0.6596 -0.1288
 5605SOL    HW128448   4.002   1.413   3.287 -1.1755  0.7911 -0.0281
 5605SOL    HW228449   4.023   1.359   3.432  0.2998 -0.0902  0.6504
 5606SOL     OW28450   0.443   3.162   7.851 -0.0342  0.6301  0.0726
 5606SOL    HW128451   0.402   3.133   7.770  0.7072  1.4649 -0.5958
 5606SOL    HW228452   0.499   3.086   7.869 -1.2250 -0.3136 -0.1903
 5607SOL     OW28453   1.465   0.239   2.073 -0.4410  0.0330 -0.4990
 5607SOL    HW128454   1.541   0.226   2.129 -1.3128 -2.6897  0.0068
 5607SOL    HW228455   1.461   0.335   2.070  1.0473  0.1544  1.7059
 5608SOL     OW28456   0.638   3.466   3.222  0.1729  0.6236  0.0595
 5608SOL    HW128457   0.606   3.394   3.276  1.8448 -0.1806 -0.0060
 5608SOL    HW228458   0.719   3.483   3.270  0.4226  0.2156 -0.2148
 5609SOL     OW28459   0.962   0.747   5.432 -0.4188 -0.4621 -0.6538
 5609SOL    HW128460   0.884   0.770   5.482 -0.3805 -1.3876 -0.1759
 5609SOL    HW228461   1.022   0.733   5.505 -1.7501  1.3581  0.7829
 5610SOL     OW28462   2.982   1.012   3.958  0.5024 -0.6175  0.8131
 5610SOL    HW128463   2.961   1.007   3.865  0.5091 -0.7638  0.8204
 5610SOL    HW228464   2.899   0.979   3.993 -0.2940  0.7431  0.2160
 5611SOL     OW28465   1.284   2.461   9.540 -0.0902 -0.3595  0.2188
 5611SOL    HW128466   1.204   2.494   9.499 -0.4906  0.9650  2.0806
 5611SOL    HW228467   1.295   2.377   9.495  0.1255 -0.0720 -0.2671
 5612SOL     OW28468   1.559   1.103   7.256  0.0804 -0.1838  0.2207
 5612SOL    HW128469   1.644   1.114   7.297  0.6857 -1.2883 -0.7521
 5612SOL    HW228470   1.563   1.163   7.182  0.5692 -0.5994 -0.0878
 5613SOL     OW28471   0.366   1.998   7.591 -0.1392 -0.1612  0.0243
 5613SOL    HW128472   0.353   1.905   7.572  3.5792 -1.2942  3.0916
 5613SOL    HW228473   0.286   2.015   7.641 -1.1745 -0.1620 -1.5972
 5614SOL     OW28474   0.959   2.194   1.065 -0.8354 -0.1003  0.2316
 5614SOL    HW128475   1.038   2.239   1.095 -0.6622  0.3375 -0.8861
 5614SOL    HW228476   0.893   2.256   1.097 -0.4862  0.5801 -0.3901
 5615SOL     OW28477   4.052   3.227   2.763  0.0368 -0.1064  0.4130
 5615SOL    HW128478   4.063   3.132   2.768  0.6399 -0.1074 -1.0036
 5615SOL    HW228479   3.967   3.226   2.808  0.5843 -0.7866  1.4345
 5616SOL     OW28480   3.712   3.345   5.607 -0.2181  0.4699 -0.1325
 5616SOL    HW128481   3.655   3.287   5.658  2.8141 -2.0560  0.3946
 5616SOL    HW228482   3.778   3.382   5.666 -2.2413  0.1258  2.3662
 5617SOL     OW28483   2.764   0.541   5.770 -0.2805 -0.0384  0.3591
 5617SOL    HW128484   2.756   0.631   5.738 -0.2695  0.4176  1.6540
 5617SOL    HW228485   2.705   0.548   5.845 -2.0384 -0.6241 -0.9602
 5618SOL     OW28486   1.110   1.649  16.656 -0.3383  0.3358  0.3020
 5618SOL    HW128487   1.124   1.636  16.562  2.9102 -1.1702  1.0136
 5618SOL    HW228488   1.118   1.744  16.662  0.5838  0.1210  2.1660
 5619SOL     OW28489   4.565   3.622   7.200  0.1470  0.0225  0.0475
 5619SOL    HW128490   4.531   3.602   7.287 -1.8381  2.9248 -0.0269
 5619SOL    HW228491   4.657   3.630   7.224 -0.1450  0.0473  1.1928
 5620SOL     OW28492   0.151   3.646  12.312 -0.0469  0.0809  0.1744
 5620SOL    HW128493   0.057   3.654  12.300 -0.0099 -0.5752 -0.5674
 5620SOL    HW228494   0.167   3.740  12.320 -0.5364  0.2938 -1.2902
 5621SOL     OW28495   1.366   2.964   0.674 -0.0101 -0.0709 -0.3436
 5621SOL    HW128496   1.448   2.917   0.658 -0.0264  0.0501 -0.7886
 5621SOL    HW228497   1.346   2.997   0.587 -2.1603  0.2569  0.2899
 5622SOL     OW28498   1.810   4.424   3.991 -0.4993 -0.2958 -0.0331
 5622SOL    HW128499   1.766   4.468   4.064  1.7898  2.1207 -0.0599
 5622SOL    HW228500   1.897   4.462   4.006 -0.0567 -0.1992 -2.8520
 5623SOL     OW28501   1.773   3.338  11.364  0.4325 -0.6450 -0.0065
 5623SOL    HW128502   1.725   3.307  11.288  0.0882  1.8557 -0.8037
 5623SOL    HW228503   1.854   3.351  11.315 -0.0997  1.2280 -0.3983
 5624SOL     OW28504   3.463   3.910   3.488  0.6517  0.7283 -0.2627
 5624SOL    HW128505   3.449   3.830   3.539 -0.7072  0.5128 -0.9502
 5624SOL    HW228506   3.418   3.892   3.405  1.1713 -2.5306  0.1599
 5625SOL     OW28507   1.960   0.562   4.247  0.0756  0.0067 -0.1663
 5625SOL    HW128508   1.996   0.623   4.311  1.3718  0.2720 -1.1678
 5625SOL    HW228509   1.869   0.571   4.274  0.4381  1.1712  0.6704
 5626SOL     OW28510   0.451   3.611  13.029 -0.0327 -0.1358  0.0662
 5626SOL    HW128511   0.378   3.657  13.070  1.3674  2.2473 -0.1189
 5626SOL    HW228512   0.404   3.535  12.996  1.5500 -0.4575 -1.4431
 5627SOL     OW28513   3.478   2.187  13.939  0.2311 -0.1597  0.7204
 5627SOL    HW128514   3.525   2.174  13.857  0.2422 -1.3900  0.9111
 5627SOL    HW228515   3.515   2.120  13.996  0.6247  0.3338  1.0440
 5628SOL     OW28516   1.702   4.195   5.928 -0.5365 -0.0907 -0.0138
 5628SOL    HW128517   1.726   4.263   5.865  0.1788  0.0953  0.4591
 5628SOL    HW228518   1.746   4.211   6.011  2.2846 -0.8391 -1.3653
 5629SOL     OW28519   3.706   0.875   6.840  0.1529  0.2907 -0.3472
 5629SOL    HW128520   3.719   0.801   6.782 -1.4055  0.4454 -0.8934
 5629SOL    HW228521   3.791   0.884   6.882 -1.2055  2.8600  1.9108
 5630SOL     OW28522   0.791   0.678   2.380  0.1938 -0.1597  0.5512
 5630SOL    HW128523   0.726   0.616   2.412 -1.4917  0.5355 -1.4795
 5630SOL    HW228524   0.874   0.653   2.421  0.2651 -0.6473  0.1072
 5631SOL     OW28525   4.615   3.287  12.456 -0.0593  0.0103  0.2546
 5631SOL    HW128526   4.537   3.340  12.439 -0.4212 -1.0424 -1.3702
 5631SOL    HW228527   4.582   3.197  12.456 -1.0288  0.3633  1.2113
 5632SOL     OW28528   0.219   1.544  17.183  0.0170  0.1400 -0.1121
 5632SOL    HW128529   0.221   1.456  17.146 -0.1407 -0.1846  0.6588
 5632SOL    HW228530   0.303   1.580  17.156  0.0844 -1.0125 -1.4562
 5633SOL     OW28531   4.223   2.193  17.412  0.1916 -0.4248  0.8724
 5633SOL    HW128532   4.127   2.197  17.413  0.1001 -2.8725  3.6358
 5633SOL    HW228533   4.249   2.265  17.469 -0.7429 -1.3839  2.5162
 5634SOL     OW28534   4.712   1.174   9.101 -0.4246  0.8205 -0.4023
 5634SOL    HW128535   4.686   1.099   9.047 -2.2165  0.9418  0.2759
 5634SOL    HW228536   0.005   1.131   9.180  0.3314  0.5676 -0.8458
 5635SOL     OW28537   3.584   4.384   5.060  0.0958 -0.3745 -0.4318
 5635SOL    HW128538   3.647   4.322   5.023  0.1913  0.3716 -1.5232
 5635SOL    HW228539   3.590   4.360   5.153  0.0109  1.0768 -0.0478
 5636SOL     OW28540   1.776   1.342  11.240  0.0857  0.4042  0.4271
 5636SOL    HW128541   1.722   1.367  11.315 -0.4977  3.8568 -1.1541
 5636SOL    HW228542   1.709   1.308  11.180  1.4781 -0.2198 -0.7945
 5637SOL     OW28543   0.283   0.867   4.536  0.4756 -0.0793  0.2077
 5637SOL    HW128544   0.315   0.895   4.450  0.4734  0.0990  0.2661
 5637SOL    HW228545   0.357   0.873   4.596  1.4600 -1.9519 -0.8015
 5638SOL     OW28546   1.966   1.003  11.528 -0.0308 -0.2462  0.1569
 5638SOL    HW128547   1.962   1.079  11.587  0.3086  1.3451 -1.8686
 5638SOL    HW228548   2.020   0.947  11.583 -0.4105  0.0651  0.8562
 5639SOL     OW28549   2.491   0.048   5.309  0.1761  0.2343 -0.4708
 5639SOL    HW128550   2.436   4.711   5.290  2.0014 -0.7201 -1.8751
 5639SOL    HW228551   2.578   0.009   5.317 -0.0968 -0.0796  1.0268
 5640SOL     OW28552   3.892   4.589   4.023  0.6825 -0.2302 -0.0634
 5640SOL    HW128553   3.803   4.559   4.009  0.2752  1.4731 -1.0468
 5640SOL    HW228554   3.934   4.503   4.013 -0.9096 -1.0439  0.2571
 5641SOL     OW28555   3.111   2.360   4.613  0.0918  0.0642 -0.3595
 5641SOL    HW128556   3.088   2.435   4.667  1.7539  0.2884  0.0568
 5641SOL    HW228557   3.023   2.348   4.579 -0.3412  1.0356  0.4511
 5642SOL     OW28558   3.309   1.244   7.706 -0.9501 -0.9271  0.4675
 5642SOL    HW128559   3.364   1.177   7.746  2.1844 -0.8054 -3.6037
 5642SOL    HW228560   3.375   1.282   7.648 -1.4119 -1.6181 -0.5138
 5643SOL     OW28561   2.697   1.805   3.887 -0.1856  0.2393  0.3994
 5643SOL    HW128562   2.765   1.817   3.821  0.7735 -0.2783  1.3008
 5643SOL    HW228563   2.684   1.898   3.905  1.5109  0.9234 -2.0901
 5644SOL     OW28564   0.296   2.860   5.455  0.5546  0.0121 -0.3030
 5644SOL    HW128565   0.365   2.818   5.404  1.1405 -0.4913  0.8867
 5644SOL    HW228566   0.299   2.953   5.431  1.2454 -0.6082 -2.5453
 5645SOL     OW28567   2.877   3.972   0.175  0.2399  0.1635 -0.3322
 5645SOL    HW128568   2.870   3.876   0.181  0.2577 -0.0313 -3.0574
 5645SOL    HW228569   2.874   3.989   0.269  1.6171 -2.5249  0.2169
 5646SOL     OW28570   2.825   1.429   8.513  0.2341  0.3992  0.0230
 5646SOL    HW128571   2.773   1.507   8.497 -1.0600 -0.6137 -0.6625
 5646SOL    HW228572   2.863   1.447   8.599  1.1501 -0.2339 -0.2386
 5647SOL     OW28573   3.586   2.066   3.789 -0.0740 -0.6010 -0.2345
 5647SOL    HW128574   3.671   2.109   3.795 -1.1627  1.2633  1.4461
 5647SOL    HW228575   3.547   2.091   3.872 -0.2812 -0.3878 -0.3948
 5648SOL     OW28576   1.493   1.063   3.046  0.2853  0.1515 -0.0393
 5648SOL    HW128577   1.473   0.974   3.016 -0.8542 -0.0656  1.3981
 5648SOL    HW228578   1.500   1.114   2.966 -4.3040 -1.4611 -1.4950
 5649SOL     OW28579   4.491   2.645   7.059 -0.4939  0.5268  0.0194
 5649SOL    HW128580   4.544   2.592   7.118 -1.5972 -1.3628 -0.6988
 5649SOL    HW228581   4.455   2.702   7.127 -2.2307  0.0459 -0.5050
 5650SOL     OW28582   3.933   2.601  15.020  0.3161  0.2159 -0.6133
 5650SOL    HW128583   3.998   2.670  15.032 -1.3556  1.8025 -0.7452
 5650SOL    HW228584   3.896   2.611  14.933  2.1985  2.3691 -1.1554
 5651SOL     OW28585   1.497   1.315   3.317  0.2708  0.2770 -0.3906
 5651SOL    HW128586   1.577   1.265   3.327  0.9230  0.9681 -2.2827
 5651SOL    HW228587   1.445   1.269   3.384  1.8520  0.5495  1.0096
 5652SOL     OW28588   2.907   2.832   5.600 -0.5686  0.2952  0.1611
 5652SOL    HW128589   2.881   2.831   5.692  0.3888  0.5826  0.4271
 5652SOL    HW228590   2.969   2.759   5.595 -0.1098  0.6713  0.4098
 5653SOL     OW28591   1.619   1.754   4.463  0.4887  0.2481 -0.1289
 5653SOL    HW128592   1.580   1.820   4.520 -1.2489  0.0617 -1.1099
 5653SOL    HW228593   1.713   1.763   4.477  0.2105 -0.3853  2.1831
 5654SOL     OW28594   3.205   3.479  10.919  0.0736 -0.0142  0.4323
 5654SOL    HW128595   3.120   3.461  10.959  0.1660 -0.1718  0.5597
 5654SOL    HW228596   3.185   3.457  10.828  1.9807  1.3293 -0.3230
 5655SOL     OW28597   2.083   1.059  14.439 -0.0139  0.0668  0.0816
 5655SOL    HW128598   2.130   1.027  14.516 -0.1594  0.6550  0.4204
 5655SOL    HW228599   2.105   0.989  14.377 -0.6899  0.3864 -0.5221
 5656SOL     OW28600   4.529   0.288  15.853  0.6213  0.4152  0.0985
 5656SOL    HW128601   4.623   0.271  15.848  0.5442 -0.3956  1.4425
 5656SOL    HW228602   4.495   0.210  15.896 -0.2831  0.2923 -0.8510
 5657SOL     OW28603   0.019   2.488   1.946  0.0106 -0.0151 -0.0103
 5657SOL    HW128604   0.057   2.477   2.033  0.2026 -0.4665 -0.1491
 5657SOL    HW228605   0.043   2.404   1.907 -1.3969 -0.3484 -0.1662
 5658SOL     OW28606   3.939   4.602   9.073 -0.7152 -0.3261 -0.3441
 5658SOL    HW128607   3.998   4.618   9.000  0.7119  1.8185  1.3065
 5658SOL    HW228608   3.884   4.680   9.069 -0.0051  0.1525 -0.6044
 5659SOL     OW28609   0.532   2.848   3.800 -0.1056  0.5562  0.0249
 5659SOL    HW128610   0.486   2.797   3.868 -0.8940 -1.1882 -1.8234
 5659SOL    HW228611   0.469   2.834   3.729  1.0450 -1.4496 -0.6042
 5660SOL     OW28612   2.295   4.633  12.600 -0.1688 -0.1130  0.4800
 5660SOL    HW128613   2.266   4.699  12.537  0.8599 -0.1611 -0.0473
 5660SOL    HW228614   2.324   4.568  12.537 -0.3860  1.9377 -1.7331
 5661SOL     OW28615   4.573   0.506   6.257 -0.4873 -0.0674 -0.4709
 5661SOL    HW128616   4.482   0.514   6.230 -0.7203  2.2003  0.9568
 5661SOL    HW228617   4.565   0.444   6.329  3.3434  0.3241  0.2913
 5662SOL     OW28618   0.338   0.703   5.895 -0.6646  0.1782  0.0523
 5662SOL    HW128619   0.320   0.738   5.982 -0.8641  1.8877 -0.6850
 5662SOL    HW228620   0.305   0.614   5.910 -0.1303 -0.0619 -0.1827
 5663SOL     OW28621   4.308   3.750  14.444 -0.2739 -0.3315  0.4622
 5663SOL    HW128622   4.364   3.802  14.386 -0.3651 -0.4376  0.2790
 5663SOL    HW228623   4.296   3.802  14.524 -1.7772 -0.6773  0.4600
 5664SOL     OW28624   0.668   0.845  17.583 -0.2861 -0.2463  0.5380
 5664SOL    HW128625   0.653   0.775  17.520  1.0789  1.0833 -1.2489
 5664SOL    HW228626   0.678   0.787  17.658 -4.1778 -0.7375  0.7018
 5665SOL     OW28627   0.644   1.295   5.608  0.1975  0.5688 -0.9762
 5665SOL    HW128628   0.641   1.384   5.573 -3.4951  0.1504 -1.7456
 5665SOL    HW228629   0.596   1.300   5.691  2.2485 -0.0773  0.2422
 5666SOL     OW28630   3.221   2.469   4.177 -0.4758  0.3686 -0.3632
 5666SOL    HW128631   3.285   2.470   4.248 -1.4425 -3.3582  0.5503
 5666SOL    HW228632   3.157   2.405   4.210  0.0173  0.9717  1.7484
 5667SOL     OW28633   0.592   3.597   2.338 -0.0543  0.3488  0.2703
 5667SOL    HW128634   0.503   3.632   2.326 -0.2339 -0.2416 -0.0834
 5667SOL    HW228635   0.646   3.676   2.328  1.8806 -0.8495  1.4973
 5668SOL     OW28636   1.166   2.311   6.876 -0.0281 -0.2411  0.2805
 5668SOL    HW128637   1.174   2.391   6.823  3.0708 -0.5427  0.2500
 5668SOL    HW228638   1.220   2.263   6.813 -0.9119 -1.1786  0.2458
 5669SOL     OW28639   3.189   2.086   3.234  0.4272 -0.1200 -0.3709
 5669SOL    HW128640   3.110   2.116   3.277  0.3331 -0.9997  0.0711
 5669SOL    HW228641   3.199   1.994   3.262 -0.3909 -0.1182 -0.0918
 5670SOL     OW28642   1.901   2.176   2.023  0.4314  0.1346 -0.5447
 5670SOL    HW128643   1.873   2.096   1.979 -2.3008  1.2848 -0.9053
 5670SOL    HW228644   1.818   2.222   2.027  0.9344  0.9934  0.2196
 5671SOL     OW28645   3.627   2.812  14.941 -0.6244 -0.6418  0.1185
 5671SOL    HW128646   3.610   2.755  14.867 -1.7032 -2.0243  1.4272
 5671SOL    HW228647   3.637   2.893  14.890  0.7948 -1.6264 -1.1450
 5672SOL     OW28648   4.068   3.856   5.032 -0.3108 -0.0986  0.1964
 5672SOL    HW128649   4.051   3.951   5.031  0.0006  0.0052  2.7012
 5672SOL    HW228650   4.115   3.852   5.115  1.2596  0.6741 -0.6617
 5673SOL     OW28651   0.884   3.369   2.486 -0.2743  0.0421  0.1118
 5673SOL    HW128652   0.892   3.296   2.547  1.5865  0.5009  0.3959
 5673SOL    HW228653   0.812   3.421   2.522 -0.7282  0.4312 -1.3720
 5674SOL     OW28654   3.021   2.278   9.392 -0.0583  0.1338  0.3690
 5674SOL    HW128655   2.945   2.331   9.417  0.3948  0.9376  0.0657
 5674SOL    HW228656   2.984   2.193   9.414 -1.4865  0.1340 -1.9694
 5675SOL     OW28657   4.337   2.802   4.082  0.4317 -0.4028  0.2252
 5675SOL    HW128658   4.420   2.761   4.106  0.9611  0.9659  0.8001
 5675SOL    HW228659   4.276   2.752   4.136  1.0920 -0.4835  0.9097
 5676SOL     OW28660   3.804   3.984   9.052  0.0527  0.4466 -0.2097
 5676SOL    HW128661   3.899   3.991   9.040 -0.1508  1.9124 -0.9666
 5676SOL    HW228662   3.787   3.995   9.145  1.7525 -1.4782  0.3339
 5677SOL     OW28663   2.883   2.563   6.575  0.1342  0.4619  0.0542
 5677SOL    HW128664   2.806   2.618   6.587  0.1014  0.3173  0.5333
 5677SOL    HW228665   2.853   2.501   6.509 -0.0731 -0.2125  0.7760
 5678SOL     OW28666   0.402   3.457   4.938  0.7599  0.0275  0.1610
 5678SOL    HW128667   0.358   3.430   4.858 -2.7505  3.3231  0.9641
 5678SOL    HW228668   0.458   3.383   4.960  0.0869 -0.9198 -1.3730
 5679SOL     OW28669   1.093   1.097   2.818  0.6278  0.4134 -0.2926
 5679SOL    HW128670   1.067   1.183   2.784  0.0626  1.2003  2.1743
 5679SOL    HW228671   1.054   1.056   2.741  0.0818 -0.4194  0.4320
 5680SOL     OW28672   2.096   0.601   7.980 -0.1969 -0.0940  0.3954
 5680SOL    HW128673   2.081   0.682   8.028 -0.5569  1.3439 -2.1435
 5680SOL    HW228674   2.104   0.631   7.889  0.5754  1.9651  1.1411
 5681SOL     OW28675   0.209   1.031   5.928  0.0953 -0.4984 -0.0582
 5681SOL    HW128676   0.114   1.024   5.939 -0.1464  1.1011 -1.1401
 5681SOL    HW228677   0.238   1.029   6.019 -1.0717  0.0542  0.3281
 5682SOL     OW28678   1.157   1.936   2.018  0.0598  0.2338  0.1244
 5682SOL    HW128679   1.061   1.935   2.020  0.0593 -0.2566 -0.4179
 5682SOL    HW228680   1.177   1.910   1.928 -0.3461 -0.8820  0.3590
 5683SOL     OW28681   1.252   0.141  13.863  0.1434  0.4189  0.5381
 5683SOL    HW128682   1.262   0.145  13.959  1.5528  0.7854  0.3836
 5683SOL    HW228683   1.167   0.099  13.867  0.4105 -0.5059 -4.0346
 5684SOL     OW28684   4.012   2.698   4.031  0.2734 -0.4493  0.2248
 5684SOL    HW128685   4.072   2.659   4.094 -0.0733  0.4822  1.1225
 5684SOL    HW228686   3.968   2.755   4.094 -1.5526 -1.1494 -0.4305
 5685SOL     OW28687   2.851   3.505  12.231 -0.0785  0.0514  0.0487
 5685SOL    HW128688   2.781   3.539  12.287  0.5739  0.3777  0.6551
 5685SOL    HW228689   2.804   3.445  12.173 -1.4040  0.6080  0.5431
 5686SOL     OW28690   2.433   1.675   1.996 -0.2406  0.1023  0.3221
 5686SOL    HW128691   2.454   1.768   1.993  0.9085 -0.1268  1.1362
 5686SOL    HW228692   2.499   1.654   2.063 -2.0797 -1.3853  1.6488
 5687SOL     OW28693   3.017   2.794   0.312  0.5034  0.1491  0.1702
 5687SOL    HW128694   2.935   2.831   0.279  0.0129 -0.4828  0.7010
 5687SOL    HW228695   3.043   2.873   0.359  0.9370  0.3271 -0.3577
 5688SOL     OW28696   0.253   1.538   1.886  0.2859 -0.0620  0.3548
 5688SOL    HW128697   0.344   1.523   1.909  0.9047  1.4168 -1.1010
 5688SOL    HW228698   0.211   1.496   1.961 -0.0263  0.2042  0.3284
 5689SOL     OW28699   1.397   3.958   7.497  0.6704 -0.1838 -0.6649
 5689SOL    HW128700   1.346   4.039   7.512 -1.1353 -1.0625 -2.1011
 5689SOL    HW228701   1.377   3.909   7.577 -0.5263 -0.2309 -0.9880
 5690SOL     OW28702   2.252   2.200   6.062  0.0631  0.3890  0.2817
 5690SOL    HW128703   2.225   2.223   5.973  1.8734 -1.7723 -0.8404
 5690SOL    HW228704   2.289   2.286   6.081 -1.3686  0.9667  0.4062
 5691SOL     OW28705   2.092   0.730   7.707 -0.1456  0.0597 -0.4511
 5691SOL    HW128706   2.003   0.693   7.712  0.4350 -1.1532  0.9641
 5691SOL    HW228707   2.114   0.719   7.614 -0.2527 -1.7919 -0.2598
 5692SOL     OW28708   2.743   2.975   4.264  0.0851  0.2032 -0.3549
 5692SOL    HW128709   2.802   2.913   4.222  1.1692 -0.5106  2.2449
 5692SOL    HW228710   2.657   2.935   4.247  0.6364 -0.2017 -2.1891
 5693SOL     OW28711   1.554   2.748   0.586  0.0677  0.1609 -0.8143
 5693SOL    HW128712   1.649   2.737   0.588  0.2019  0.5162 -4.2279
 5693SOL    HW228713   1.547   2.783   0.497  0.9463 -0.9367 -1.3071
 5694SOL     OW28714   4.647   4.241   8.885 -0.2587  0.1826  0.4571
 5694SOL    HW128715   4.623   4.334   8.879 -0.2124  0.0568 -1.8165
 5694SOL    HW228716   4.718   4.238   8.949 -0.7818  2.4225  1.1594
 5695SOL     OW28717   0.525   3.257   6.273  0.3092 -0.4509 -0.1998
 5695SOL    HW128718   0.555   3.347   6.284  2.3807 -0.8672 -2.3934
 5695SOL    HW228719   0.465   3.240   6.346 -0.8225 -0.4011 -1.1198
 5696SOL     OW28720   1.192   2.734   0.980  0.0478  0.4302 -0.0523
 5696SOL    HW128721   1.111   2.782   0.959 -0.1507  0.3236  0.4771
 5696SOL    HW228722   1.211   2.698   0.893  1.4407  0.9890  0.0368
 5697SOL     OW28723   0.657   0.948   7.100 -0.6537  0.2997 -0.9584
 5697SOL    HW128724   0.738   0.997   7.082 -0.6239  0.4379 -0.4448
 5697SOL    HW228725   0.608   1.006   7.158 -0.9820 -0.3073 -0.6357
 5698SOL     OW28726   3.356   0.251   6.554  0.5005 -0.1681 -0.4492
 5698SOL    HW128727   3.448   0.269   6.534  0.0712 -0.3177 -2.5890
 5698SOL    HW228728   3.317   0.330   6.515 -2.2366 -0.9390  0.7404
 5699SOL     OW28729   2.521   4.645   8.457 -0.1888  0.7556  0.0225
 5699SOL    HW128730   2.597   4.679   8.505  0.3831  0.4017 -0.6415
 5699SOL    HW228731   2.468   4.724   8.453  0.9209  1.5337  0.4801
 5700SOL     OW28732   3.344   0.192   6.844  0.1426 -0.1016 -0.4288
 5700SOL    HW128733   3.409   0.243   6.892  1.8828 -0.8156 -2.0026
 5700SOL    HW228734   3.352   0.216   6.752  1.2059  0.4956 -0.1826
 5701SOL     OW28735   2.372   1.660   7.095 -0.1850  0.3153  0.0075
 5701SOL    HW128736   2.284   1.622   7.093 -0.0514 -0.0163  0.3653
 5701SOL    HW228737   2.397   1.650   7.187  1.2583  2.2191 -0.2051
 5702SOL     OW28738   2.727   2.334   1.889  0.3145  0.8562 -0.1160
 5702SOL    HW128739   2.805   2.364   1.935  0.0255 -0.6363  1.3782
 5702SOL    HW228740   2.672   2.412   1.888 -2.6031 -1.1660  1.6329
 5703SOL     OW28741   1.252   2.302   3.045  0.5960 -0.6322 -0.0368
 5703SOL    HW128742   1.247   2.282   3.139  0.4047  0.0845  0.1043
 5703SOL    HW228743   1.201   2.229   3.011 -2.9529  0.6193  2.5246
 5704SOL     OW28744   3.081   2.454   5.308 -0.7216 -0.3176 -0.5503
 5704SOL    HW128745   3.015   2.503   5.258  1.9695  0.2562 -3.5286
 5704SOL    HW228746   3.162   2.497   5.283 -0.6174  0.3031  0.8451
 5705SOL     OW28747   0.104   0.815   7.450 -0.1883 -0.4223 -0.1269
 5705SOL    HW128748   0.070   0.727   7.433  1.1468 -1.3144  1.8052
 5705SOL    HW228749   0.030   0.865   7.416 -1.0145  0.0982  2.4298
 5706SOL     OW28750   0.386   0.139   2.975  0.6215 -0.1568 -0.2208
 5706SOL    HW128751   0.452   0.072   2.954 -0.6881 -0.9110 -1.9319
 5706SOL    HW228752   0.405   0.194   2.899 -1.9292  2.7398  1.2746
 5707SOL     OW28753   2.842   0.067   1.652  0.3396 -0.4319 -0.4576
 5707SOL    HW128754   2.814   0.156   1.629  1.4298  0.2367  0.8026
 5707SOL    HW228755   2.928   0.064   1.610 -0.4768 -1.6289 -2.0717
 5708SOL     OW28756   3.642   0.353   6.449  0.1344  0.1253  0.1574
 5708SOL    HW128757   3.594   0.310   6.378 -0.2246  1.2084 -0.2579
 5708SOL    HW228758   3.674   0.436   6.414  1.8956 -0.7273 -0.2318
 5709SOL     OW28759   4.407   1.067   1.865  0.1468 -0.0592  0.4500
 5709SOL    HW128760   4.320   1.033   1.844  0.9278 -0.7770 -1.5933
 5709SOL    HW228761   4.425   1.136   1.801 -1.3631 -0.2894 -0.2224
 5710SOL     OW28762   1.218   2.657   0.718  0.2617 -0.5797  0.2124
 5710SOL    HW128763   1.254   2.589   0.660 -0.4353 -1.8427  1.2547
 5710SOL    HW228764   1.140   2.660   0.663  0.1729 -0.8500  0.3232
 5711SOL     OW28765   2.501   0.246   6.383 -0.2418  0.3882  0.0246
 5711SOL    HW128766   2.419   0.264   6.335  0.0690 -0.2556 -0.7426
 5711SOL    HW228767   2.567   0.267   6.317 -0.7916  1.3740 -0.2214
 5712SOL     OW28768   3.141   4.172   4.789  0.4045 -0.4000  0.1449
 5712SOL    HW128769   3.070   4.236   4.794  0.0774 -0.6884 -0.7049
 5712SOL    HW228770   3.216   4.229   4.804 -0.7885  0.7907  1.5243
 5713SOL     OW28771   0.017   1.177   7.616  0.2335  0.5800 -0.4588
 5713SOL    HW128772   0.103   1.160   7.654 -0.3615 -2.3339 -0.3977
 5713SOL    HW228773   0.040   1.176   7.523  2.2235  0.9216  0.0394
 5714SOL     OW28774   1.259   2.082   2.505  0.0397  0.3893 -0.3774
 5714SOL    HW128775   1.246   2.081   2.410 -0.5218  0.4375 -0.3026
 5714SOL    HW228776   1.299   1.994   2.508  3.2909  1.9398  1.8567
 5715SOL     OW28777   2.772   1.940   6.646 -0.2369 -0.4285  0.1898
 5715SOL    HW128778   2.835   1.998   6.603 -0.7159 -1.1756 -1.5398
 5715SOL    HW228779   2.828   1.870   6.680  0.0250 -0.7119 -0.8258
 5716SOL     OW28780   2.728   1.518   9.483 -0.5398 -0.3032  0.3649
 5716SOL    HW128781   2.651   1.472   9.449  1.6252 -2.4083 -1.6806
 5716SOL    HW228782   2.788   1.445   9.494  3.1101  2.4117 -1.7989
 5717SOL     OW28783   2.082   3.931   7.503 -0.0133 -0.5335 -0.4980
 5717SOL    HW128784   2.075   4.023   7.526 -4.2670 -0.1039 -3.4868
 5717SOL    HW228785   1.990   3.921   7.479 -0.4880  1.9356  0.2951
 5718SOL     OW28786   0.301   1.551   0.141  0.3592  0.3446  0.6016
 5718SOL    HW128787   0.321   1.543   0.234 -3.7123 -5.0574  1.0342
 5718SOL    HW228788   0.387   1.572   0.104 -0.4751  2.1538 -0.3273
 5719SOL     OW28789   3.866   4.075   7.801 -0.5822  0.5695 -0.3729
 5719SOL    HW128790   3.957   4.045   7.799 -1.7295 -3.1339  2.4929
 5719SOL    HW228791   3.817   3.995   7.779  1.3894 -0.6277 -0.4277
 5720SOL     OW28792   0.540   0.893   4.997 -0.3470 -0.4227 -0.1076
 5720SOL    HW128793   0.517   0.899   5.090 -0.4108  0.2976 -0.1697
 5720SOL    HW228794   0.627   0.854   5.002 -0.6177 -0.8762  1.0636
 5721SOL     OW28795   2.062   1.243   4.149 -0.2191  0.0849  0.2029
 5721SOL    HW128796   2.100   1.163   4.185 -0.3959 -1.5790 -3.3324
 5721SOL    HW228797   2.139   1.275   4.102  0.6434  1.0299  2.2453
 5722SOL     OW28798   2.646   1.790   6.034 -0.2705 -0.5722 -0.0905
 5722SOL    HW128799   2.616   1.806   5.945  0.8139 -0.2087 -0.3902
 5722SOL    HW228800   2.670   1.881   6.051 -2.8850  0.0412  0.2864
 5723SOL     OW28801   2.925   3.849   5.115  0.1618  0.4407 -0.0462
 5723SOL    HW128802   2.963   3.810   5.036  1.4470  0.2302  0.6767
 5723SOL    HW228803   3.005   3.842   5.168  0.1172 -1.0580 -0.1789
 5724SOL     OW28804   3.118   2.062  17.425  0.5190  0.0700 -0.4205
 5724SOL    HW128805   3.131   2.097  17.513  0.0227 -3.0845  0.9211
 5724SOL    HW228806   3.132   1.970  17.448 -1.1228 -0.3910 -1.2572
 5725SOL     OW28807   1.551   4.167   8.390 -0.1337  0.3895 -0.4461
 5725SOL    HW128808   1.628   4.221   8.377  0.5653 -1.0129 -2.1455
 5725SOL    HW228809   1.576   4.125   8.472  1.9161  1.0872 -0.7300
 5726SOL     OW28810   1.841   3.531  10.181 -0.0866 -0.5420 -0.4300
 5726SOL    HW128811   1.795   3.529  10.264  1.0501 -2.6990  0.1378
 5726SOL    HW228812   1.802   3.455  10.139 -1.5865 -0.5139  0.9088
 5727SOL     OW28813   1.022   3.735  12.977  1.0001 -0.2952 -0.3853
 5727SOL    HW128814   0.997   3.643  12.974 -0.9888  0.2303  0.4947
 5727SOL    HW228815   1.076   3.740  12.898  1.3193  1.2076 -0.0617
 5728SOL     OW28816   2.842   1.291   0.741 -0.2949  0.3086 -0.3761
 5728SOL    HW128817   2.862   1.312   0.650  3.6027 -0.2870  0.3487
 5728SOL    HW228818   2.928   1.271   0.778  0.0458  1.2861 -0.6350
 5729SOL     OW28819   2.749   2.257  11.253 -0.9482 -0.1770 -0.3027
 5729SOL    HW128820   2.700   2.311  11.190  0.0861  0.6064 -0.4417
 5729SOL    HW228821   2.833   2.261  11.207  0.3094  1.4436  2.1880
 5730SOL     OW28822   4.180   3.903   5.798  0.0819 -0.1481 -0.7365
 5730SOL    HW128823   4.201   3.834   5.861  1.1166 -0.4372 -1.3918
 5730SOL    HW228824   4.171   3.982   5.853  0.3598 -0.1279 -0.7193
 5731SOL     OW28825   1.366   3.948   2.686 -0.2616  0.3760  0.1977
 5731SOL    HW128826   1.354   3.853   2.686  1.8633  0.1171 -0.9831
 5731SOL    HW228827   1.365   3.978   2.595  2.7004  1.4485  0.5195
 5732SOL     OW28828   1.416   4.199  10.868  0.0432  0.0446  0.4922
 5732SOL    HW128829   1.369   4.243  10.798  0.9709 -0.3136 -0.3588
 5732SOL    HW228830   1.390   4.107  10.866  2.2870 -0.5351 -2.0575
 5733SOL     OW28831   4.403   2.756  17.341 -0.3585 -0.1302  0.1926
 5733SOL    HW128832   4.315   2.720  17.355 -0.7139  1.7933  2.9292
 5733SOL    HW228833   4.438   2.692  17.278  0.1317  0.6370 -0.3094
 5734SOL     OW28834   2.368   3.990   4.306 -0.2620  0.0261  0.2245
 5734SOL    HW128835   2.374   4.028   4.393  0.7650 -0.2411  0.2704
 5734SOL    HW228836   2.443   3.931   4.305  0.6374  1.1748 -0.5074
 5735SOL     OW28837   1.385   1.850   8.779  1.0806 -0.5338 -0.1081
 5735SOL    HW128838   1.417   1.902   8.853  0.7955  2.1834 -1.8846
 5735SOL    HW228839   1.446   1.891   8.718 -0.6219 -1.4878 -2.4238
 5736SOL     OW28840   2.521   3.920   1.483 -0.3605 -0.0308  0.1480
 5736SOL    HW128841   2.607   3.963   1.474  1.1983 -3.1664  0.0508
 5736SOL    HW228842   2.512   3.935   1.577 -1.1843  0.2408  0.0226
 5737SOL     OW28843   0.396   0.480  14.921  0.4698 -0.0816 -0.1500
 5737SOL    HW128844   0.409   0.552  14.860  0.0726 -0.7758 -1.0549
 5737SOL    HW228845   0.309   0.497  14.957 -0.6441 -0.7270 -2.5117
 5738SOL     OW28846   2.799   0.120   6.813 -0.0952 -0.4082  0.2790
 5738SOL    HW128847   2.849   0.187   6.766 -0.5962 -1.1087 -1.2514
 5738SOL    HW228848   2.816   0.159   6.899  2.0706 -0.8722  0.0491
 5739SOL     OW28849   3.514   3.513   6.863  0.2767 -0.5927 -0.4253
 5739SOL    HW128850   3.514   3.563   6.945  0.0436  0.2714 -0.9497
 5739SOL    HW228851   3.468   3.570   6.801 -1.1522  0.6415  1.7087
 5740SOL     OW28852   1.529   3.624   3.471 -0.4649 -0.5414 -0.5200
 5740SOL    HW128853   1.521   3.691   3.402 -1.3248 -0.4468 -0.3232
 5740SOL    HW228854   1.443   3.610   3.509  0.7020  0.3693  2.4478
 5741SOL     OW28855   1.422   0.349   7.793  0.9503 -0.1206  0.0582
 5741SOL    HW128856   1.469   0.278   7.750  1.0673  0.0970 -0.1739
 5741SOL    HW228857   1.372   0.293   7.852 -2.5962  0.8730 -2.0078
 5742SOL     OW28858   2.260   1.829  10.468 -0.1038  0.4532  0.5583
 5742SOL    HW128859   2.190   1.844  10.405  1.2426  0.9294 -0.8307
 5742SOL    HW228860   2.286   1.737  10.460 -0.7329  0.3563 -0.3013
 5743SOL     OW28861   4.352   0.449  13.309  0.5608  0.0074 -0.3485
 5743SOL    HW128862   4.268   0.414  13.278  1.3861 -0.8824 -1.5595
 5743SOL    HW228863   4.350   0.525  13.250  3.1606 -0.8298 -1.5112
 5744SOL     OW28864   3.037   0.102   4.666 -0.1936  0.1892  0.1487
 5744SOL    HW128865   3.023   0.086   4.759 -0.0880 -1.7787 -0.1891
 5744SOL    HW228866   3.107   0.045   4.634 -0.0818 -0.8573  2.2770
 5745SOL     OW28867   2.597   2.123   8.345  0.1771 -0.5967 -0.6808
 5745SOL    HW128868   2.540   2.051   8.319 -1.3710  0.9396 -1.5884
 5745SOL    HW228869   2.571   2.187   8.278  0.8169 -0.2240 -0.5730
 5746SOL     OW28870   0.460   3.982  16.185  0.4929 -0.4525 -0.4281
 5746SOL    HW128871   0.478   4.019  16.099  0.1484  0.1699 -0.2360
 5746SOL    HW228872   0.532   3.922  16.202  2.4628  2.0833  0.2629
 5747SOL     OW28873   1.329   1.833   3.371  0.1910  0.2225 -0.7808
 5747SOL    HW128874   1.273   1.780   3.314  0.7474 -1.0911 -0.1122
 5747SOL    HW228875   1.343   1.783   3.451  0.9948  1.8718  0.1068
 5748SOL     OW28876   3.580   2.765   0.990  0.6517 -0.2392 -0.1375
 5748SOL    HW128877   3.582   2.706   1.065  2.8961 -1.0390 -0.8132
 5748SOL    HW228878   3.671   2.760   0.960  1.2237  2.4333  1.1174
 5749SOL     OW28879   2.595   2.712   5.685  0.1340 -0.4981  0.2194
 5749SOL    HW128880   2.666   2.733   5.745 -0.6738  0.2859  0.9160
 5749SOL    HW228881   2.562   2.636   5.733  1.9002 -1.2713  0.1967
 5750SOL     OW28882   2.462   2.397   7.176  0.0797 -0.3812 -0.0959
 5750SOL    HW128883   2.507   2.433   7.100 -0.1729 -0.8644 -0.4764
 5750SOL    HW228884   2.530   2.378   7.241 -1.1526 -1.6535  0.8269
 5751SOL     OW28885   2.090   3.809   6.550  0.3337 -0.0717 -0.2551
 5751SOL    HW128886   2.143   3.833   6.626  4.2512 -2.0051 -2.4043
 5751SOL    HW228887   2.157   3.759   6.504  0.1240  0.4487 -1.1197
 5752SOL     OW28888   3.295   1.554   4.507  0.1203 -0.2557  0.0240
 5752SOL    HW128889   3.374   1.607   4.498  0.1253 -0.2677 -0.0002
 5752SOL    HW228890   3.310   1.527   4.598 -0.8590 -2.4191 -0.4579
 5753SOL     OW28891   4.564   2.186   7.905  0.3880 -0.1571 -0.3128
 5753SOL    HW128892   4.567   2.251   7.834 -1.2325 -0.0202 -0.2511
 5753SOL    HW228893   4.655   2.180   7.933  0.2170  2.4756  0.8252
 5754SOL     OW28894   2.500   2.856  11.096  0.3402 -0.0794  0.2446
 5754SOL    HW128895   2.473   2.788  11.158  0.0963  0.0414  0.2705
 5754SOL    HW228896   2.569   2.895  11.149  2.0292 -1.8388 -0.6273
 5755SOL     OW28897   4.189   0.155   6.664 -0.3245 -0.2560  0.7926
 5755SOL    HW128898   4.126   0.118   6.603  1.6648 -1.7853 -0.3297
 5755SOL    HW228899   4.127   0.171   6.736 -2.0580 -1.7520 -0.3763
 5756SOL     OW28900   1.340   1.180   8.659  0.4502 -0.8154 -0.6288
 5756SOL    HW128901   1.393   1.178   8.738  0.6112  1.0429 -0.6745
 5756SOL    HW228902   1.389   1.241   8.603  0.5190  2.0877  2.6083
 5757SOL     OW28903   2.214   0.821   4.611 -0.0380 -0.3891  0.4152
 5757SOL    HW128904   2.163   0.865   4.542 -1.9926 -1.1598  1.3674
 5757SOL    HW228905   2.265   0.898   4.634  0.8145 -1.1444  1.0252
 5758SOL     OW28906   2.183   4.088  14.598  0.2014 -0.2477  0.1152
 5758SOL    HW128907   2.277   4.072  14.593  0.0187 -1.3732  0.3295
 5758SOL    HW228908   2.192   4.181  14.576  2.0663 -0.4576 -0.0446
 5759SOL     OW28909   4.704   2.671   3.440 -0.2801 -0.4001  0.4869
 5759SOL    HW128910   4.692   2.612   3.366  0.7837 -0.5347  0.4177
 5759SOL    HW228911   4.617   2.678   3.480  0.3889  0.0321  1.8721
 5760SOL     OW28912   0.062   1.969  13.700  0.2791  0.1704 -0.2944
 5760SOL    HW128913   0.147   1.957  13.743 -0.2332 -0.1667  0.6108
 5760SOL    HW228914   0.021   2.046  13.740 -2.0265 -0.7312 -0.9138
 5761SOL     OW28915   2.979   2.053   5.138 -0.0773 -0.5055  0.1362
 5761SOL    HW128916   2.909   2.004   5.181  0.2133 -0.2948  0.8576
 5761SOL    HW228917   2.991   1.989   5.068  0.0834  0.2681 -0.5494
 5762SOL     OW28918   3.593   4.384  16.286  0.3820  0.2333 -0.5522
 5762SOL    HW128919   3.564   4.465  16.243 -1.0344 -0.5935 -1.1267
 5762SOL    HW228920   3.568   4.319  16.221 -1.3707 -0.5221  0.8642
 5763SOL     OW28921   4.581   3.174   6.187 -0.4623 -0.0340  0.1268
 5763SOL    HW128922   4.509   3.134   6.139 -0.9449 -0.9009  1.5545
 5763SOL    HW228923   4.657   3.133   6.148 -0.7477  0.7317 -1.2409
 5764SOL     OW28924   3.714   0.331  11.408  0.3663 -0.2169  0.6696
 5764SOL    HW128925   3.716   0.375  11.323 -1.3023 -1.5498 -0.0458
 5764SOL    HW228926   3.777   0.381  11.460  0.3946 -0.1193  0.5411
 5765SOL     OW28927   2.962   2.551   7.608  0.0545  0.5638 -0.5485
 5765SOL    HW128928   3.041   2.533   7.660  0.9409 -1.1662 -2.4927
 5765SOL    HW228929   2.924   2.463   7.612  3.6690 -1.0443 -1.0615
 5766SOL     OW28930   0.351   0.614   7.608 -0.2331  0.2872 -0.1108
 5766SOL    HW128931   0.281   0.549   7.605  0.5150 -0.5856  1.3349
 5766SOL    HW228932   0.376   0.611   7.515  0.0372  0.2913 -0.0373
 5767SOL     OW28933   1.461   0.382   5.887  0.4766 -0.6073 -0.5728
 5767SOL    HW128934   1.495   0.414   5.803 -0.2950 -0.8331 -0.9667
 5767SOL    HW228935   1.544   0.353   5.924  1.1984 -0.0388 -1.7379
 5768SOL     OW28936   0.006   1.447   2.651 -0.2749 -0.0430  0.1450
 5768SOL    HW128937   0.008   1.462   2.556  0.5734 -1.1666 -0.0089
 5768SOL    HW228938   4.699   1.525   2.683  2.4766  1.5081  0.3713
 5769SOL     OW28939   3.088   0.487  13.581  0.2529 -0.1657  0.1345
 5769SOL    HW128940   3.104   0.549  13.652 -4.2401 -0.4452  1.3681
 5769SOL    HW228941   3.178   0.454  13.586  0.9019  1.2490 -2.3400
 5770SOL     OW28942   1.733   3.544   4.981 -0.0297  0.0288 -0.3002
 5770SOL    HW128943   1.699   3.611   4.922 -0.0803 -0.0797 -0.3957
 5770SOL    HW228944   1.671   3.474   4.958  1.5297 -1.5246  0.2824
 5771SOL     OW28945   1.422   1.755  16.164 -0.5598  0.0678  0.0297
 5771SOL    HW128946   1.493   1.744  16.227 -0.4812 -0.2420 -0.1137
 5771SOL    HW228947   1.471   1.780  16.085  1.7652  0.7439  1.6812
 5772SOL     OW28948   3.492   0.084   5.760  0.5809 -0.9361 -0.0567
 5772SOL    HW128949   3.436   0.032   5.702 -1.3290 -1.4697  2.2400
 5772SOL    HW228950   3.537   0.007   5.794  0.2355 -0.2245  2.0086
 5773SOL     OW28951   2.367   1.923   0.408 -0.1567 -0.0364 -0.2040
 5773SOL    HW128952   2.340   1.839   0.370  2.6964 -2.6434  3.4698
 5773SOL    HW228953   2.393   1.975   0.332  0.0942  1.0593  0.6419
 5774SOL     OW28954   1.332   0.880  10.450  0.1636 -0.7326 -0.2197
 5774SOL    HW128955   1.399   0.824  10.411 -0.7397 -1.3328 -0.9449
 5774SOL    HW228956   1.252   0.829  10.434 -1.0665  1.4629 -0.9668
 5775SOL     OW28957   1.670   1.648   1.460  0.2938  0.0282 -0.0205
 5775SOL    HW128958   1.752   1.684   1.494 -0.1531  2.8209 -1.9701
 5775SOL    HW228959   1.700   1.569   1.415  0.1538  0.8701 -1.5689
 5776SOL     OW28960   2.794   0.313   5.262  0.3392 -0.3192  0.1025
 5776SOL    HW128961   2.782   0.397   5.307 -1.2184 -0.5697  0.1421
 5776SOL    HW228962   2.867   0.287   5.318  0.7922  1.3596  0.3151
 5777SOL     OW28963   1.248   3.776  10.707  0.4483 -0.1717 -0.1519
 5777SOL    HW128964   1.219   3.829  10.633  1.0150 -0.6572 -0.7223
 5777SOL    HW228965   1.184   3.788  10.778  0.4379 -1.6586  0.0837
 5778SOL     OW28966   0.722   2.846   5.617 -0.3612 -0.1997  0.1223
 5778SOL    HW128967   0.671   2.917   5.657  0.3002  0.5890 -0.4359
 5778SOL    HW228968   0.807   2.882   5.593 -0.5778 -0.2704 -0.7285
 5779SOL     OW28969   2.982   0.264   8.208 -0.3831  0.7956  0.1270
 5779SOL    HW128970   2.893   0.275   8.174  0.6613  1.1212 -2.4712
 5779SOL    HW228971   2.990   0.338   8.269 -0.6832  0.0918  1.0321
 5780SOL     OW28972   4.368   4.040   4.886 -0.1450  0.2227  0.2045
 5780SOL    HW128973   4.283   4.009   4.855  0.0195 -0.5354  0.5168
 5780SOL    HW228974   4.394   3.972   4.948  1.9130  0.8506  0.0383
 5781SOL     OW28975   2.347   0.612  15.875  0.0705 -0.1454 -0.0766
 5781SOL    HW128976   2.287   0.619  15.949  0.3094  1.1819 -0.0034
 5781SOL    HW228977   2.427   0.573  15.908 -0.2055 -1.4253 -0.9252
 5782SOL     OW28978   0.817   4.249  11.093 -0.0571 -0.6338  0.1692
 5782SOL    HW128979   0.848   4.159  11.087 -0.9551 -0.9274 -0.1170
 5782SOL    HW228980   0.903   4.279  11.122 -1.2792  1.8769  1.2023
 5783SOL     OW28981   4.552   2.000   1.946 -0.1820 -0.1368 -0.0529
 5783SOL    HW128982   4.621   1.982   1.883 -1.3390  0.0224 -1.3752
 5783SOL    HW228983   4.598   2.004   2.030 -1.3531 -1.2507  0.6409
 5784SOL     OW28984   0.749   0.286  17.433 -0.1919 -0.4131 -0.2769
 5784SOL    HW128985   0.750   0.230  17.355 -2.1469 -2.0403  0.8973
 5784SOL    HW228986   0.795   0.367  17.408  2.6385 -2.1029 -0.6032
 5785SOL     OW28987   3.504   2.932  11.139  0.0039 -1.2011  0.1679
 5785SOL    HW128988   3.454   2.856  11.170 -0.7642 -1.0836 -0.7737
 5785SOL    HW228989   3.483   2.993  11.209 -0.6050 -1.2119 -0.0047
 5786SOL     OW28990   0.344   1.878   9.526 -1.0207 -0.2271  0.4983
 5786SOL    HW128991   0.412   1.857   9.461 -0.8651 -0.0922  0.6164
 5786SOL    HW228992   0.382   1.844   9.607  1.9023  2.0628  0.1142
 5787SOL     OW28993   4.542   0.487  14.204  0.3185  0.1383  0.0982
 5787SOL    HW128994   4.561   0.579  14.189 -0.2801  0.4917  1.4183
 5787SOL    HW228995   4.511   0.496  14.295 -1.6864  1.1233 -0.6898
 5788SOL     OW28996   1.436   4.444   4.690  0.6282 -0.1821  0.3050
 5788SOL    HW128997   1.428   4.429   4.596  1.0789 -0.1068  0.2555
 5788SOL    HW228998   1.346   4.443   4.722  0.5194  0.6883  0.0442
 5789SOL     OW28999   3.654   4.389   1.615  0.1143  0.1567 -0.5374
 5789SOL    HW129000   3.677   4.332   1.542 -1.2857 -1.3402  0.1795
 5789SOL    HW229001   3.695   4.334   1.683  2.0433  0.6619 -1.2959
 5790SOL     OW29002   2.072   0.611   2.763 -0.6767 -0.2910 -0.0488
 5790SOL    HW129003   2.134   0.647   2.828 -1.8898  0.5368  0.6510
 5790SOL    HW229004   2.111   0.533   2.724 -2.1825 -0.8762 -0.3754
 5791SOL     OW29005   1.795   0.579   1.128 -0.2502 -0.2282  0.3967
 5791SOL    HW129006   1.765   0.670   1.135 -0.4116 -0.1668 -1.0679
 5791SOL    HW229007   1.728   0.545   1.069 -0.2766  1.5460 -0.5921
 5792SOL     OW29008   3.431   1.673   3.036  0.3096  0.5156 -0.4078
 5792SOL    HW129009   3.336   1.662   3.041  0.4682 -0.6737  0.0517
 5792SOL    HW229010   3.450   1.652   2.944 -0.8872  1.4875 -0.8722
 5793SOL     OW29011   1.963   0.441   5.482  0.3186 -0.2370 -0.5714
 5793SOL    HW129012   1.954   0.514   5.420  1.4911  0.6396  0.2928
 5793SOL    HW229013   1.878   0.402   5.459  1.3276 -1.3673 -2.3766
 5794SOL     OW29014   0.478   3.229  11.152  0.8623 -0.4387  0.2460
 5794SOL    HW129015   0.479   3.317  11.189  0.5155  0.2743 -1.4135
 5794SOL    HW229016   0.443   3.237  11.063  1.4607 -3.1742 -0.2274
 5795SOL     OW29017   0.276   0.414  13.530  0.1992  0.4319 -0.2213
 5795SOL    HW129018   0.291   0.454  13.615 -0.4611 -2.5190  1.2724
 5795SOL    HW229019   0.180   0.418  13.531  0.2266  1.2377 -1.4276
 5796SOL     OW29020   4.109   1.141   4.953 -0.1582  0.8907  0.0301
 5796SOL    HW129021   4.146   1.103   5.033  0.4857  0.9778 -0.2284
 5796SOL    HW229022   4.093   1.233   4.975  0.6635  0.9267  0.4988
 5797SOL     OW29023   4.439   3.037  17.248 -0.1406  0.6023 -0.3241
 5797SOL    HW129024   4.404   2.953  17.218  1.6407 -0.3254  0.1789
 5797SOL    HW229025   4.529   3.022  17.219  0.6516  0.1887  2.3710
 5798SOL     OW29026   3.196   4.728   8.666 -0.1624 -0.3973  0.0219
 5798SOL    HW129027   3.104   4.701   8.673 -0.7543  0.8270 -3.1015
 5798SOL    HW229028   3.230   4.665   8.603  0.6713 -0.7089  0.7855
 5799SOL     OW29029   1.834   3.416   5.451  1.2611 -0.2954 -0.6296
 5799SOL    HW129030   1.843   3.477   5.378 -2.1584  0.9614  0.0156
 5799SOL    HW229031   1.865   3.337   5.407  0.1159 -0.8754 -0.3968
 5800SOL     OW29032   0.814   0.656  17.731  0.1682  0.4314 -0.0411
 5800SOL    HW129033   0.884   0.593  17.720  0.0670  0.5903 -1.6404
 5800SOL    HW229034   0.843   0.677   0.066  0.3959 -1.2958  0.2917
 5801SOL     OW29035   1.174   4.120   4.087 -0.2957 -0.1614  0.2843
 5801SOL    HW129036   1.143   4.198   4.133 -2.6509 -1.8668  1.5725
 5801SOL    HW229037   1.269   4.124   4.102 -0.4491  2.0485  0.6961
 5802SOL     OW29038   0.247   2.361   8.962 -0.1887 -0.4246 -0.1612
 5802SOL    HW129039   0.167   2.337   9.009 -0.9491 -0.9768 -1.7331
 5802SOL    HW229040   0.256   2.456   8.971  1.0750 -0.5860  0.3019
 5803SOL     OW29041   0.640   1.968   7.665  0.2004 -0.0015  0.1795
 5803SOL    HW129042   0.548   1.976   7.638  0.0885 -1.9179  0.0322
 5803SOL    HW229043   0.681   2.036   7.611 -0.2871  1.1130  1.1963
 5804SOL     OW29044   3.342   0.874   8.509 -0.0552 -0.0195  0.0628
 5804SOL    HW129045   3.361   0.821   8.587 -1.6186  2.2398  1.9655
 5804SOL    HW229046   3.401   0.830   8.448 -0.5345 -1.0929  0.3705
 5805SOL     OW29047   3.369   3.619   5.996  0.2756 -0.0253 -0.0777
 5805SOL    HW129048   3.347   3.675   5.921  2.4762 -0.4874 -1.0686
 5805SOL    HW229049   3.294   3.560   6.000  0.1219  0.2158  0.4849
 5806SOL     OW29050   3.471   0.628   5.441  0.2503 -0.0096  0.6015
 5806SOL    HW129051   3.503   0.678   5.367  0.2292  1.0291  1.2906
 5806SOL    HW229052   3.487   0.688   5.514 -0.1688  1.5686 -0.6232
 5807SOL     OW29053   3.593   2.893  10.285  0.0727 -0.4615 -0.1205
 5807SOL    HW129054   3.593   2.981  10.325  0.8112 -1.0634  1.2027
 5807SOL    HW229055   3.687   2.881  10.272  0.3552 -0.7404  2.2429
 5808SOL     OW29056   3.882   2.690  10.014 -0.6071 -0.1365 -0.3523
 5808SOL    HW129057   3.889   2.756  10.083  0.9178 -1.2733  0.5682
 5808SOL    HW229058   3.867   2.618  10.075  0.0486 -1.6401 -1.9799
 5809SOL     OW29059   3.408   4.632   8.957 -0.5020  0.6080 -0.3057
 5809SOL    HW129060   3.450   4.660   8.875  0.8879 -1.9605 -0.4757
 5809SOL    HW229061   3.404   4.537   8.951 -1.3175  0.6316 -0.1089
 5810SOL     OW29062   4.306   1.676   4.237  0.4792 -0.3552  0.0592
 5810SOL    HW129063   4.312   1.770   4.220 -0.2720 -0.2188  0.5165
 5810SOL    HW229064   4.311   1.637   4.149  0.0357 -2.8385  1.1240
 5811SOL     OW29065   1.909   0.451  15.363 -0.7212 -0.2055 -0.1889
 5811SOL    HW129066   1.971   0.411  15.424 -0.1192  2.7817  1.1176
 5811SOL    HW229067   1.893   0.384  15.297 -1.7817 -0.7824  0.6367
 5812SOL     OW29068   2.851   4.087  16.084 -0.3877 -0.1870 -0.3868
 5812SOL    HW129069   2.862   4.045  16.170 -1.1845  1.8845  0.7225
 5812SOL    HW229070   2.921   4.043  16.036 -1.5726 -0.1080 -2.1605
 5813SOL     OW29071   1.824   2.898   0.922  0.9059  0.5660 -0.1644
 5813SOL    HW129072   1.797   2.987   0.941  1.2775  0.7609 -0.5544
 5813SOL    HW229073   1.896   2.885   0.984  0.0280  1.3692  1.0168
 5814SOL     OW29074   2.008   1.774   7.018  0.3569 -0.3569 -0.1135
 5814SOL    HW129075   2.013   1.770   6.922  1.4370 -2.5229  0.0171
 5814SOL    HW229076   2.020   1.683   7.047 -0.3214 -0.3842  0.0883
 5815SOL     OW29077   2.707   2.015  14.441  0.3064 -0.3442 -0.0799
 5815SOL    HW129078   2.707   1.953  14.368 -0.8222  0.4339 -0.7395
 5815SOL    HW229079   2.783   1.977  14.484  0.4140 -0.4840 -0.3915
 5816SOL     OW29080   1.149   0.980   3.936  0.0887 -0.0869 -0.1430
 5816SOL    HW129081   1.168   0.918   4.006  0.6069 -1.6412 -1.6573
 5816SOL    HW229082   1.239   1.005   3.917  0.8670 -2.2055  0.6678
 5817SOL     OW29083   2.173   0.865   3.083  0.5580 -0.0680  0.5834
 5817SOL    HW129084   2.205   0.953   3.065 -1.0947 -0.0392 -2.2116
 5817SOL    HW229085   2.084   0.878   3.050  0.2243 -1.7647  0.7881
 5818SOL     OW29086   4.717   2.424  16.567 -0.2313 -0.2096  0.1661
 5818SOL    HW129087   0.027   2.375  16.634 -0.8098  1.2852  1.6990
 5818SOL    HW229088   0.034   2.501  16.559 -2.4458  1.6940  2.7196
 5819SOL     OW29089   3.653   1.126   2.113 -0.2447  0.5280 -0.1800
 5819SOL    HW129090   3.562   1.096   2.119  0.0624  0.0449  1.8564
 5819SOL    HW229091   3.640   1.214   2.077 -1.6954  0.3664 -0.0758
 5820SOL     OW29092   1.063   2.136   2.923 -0.4771  0.0423  0.0589
 5820SOL    HW129093   1.014   2.054   2.915  0.6587 -0.6924  0.5757
 5820SOL    HW229094   1.054   2.160   2.831 -1.6281  0.5228  0.2885
 5821SOL     OW29095   1.927   2.207   3.232 -0.2506 -0.2838  0.0288
 5821SOL    HW129096   2.009   2.187   3.278  0.3715  0.9613 -0.5242
 5821SOL    HW229097   1.938   2.154   3.152  0.1509  1.2006 -0.9049
 5822SOL     OW29098   1.803   4.631  12.505  0.2592 -0.4847 -0.3704
 5822SOL    HW129099   1.732   4.623  12.441  0.5460  1.0812 -0.8978
 5822SOL    HW229100   1.810   4.539  12.530  1.3600 -0.3156 -0.0556
 5823SOL     OW29101   0.209   1.939  13.455 -0.1090  0.0362  0.1025
 5823SOL    HW129102   0.287   1.995  13.451  0.3721 -0.4045  3.0219
 5823SOL    HW229103   0.167   1.955  13.539  2.4014 -0.7138  1.4979
 5824SOL     OW29104   4.468   0.156  10.632 -0.0729  0.0984  0.4503
 5824SOL    HW129105   4.419   0.179  10.711 -0.2011 -3.8554  1.5099
 5824SOL    HW229106   4.509   0.072  10.652 -0.0555 -0.2748 -1.1211
 5825SOL     OW29107   4.487   0.894   5.084 -0.0718 -0.4220 -0.1297
 5825SOL    HW129108   4.581   0.905   5.097  0.1098 -2.6095  0.3787
 5825SOL    HW229109   4.491   0.883   4.989  0.1472  1.4180 -0.3326
 5826SOL     OW29110   0.931   4.367   2.984  0.5626  0.2516 -0.5633
 5826SOL    HW129111   0.837   4.379   2.994  0.3093 -0.9989 -1.5742
 5826SOL    HW229112   0.950   4.311   2.909 -3.5422 -2.1298  0.1610
 5827SOL     OW29113   3.622   4.472   7.251  0.4439  0.0338  0.5034
 5827SOL    HW129114   3.585   4.390   7.218  0.3425 -0.0005  0.6984
 5827SOL    HW229115   3.554   4.499   7.313  0.4196  0.2955  0.3610
 5828SOL     OW29116   0.275   4.537   6.354  0.7943  0.0255  0.1982
 5828SOL    HW129117   0.363   4.544   6.389 -0.1660  3.3790  1.9310
 5828SOL    HW229118   0.259   4.443   6.348  0.0787  0.2958 -1.9467
 5829SOL     OW29119   3.377   3.886   8.437  1.0867  0.1328  0.6010
 5829SOL    HW129120   3.322   3.813   8.411  1.1640 -0.0514  0.9537
 5829SOL    HW229121   3.432   3.837   8.499 -0.2240 -1.9317  0.1310
 5830SOL     OW29122   2.248   2.250   7.471  0.0153 -0.1644 -0.4655
 5830SOL    HW129123   2.184   2.186   7.503 -2.4954  2.2816 -0.6903
 5830SOL    HW229124   2.267   2.278   7.561 -0.0201 -0.1574 -0.4604
 5831SOL     OW29125   0.635   3.433  11.748  0.5499  0.0543  0.1500
 5831SOL    HW129126   0.691   3.467  11.677  0.0158  1.5417  0.4352
 5831SOL    HW229127   0.608   3.518  11.783 -1.1112 -0.8212  0.9580
 5832SOL     OW29128   3.228   0.909   7.467  0.2786  0.2424  0.2759
 5832SOL    HW129129   3.233   0.820   7.432 -2.5039 -0.2213  1.0587
 5832SOL    HW229130   3.212   0.896   7.561  0.3106 -0.9576  0.1238
 5833SOL     OW29131   4.415   1.303   8.472  0.0290  0.6002  0.4451
 5833SOL    HW129132   4.444   1.392   8.492 -0.1062  0.6284  0.5143
 5833SOL    HW229133   4.485   1.270   8.416  0.7968 -0.6029  2.0957
 5834SOL     OW29134   3.213   2.126   5.275  0.0163  0.0905  0.1988
 5834SOL    HW129135   3.236   2.118   5.183  1.8280 -1.3557  0.7666
 5834SOL    HW229136   3.120   2.147   5.266  0.1088 -0.0633 -1.0234
 5835SOL     OW29137   1.493   4.675   9.345 -0.1819  0.6613 -0.3766
 5835SOL    HW129138   1.415   4.631   9.378  1.1801 -0.0570  1.8882
 5835SOL    HW229139   1.528   4.704   9.429 -3.4262 -0.8216  1.4618
 5836SOL     OW29140   4.420   3.201   3.947  0.5254 -0.1365  0.0449
 5836SOL    HW129141   4.365   3.240   3.879 -2.2169  0.4344  2.5690
 5836SOL    HW229142   4.358   3.147   3.996 -3.5244  2.5646 -2.1762
 5837SOL     OW29143   3.992   1.544   2.772 -0.0053  0.0996 -0.1080
 5837SOL    HW129144   3.991   1.448   2.766 -1.6057  0.2513 -2.2637
 5837SOL    HW229145   3.903   1.565   2.802  0.3969  1.3247  0.2316
 5838SOL     OW29146   4.698   2.612  11.392  0.0684  0.7768  0.4290
 5838SOL    HW129147   4.720   2.519  11.393  1.0983  1.0224 -0.1419
 5838SOL    HW229148   0.038   2.656  11.361 -2.5420  3.5800 -2.2417
 5839SOL     OW29149   2.292   0.724   1.959  0.2633 -0.0710 -0.0742
 5839SOL    HW129150   2.228   0.768   2.015 -0.1024  0.7739 -1.1701
 5839SOL    HW229151   2.356   0.672   2.007  0.0810 -1.0077 -0.8635
 5840SOL     OW29152   4.736   4.389  11.756  0.3646 -0.3254  0.1963
 5840SOL    HW129153   4.651   4.354  11.730 -0.4756  2.1380 -0.4051
 5840SOL    HW229154   0.066   4.339  11.712  0.5461  1.3640 -1.4677
 5841SOL     OW29155   4.222   3.331  13.410  0.4489  0.4147  0.6650
 5841SOL    HW129156   4.212   3.249  13.362 -0.5861  0.3548  0.9783
 5841SOL    HW229157   4.316   3.332  13.424  0.6922 -0.3252 -1.0343
 5842SOL     OW29158   0.830   4.012   5.118  0.2350  0.1191 -0.2559
 5842SOL    HW129159   0.873   3.946   5.064 -1.9630 -1.0738 -0.5580
 5842SOL    HW229160   0.765   4.039   5.053  1.8547 -0.4615 -2.1022
 5843SOL     OW29161   1.075   0.627   8.719  0.4011 -0.2471 -0.3446
 5843SOL    HW129162   1.143   0.560   8.711  0.3176 -0.3243 -0.4171
 5843SOL    HW229163   0.996   0.578   8.743  0.2968  0.9544  1.7390
 5844SOL     OW29164   2.612   4.034   5.985 -0.3330 -0.1909 -0.5006
 5844SOL    HW129165   2.517   4.022   5.978 -0.8357  3.2932  0.1485
 5844SOL    HW229166   2.616   4.129   5.997  2.7131 -0.2324 -1.3125
 5845SOL     OW29167   1.633   2.747  11.972 -0.0005  0.1986 -0.2217
 5845SOL    HW129168   1.603   2.671  12.022 -3.2776  2.5942  1.4213
 5845SOL    HW229169   1.726   2.733  11.952  0.0580 -0.7108  0.7117
 5846SOL     OW29170   2.365   2.533   6.439  0.4283 -1.1175 -0.0463
 5846SOL    HW129171   2.275   2.507   6.461  1.1633 -3.0967  0.6315
 5846SOL    HW229172   2.416   2.457   6.411  2.9576 -0.3971  2.6702
 5847SOL     OW29173   2.755   2.619   0.373  0.2686  0.4417  0.8363
 5847SOL    HW129174   2.718   2.579   0.295  2.4985 -1.6245  0.8574
 5847SOL    HW229175   2.723   2.709   0.362  0.2513  0.3289  0.0142
 5848SOL     OW29176   3.858   2.580  14.749  0.2359 -0.0803  0.1836
 5848SOL    HW129177   3.893   2.635  14.679  0.1521 -0.0754  0.1463
 5848SOL    HW229178   3.765   2.567  14.731  0.1744  0.5415  0.0515
 5849SOL     OW29179   0.977   2.363   9.453 -0.0911 -0.2988 -0.0887
 5849SOL    HW129180   1.004   2.271   9.454  0.4340 -0.1207  1.4455
 5849SOL    HW229181   1.010   2.390   9.367  0.6676 -0.0394  0.2864
 5850SOL     OW29182   2.333   0.619  12.070  0.5002  0.0669  0.3218
 5850SOL    HW129183   2.346   0.638  12.163 -0.1390 -1.3251  0.6923
 5850SOL    HW229184   2.413   0.570  12.056  0.6580 -0.0078  1.4890
 5851SOL     OW29185   0.071   0.880   3.490 -0.1799 -0.1553 -0.2596
 5851SOL    HW129186   0.060   0.827   3.411  1.0188  0.3380 -0.7687
 5851SOL    HW229187   0.162   0.872   3.519 -0.3453  0.5085  0.4462
 5852SOL     OW29188   4.277   4.606   4.306  0.1978 -0.0110  0.0925
 5852SOL    HW129189   4.312   4.553   4.234 -2.1878 -0.3488 -0.8079
 5852SOL    HW229190   4.262   4.685   4.255 -0.2011  0.1713  0.4986
 5853SOL     OW29191   1.996   0.379   5.967 -0.3057 -0.1906  0.0897
 5853SOL    HW129192   2.042   0.451   6.011 -0.5650  0.7201 -1.1319
 5853SOL    HW229193   2.029   0.384   5.877 -1.0904  0.3214 -0.1679
 5854SOL     OW29194   4.458   4.615  15.398 -0.2434 -0.3480  0.1150
 5854SOL    HW129195   4.366   4.638  15.395 -0.2792 -0.6539 -0.9702
 5854SOL    HW229196   4.466   4.560  15.320  0.6349 -0.8654  0.5660
 5855SOL     OW29197   4.543   0.180  11.451 -0.7157  0.7841  0.0457
 5855SOL    HW129198   4.562   0.094  11.488 -2.0215  0.1565 -0.7160
 5855SOL    HW229199   4.586   0.228  11.521  1.2895  0.2028 -0.7835
 5856SOL     OW29200   1.116   1.326   6.649  0.1101  0.0826 -0.5403
 5856SOL    HW129201   1.077   1.242   6.622 -0.8457 -0.6218  3.0381
 5856SOL    HW229202   1.148   1.300   6.735  0.2686 -0.7968 -0.8556
 5857SOL     OW29203   2.020   2.243  11.675  0.1967  0.1480 -0.4887
 5857SOL    HW129204   2.074   2.243  11.596  1.3880 -2.3270  0.3272
 5857SOL    HW229205   1.988   2.153  11.664 -0.7484  0.4703 -0.3006
 5858SOL     OW29206   2.594   1.889   7.675 -0.6570 -0.0609 -0.8420
 5858SOL    HW129207   2.526   1.953   7.693  2.8428  3.3505  0.2050
 5858SOL    HW229208   2.562   1.854   7.592  0.4320 -1.2458 -0.7680
 5859SOL     OW29209   1.262   1.522  11.414 -0.0506 -0.2069 -0.1755
 5859SOL    HW129210   1.265   1.499  11.507  1.8110 -0.1990 -0.2430
 5859SOL    HW229211   1.188   1.583  11.418 -0.0354 -0.2655  0.9824
 5860SOL     OW29212   2.276   3.458   8.784 -0.2040 -0.3543 -0.0408
 5860SOL    HW129213   2.322   3.459   8.868 -0.7564  2.2987  0.2225
 5860SOL    HW229214   2.206   3.393   8.794 -0.2806 -0.0171  1.5874
 5861SOL     OW29215   2.314   2.799   3.077  0.0799 -0.1417  0.4047
 5861SOL    HW129216   2.366   2.796   3.158 -0.6713  1.3030  0.9313
 5861SOL    HW229217   2.238   2.854   3.099 -0.4785 -0.1614 -1.4843
 5862SOL     OW29218   3.169   3.478   0.967  0.4726 -0.1417 -0.3564
 5862SOL    HW129219   3.086   3.491   0.922  2.0157  2.6914 -2.3986
 5862SOL    HW229220   3.230   3.513   0.903  0.2991  0.4088 -0.2203
 5863SOL     OW29221   3.186   0.724   0.056 -0.3160  0.3566 -0.2870
 5863SOL    HW129222   3.125   0.650   0.067 -0.2461  0.3000 -0.2835
 5863SOL    HW229223   3.232   0.719   0.139  0.6318  1.5096 -0.7513
 5864SOL     OW29224   2.777   3.894   9.198  0.6425 -0.4561 -0.2810
 5864SOL    HW129225   2.834   3.869   9.271 -1.9819  0.5785  2.1411
 5864SOL    HW229226   2.792   3.988   9.208 -1.1022 -0.0921 -1.0269
 5865SOL     OW29227   0.515   2.671   8.759  1.0104  0.6221 -0.2868
 5865SOL    HW129228   0.437   2.727   8.753  1.4693  1.3366  0.2992
 5865SOL    HW229229   0.501   2.626   8.676  0.4858 -1.9017  1.1658
 5866SOL     OW29230   1.472   2.908  14.708  0.0922 -0.0381  0.6040
 5866SOL    HW129231   1.566   2.902  14.693  0.0470  1.1490 -0.0872
 5866SOL    HW229232   1.469   3.002  14.696  2.0254 -0.1804 -0.8777
 5867SOL     OW29233   0.317   2.794   3.644  0.0526  0.2638  0.1252
 5867SOL    HW129234   0.253   2.854   3.684 -0.2697  0.8299 -1.2632
 5867SOL    HW229235   0.256   2.722   3.626  1.3738 -0.9143  0.4075
 5868SOL     OW29236   1.204   2.964  14.711 -0.1710 -0.4874 -0.1964
 5868SOL    HW129237   1.180   2.967  14.804  0.1312  0.2035 -0.1403
 5868SOL    HW229238   1.281   2.909  14.721 -0.1795 -0.5679 -0.5918
 5869SOL     OW29239   3.324   3.970   4.883 -0.8961  0.5221  0.5121
 5869SOL    HW129240   3.352   4.009   4.966  0.1838 -2.0268  1.3685
 5869SOL    HW229241   3.242   4.014   4.861  0.0902  2.2430  0.2684
 5870SOL     OW29242   4.463   1.168   0.339  0.7814  0.5515  0.1479
 5870SOL    HW129243   4.444   1.185   0.431  2.0807  0.3379  0.4530
 5870SOL    HW229244   4.499   1.081   0.354 -0.9804 -0.2652 -0.3611
 5871SOL     OW29245   0.640   3.446  14.233 -0.2739  0.2703  0.1106
 5871SOL    HW129246   0.709   3.400  14.186 -2.8366 -0.1902 -3.1854
 5871SOL    HW229247   0.695   3.515  14.268 -1.2079  1.0260  0.0979
 5872SOL     OW29248   3.399   2.180   9.141 -0.1561 -0.1835 -0.4686
 5872SOL    HW129249   3.358   2.188   9.055 -0.0198  0.9460 -0.4317
 5872SOL    HW229250   3.391   2.085   9.154  2.1594 -0.5274 -1.5339
 5873SOL     OW29251   0.267   2.218   5.347  0.3117  0.3073 -0.0528
 5873SOL    HW129252   0.351   2.258   5.368  0.0514  0.1720  1.2763
 5873SOL    HW229253   0.288   2.165   5.270 -0.3263 -1.3795  0.9231
 5874SOL     OW29254   0.757   1.861   6.861  0.2205  0.2623  0.2646
 5874SOL    HW129255   0.684   1.805   6.835 -0.1627  1.0986 -0.4766
 5874SOL    HW229256   0.815   1.843   6.787 -2.4721 -2.5222 -1.1485
 5875SOL     OW29257   4.405   4.561   2.066 -0.3579 -0.4517  0.2150
 5875SOL    HW129258   4.487   4.512   2.064  0.1661  0.3981  0.6158
 5875SOL    HW229259   4.432   4.628   2.129  3.8027  0.1316 -2.1584
 5876SOL     OW29260   1.872   3.944   4.296  0.2949  0.0369 -0.6455
 5876SOL    HW129261   1.842   3.853   4.295 -0.6595  0.3300  1.8693
 5876SOL    HW229262   1.935   3.947   4.368 -0.7608 -0.9733  0.3195
 5877SOL     OW29263   0.006   2.184  13.869 -0.5584  0.1870  0.0385
 5877SOL    HW129264   0.074   2.233  13.916 -1.1467  0.5773  0.4729
 5877SOL    HW229265   4.672   2.173  13.930 -1.7697  0.6849 -1.3102
 5878SOL     OW29266   3.007   0.250   4.143 -0.5997  0.0298 -0.0621
 5878SOL    HW129267   3.014   0.154   4.145 -1.1496 -0.0245 -0.9485
 5878SOL    HW229268   3.054   0.265   4.061 -0.4589 -0.7677 -0.1265
 5879SOL     OW29269   0.071   0.361   4.471 -0.3494 -0.2717 -0.5550
 5879SOL    HW129270   0.098   0.449   4.443  0.2942 -1.4138 -3.5642
 5879SOL    HW229271   0.020   0.341   4.393  0.7262 -0.2764 -1.2664
 5880SOL     OW29272   0.800   2.410   2.354  0.0050 -0.1385 -1.1210
 5880SOL    HW129273   0.803   2.345   2.284  1.7575 -0.3253 -0.8591
 5880SOL    HW229274   0.763   2.357   2.424  1.7184 -0.6573 -0.6202
 5881SOL     OW29275   1.677   0.171   7.057 -0.3073  0.3544  0.0788
 5881SOL    HW129276   1.585   0.176   7.084  0.0578  0.5301  1.2805
 5881SOL    HW229277   1.707   0.125   7.135  2.4189  0.7519 -0.7227
 5882SOL     OW29278   4.501   1.957   3.288  0.7051  0.3938 -0.0952
 5882SOL    HW129279   4.511   1.869   3.323  0.9675  1.0920  1.6399
 5882SOL    HW229280   4.412   1.957   3.252  0.4668 -0.7493  0.4853
 5883SOL     OW29281   1.270   4.516   8.818  0.0636  0.1339  0.0009
 5883SOL    HW129282   1.205   4.455   8.785  0.0882 -0.3009  0.7691
 5883SOL    HW229283   1.304   4.558   8.739 -1.0286  2.0768  0.5510
 5884SOL     OW29284   0.749   1.854   6.180  0.3099  0.2853 -0.1824
 5884SOL    HW129285   0.816   1.855   6.112 -0.2365  1.7957 -0.7068
 5884SOL    HW229286   0.730   1.760   6.187  0.6594  0.1738 -0.6901
 5885SOL     OW29287   3.867   0.563  13.173 -0.1495 -0.2394 -0.3055
 5885SOL    HW129288   3.780   0.547  13.138  0.1032  0.8369 -1.4551
 5885SOL    HW229289   3.857   0.644  13.223  1.3966 -0.6240  0.6356
 5886SOL     OW29290   2.270   4.733   8.169  0.5045  0.0548  0.2001
 5886SOL    HW129291   2.230   0.043   8.097 -0.2520 -0.1197  0.5067
 5886SOL    HW229292   2.319   4.658   8.135  0.5332  1.5337 -3.0400
 5887SOL     OW29293   2.263   3.036   8.655  0.1193  0.2391  0.1527
 5887SOL    HW129294   2.333   3.096   8.680 -1.1462  1.4120  0.9288
 5887SOL    HW229295   2.289   2.965   8.713  0.2846  0.0360 -0.1725
 5888SOL     OW29296   4.637   4.097   7.360 -0.3105 -0.6558 -0.1263
 5888SOL    HW129297   4.693   4.172   7.340 -0.2729 -0.4808  0.6120
 5888SOL    HW229298   4.566   4.145   7.402  3.2632  3.6092  1.0311
 5889SOL     OW29299   0.689   3.101   4.485 -0.6234 -0.2216 -0.7063
 5889SOL    HW129300   0.733   3.091   4.401  0.3609 -0.3243 -0.1726
 5889SOL    HW229301   0.716   3.023   4.534 -1.6320 -0.4267 -0.4736
 5890SOL     OW29302   0.738   0.703  15.487 -0.1734  0.3633  0.0240
 5890SOL    HW129303   0.805   0.725  15.422  1.8427  1.5907  2.4930
 5890SOL    HW229304   0.680   0.779  15.492  0.2016  0.6415  0.1803
 5891SOL     OW29305   0.649   4.644   2.364  0.0923  0.0744 -0.4631
 5891SOL    HW129306   0.561   4.647   2.401 -0.2906 -0.3700 -1.3320
 5891SOL    HW229307   0.625   4.642   2.271 -0.8017 -0.8359 -0.2065
 5892SOL     OW29308   3.859   2.297   3.640 -0.1558 -0.9599 -0.3081
 5892SOL    HW129309   3.856   2.377   3.588  1.9421 -0.7018 -0.0122
 5892SOL    HW229310   3.840   2.239   3.566  0.7176  0.4840 -1.6545
 5893SOL     OW29311   3.621   0.430  13.441  0.4342  0.4521 -0.1979
 5893SOL    HW129312   3.623   0.486  13.363 -0.3706 -1.1095 -1.3628
 5893SOL    HW229313   3.543   0.470  13.480 -0.2576 -0.9398 -0.1225
 5894SOL     OW29314   0.568   4.533   0.958 -0.0309 -0.4375  0.1130
 5894SOL    HW129315   0.616   4.453   0.980  0.0398 -0.4608 -0.1173
 5894SOL    HW229316   0.608   4.602   1.011  0.2998 -0.3369 -0.2672
 5895SOL     OW29317   3.590   1.141   8.857 -0.1185 -0.4756  0.0913
 5895SOL    HW129318   3.500   1.158   8.828  0.5617  2.6389 -0.2406
 5895SOL    HW229319   3.611   1.076   8.790  0.3927 -0.9197  0.6928
 5896SOL     OW29320   1.475   2.067   2.077  0.3502 -0.1702  0.3810
 5896SOL    HW129321   1.520   2.147   2.104  0.3327  0.1741 -0.6092
 5896SOL    HW229322   1.461   2.076   1.982 -0.1624 -2.6939  0.2292
 5897SOL     OW29323   2.655   2.749   6.931 -0.2910 -0.3319 -0.1684
 5897SOL    HW129324   2.750   2.742   6.921 -0.3478 -0.2234 -0.8342
 5897SOL    HW229325   2.635   2.666   6.975  0.4377  0.1102  0.9750
 5898SOL     OW29326   4.160   4.585   1.942  0.2150  0.1387  0.0469
 5898SOL    HW129327   4.117   4.502   1.920  0.0762  0.7169 -1.9359
 5898SOL    HW229328   4.248   4.562   1.970 -1.0269 -2.9436  1.4781
 5899SOL     OW29329   2.260   4.169   3.400 -0.4325  1.0142 -0.2377
 5899SOL    HW129330   2.294   4.085   3.431 -0.3832  1.5368  1.1163
 5899SOL    HW229331   2.270   4.228   3.475 -0.5482  0.4134  0.2458
 5900SOL     OW29332   0.116   2.262   1.497 -0.3022  0.2096 -0.1166
 5900SOL    HW129333   0.149   2.173   1.484  0.6206  0.5681 -0.2450
 5900SOL    HW229334   0.058   2.268   1.421 -1.0248  0.4128  0.4530
 5901SOL     OW29335   3.757   3.567   8.855  0.9523 -0.1216  0.1901
 5901SOL    HW129336   3.727   3.477   8.844  2.0384 -0.5005  0.3540
 5901SOL    HW229337   3.850   3.567   8.831  0.3873 -3.2374 -1.9755
 5902SOL     OW29338   3.685   4.473   3.193  0.2946  0.2098 -0.0706
 5902SOL    HW129339   3.665   4.380   3.199 -1.7829  0.7279  0.8109
 5902SOL    HW229340   3.651   4.498   3.279 -2.0339 -1.7394 -0.4212
 5903SOL     OW29341   3.241   1.752   7.886  0.2404  0.3495  0.4612
 5903SOL    HW129342   3.185   1.752   7.809 -0.8085 -0.9346  1.2210
 5903SOL    HW229343   3.304   1.687   7.854  0.5312  0.0623  1.6048
 5904SOL     OW29344   2.616   1.377   5.464  0.0440 -0.4706  0.0876
 5904SOL    HW129345   2.660   1.450   5.507 -0.8779  0.1999 -0.1252
 5904SOL    HW229346   2.623   1.400   5.371  2.5878 -0.2915  0.3109
 5905SOL     OW29347   3.038   2.196   0.819  0.3210 -0.7520  0.5688
 5905SOL    HW129348   3.010   2.260   0.884  1.5456  0.5027 -0.1304
 5905SOL    HW229349   3.028   2.115   0.869  0.9980 -0.5543  1.0288
 5906SOL     OW29350   1.726   0.644   2.612 -0.7201  0.5750 -0.2493
 5906SOL    HW129351   1.731   0.713   2.678 -4.0313  0.2414  0.3572
 5906SOL    HW229352   1.687   0.699   2.544 -3.0085 -1.0840 -0.2817
 5907SOL     OW29353   1.866   2.875   8.181  0.1098 -0.2138 -0.0399
 5907SOL    HW129354   1.781   2.856   8.142 -0.5388  0.4508  1.0868
 5907SOL    HW229355   1.880   2.967   8.160 -0.7397  0.0619  0.6394
 5908SOL     OW29356   2.419   2.414   2.753  0.3797 -0.3827  0.1706
 5908SOL    HW129357   2.366   2.492   2.735  0.0458 -0.3175  1.4576
 5908SOL    HW229358   2.372   2.361   2.687  1.9956  1.7801 -2.7160
 5909SOL     OW29359   0.797   3.129   3.158 -0.0152  0.1058 -0.0312
 5909SOL    HW129360   0.723   3.071   3.140  0.2630 -1.4439  3.7603
 5909SOL    HW229361   0.837   3.086   3.234 -1.7554  0.1599  0.9024
 5910SOL     OW29362   2.239   4.638   7.330 -1.1313 -0.1806 -1.0899
 5910SOL    HW129363   2.263   4.729   7.347 -2.2264  0.1924 -1.5813
 5910SOL    HW229364   2.299   4.588   7.386 -1.1103  1.2281  0.1440
 5911SOL     OW29365   1.078   4.314   8.734 -0.5195 -0.5969 -0.2314
 5911SOL    HW129366   1.029   4.235   8.754  1.3447 -2.0678 -1.4445
 5911SOL    HW229367   1.009   4.381   8.743 -0.2489 -0.5459  1.4148
 5912SOL     OW29368   2.084   3.312  12.778  0.4276  0.0151  0.1641
 5912SOL    HW129369   2.058   3.291  12.868 -0.4305  0.6337  0.0603
 5912SOL    HW229370   2.003   3.356  12.754  0.0497 -2.0200 -2.2925
 5913SOL     OW29371   3.242   3.420  11.964 -0.7795 -0.0471 -0.0472
 5913SOL    HW129372   3.238   3.448  12.056 -2.8040  1.9012 -0.7294
 5913SOL    HW229373   3.152   3.433  11.934 -0.0534  0.5676 -1.9511
 5914SOL     OW29374   3.029   4.030  15.178 -0.1645  0.3098 -0.1538
 5914SOL    HW129375   2.997   4.096  15.240 -0.8212  0.0203 -0.1900
 5914SOL    HW229376   3.046   3.951  15.229  0.1413 -0.6435 -1.7576
 5915SOL     OW29377   1.310   3.799   5.013  0.0434  0.4298  0.4644
 5915SOL    HW129378   1.282   3.734   5.077  2.7793  0.1914  1.4211
 5915SOL    HW229379   1.223   3.828   4.984  0.0703 -0.4554 -0.5141
 5916SOL     OW29380   2.202   4.557   6.281 -0.6538 -0.3207  0.1971
 5916SOL    HW129381   2.242   4.621   6.222  0.4384 -2.1659 -1.0827
 5916SOL    HW229382   2.284   4.532   6.323 -1.6541 -1.9933  1.1408
 5917SOL     OW29383   3.621   2.996   1.140  0.1655 -1.0789 -0.0284
 5917SOL    HW129384   3.595   2.904   1.150 -1.0731 -0.6471  0.7330
 5917SOL    HW229385   3.565   3.016   1.065  0.4380  0.2559  0.1142
 5918SOL     OW29386   2.675   0.511   4.228  0.3108 -0.2016  0.7310
 5918SOL    HW129387   2.730   0.522   4.305  1.3226  0.5714 -0.1129
 5918SOL    HW229388   2.714   0.434   4.188 -0.5334 -1.0814  1.6129
 5919SOL     OW29389   3.642   0.174   3.413 -0.1298 -0.2715 -0.3525
 5919SOL    HW129390   3.642   0.268   3.430  2.0817 -0.4797  0.8622
 5919SOL    HW229391   3.730   0.166   3.377  0.0367 -1.9476  0.4167
 5920SOL     OW29392   2.171   0.565   2.165  0.1466  0.2118  0.7392
 5920SOL    HW129393   2.191   0.487   2.113  1.0820  0.3333  0.9013
 5920SOL    HW229394   2.253   0.587   2.210 -0.0500  2.2981  0.0803
 5921SOL     OW29395   4.549   2.661   4.222 -0.1208  0.0449 -0.1743
 5921SOL    HW129396   4.505   2.576   4.223  0.4376 -0.2268  0.8441
 5921SOL    HW229397   4.565   2.663   4.316 -1.8340 -1.1628  0.1339
 5922SOL     OW29398   2.551   3.652  11.317  0.5558  0.1750 -0.5316
 5922SOL    HW129399   2.485   3.689  11.258 -1.9454  0.3717  2.3689
 5922SOL    HW229400   2.520   3.565  11.344 -0.6596  0.8220  0.1683
 5923SOL     OW29401   3.011   4.457   6.328  0.4874 -0.5762 -0.3561
 5923SOL    HW129402   2.986   4.544   6.296 -1.1700 -1.7139 -2.1773
 5923SOL    HW229403   2.973   4.458   6.415 -2.2356 -1.2295 -1.5396
 5924SOL     OW29404   3.669   1.426  16.154 -0.4747  0.6323 -0.3475
 5924SOL    HW129405   3.612   1.361  16.195  3.7264 -2.7874 -0.0478
 5924SOL    HW229406   3.646   1.502  16.208 -0.3425  0.3654  0.0817
 5925SOL     OW29407   2.019   0.601  12.288 -0.2256 -0.1845 -0.3991
 5925SOL    HW129408   2.066   0.592  12.371  0.0602 -0.3673 -0.5799
 5925SOL    HW229409   2.022   0.697  12.279 -1.1880 -0.0931  0.3055
 5926SOL     OW29410   2.472   1.398   3.623 -0.1582  0.2781 -0.5616
 5926SOL    HW129411   2.476   1.414   3.529 -1.4506  0.1768 -0.6405
 5926SOL    HW229412   2.559   1.416   3.656  0.2322  0.8531 -1.8951
 5927SOL     OW29413   0.402   4.055   4.356 -0.1622  0.0608  0.0432
 5927SOL    HW129414   0.376   4.147   4.364 -1.0823 -0.1081 -1.0581
 5927SOL    HW229415   0.468   4.069   4.288  0.8465 -1.5706  0.6934
 5928SOL     OW29416   3.745   3.752  16.722  0.2441 -0.1863 -0.3386
 5928SOL    HW129417   3.789   3.668  16.736 -0.2922 -1.0856 -3.8929
 5928SOL    HW229418   3.822   3.806  16.704 -1.8111  2.2707 -1.9157
 5929SOL     OW29419   0.443   0.313  17.513  0.3398  0.7689  0.8704
 5929SOL    HW129420   0.538   0.310  17.526  0.6782 -0.6981 -2.0959
 5929SOL    HW229421   0.417   0.246  17.576  1.5143 -0.7919 -0.2991
 5930SOL     OW29422   1.135   1.705   0.901  0.2987  0.0484  0.2370
 5930SOL    HW129423   1.163   1.627   0.949  0.8519  0.9086  1.3027
 5930SOL    HW229424   1.198   1.770   0.932  1.9071 -1.4254  0.0702
 5931SOL     OW29425   3.825   3.058  11.140  0.3737 -0.1936  0.5020
 5931SOL    HW129426   3.791   3.017  11.219  0.7406  0.7506  1.1408
 5931SOL    HW229427   3.916   3.070  11.167  0.8801 -0.1637 -1.1737
 5932SOL     OW29428   0.363   4.664  14.426  1.1122 -0.5475  0.2173
 5932SOL    HW129429   0.318   4.591  14.382  0.0098 -0.2203  0.8041
 5932SOL    HW229430   0.368   4.626  14.513  1.4243 -2.0315 -0.4587
 5933SOL     OW29431   0.843   0.507   3.633 -0.0465  0.4086  0.3119
 5933SOL    HW129432   0.802   0.583   3.592 -0.7338 -0.2675 -0.2508
 5933SOL    HW229433   0.873   0.465   3.553  0.9678 -1.1883  1.5220
 5934SOL     OW29434   1.668   1.552   4.690 -0.2408  0.3931  0.1199
 5934SOL    HW129435   1.635   1.569   4.778  0.0861 -1.2668  0.5452
 5934SOL    HW229436   1.612   1.611   4.638 -0.6109  0.4813  0.6173
 5935SOL     OW29437   1.199   1.504   1.069  0.2136  0.0293  0.2730
 5935SOL    HW129438   1.166   1.422   1.030 -0.3310  0.0604  0.6739
 5935SOL    HW229439   1.140   1.512   1.144 -1.1062 -0.1785 -0.7440
 5936SOL     OW29440   0.708   1.910   3.287 -0.1482  0.4048 -0.5410
 5936SOL    HW129441   0.733   1.974   3.354 -0.8474 -0.5090  0.5870
 5936SOL    HW229442   0.708   1.834   3.346  0.2126  0.5230 -0.3864
 5937SOL     OW29443   3.460   4.280   7.144  0.1623  0.0393 -0.3699
 5937SOL    HW129444   3.369   4.302   7.161  0.1647 -0.1632 -0.1038
 5937SOL    HW229445   3.462   4.185   7.127 -1.5059 -0.1074  0.3085
 5938SOL     OW29446   2.514   1.218   4.603 -0.3776  0.3449 -0.0112
 5938SOL    HW129447   2.539   1.310   4.614  0.0020  0.0094  2.0400
 5938SOL    HW229448   2.462   1.234   4.524 -0.0973  1.5363  0.0405
 5939SOL     OW29449   2.371   2.340   3.508 -0.2090  0.3935  0.1088
 5939SOL    HW129450   2.358   2.423   3.462 -0.5853  0.2668 -0.0126
 5939SOL    HW229451   2.456   2.353   3.550  0.2506  1.6653 -1.2265
 5940SOL     OW29452   3.427   2.119   1.338  0.5715 -0.0288 -0.4514
 5940SOL    HW129453   3.447   2.030   1.368 -1.8214 -0.2757  0.4148
 5940SOL    HW229454   3.488   2.167   1.393 -0.1379 -1.6715  1.7742
 5941SOL     OW29455   4.579   0.163   6.561 -0.0140  0.4590  0.0849
 5941SOL    HW129456   4.627   0.142   6.641 -0.7096 -0.9236  0.1372
 5941SOL    HW229457   4.527   0.083   6.558  0.8508 -0.0748 -0.8500
 5942SOL     OW29458   3.661   3.327   3.489 -0.6342  0.0796  0.2730
 5942SOL    HW129459   3.680   3.241   3.452 -4.0500 -0.3986 -0.4020
 5942SOL    HW229460   3.575   3.351   3.454  0.1677 -3.0876 -3.8289
 5943SOL     OW29461   1.737   0.262   7.533  0.0337 -0.2938  0.1556
 5943SOL    HW129462   1.827   0.295   7.540  0.3775 -0.8814 -1.4573
 5943SOL    HW229463   1.692   0.329   7.481  0.5191 -0.7952 -0.9107
 5944SOL     OW29464   4.597   2.629   4.489 -0.7511  0.9008  0.0309
 5944SOL    HW129465   4.599   2.561   4.557  0.5197 -0.3384 -1.2618
 5944SOL    HW229466   4.690   2.619   4.467 -1.5659 -0.4497 -2.7368
 5945SOL     OW29467   3.662   0.301   4.211 -0.4524 -0.1171  0.9018
 5945SOL    HW129468   3.634   0.389   4.236 -0.3695  1.0806 -3.2183
 5945SOL    HW229469   3.674   0.265   4.299 -2.1353 -1.6494  0.5187
 5946SOL     OW29470   1.167   3.069   5.675  1.0689  0.1284 -0.0377
 5946SOL    HW129471   1.174   3.164   5.687  1.2027  0.1914 -0.6271
 5946SOL    HW229472   1.199   3.026   5.754 -0.0317  1.2014  1.0032
 5947SOL     OW29473   3.619   3.029   1.713  0.5697  0.2428 -0.2401
 5947SOL    HW129474   3.630   3.073   1.629 -1.8581  2.2370  0.5113
 5947SOL    HW229475   3.594   3.099   1.773  2.5956  1.4958 -0.8725
 5948SOL     OW29476   2.524   3.599   3.054  0.0717 -0.1005 -0.4560
 5948SOL    HW129477   2.455   3.577   2.991  1.3016 -0.6423 -1.6154
 5948SOL    HW229478   2.582   3.524   3.055  0.3637  0.1257 -0.4119
 5949SOL     OW29479   3.125   2.092   1.460 -0.2353 -0.2118 -0.0684
 5949SOL    HW129480   3.195   2.153   1.434 -0.7218  0.8803  1.1929
 5949SOL    HW229481   3.049   2.122   1.410 -0.0386 -1.2702 -1.0090
 5950SOL     OW29482   1.259   0.315   6.530 -0.3031 -0.2848 -0.6425
 5950SOL    HW129483   1.273   0.359   6.447 -0.7712  0.6390 -0.2345
 5950SOL    HW229484   1.288   0.225   6.515 -1.3545 -0.6332 -0.6341
 5951SOL     OW29485   3.568   0.131   2.896 -0.2205  0.2031 -0.5844
 5951SOL    HW129486   3.556   0.184   2.817 -0.5115  0.4150 -0.3987
 5951SOL    HW229487   3.508   0.063   2.863 -0.5992 -0.0273  0.5769
 5952SOL     OW29488   3.351   0.271  15.790  0.0767 -0.0375  0.2014
 5952SOL    HW129489   3.418   0.225  15.840  0.2729  0.8914  0.7908
 5952SOL    HW229490   3.386   0.254  15.703  2.2827 -1.1436  1.3258
 5953SOL     OW29491   4.632   3.093   6.991  0.2509  0.6827 -0.0529
 5953SOL    HW129492   4.625   3.108   6.897  0.7195 -0.3109 -0.2498
 5953SOL    HW229493   4.602   3.176   7.029 -0.7975 -0.3504  1.3741
 5954SOL     OW29494   0.311   2.012  11.685 -0.0496  0.0324 -0.0462
 5954SOL    HW129495   0.228   2.048  11.655  0.1404  1.1783  0.8041
 5954SOL    HW229496   0.285   1.954  11.756  0.4305 -1.2547 -0.9192
 5955SOL     OW29497   2.802   2.631   2.913 -0.8653  0.3366  0.4814
 5955SOL    HW129498   2.803   2.601   2.822  0.0552 -1.2365  1.0255
 5955SOL    HW229499   2.737   2.702   2.918  2.4394  3.2960  1.4054
 5956SOL     OW29500   1.770   1.978   7.064  0.5304  0.0230  0.0430
 5956SOL    HW129501   1.805   2.047   7.119  2.1170 -0.1655 -0.7316
 5956SOL    HW229502   1.771   1.904   7.125 -0.9939  1.6169  2.0035
 5957SOL     OW29503   3.224   3.346   2.684 -0.1777  0.0367  0.1451
 5957SOL    HW129504   3.306   3.380   2.719 -1.0077 -0.1112  2.2008
 5957SOL    HW229505   3.158   3.388   2.740 -0.7741  0.7500 -1.0972
 5958SOL     OW29506   0.968   2.812  12.584  0.6193 -0.1991 -0.0848
 5958SOL    HW129507   1.014   2.848  12.509  3.2564  0.0293  1.6475
 5958SOL    HW229508   0.906   2.885  12.589 -0.1525 -0.8590  0.0585
 5959SOL     OW29509   4.505   3.474   4.099 -0.1218 -0.5766 -0.3027
 5959SOL    HW129510   4.462   3.441   4.021 -0.7885  0.1796 -0.2539
 5959SOL    HW229511   4.490   3.404   4.163 -0.2177 -1.5171 -1.3635
 5960SOL     OW29512   3.300   2.240   0.199 -0.6532 -0.0136 -0.4477
 5960SOL    HW129513   3.210   2.215   0.220 -0.7241  0.0661 -0.6508
 5960SOL    HW229514   3.324   2.289   0.277  2.1421 -0.3316 -1.1201
 5961SOL     OW29515   3.602   3.941   4.796 -0.7009  0.4712 -0.4505
 5961SOL    HW129516   3.588   4.020   4.743  0.0025  0.8286 -0.0895
 5961SOL    HW229517   3.515   3.937   4.837 -0.1202 -0.6941  0.6565
 5962SOL     OW29518   2.673   4.480  13.815 -0.6947  0.3521  0.5337
 5962SOL    HW129519   2.598   4.462  13.872 -0.2621  0.3073  1.0946
 5962SOL    HW229520   2.630   4.527  13.744 -0.7189  0.0107  0.3228
 5963SOL     OW29521   2.646   3.597  15.934 -0.0632  0.4638 -0.3332
 5963SOL    HW129522   2.730   3.559  15.909  1.0166  0.6209  3.0633
 5963SOL    HW229523   2.674   3.644  16.013  1.1970 -0.6899 -0.0941
 5964SOL     OW29524   4.130   4.433  17.080 -0.6212  0.1987 -0.6655
 5964SOL    HW129525   4.095   4.474  17.159  1.7396 -0.1549  0.5664
 5964SOL    HW229526   4.082   4.489  17.018 -2.3740 -1.2138 -0.5889
 5965SOL     OW29527   0.904   0.778   9.273 -0.1115 -0.0549 -0.2515
 5965SOL    HW129528   0.901   0.696   9.224 -2.4452  1.2702 -2.3224
 5965SOL    HW229529   0.970   0.827   9.223  1.6999 -0.0190  2.1835
 5966SOL     OW29530   4.082   2.641   9.355 -0.2816 -0.1166  0.0679
 5966SOL    HW129531   4.014   2.642   9.422  0.7756  0.7669  1.1415
 5966SOL    HW229532   4.145   2.580   9.392 -0.9014 -1.0391 -0.3875
 5967SOL     OW29533   2.259   4.119   1.690  0.2207 -0.2634  0.3126
 5967SOL    HW129534   2.181   4.086   1.734 -1.7754  1.3928 -1.9820
 5967SOL    HW229535   2.311   4.041   1.710  1.1187  0.8958  2.5058
 5968SOL     OW29536   0.750   0.508   6.497 -0.5232  0.3705  0.5211
 5968SOL    HW129537   0.805   0.550   6.562 -1.7576  0.9083  1.2254
 5968SOL    HW229538   0.765   0.562   6.419  0.2626  1.1079  1.1781
 5969SOL     OW29539   1.844   4.700   1.301  0.0707 -0.1690 -0.2023
 5969SOL    HW129540   1.865   0.050   1.272  0.0361  0.9719  3.2025
 5969SOL    HW229541   1.751   4.700   1.280  0.0337  0.3089 -0.0364
 5970SOL     OW29542   4.490   4.306   7.065 -0.3701 -0.0158  0.5758
 5970SOL    HW129543   4.521   4.219   7.041 -4.1630 -1.6896  1.6078
 5970SOL    HW229544   4.570   4.356   7.077 -0.2047 -0.4927  1.4490
 5971SOL     OW29545   4.094   1.998   4.892  0.2153  0.5218 -0.3664
 5971SOL    HW129546   4.112   2.002   4.798 -0.5552  2.2306 -0.4370
 5971SOL    HW229547   4.040   2.077   4.891 -0.5429 -0.0173 -1.7542
 5972SOL     OW29548   2.316   1.448  12.785 -0.3764 -0.2602  0.4906
 5972SOL    HW129549   2.358   1.362  12.782  2.5620  1.2711 -2.2885
 5972SOL    HW229550   2.271   1.453  12.869 -0.2324 -1.6210  0.6487
 5973SOL     OW29551   2.179   3.899   4.845 -0.1052 -0.2872  0.5957
 5973SOL    HW129552   2.265   3.908   4.886  0.4588  0.0923 -0.6667
 5973SOL    HW229553   2.119   3.943   4.905  0.3936  1.3128 -0.0758
 5974SOL     OW29554   0.027   2.421   6.620 -0.3677  0.1742  0.1462
 5974SOL    HW129555   4.686   2.452   6.662 -1.2748  0.6839 -1.9524
 5974SOL    HW229556   0.105   2.457   6.661 -1.1409  0.4100  1.4336
 5975SOL     OW29557   3.305   2.767   0.960 -0.2832 -0.1523 -0.0314
 5975SOL    HW129558   3.401   2.777   0.962 -0.0813 -1.8789 -2.0234
 5975SOL    HW229559   3.292   2.688   0.908 -0.3419 -0.8356  1.0136
 5976SOL     OW29560   4.636   3.944   2.531  0.0842 -0.2152  0.2287
 5976SOL    HW129561   4.728   3.918   2.521  0.0049  0.0365 -1.1180
 5976SOL    HW229562   4.587   3.880   2.479 -0.0369  1.8032 -2.1777
 5977SOL     OW29563   3.261   4.551   8.464  0.0489  0.6569 -0.0299
 5977SOL    HW129564   3.201   4.602   8.409 -0.8734 -0.4879 -0.0809
 5977SOL    HW229565   3.245   4.461   8.436 -1.2330  1.0283 -0.5040
 5978SOL     OW29566   0.499   0.002   5.624 -0.4711  0.6241 -0.4875
 5978SOL    HW129567   0.505   0.085   5.671  1.6209 -0.4819  1.1897
 5978SOL    HW229568   0.447   4.692   5.688  0.7392  0.4834  0.3923
 5979SOL     OW29569   0.568   3.557   3.686  0.0556 -0.3784  0.0353
 5979SOL    HW129570   0.632   3.573   3.756  0.6237 -1.8813 -0.1371
 5979SOL    HW229571   0.510   3.632   3.696  0.4142 -0.0527 -0.2906
 5980SOL     OW29572   1.041   0.414   5.597  0.0315 -0.6159 -0.2357
 5980SOL    HW129573   1.100   0.398   5.523  1.0593  0.5799  0.3300
 5980SOL    HW229574   1.060   0.503   5.627  1.7114 -1.6488  1.7669
 5981SOL     OW29575   4.418   3.698   1.243 -0.5489 -0.0181 -0.0921
 5981SOL    HW129576   4.373   3.623   1.282 -2.3305  0.8750 -0.4137
 5981SOL    HW229577   4.382   3.694   1.154 -0.7661  0.9096 -0.0470
 5982SOL     OW29578   1.104   3.913   7.654  0.0069 -0.0711 -0.2241
 5982SOL    HW129579   1.180   3.856   7.644  1.4814  1.9148 -0.2834
 5982SOL    HW229580   1.081   3.915   7.747 -2.9707 -0.8227 -0.9494
 5983SOL     OW29581   1.779   1.671   8.837  0.1123 -0.1497 -0.5890
 5983SOL    HW129582   1.809   1.605   8.774  0.2555 -0.1171 -0.5564
 5983SOL    HW229583   1.859   1.687   8.887 -0.7124 -0.9203  0.9635
 5984SOL     OW29584   3.216   1.125   5.361  0.5165 -0.4330  0.0509
 5984SOL    HW129585   3.258   1.046   5.395 -0.6660 -2.2507 -2.7240
 5984SOL    HW229586   3.127   1.129   5.395 -0.2468 -0.8324 -1.9164
 5985SOL     OW29587   3.644   3.589  12.116  0.7367  0.3443 -0.0293
 5985SOL    HW129588   3.617   3.534  12.042  0.0340  0.6501 -0.0103
 5985SOL    HW229589   3.555   3.617  12.137  1.1516  2.2926 -0.8615
 5986SOL     OW29590   2.597   2.614   8.216 -0.4810  0.2072 -0.4485
 5986SOL    HW129591   2.649   2.679   8.263 -0.0393 -1.1644  0.9583
 5986SOL    HW229592   2.584   2.660   8.133  0.0234 -0.8192 -1.0985
 5987SOL     OW29593   1.269   0.119   8.297 -0.3177 -0.3076 -0.0166
 5987SOL    HW129594   1.329   0.147   8.229  2.3223 -1.9780  1.6219
 5987SOL    HW229595   1.281   0.201   8.345 -0.1887 -1.5460  2.0736
 5988SOL     OW29596   0.326   2.183   2.810  0.0312  0.3686 -0.3637
 5988SOL    HW129597   0.367   2.269   2.806 -1.2978  1.0292  0.1068
 5988SOL    HW229598   0.347   2.144   2.725  1.8041 -1.0352  0.7196
 5989SOL     OW29599   3.013   4.509   1.997  0.0526 -0.2728  0.4543
 5989SOL    HW129600   3.008   4.467   2.083 -1.4594 -1.5667 -0.2740
 5989SOL    HW229601   2.937   4.494   1.941 -0.2570  0.4789  0.6637
 5990SOL     OW29602   1.010   1.234  15.603  0.1991 -0.0542  0.2469
 5990SOL    HW129603   1.009   1.216  15.509 -1.7313  0.6596  0.1215
 5990SOL    HW229604   0.957   1.160  15.633  0.9370 -1.4663 -1.9011
 5991SOL     OW29605   3.585   4.222   5.617  0.0234 -0.4122  0.7365
 5991SOL    HW129606   3.675   4.250   5.634 -0.1349  0.5982 -0.0966
 5991SOL    HW229607   3.542   4.291   5.566  2.5741 -0.7054 -1.7897
 5992SOL     OW29608   3.821   3.122  11.745  0.2553 -0.3086  0.4805
 5992SOL    HW129609   3.886   3.178  11.788  0.6677 -2.0422  2.1067
 5992SOL    HW229610   3.870   3.071  11.680 -0.9199 -0.6845 -0.0986
 5993SOL     OW29611   2.928   0.627   1.071 -0.2450  0.3345  0.4323
 5993SOL    HW129612   2.925   0.553   1.132  0.2512 -0.7137 -0.8147
 5993SOL    HW229613   2.978   0.584   1.002 -0.9614  0.8358 -0.3990
 5994SOL     OW29614   3.001   3.422  11.837  0.6063  0.2505 -0.6116
 5994SOL    HW129615   2.940   3.374  11.893  1.7431 -0.0983  0.3191
 5994SOL    HW229616   2.952   3.440  11.757 -1.6359 -2.4717  0.1226
 5995SOL     OW29617   4.649   0.415   9.124  0.3296 -0.3863 -0.2761
 5995SOL    HW129618   4.670   0.340   9.068 -0.3886 -0.4572 -0.4565
 5995SOL    HW229619   4.559   0.396   9.152 -0.8565  3.3817 -1.6024
 5996SOL     OW29620   4.610   2.624   4.851 -0.1096  0.7183 -0.1850
 5996SOL    HW129621   4.535   2.642   4.909 -0.3025  1.0861 -0.5471
 5996SOL    HW229622   4.565   2.568   4.789  1.5909  1.1919 -1.8335
 5997SOL     OW29623   3.277   0.688  17.521  0.5593 -0.4672  0.8910
 5997SOL    HW129624   3.233   0.677  17.606  0.9464 -3.2783  0.7157
 5997SOL    HW229625   3.314   0.600  17.521 -0.9222 -1.0749 -0.7218
 5998SOL     OW29626   3.231   3.353   8.529  0.2704  0.1103 -0.1634
 5998SOL    HW129627   3.271   3.269   8.507 -0.0952 -0.2640  0.6030
 5998SOL    HW229628   3.164   3.329   8.593 -1.3580  1.2053 -1.4326
 5999SOL     OW29629   0.867   4.622   1.992 -0.8489  0.3390  0.2599
 5999SOL    HW129630   0.956   4.605   2.023 -0.2074  0.7263 -1.3847
 5999SOL    HW229631   0.865   4.717   1.977  1.7346  0.2972 -0.4707
 6000SOL     OW29632   2.842   3.583  17.581  0.5411  0.3663  0.2476
 6000SOL    HW129633   2.934   3.598  17.563  0.5073  0.4156  0.1102
 6000SOL    HW229634   2.802   3.551  17.499  1.3357  2.1709 -0.8392
 6001SOL     OW29635   4.485   1.664   6.120 -0.6978  0.6384 -0.1479
 6001SOL    HW129636   4.546   1.601   6.159  0.9492  0.3443 -3.2225
 6001SOL    HW229637   4.436   1.606   6.062 -1.0546 -1.3680  2.1608
 6002SOL     OW29638   3.468   1.865  10.808  0.0209 -0.0839 -0.2836
 6002SOL    HW129639   3.563   1.868  10.814  0.0776  1.2427 -1.8348
 6002SOL    HW229640   3.454   1.777  10.772  0.4069 -0.3726  0.2745
 6003SOL     OW29641   4.535   0.241   4.560  0.6756 -0.4393 -0.0132
 6003SOL    HW129642   4.560   0.318   4.510 -3.2806 -1.5412 -3.6687
 6003SOL    HW229643   4.524   0.173   4.494 -1.0742 -0.1333 -0.0247
 6004SOL     OW29644   0.213   0.593   2.960 -0.1529  0.3358  0.3938
 6004SOL    HW129645   0.145   0.577   2.894  1.6733 -0.7086 -1.2386
 6004SOL    HW229646   0.260   0.667   2.920 -0.5127  1.6508  2.4146
 6005SOL     OW29647   1.871   0.975   6.429 -0.0581  0.0875  0.0883
 6005SOL    HW129648   1.857   1.044   6.494  1.8619 -0.1049  0.7077
 6005SOL    HW229649   1.924   0.916   6.483  1.9144  1.9521  0.1927
 6006SOL     OW29650   3.248   3.966   5.620  0.3953 -0.4376  0.1227
 6006SOL    HW129651   3.256   4.054   5.655  1.1593 -0.6959  0.5905
 6006SOL    HW229652   3.172   3.982   5.564  0.7178  0.1826 -0.1269
 6007SOL     OW29653   3.780   3.079   7.745 -0.1698 -0.2586 -0.5630
 6007SOL    HW129654   3.743   3.031   7.819 -1.4285  0.2776 -0.8497
 6007SOL    HW229655   3.730   3.039   7.674 -0.4226 -0.0908 -0.4791
 6008SOL     OW29656   0.161   0.594   0.983  0.1709  0.2883 -0.4620
 6008SOL    HW129657   0.251   0.577   0.955  0.8846 -0.4621  2.2606
 6008SOL    HW229658   0.134   0.506   1.010  1.7288 -0.2739 -0.7079
 6009SOL     OW29659   3.333   4.271  14.344 -0.2279 -0.3042  0.4286
 6009SOL    HW129660   3.253   4.289  14.393  1.8862  1.8501  3.1120
 6009SOL    HW229661   3.389   4.233  14.412  2.2852 -0.2371 -1.6349
 6010SOL     OW29662   2.780   2.386   3.028 -0.5065  0.6486 -0.7491
 6010SOL    HW129663   2.838   2.319   2.993 -0.7905  1.3400 -2.5844
 6010SOL    HW229664   2.818   2.468   2.996  0.4248 -0.1880 -1.8020
 6011SOL     OW29665   3.522   2.747   5.253  0.1510 -0.4677  0.0593
 6011SOL    HW129666   3.520   2.792   5.168 -0.0707 -1.5396 -0.5005
 6011SOL    HW229667   3.498   2.824   5.304  1.2904 -0.0774  0.0096
 6012SOL     OW29668   1.119   1.768   4.130 -0.0570  0.0012  0.7947
 6012SOL    HW129669   1.125   1.725   4.215 -2.1690 -1.3053  0.2603
 6012SOL    HW229670   1.044   1.827   4.135  0.4143  0.7853 -1.2845
 6013SOL     OW29671   4.318   1.491   8.696 -0.3882  0.5164 -0.2982
 6013SOL    HW129672   4.246   1.478   8.634  1.1482 -0.4634 -1.8856
 6013SOL    HW229673   4.388   1.506   8.632  0.7402 -3.7638 -0.0249
 6014SOL     OW29674   3.651   3.304   7.438  0.1269 -0.6892  0.3690
 6014SOL    HW129675   3.679   3.381   7.487  1.7353  0.0420 -1.6661
 6014SOL    HW229676   3.732   3.258   7.417 -0.6994 -1.3486 -1.3614
 6015SOL     OW29677   1.406   2.329   3.954  0.5033 -0.0982  0.2964
 6015SOL    HW129678   1.332   2.372   3.911  2.2849  1.6507 -1.0393
 6015SOL    HW229679   1.414   2.255   3.894  2.2455  2.6692 -2.9488
 6016SOL     OW29680   0.091   3.047   2.657  0.1662  0.1920  0.2182
 6016SOL    HW129681   0.143   3.065   2.578  0.1284  0.7847  0.3281
 6016SOL    HW229682   0.001   3.060   2.629 -0.5140 -0.4539  2.1487
 6017SOL     OW29683   0.606   1.989   8.521 -0.2047 -0.1121  0.0214
 6017SOL    HW129684   0.526   2.005   8.571  1.8007  1.6769  2.6986
 6017SOL    HW229685   0.598   1.895   8.533 -0.1392  0.2079  2.5639
 6018SOL     OW29686   3.299   2.735   3.695 -0.0048  0.5843  0.0479
 6018SOL    HW129687   3.215   2.760   3.657 -0.4996  0.4620  1.0438
 6018SOL    HW229688   3.284   2.643   3.719  0.2613  0.5422  0.0429
 6019SOL     OW29689   4.123   1.708   3.375 -0.7041  0.2819 -0.3083
 6019SOL    HW129690   4.089   1.619   3.379 -1.2823  0.4474 -1.6142
 6019SOL    HW229691   4.156   1.714   3.465  1.9509 -0.2575 -1.2388
 6020SOL     OW29692   1.353   3.599   8.593  0.2480 -0.0387  0.6611
 6020SOL    HW129693   1.358   3.685   8.552 -1.1524  0.8174  2.2742
 6020SOL    HW229694   1.375   3.629   8.681  0.5073  2.5938 -0.3069
 6021SOL     OW29695   4.358   4.630   7.249  0.1560  0.1631  0.3632
 6021SOL    HW129696   4.295   4.613   7.319 -0.1000  1.4805  0.4522
 6021SOL    HW229697   4.445   4.629   7.290 -0.1659 -0.9010  1.0310
 6022SOL     OW29698   2.758   2.537  10.040 -0.7807  0.3342  0.4620
 6022SOL    HW129699   2.744   2.533  10.135 -1.0722  2.0142  0.4891
 6022SOL    HW229700   2.732   2.450  10.009  2.0309 -0.7593  1.2244
 6023SOL     OW29701   0.333   1.818   7.263  0.1504  0.1127  0.3205
 6023SOL    HW129702   0.412   1.794   7.312  1.1002  2.1065 -0.2425
 6023SOL    HW229703   0.364   1.806   7.174  2.0952  0.5696  0.9417
 6024SOL     OW29704   2.461   3.984   5.377  0.0858  0.0072  0.4267
 6024SOL    HW129705   2.549   3.951   5.355  0.2018  1.2639 -0.9589
 6024SOL    HW229706   2.480   4.075   5.400 -0.6908  0.1263  0.5676
 6025SOL     OW29707   3.237   2.939   7.553  0.1468 -0.2231  0.6345
 6025SOL    HW129708   3.260   2.970   7.466 -2.6321  1.0687  0.3900
 6025SOL    HW229709   3.147   2.912   7.539 -0.2297  0.9169  0.8958
 6026SOL     OW29710   4.639   0.973  13.948 -0.1725 -0.7591  0.4886
 6026SOL    HW129711   4.734   0.981  13.959 -0.1488 -1.0327  0.4791
 6026SOL    HW229712   4.617   1.028  14.023  1.4168  0.5077  0.0275
 6027SOL     OW29713   0.145   1.536   0.779  0.4158  0.0025  0.1181
 6027SOL    HW129714   0.212   1.587   0.825 -1.4196  1.0481  1.6060
 6027SOL    HW229715   0.198   1.496   0.710  1.6220 -1.4124  1.8342
 6028SOL     OW29716   4.255   2.428   9.165 -0.2628  0.1987  0.5123
 6028SOL    HW129717   4.327   2.491   9.157  0.4078 -0.7682 -1.2654
 6028SOL    HW229718   4.213   2.419   9.079 -0.4944 -1.0191  0.7590
 6029SOL     OW29719   3.631   3.103  10.448 -0.1921 -0.6437 -0.2134
 6029SOL    HW129720   3.612   3.185  10.402  0.5188  0.6707  1.8113
 6029SOL    HW229721   3.581   3.114  10.529  0.3384 -1.8708  0.2777
 6030SOL     OW29722   2.086   2.593   8.217 -0.4336  0.2089  0.0087
 6030SOL    HW129723   2.004   2.576   8.172 -0.0859 -3.1747  0.6768
 6030SOL    HW229724   2.066   2.647   8.294  1.0861 -0.9770  1.2444
 6031SOL     OW29725   4.010   0.006  13.942  0.1097 -0.1741 -0.2054
 6031SOL    HW129726   3.945   4.711  13.880  1.0494 -3.6942  0.7147
 6031SOL    HW229727   4.013   0.101  13.928 -1.5532 -0.1402 -0.3781
 6032SOL     OW29728   2.476   4.230   0.538 -0.4734  0.4288 -0.1653
 6032SOL    HW129729   2.523   4.240   0.455 -1.4942 -1.1186 -0.9218
 6032SOL    HW229730   2.500   4.142   0.568  0.3002 -0.6349 -3.8482
 6033SOL     OW29731   1.600   1.416   4.432  0.3074  0.6724 -0.1797
 6033SOL    HW129732   1.676   1.453   4.476  0.6737  2.5853 -2.4439
 6033SOL    HW229733   1.634   1.342   4.381 -0.7052 -0.7834  1.2544
 6034SOL     OW29734   4.045   0.369  11.305 -0.3127  0.0243 -0.5010
 6034SOL    HW129735   3.980   0.434  11.278  1.8876  2.3428 -0.2048
 6034SOL    HW229736   4.105   0.416  11.364 -0.4324  0.4425 -0.7136
 6035SOL     OW29737   0.318   1.969   4.352 -0.0707 -0.0711 -0.2665
 6035SOL    HW129738   0.347   2.021   4.277  1.2158 -2.8477 -1.7177
 6035SOL    HW229739   0.395   1.976   4.408  1.2133 -0.1992 -1.9822
 6036SOL     OW29740   1.084   4.672   8.188  0.1108  0.4393  0.2948
 6036SOL    HW129741   1.100   4.684   8.095 -0.5305  1.4771  0.3181
 6036SOL    HW229742   1.151   4.729   8.225  0.1078 -0.8333  2.2877
 6037SOL     OW29743   3.513   1.497   1.537 -0.6448  0.2607  0.1512
 6037SOL    HW129744   3.486   1.588   1.524  0.0574  0.6068  1.1081
 6037SOL    HW229745   3.441   1.454   1.490  0.3487 -1.6828  0.4145
 6038SOL     OW29746   4.240   3.081   9.130 -0.0491  0.2612  0.3971
 6038SOL    HW129747   4.308   3.148   9.125  0.6921 -0.4912  0.4717
 6038SOL    HW229748   4.265   3.028   9.205  2.5156  0.8616 -0.0605
 6039SOL     OW29749   2.750   1.999   2.280 -0.3525 -0.2600 -0.3899
 6039SOL    HW129750   2.704   2.063   2.226 -0.0500 -0.5251 -0.9657
 6039SOL    HW229751   2.788   1.941   2.213  3.4493  1.1982  0.4675
 6040SOL     OW29752   2.073   3.357   1.787  0.1085  0.3680 -0.4964
 6040SOL    HW129753   2.103   3.321   1.704 -0.1563 -1.2025  0.0860
 6040SOL    HW229754   2.143   3.415   1.818  0.7785 -0.7065 -0.0026
 6041SOL     OW29755   3.458   4.706  14.044  0.5355  0.0612 -0.1166
 6041SOL    HW129756   3.421   0.050  14.075  2.5963  0.5414  1.0384
 6041SOL    HW229757   3.400   4.637  14.077  0.0327  0.8256  0.5930
 6042SOL     OW29758   1.961   3.962  15.395 -0.3963 -0.3730 -0.0141
 6042SOL    HW129759   1.919   4.001  15.318  0.2534 -2.2062 -1.3119
 6042SOL    HW229760   2.029   3.906  15.357  1.1097  1.0643  0.6154
 6043SOL     OW29761   3.119   3.822  11.538  0.4295  0.2897  0.4005
 6043SOL    HW129762   3.142   3.906  11.499  2.1754 -0.4256 -0.1645
 6043SOL    HW229763   3.193   3.818  11.599  1.6592 -0.3758 -1.1460
 6044SOL     OW29764   1.242   0.234   7.967  0.0871 -0.3920 -0.8895
 6044SOL    HW129765   1.181   0.306   7.983 -1.3831 -2.1835  1.5471
 6044SOL    HW229766   1.299   0.238   8.044 -2.2106 -3.0620  0.9524
 6045SOL     OW29767   1.256   2.056   6.033  0.2232 -0.7138  0.2876
 6045SOL    HW129768   1.223   2.081   6.119  1.6052  2.1161 -0.0167
 6045SOL    HW229769   1.322   2.126   6.028 -2.3603  1.5816 -1.3343
 6046SOL     OW29770   3.677   2.918  10.930 -0.2887 -0.0334  0.9411
 6046SOL    HW129771   3.744   2.942  10.994  0.3076  1.3014 -0.1767
 6046SOL    HW229772   3.605   2.918  10.994 -2.0969  1.2798 -1.0826
 6047SOL     OW29773   4.463   0.598  13.508  0.2867 -0.0620  0.1769
 6047SOL    HW129774   4.423   0.529  13.454  1.3111  0.4045 -1.1775
 6047SOL    HW229775   4.458   0.664  13.439 -1.6410 -1.5103 -1.0965
 6048SOL     OW29776   0.002   4.148   7.991  0.0257 -0.1763  0.3628
 6048SOL    HW129777   0.005   4.144   8.087 -1.6036  0.1026  0.4251
 6048SOL    HW229778   4.646   4.156   7.986  0.2618  0.7924 -2.2515
 6049SOL     OW29779   1.208   3.329   3.895  0.4602 -0.3325 -0.0003
 6049SOL    HW129780   1.275   3.396   3.908 -0.0521 -0.0839  1.4141
 6049SOL    HW229781   1.139   3.366   3.951 -0.4544  1.2976 -2.2081
 6050SOL     OW29782   2.530   0.924   4.903 -0.5022 -0.0237 -0.0780
 6050SOL    HW129783   2.444   0.923   4.860 -0.0779  0.1938 -0.9201
 6050SOL    HW229784   2.573   0.987   4.846  3.0636 -2.0199  0.3862
 6051SOL     OW29785   0.330   1.926   2.921  0.0644 -0.1510 -0.3257
 6051SOL    HW129786   0.347   1.942   3.014  0.7097 -1.0420 -0.2952
 6051SOL    HW229787   0.365   2.004   2.878 -0.2562  0.0694 -0.1908
 6052SOL     OW29788   3.925   3.358  17.160  0.4643 -0.1571  0.0906
 6052SOL    HW129789   3.847   3.307  17.140 -0.9963  2.0279  0.2650
 6052SOL    HW229790   3.914   3.350  17.255  0.5997  3.6386  0.4367
 6053SOL     OW29791   1.195   2.761  12.826  0.9709 -0.2358 -0.6281
 6053SOL    HW129792   1.193   2.780  12.732 -3.3573 -1.3887 -0.7633
 6053SOL    HW229793   1.161   2.672  12.826 -2.9103  1.2485 -0.4407
 6054SOL     OW29794   2.951   3.896   6.128 -0.0834  0.2374 -0.3503
 6054SOL    HW129795   2.993   3.867   6.047  0.4198 -1.4622  0.4957
 6054SOL    HW229796   2.863   3.867   6.106 -0.5898  1.3590  0.1989
 6055SOL     OW29797   2.590   3.271   6.427  0.1230  0.2670 -0.1218
 6055SOL    HW129798   2.648   3.337   6.465 -1.2131  1.5391 -0.3040
 6055SOL    HW229799   2.572   3.312   6.342  0.2002  0.9593  0.1954
 6056SOL     OW29800   4.201   0.751   6.642  0.1284  0.2117 -0.0776
 6056SOL    HW129801   4.262   0.713   6.579 -1.6533 -4.0536  0.7799
 6056SOL    HW229802   4.129   0.751   6.579  0.1119  1.8474 -0.0686
 6057SOL     OW29803   1.913   1.036  11.887  0.8202  0.1234  0.1674
 6057SOL    HW129804   1.934   1.059  11.977  1.9926  0.3396 -0.1595
 6057SOL    HW229805   1.839   0.983  11.917 -0.6675  1.2281 -1.6105
 6058SOL     OW29806   0.042   2.500   7.261 -0.3687 -0.1646 -0.0200
 6058SOL    HW129807   4.691   2.519   7.289  0.0151 -0.1139  1.1687
 6058SOL    HW229808   0.026   2.418   7.215  0.0463 -0.1957 -0.1067
 6059SOL     OW29809   1.603   2.292  10.337 -0.1199 -0.3561  0.3237
 6059SOL    HW129810   1.698   2.280  10.330 -0.2112 -1.2301  0.5936
 6059SOL    HW229811   1.579   2.228  10.404  2.3013 -3.1573 -1.4837
 6060SOL     OW29812   4.408   3.491   1.043 -0.3123 -0.4819 -0.1820
 6060SOL    HW129813   4.327   3.473   0.995  0.3983  0.6046 -1.7829
 6060SOL    HW229814   4.414   3.412   1.097  3.4466 -0.4519 -0.5705
 6061SOL     OW29815   0.697   1.933   2.281 -0.3033 -0.5623  0.3131
 6061SOL    HW129816   0.607   1.927   2.312 -0.7822 -0.2802 -1.0342
 6061SOL    HW229817   0.719   1.841   2.269 -1.0162 -0.2748 -3.0014
 6062SOL     OW29818   3.063   3.368   1.367 -0.1377 -0.3571  0.0481
 6062SOL    HW129819   3.081   3.275   1.382  2.3318 -0.2879 -2.4361
 6062SOL    HW229820   3.023   3.390   1.451  0.5090 -0.8485  0.4798
 6063SOL     OW29821   2.988   3.664   4.638 -0.0898  0.0043 -0.2104
 6063SOL    HW129822   2.962   3.574   4.620 -0.2482 -0.4146  2.1344
 6063SOL    HW229823   2.918   3.706   4.588  0.2532 -1.1905 -1.6701
 6064SOL     OW29824   2.860   3.078   9.971 -0.2469  0.0654 -0.5574
 6064SOL    HW129825   2.952   3.093   9.952 -0.4755  0.7041 -1.1933
 6064SOL    HW229826   2.822   3.154   9.926 -0.9828 -0.1843 -0.3638
 6065SOL     OW29827   2.996   0.993  13.699  0.4870 -0.1949  0.2194
 6065SOL    HW129828   3.063   1.030  13.641  0.0941  3.2684  1.9931
 6065SOL    HW229829   2.946   0.946  13.633 -3.8698  0.9425  2.7388
 6066SOL     OW29830   3.192   3.556   3.535 -0.0428  0.5918  0.7935
 6066SOL    HW129831   3.169   3.488   3.598 -1.7420  0.2921 -0.1577
 6066SOL    HW229832   3.270   3.595   3.574  0.1911  0.1346  0.7738
 6067SOL     OW29833   0.676   2.972   8.178  0.8556  0.2689  0.5642
 6067SOL    HW129834   0.672   3.020   8.260  2.3246 -2.5405  2.2878
 6067SOL    HW229835   0.585   2.943   8.179  1.4916 -1.8580 -1.9870
 6068SOL     OW29836   3.923   2.009  17.268 -0.3049  0.3126  0.1556
 6068SOL    HW129837   3.834   2.042  17.280 -0.3928  0.2249 -0.2724
 6068SOL    HW229838   3.910   1.993  17.175  3.3147  3.8591 -0.9309
 6069SOL     OW29839   0.347   2.449   8.154  0.3125  0.1629 -0.0245
 6069SOL    HW129840   0.272   2.507   8.168 -0.3681 -0.3600 -1.5190
 6069SOL    HW229841   0.402   2.500   8.095 -1.7092  1.9865 -0.3307
 6070SOL     OW29842   0.838   1.846   7.790  0.2910  0.5571  0.0677
 6070SOL    HW129843   0.762   1.895   7.758  0.3482 -0.6475 -1.9032
 6070SOL    HW229844   0.893   1.916   7.826 -2.3095  2.2541  0.7536
 6071SOL     OW29845   3.323   2.543   5.270 -0.8536 -0.1638  0.0990
 6071SOL    HW129846   3.362   2.630   5.271 -1.8368  0.2581  1.6069
 6071SOL    HW229847   3.388   2.482   5.304  2.2718  2.5626 -1.0385
 6072SOL     OW29848   0.331   3.836   5.288  0.1965  0.1342  0.1184
 6072SOL    HW129849   0.409   3.837   5.344 -0.7140 -0.8901  1.3991
 6072SOL    HW229850   0.309   3.743   5.288  2.3947 -0.4062  1.5485
 6073SOL     OW29851   0.035   3.393   7.290 -0.1348 -0.3646  0.0185
 6073SOL    HW129852   0.007   3.447   7.364 -0.1917  0.4569 -0.5985
 6073SOL    HW229853   0.129   3.406   7.299 -0.0910 -0.8362  0.1975
 6074SOL     OW29854   3.971   3.164  15.770  1.1209 -0.3270  0.0942
 6074SOL    HW129855   3.912   3.239  15.759  0.9442 -0.4726  0.0422
 6074SOL    HW229856   3.944   3.122  15.689  1.1499  1.4948 -0.8536
 6075SOL     OW29857   1.810   3.324   4.630  0.6624 -0.7628  0.0532
 6075SOL    HW129858   1.724   3.341   4.669 -0.9728 -2.0336 -3.0437
 6075SOL    HW229859   1.822   3.229   4.632 -1.2279 -1.0464 -2.4701
 6076SOL     OW29860   3.453   0.289   2.674  0.2105  0.0934  0.0603
 6076SOL    HW129861   3.485   0.368   2.630  1.0012  0.7345  1.7797
 6076SOL    HW229862   3.451   0.228   2.600  2.2123 -0.9277  0.8395
 6077SOL     OW29863   2.476   2.048   6.030 -0.1200 -0.2063 -0.0449
 6077SOL    HW129864   2.515   2.110   5.969 -1.6685 -0.4473 -1.2804
 6077SOL    HW229865   2.385   2.077   6.036 -0.5152 -1.4746  0.1605
 6078SOL     OW29866   4.032   0.729   4.924 -0.1681  0.6330 -0.0358
 6078SOL    HW129867   4.087   0.693   4.994 -0.3968 -0.9030 -0.6443
 6078SOL    HW229868   4.086   0.712   4.846 -1.4586  0.0295 -0.7864
 6079SOL     OW29869   2.397   1.141  14.625 -0.5885 -0.2979 -0.8426
 6079SOL    HW129870   2.467   1.096  14.672 -1.0145  0.7371  0.7765
 6079SOL    HW229871   2.348   1.071  14.581 -1.9592 -0.6287  1.2023
 6080SOL     OW29872   1.372   0.914   2.360 -0.3864 -0.1974 -0.3064
 6080SOL    HW129873   1.358   0.998   2.318  1.6743 -0.2931 -1.1886
 6080SOL    HW229874   1.282   0.882   2.350 -0.5970 -0.2493  1.6572
 6081SOL     OW29875   4.015   0.057   1.339  0.1880  0.1664 -0.6468
 6081SOL    HW129876   3.944   0.091   1.284 -2.7055 -1.3693  2.0997
 6081SOL    HW229877   4.088   0.087   1.285 -0.2438  1.5128 -0.4971
 6082SOL     OW29878   0.616   4.620   2.090  0.2090 -0.4311 -0.4232
 6082SOL    HW129879   0.700   4.615   2.044 -0.3684 -0.2860 -1.4753
 6082SOL    HW229880   0.560   4.633   2.013  0.1223  1.4534 -0.0388
 6083SOL     OW29881   3.405   4.366   8.922 -0.5372  0.3615 -0.3800
 6083SOL    HW129882   3.316   4.357   8.956 -1.0185  2.1614 -1.1800
 6083SOL    HW229883   3.398   4.289   8.866  0.2560 -0.8444  1.1707
 6084SOL     OW29884   1.724   2.176   1.008  0.1540 -0.2071  0.1042
 6084SOL    HW129885   1.808   2.132   0.996 -0.4998 -1.6281  0.8743
 6084SOL    HW229886   1.734   2.260   0.963  0.4370 -0.0535  0.4482
 6085SOL     OW29887   0.827   0.444   8.110 -0.5267 -0.2608  0.0447
 6085SOL    HW129888   0.916   0.434   8.078  0.1060  0.0423  1.6908
 6085SOL    HW229889   0.832   0.395   8.192 -0.9594 -0.5388 -0.0968
 6086SOL     OW29890   3.717   1.545   9.337 -0.2534  0.1050 -0.4592
 6086SOL    HW129891   3.711   1.604   9.262 -0.0887 -1.0420 -1.3785
 6086SOL    HW229892   3.768   1.598   9.398 -0.2927  1.1896 -1.3576
 6087SOL     OW29893   1.151   2.729   4.239  0.1285 -0.9722  0.6508
 6087SOL    HW129894   1.195   2.778   4.170  0.6536  0.9708  2.3511
 6087SOL    HW229895   1.074   2.782   4.256  0.5736  0.3267 -1.4535
 6088SOL     OW29896   4.501   3.006   4.270 -0.7848 -0.0634  0.4672
 6088SOL    HW129897   4.529   2.999   4.179 -0.5371 -0.7252  0.5946
 6088SOL    HW229898   4.477   3.098   4.266 -0.7243  0.0162  2.1152
 6089SOL     OW29899   1.719   2.739   3.468 -0.1225  0.6782  0.2184
 6089SOL    HW129900   1.634   2.736   3.424 -0.0710  2.5571 -0.0112
 6089SOL    HW229901   1.694   2.730   3.560 -2.0087 -1.7634 -0.5213
 6090SOL     OW29902   2.180   0.545   6.129  0.0331 -0.6728 -0.4779
 6090SOL    HW129903   2.108   0.597   6.165  2.7156  1.5311  1.6550
 6090SOL    HW229904   2.207   0.590   6.049 -1.3786  1.7035  0.3704
 6091SOL     OW29905   0.443   2.891   3.405 -0.3060  0.4173 -0.6511
 6091SOL    HW129906   0.381   2.877   3.477  0.6503 -1.1071 -0.1148
 6091SOL    HW229907   0.385   2.904   3.330  1.5864 -1.4844 -2.4480
 6092SOL     OW29908   4.053   2.975   8.708  0.2900 -0.9094  0.1934
 6092SOL    HW129909   3.966   3.002   8.678  0.8437  0.9512  0.2646
 6092SOL    HW229910   4.033   2.885   8.732 -0.8695 -0.5260  0.6682
 6093SOL     OW29911   2.340   0.421   3.015 -0.1223  0.0190 -0.3303
 6093SOL    HW129912   2.308   0.426   3.105  1.4098 -3.3636  0.3989
 6093SOL    HW229913   2.304   0.337   2.990  1.0868 -0.1398 -1.5323
 6094SOL     OW29914   0.519   2.571   3.533  0.0543 -0.2441 -0.3124
 6094SOL    HW129915   0.466   2.648   3.552 -1.4022 -1.9601  2.5226
 6094SOL    HW229916   0.522   2.518   3.613 -0.4326  1.9025  1.1344
 6095SOL     OW29917   1.563   2.621  13.357  0.2339  0.4954  1.1932
 6095SOL    HW129918   1.600   2.651  13.440  0.3815 -0.7143  1.5566
 6095SOL    HW229919   1.501   2.688  13.328  0.1021 -0.2002 -0.1368
 6096SOL     OW29920   1.903   3.204   1.899  0.3114 -0.0557 -0.5807
 6096SOL    HW129921   1.988   3.242   1.876  0.0392  0.5619 -0.5741
 6096SOL    HW229922   1.902   3.198   1.994  0.2244  0.5017 -0.5470
 6097SOL     OW29923   2.231   2.531   6.888 -0.5263 -0.0989  0.2495
 6097SOL    HW129924   2.234   2.605   6.949 -1.4371 -0.9115  1.2724
 6097SOL    HW229925   2.153   2.478   6.904 -2.3988  2.5843  0.0158
 6098SOL     OW29926   2.317   4.545   4.585  0.3530 -0.2487  0.0726
 6098SOL    HW129927   2.266   4.540   4.504 -0.9961 -0.0564  0.9033
 6098SOL    HW229928   2.324   4.640   4.591 -0.1730 -0.2436  0.5613
 6099SOL     OW29929   0.451   3.604   1.278  0.4838 -0.3749 -0.3494
 6099SOL    HW129930   0.466   3.512   1.260  3.1834 -0.0601  0.3466
 6099SOL    HW229931   0.427   3.616   1.370  0.1423 -2.4318 -0.1819
 6100SOL     OW29932   3.012   4.700   6.542 -0.2754 -0.0149  0.0877
 6100SOL    HW129933   2.990   0.052   6.562 -0.2923 -0.5490  2.4621
 6100SOL    HW229934   2.956   4.676   6.468  0.9346 -1.6014 -0.3297
 6101SOL     OW29935   3.486   1.158  11.889  0.1715 -0.3745  0.0784
 6101SOL    HW129936   3.545   1.085  11.872 -1.0069 -0.5416 -3.2789
 6101SOL    HW229937   3.518   1.228  11.833 -0.4456  1.0058  1.4393
 6102SOL     OW29938   4.236   0.982   6.736  0.4178  0.1857 -0.3932
 6102SOL    HW129939   4.203   1.045   6.672  2.3978  0.4672 -1.1599
 6102SOL    HW229940   4.213   0.901   6.692  1.4193 -0.0900 -0.4233
 6103SOL     OW29941   3.199   0.593   1.849 -0.2955 -0.1993 -0.1929
 6103SOL    HW129942   3.267   0.593   1.781 -1.3633  1.8789 -1.2720
 6103SOL    HW229943   3.134   0.538   1.806 -1.9303  2.3121 -0.9203
 6104SOL     OW29944   2.189   0.442   4.367  0.3610  0.3384  0.2538
 6104SOL    HW129945   2.159   0.396   4.446  1.4427 -1.7491 -0.5407
 6104SOL    HW229946   2.109   0.421   4.319 -0.3569  1.3923  0.9849
 6105SOL     OW29947   4.024   4.472   7.921 -1.0662  0.1150  0.6309
 6105SOL    HW129948   4.105   4.460   7.970 -1.0908  1.5791  1.0216
 6105SOL    HW229949   3.974   4.394   7.946 -1.6167 -0.0321 -0.9005
 6106SOL     OW29950   1.634   0.442  10.219  0.8044 -0.2421 -0.2161
 6106SOL    HW129951   1.727   0.461  10.206  0.6449  1.6025  1.5115
 6106SOL    HW229952   1.639   0.374  10.286  0.7771  1.7397  1.7806
 6107SOL     OW29953   0.185   0.384   1.233 -0.1963  0.4983  0.3007
 6107SOL    HW129954   0.127   0.371   1.308 -2.3450  2.5329 -1.0171
 6107SOL    HW229955   0.121   0.379   1.162 -0.5364 -0.2177  0.6567
 6108SOL     OW29956   0.756   1.586   2.683  0.3982 -0.1658  0.1785
 6108SOL    HW129957   0.721   1.502   2.713 -4.0423  1.2734 -0.9074
 6108SOL    HW229958   0.677   1.636   2.660 -0.3429 -1.5060 -0.2217
 6109SOL     OW29959   4.417   1.415   7.653 -0.7345 -0.0498 -0.1965
 6109SOL    HW129960   4.327   1.436   7.677 -0.6637  0.7264 -0.6325
 6109SOL    HW229961   4.424   1.489   7.593  0.8888 -0.2136 -0.1931
 6110SOL     OW29962   1.078   2.438   2.614 -0.1291 -0.1581  1.1367
 6110SOL    HW129963   1.110   2.465   2.528  2.0166  1.4281  2.4436
 6110SOL    HW229964   1.044   2.349   2.602  1.7347 -0.7277  0.1600
 6111SOL     OW29965   0.484   2.464   4.263 -0.1741 -0.1925 -0.1701
 6111SOL    HW129966   0.417   2.412   4.307 -0.4577 -0.3732 -0.8075
 6111SOL    HW229967   0.482   2.542   4.319 -0.6259 -0.1907 -0.1859
 6112SOL     OW29968   0.760   3.744   3.354  0.1683 -0.0739 -0.7615
 6112SOL    HW129969   0.812   3.664   3.348  0.6379 -0.0019  2.4725
 6112SOL    HW229970   0.760   3.754   3.449  1.1638 -2.6598 -0.4921
 6113SOL     OW29971   1.726   4.117   5.487 -0.4429 -0.0402 -0.1252
 6113SOL    HW129972   1.797   4.053   5.485  0.6807  1.2139 -0.2404
 6113SOL    HW229973   1.778   4.195   5.466 -0.2132 -0.1416  0.0785
 6114SOL     OW29974   0.050   3.312   2.784  0.0550  0.9535  0.0222
 6114SOL    HW129975   4.698   3.294   2.804  0.2474 -1.0726 -0.8722
 6114SOL    HW229976   0.083   3.225   2.761 -0.4297  0.8794 -0.4014
 6115SOL     OW29977   2.696   3.770   6.023  0.3658 -0.2845 -0.1109
 6115SOL    HW129978   2.647   3.850   6.004 -0.3592 -0.4041  1.2224
 6115SOL    HW229979   2.664   3.710   5.956  0.6410  0.3716 -0.8305
 6116SOL     OW29980   2.619   2.836   2.273  0.1004  0.2376  0.5502
 6116SOL    HW129981   2.615   2.931   2.268 -0.8567  0.1590 -0.0917
 6116SOL    HW229982   2.551   2.804   2.332 -1.6659 -0.5506 -1.9550
 6117SOL     OW29983   3.505   0.263   6.228  0.1013 -0.1963  0.1233
 6117SOL    HW129984   3.582   0.248   6.174 -2.0937 -1.6556 -2.5783
 6117SOL    HW229985   3.457   0.186   6.200 -3.1436  2.6938 -2.3028
 6118SOL     OW29986   1.798   3.901   3.629 -0.3158  0.1481  0.1975
 6118SOL    HW129987   1.793   3.807   3.649  0.8406 -0.2318 -1.3077
 6118SOL    HW229988   1.885   3.918   3.663 -0.7912  0.3615  1.3149
 6119SOL     OW29989   1.841   0.123   6.491 -0.0969  0.1576 -0.1094
 6119SOL    HW129990   1.889   0.044   6.466 -0.7425  0.1939 -1.4758
 6119SOL    HW229991   1.835   0.169   6.408  0.5516 -2.1172 -1.4104
 6120SOL     OW29992   3.221   4.244   6.015 -0.2707  0.4761 -0.0985
 6120SOL    HW129993   3.264   4.294   6.084 -0.1232 -2.8023  2.1814
 6120SOL    HW229994   3.202   4.162   6.062 -1.3957 -0.1517 -1.6331
 6121SOL     OW29995   2.104   3.517  10.051 -0.2773 -0.0569  0.1276
 6121SOL    HW129996   2.014   3.512  10.082 -0.4614  1.2115 -0.1931
 6121SOL    HW229997   2.147   3.527  10.136  1.5087 -0.1103 -0.7794
 6122SOL     OW29998   0.287   2.041   4.759  0.5607  0.5027 -0.5400
 6122SOL    HW129999   0.232   2.090   4.820  0.9072 -0.1486  0.2968
 6122SOL    HW230000   0.319   1.969   4.813 -1.9882 -0.6234 -0.5726
 6123SOL     OW30001   0.168   3.430  12.118  0.7246 -0.1676  0.5065
 6123SOL    HW130002   0.147   3.506  12.171  2.6685  2.8534 -3.0730
 6123SOL    HW230003   0.154   3.359  12.181 -1.3764  0.1698  0.4260
 6124SOL     OW30004   3.211   3.704   2.850 -0.1619  0.1258 -0.0619
 6124SOL    HW130005   3.143   3.708   2.782 -0.8453 -0.3350  0.5985
 6124SOL    HW230006   3.224   3.798   2.864 -0.4883  0.2331 -0.4748
 6125SOL     OW30007   2.181   2.191   3.342  0.2469  0.2928 -0.7292
 6125SOL    HW130008   2.246   2.184   3.272 -1.3892 -0.4969 -2.1596
 6125SOL    HW230009   2.231   2.239   3.408  1.1684  0.6000 -1.6620
 6126SOL     OW30010   0.358   2.963  16.795  0.0375 -0.3487 -0.1701
 6126SOL    HW130011   0.306   3.023  16.744  0.5763  1.4441  1.3957
 6126SOL    HW230012   0.331   2.880  16.755 -1.6280  0.4778 -0.7260
 6127SOL     OW30013   0.047   1.745  11.656  0.4586 -0.4343 -0.3686
 6127SOL    HW130014   0.055   1.837  11.681  0.6558 -0.4562 -0.3500
 6127SOL    HW230015   4.722   1.744  11.585  1.7928 -0.8125 -1.5779
 6128SOL     OW30016   3.904   1.259   1.551 -0.1799  0.1778  0.3017
 6128SOL    HW130017   3.930   1.226   1.637  0.5747 -0.5216 -0.1888
 6128SOL    HW230018   3.855   1.182   1.521  2.3174 -0.4449 -2.2171
 6129SOL     OW30019   3.188   1.465   7.634 -0.2752 -0.0689 -0.0326
 6129SOL    HW130020   3.201   1.378   7.670  2.0934 -0.3334 -1.5357
 6129SOL    HW230021   3.261   1.506   7.681 -0.0605  0.1740 -0.5731
 6130SOL     OW30022   1.044   3.676   4.052  0.3607  0.3086  0.3752
 6130SOL    HW130023   1.014   3.682   4.142 -1.6724  2.4753 -0.4341
 6130SOL    HW230024   1.068   3.766   4.030  0.7597  0.1246  0.0350
 6131SOL     OW30025   4.414   0.256   6.347 -0.2102  0.7511  0.3800
 6131SOL    HW130026   4.362   0.178   6.330 -0.4937  1.3365 -1.3623
 6131SOL    HW230027   4.474   0.233   6.418 -0.5673  2.0369  1.1119
 6132SOL     OW30028   3.639   3.142   1.451  0.4792 -0.5471 -0.2431
 6132SOL    HW130029   3.730   3.170   1.452  0.5843 -0.8445 -1.1310
 6132SOL    HW230030   3.617   3.100   1.368 -0.2578 -2.1360  0.7534
 6133SOL     OW30031   2.644   1.520   2.171 -0.0256  0.1637  0.3286
 6133SOL    HW130032   2.716   1.458   2.178 -0.1007 -0.0818 -1.0872
 6133SOL    HW230033   2.640   1.554   2.260 -0.8824 -4.9978  2.2425
 6134SOL     OW30034   4.242   4.344   7.197 -0.3937 -0.4403 -0.0897
 6134SOL    HW130035   4.329   4.323   7.163 -0.5361  1.1382 -1.4147
 6134SOL    HW230036   4.252   4.435   7.226  0.8435 -0.9524  1.0632
 6135SOL     OW30037   3.435   4.158   7.639  0.0223 -0.1085  0.2206
 6135SOL    HW130038   3.424   4.080   7.585  0.2962  0.4798 -0.6808
 6135SOL    HW230039   3.396   4.230   7.590 -0.1512 -0.6647 -0.4712
 6136SOL     OW30040   1.966   3.106   5.612  0.3016  0.4202  0.3646
 6136SOL    HW130041   1.928   3.129   5.527 -3.1058 -1.8410  1.2562
 6136SOL    HW230042   2.019   3.028   5.597  0.1798 -0.1559  2.9807
 6137SOL     OW30043   1.218   4.693  11.264 -0.1991  0.8054 -0.3841
 6137SOL    HW130044   1.175   4.732  11.341 -2.5210  0.5182 -1.5418
 6137SOL    HW230045   1.297   4.669  11.312 -1.3989 -2.9561 -0.2653
 6138SOL     OW30046   4.276   3.658   7.115 -0.3379  0.5554 -0.1894
 6138SOL    HW130047   4.189   3.645   7.077  0.1678 -1.8553 -0.5531
 6138SOL    HW230048   4.303   3.573   7.150  1.4427  1.7230  1.2819
 6139SOL     OW30049   3.746   1.400   7.456 -0.3301  0.2095 -0.2442
 6139SOL    HW130050   3.741   1.379   7.362 -1.0024  0.4365 -0.2553
 6139SOL    HW230051   3.794   1.323   7.486 -0.4982  0.0479 -0.3867
 6140SOL     OW30052   3.709   4.638   9.768 -0.5312  0.5654 -0.1855
 6140SOL    HW130053   3.629   4.689   9.784 -1.1778 -0.5244  0.0432
 6140SOL    HW230054   3.708   4.628   9.673  0.9096 -0.2556 -0.1111
 6141SOL     OW30055   1.029   0.456  11.570  0.0720  0.2422  0.5683
 6141SOL    HW130056   1.043   0.421  11.482  0.8550 -2.3203  1.7161
 6141SOL    HW230057   1.098   0.522  11.579  0.9460 -0.5815 -0.1639
 6142SOL     OW30058   1.418   2.638   1.107  0.8680  0.1480  0.1412
 6142SOL    HW130059   1.462   2.642   1.022 -1.2539 -3.1092 -1.0987
 6142SOL    HW230060   1.330   2.663   1.081  1.4477 -0.3489 -2.3886
 6143SOL     OW30061   3.830   4.131   3.879  0.0835  0.0619 -0.6799
 6143SOL    HW130062   3.821   4.046   3.922  0.8839 -0.9350 -2.4339
 6143SOL    HW230063   3.834   4.108   3.786  3.6315 -0.4676 -0.3892
 6144SOL     OW30064   1.577   3.615   7.809  0.0703 -0.6248  0.1327
 6144SOL    HW130065   1.554   3.523   7.816  3.0784 -1.5103 -1.8710
 6144SOL    HW230066   1.669   3.600   7.790  0.3466  0.2986  0.6983
 6145SOL     OW30067   3.218   1.860   8.277  0.5918 -0.4073 -0.2780
 6145SOL    HW130068   3.253   1.785   8.325  3.5321  1.6920  0.8148
 6145SOL    HW230069   3.268   1.839   8.198  2.9951 -2.1600  1.7252
 6146SOL     OW30070   1.325   1.049   8.366 -0.1160  0.0132 -0.2051
 6146SOL    HW130071   1.233   1.044   8.395 -0.4706 -0.7081 -1.4598
 6146SOL    HW230072   1.361   1.087   8.446  2.2881 -2.4703 -0.1184
 6147SOL     OW30073   3.416   2.988   7.743  0.1677 -0.1109 -0.3784
 6147SOL    HW130074   3.344   2.973   7.682  0.4759 -2.2032 -0.2273
 6147SOL    HW230075   3.457   3.066   7.705 -0.5111  0.0339 -0.8045
 6148SOL     OW30076   2.529   0.910   7.842  0.1767 -0.4381 -0.7766
 6148SOL    HW130077   2.442   0.901   7.803 -1.3104  1.7664  2.0070
 6148SOL    HW230078   2.576   0.962   7.777 -0.4104  0.0990 -0.7716
 6149SOL     OW30079   1.274   0.360   9.665  0.3714  0.2159  0.5080
 6149SOL    HW130080   1.279   0.295   9.595 -1.0397  1.1845 -0.4984
 6149SOL    HW230081   1.367   0.369   9.686  0.2237  3.3081 -0.2627
 6150SOL     OW30082   1.461   0.225   4.517  0.0981 -0.2999 -0.5912
 6150SOL    HW130083   1.462   0.254   4.608 -0.3091 -3.5689  0.4729
 6150SOL    HW230084   1.405   0.284   4.467  0.3679  0.0401 -0.4876
 6151SOL     OW30085   0.227   1.825   6.326  0.5706  0.0779  0.5649
 6151SOL    HW130086   0.139   1.797   6.349  1.5181 -3.5539 -0.2917
 6151SOL    HW230087   0.224   1.822   6.231  2.4077 -2.4936  0.5897
 6152SOL     OW30088   2.890   0.825   1.469  0.2465 -0.5792 -0.6114
 6152SOL    HW130089   2.969   0.861   1.510  0.5542  1.1424 -2.6980
 6152SOL    HW230090   2.933   0.758   1.416 -0.0719 -2.1047  1.0684
 6153SOL     OW30091   2.563   0.672   9.867 -0.4967 -0.1867  0.5950
 6153SOL    HW130092   2.534   0.610   9.800  0.5213 -3.0735  2.8117
 6153SOL    HW230093   2.566   0.753   9.817  0.6868 -0.6634 -0.1055
 6154SOL     OW30094   1.349   2.931   8.710  0.1111  0.1382  0.4419
 6154SOL    HW130095   1.403   2.867   8.757  0.9123 -0.3252 -1.1105
 6154SOL    HW230096   1.403   3.007   8.728 -1.2313  0.9870  0.8869
 6155SOL     OW30097   1.699   3.581  13.582 -0.2512 -0.1190  0.0591
 6155SOL    HW130098   1.760   3.644  13.622  0.9903  0.2408 -2.3752
 6155SOL    HW230099   1.747   3.499  13.591  0.0925 -0.2560 -3.0765
 6156SOL     OW30100   3.734   3.567   1.586  0.0990 -0.1081 -0.4386
 6156SOL    HW130101   3.668   3.520   1.534  0.5502 -1.3632  0.1278
 6156SOL    HW230102   3.754   3.508   1.659 -1.1840 -0.5692 -0.4529
 6157SOL     OW30103   3.204   4.527   6.670 -0.2801 -1.1914 -0.0400
 6157SOL    HW130104   3.162   4.596   6.620 -2.1250 -0.0999  3.0025
 6157SOL    HW230105   3.135   4.462   6.683 -1.0224 -0.7211 -1.7006
 6158SOL     OW30106   0.987   0.215   7.410  0.0548 -0.3264  1.0408
 6158SOL    HW130107   0.952   0.285   7.465 -0.9752  0.7325 -0.9798
 6158SOL    HW230108   0.899   0.184   7.387 -1.2233  4.2528 -0.1781
 6159SOL     OW30109   3.707   2.786   8.869 -0.5440  0.1194 -0.1845
 6159SOL    HW130110   3.773   2.727   8.833 -1.0038  1.2691 -2.8700
 6159SOL    HW230111   3.748   2.793   8.955 -0.4609 -0.4501 -0.1775
 6160SOL     OW30112   4.117   1.030   2.765  0.1128 -0.1313 -0.0239
 6160SOL    HW130113   4.208   1.045   2.790  0.1620  0.7550 -0.7422
 6160SOL    HW230114   4.121   0.951   2.711 -2.2083 -0.0766 -0.2880
 6161SOL     OW30115   3.020   4.443  10.828  0.0175 -0.2481  0.2114
 6161SOL    HW130116   2.970   4.498  10.768 -1.3893 -0.9105  0.7757
 6161SOL    HW230117   3.007   4.485  10.913 -0.6663 -0.2259  0.0952
 6162SOL     OW30118   2.157   2.473   1.056 -0.0940 -0.7875 -0.3783
 6162SOL    HW130119   2.169   2.390   1.103  0.1419 -0.0960  0.7995
 6162SOL    HW230120   2.124   2.440   0.973 -1.5063  1.4796 -0.6880
 6163SOL     OW30121   0.531   3.555   8.013  0.2290  0.6989  0.4485
 6163SOL    HW130122   0.585   3.588   7.941  0.3135 -1.2188 -0.3899
 6163SOL    HW230123   0.472   3.496   7.966 -0.0056  1.6658 -0.4704
 6164SOL     OW30124   0.410   3.693  13.383 -0.0773 -0.1705 -0.6951
 6164SOL    HW130125   0.477   3.655  13.326 -0.1270 -2.4770  0.7809
 6164SOL    HW230126   0.342   3.714  13.318 -1.1113  0.2031  0.5102
 6165SOL     OW30127   2.743   3.447   5.981 -0.3914 -0.5435 -0.3739
 6165SOL    HW130128   2.795   3.496   5.917 -0.9293 -1.7749 -1.7222
 6165SOL    HW230129   2.802   3.371   5.984 -0.3345 -0.4727  0.3242
 6166SOL     OW30130   3.579   4.186   8.106 -1.0273  0.3527 -0.2772
 6166SOL    HW130131   3.601   4.277   8.128  0.4967 -0.1704  0.3778
 6166SOL    HW230132   3.561   4.152   8.194 -1.7145 -0.2895 -0.6669
 6167SOL     OW30133   3.441   0.732  15.840 -0.1168 -0.0183  0.3391
 6167SOL    HW130134   3.437   0.816  15.884 -0.3952 -0.2193  0.6927
 6167SOL    HW230135   3.350   0.704  15.829 -0.3499  1.3610 -1.1389
 6168SOL     OW30136   3.001   2.562   4.790 -0.2744 -0.0440 -0.6395
 6168SOL    HW130137   2.930   2.606   4.744 -1.5617  1.0067  2.3712
 6168SOL    HW230138   2.955   2.489   4.830 -1.7943 -0.3600 -2.9923
 6169SOL     OW30139   4.702   3.967   9.392 -0.1751  0.2558 -0.2114
 6169SOL    HW130140   4.686   4.030   9.321  1.1336 -1.0727 -1.6698
 6169SOL    HW230141   4.686   3.884   9.347  0.0667  1.4032 -2.4241
 6170SOL     OW30142   1.585   3.407   1.588  0.6675  0.1546  0.4255
 6170SOL    HW130143   1.608   3.376   1.676 -0.5566  1.1397  1.0929
 6170SOL    HW230144   1.645   3.358   1.532  0.6913  1.8255 -0.9952
 6171SOL     OW30145   3.396   1.252  12.127  0.6250  0.8230 -0.6528
 6171SOL    HW130146   3.488   1.280  12.123  0.7517  0.5797  0.5688
 6171SOL    HW230147   3.400   1.208  12.043  1.2090 -2.4810  1.1325
 6172SOL     OW30148   2.489   2.383   4.246 -0.1509 -0.2408  0.4659
 6172SOL    HW130149   2.534   2.336   4.176 -0.4325 -1.7606  1.2965
 6172SOL    HW230150   2.400   2.383   4.211  0.2928 -1.3331 -0.6535
 6173SOL     OW30151   3.043   4.037  11.833  0.3908  0.2206 -0.0905
 6173SOL    HW130152   3.130   4.073  11.816  1.2621 -1.3609  0.9710
 6173SOL    HW230153   3.061   3.945  11.850  1.7208  0.2458 -1.3870
 6174SOL     OW30154   4.157   0.835   5.322 -0.3257  0.5763 -0.4095
 6174SOL    HW130155   4.248   0.809   5.306 -0.3290 -0.0495  0.6480
 6174SOL    HW230156   4.145   0.914   5.269 -0.6946  0.3184 -0.7132
 6175SOL     OW30157   2.477   3.260   3.930 -0.1770  0.0421  0.5598
 6175SOL    HW130158   2.477   3.354   3.948  0.5166 -0.1251  1.4458
 6175SOL    HW230159   2.427   3.219   4.000 -0.4458 -0.1074  0.2831
 6176SOL     OW30160   0.108   1.557  12.876 -0.1376 -0.1211  0.0817
 6176SOL    HW130161   0.114   1.469  12.838  0.6923 -0.3034  0.6211
 6176SOL    HW230162   0.194   1.597  12.861 -0.1532  0.0549  0.4652
 6177SOL     OW30163   1.688   0.309  11.442  0.3131 -0.2285  0.4241
 6177SOL    HW130164   1.610   0.310  11.497 -0.1336 -0.9520 -0.2060
 6177SOL    HW230165   1.687   0.403  11.423  0.7518 -0.3482 -0.1934
 6178SOL     OW30166   1.332   4.353   5.450 -0.2078  0.4164  0.3175
 6178SOL    HW130167   1.381   4.345   5.531  0.3694  0.1620 -0.0579
 6178SOL    HW230168   1.297   4.442   5.452 -4.0915 -1.1384  1.9061
 6179SOL     OW30169   1.582   2.345   1.438  0.6723 -0.0966  0.0535
 6179SOL    HW130170   1.543   2.372   1.521 -1.6851  0.9637 -1.4225
 6179SOL    HW230171   1.564   2.427   1.393  1.0653  0.0677  0.1935
 6180SOL     OW30172   2.306   0.245  12.060  0.4261 -0.3607  0.2471
 6180SOL    HW130173   2.385   0.276  12.016  0.5117  0.8747  1.2704
 6180SOL    HW230174   2.339   0.170  12.110 -0.7897 -0.5679  0.7553
 6181SOL     OW30175   3.452   0.797  16.460 -0.5096 -0.2566  0.1810
 6181SOL    HW130176   3.487   0.712  16.434  0.2030  0.2965 -0.6826
 6181SOL    HW230177   3.360   0.781  16.478 -0.6053 -1.6324 -1.5395
 6182SOL     OW30178   4.111   3.415   6.938  0.2128  0.1410 -0.2725
 6182SOL    HW130179   4.091   3.504   6.967 -1.2786 -0.6818  1.1994
 6182SOL    HW230180   4.196   3.399   6.979  0.6903 -1.8592 -2.0416
 6183SOL     OW30181   2.147   0.644   4.793 -0.2408 -0.6685 -0.1035
 6183SOL    HW130182   2.181   0.709   4.732 -0.8666  0.1597  0.4332
 6183SOL    HW230183   2.229   0.598   4.809 -1.2317 -2.3809 -0.0055
 6184SOL     OW30184   1.624   1.657   5.573 -0.0279  0.0623  0.0466
 6184SOL    HW130185   1.617   1.677   5.667  0.8238  0.0486  0.1080
 6184SOL    HW230186   1.549   1.704   5.536  2.2809  4.2874  0.6564
 6185SOL     OW30187   0.107   0.864   2.467 -0.4153 -0.6664  0.1860
 6185SOL    HW130188   0.104   0.915   2.386  0.7762  0.2592  0.7323
 6185SOL    HW230189   0.019   0.826   2.458  0.3544 -2.5272  0.5753
 6186SOL     OW30190   1.183   0.490   4.177  0.0869  0.1336 -0.3632
 6186SOL    HW130191   1.207   0.520   4.090  2.7846 -0.4691  0.1689
 6186SOL    HW230192   1.091   0.517   4.183  0.8011  2.2098  1.4398
 6187SOL     OW30193   2.592   1.658   6.932  0.0453 -0.0556  0.4037
 6187SOL    HW130194   2.512   1.679   6.980 -0.7673  2.5447 -2.1052
 6187SOL    HW230195   2.655   1.728   6.946 -1.7296  1.3188  1.4179
 6188SOL     OW30196   4.254   2.959   5.233 -0.0030  1.2092  0.3735
 6188SOL    HW130197   4.252   2.865   5.220  0.8135  1.0824  1.0852
 6188SOL    HW230198   4.198   2.989   5.162  1.9266  0.9668 -1.2543
 6189SOL     OW30199   1.651   4.566   3.764  0.3824 -0.0695 -0.1117
 6189SOL    HW130200   1.691   4.576   3.850  1.5573  2.7954 -0.9877
 6189SOL    HW230201   1.710   4.505   3.719 -2.3372 -1.6748 -1.4969
 6190SOL     OW30202   2.652   0.949   4.383  0.1882 -0.6150 -0.2134
 6190SOL    HW130203   2.707   1.021   4.412 -2.7452  0.4196  2.7373
 6190SOL    HW230204   2.631   0.894   4.459  0.5182 -2.1080 -1.1861
 6191SOL     OW30205   2.696   0.043   3.703  0.0574 -0.4270 -0.0816
 6191SOL    HW130206   2.732   0.113   3.649  2.1414 -1.7846 -0.4381
 6191SOL    HW230207   2.704   0.078   3.792 -1.7716 -0.4324  0.0967
 6192SOL     OW30208   2.200   2.790   1.500  1.0869  0.3401  0.2953
 6192SOL    HW130209   2.228   2.718   1.445 -1.6250  0.4381 -1.2095
 6192SOL    HW230210   2.274   2.849   1.485 -0.6756  2.3086 -0.6398
 6193SOL     OW30211   2.996   4.162  17.233  0.3182 -0.1459  0.6839
 6193SOL    HW130212   3.001   4.160  17.329 -2.8095  2.5773  0.9176
 6193SOL    HW230213   3.067   4.102  17.212  0.3816  0.0407  0.3656
 6194SOL     OW30214   3.851   1.984   5.280  0.1270  0.0330  0.7320
 6194SOL    HW130215   3.787   2.054   5.267  1.0227  0.6400 -0.3183
 6194SOL    HW230216   3.914   2.031   5.334  0.4397 -0.2062  0.5722
 6195SOL     OW30217   4.627   0.668   3.674 -0.2009  0.4854  0.4409
 6195SOL    HW130218   4.661   0.616   3.602  0.7766  0.3457  0.9955
 6195SOL    HW230219   4.708   0.713   3.696  0.4372 -0.0655 -0.8192
 6196SOL     OW30220   2.547   2.103  15.423  0.2410 -0.0862  0.1593
 6196SOL    HW130221   2.621   2.096  15.363  1.4581  2.3050  1.3917
 6196SOL    HW230222   2.512   2.191  15.405 -0.6018 -0.1694  1.3882
 6197SOL     OW30223   2.269   1.805   1.783 -0.0348 -0.2050 -0.3761
 6197SOL    HW130224   2.325   1.778   1.856 -0.6108  0.6704  0.3775
 6197SOL    HW230225   2.181   1.808   1.819 -0.3141  0.2333 -1.1048
 6198SOL     OW30226   2.130   3.680  14.392 -0.4297 -0.3872 -0.1135
 6198SOL    HW130227   2.204   3.624  14.414  0.8854  0.5250 -2.2470
 6198SOL    HW230228   2.063   3.612  14.382 -1.0902  0.1569  0.5579
 6199SOL     OW30229   2.745   0.898  11.973  0.7297  0.0906 -0.0366
 6199SOL    HW130230   2.825   0.917  11.926 -0.4478  0.7833 -1.7607
 6199SOL    HW230231   2.738   0.986  12.009 -0.4310 -0.2155  0.5102
 6200SOL     OW30232   2.733   3.496   6.520  0.1799 -0.5993  0.3450
 6200SOL    HW130233   2.657   3.552   6.532 -1.9106 -2.9622 -1.6535
 6200SOL    HW230234   2.758   3.529   6.433  1.3671 -2.0124  0.1426
 6201SOL     OW30235   1.834   4.696  13.827 -0.2250 -0.0157 -0.3763
 6201SOL    HW130236   1.809   4.636  13.756  2.3956 -1.3993 -0.1241
 6201SOL    HW230237   1.799   0.041  13.798  2.0817  0.7817 -0.7965
 6202SOL     OW30238   3.993   2.247  11.562  0.1264 -0.3981 -0.5836
 6202SOL    HW130239   3.951   2.161  11.557  0.4301 -0.5357 -0.7290
 6202SOL    HW230240   4.076   2.222  11.523 -0.1233 -1.2576 -0.5633
 6203SOL     OW30241   2.292   3.742   5.311 -0.3078 -0.2619 -0.4924
 6203SOL    HW130242   2.217   3.802   5.302 -0.1889  0.1431  1.2527
 6203SOL    HW230243   2.363   3.805   5.326 -0.4726  0.5387 -2.9529
 6204SOL     OW30244   1.417   1.984   4.997 -0.4846  0.2695  0.3332
 6204SOL    HW130245   1.492   2.017   5.047  0.0684  1.9072 -1.5848
 6204SOL    HW230246   1.414   1.898   5.038 -0.2802 -0.8642 -2.0369
 6205SOL     OW30247   4.301   3.513   8.611  0.1355  0.2999 -0.1661
 6205SOL    HW130248   4.317   3.426   8.572 -1.5332  0.0596 -0.3105
 6205SOL    HW230249   4.205   3.514   8.604  0.2406 -2.4546 -2.1225
 6206SOL     OW30250   2.303   2.858   8.277 -0.1493  0.7890 -0.0969
 6206SOL    HW130251   2.379   2.814   8.239  1.1937  1.4631  1.8250
 6206SOL    HW230252   2.332   2.844   8.367  1.0515 -0.0888 -0.6143
 6207SOL     OW30253   2.340   0.269   1.606  0.2383 -0.1020  0.4464
 6207SOL    HW130254   2.376   0.182   1.622 -1.4280 -0.7496  0.7426
 6207SOL    HW230255   2.316   0.259   1.514  2.0931  0.2275 -0.0643
 6208SOL     OW30256   4.675   1.093   3.664 -0.3164  0.5137 -0.8325
 6208SOL    HW130257   4.715   1.006   3.655  1.8842  1.2763  1.8222
 6208SOL    HW230258   4.667   1.111   3.758 -1.1764  0.4190 -0.8810
 6209SOL     OW30259   1.545   4.188   1.617 -0.2957 -0.9352 -0.1634
 6209SOL    HW130260   1.477   4.235   1.665 -0.3322  0.5452 -1.6816
 6209SOL    HW230261   1.623   4.212   1.666 -0.1647  1.4471 -1.5515
 6210SOL     OW30262   4.313   1.655   4.943  0.8073 -0.8635 -0.2360
 6210SOL    HW130263   4.391   1.609   4.974  1.2557 -0.4377 -0.7183
 6210SOL    HW230264   4.329   1.736   4.992 -0.2877 -1.1666  0.6112
 6211SOL     OW30265   2.079   3.334   1.226 -0.5621 -0.1167  0.2051
 6211SOL    HW130266   2.027   3.348   1.146  1.6355  0.7709 -1.0798
 6211SOL    HW230267   2.021   3.289   1.288 -1.7104  0.6587 -0.2967
 6212SOL     OW30268   4.009   3.461   4.379  0.7848 -0.5667 -0.4480
 6212SOL    HW130269   3.975   3.389   4.432 -0.1555 -0.0732 -0.3735
 6212SOL    HW230270   3.930   3.481   4.328 -0.3224 -0.8941  1.1398
 6213SOL     OW30271   2.099   0.569  12.546  0.3986 -0.1967 -0.1785
 6213SOL    HW130272   2.137   0.640  12.597  0.4884  0.1553 -0.7324
 6213SOL    HW230273   2.181   0.522  12.531  0.5437 -0.2790  0.9101
 6214SOL     OW30274   2.871   2.326   4.506  0.2172  0.4540  0.9223
 6214SOL    HW130275   2.800   2.389   4.518 -1.3403 -1.3716  1.2721
 6214SOL    HW230276   2.831   2.250   4.549  1.1309 -1.0591 -0.8752
 6215SOL     OW30277   3.453   0.848   2.389  0.0176  0.3619  0.1416
 6215SOL    HW130278   3.359   0.833   2.376 -0.0020 -0.0388  0.7612
 6215SOL    HW230279   3.456   0.922   2.450  0.9816  1.9687 -1.8543
 6216SOL     OW30280   3.977   1.687   3.910 -0.0954  0.5798 -0.3874
 6216SOL    HW130281   3.899   1.741   3.899 -0.4999  0.2104  0.7001
 6216SOL    HW230282   3.932   1.620   3.962  0.9931  0.0143 -0.1633
 6217SOL     OW30283   0.956   0.121   6.264 -0.3836 -0.5575 -0.3851
 6217SOL    HW130284   0.980   0.208   6.233  3.0160 -1.0925  0.6811
 6217SOL    HW230285   1.011   0.070   6.205  0.6462 -0.7253  0.7124
 6218SOL     OW30286   2.434   1.653   5.266  0.2624  0.3960 -0.6859
 6218SOL    HW130287   2.440   1.689   5.355  1.1067 -0.6682 -0.3166
 6218SOL    HW230288   2.520   1.612   5.260 -1.2112 -2.7331 -0.6390
 6219SOL     OW30289   2.365   1.999  11.920 -0.3668 -0.5163  0.3922
 6219SOL    HW130290   2.366   2.086  11.881 -0.9876 -1.1161 -0.9650
 6219SOL    HW230291   2.365   2.014  12.014 -1.6267 -0.5735  0.4012
 6220SOL     OW30292   3.283   2.516  12.125  0.1117  0.3141 -0.1319
 6220SOL    HW130293   3.228   2.575  12.073 -0.3755  0.2691  0.3220
 6220SOL    HW230294   3.281   2.428  12.089  0.2316 -0.0604  0.7620
 6221SOL     OW30295   1.261   2.897   3.459 -0.1839 -0.2891 -0.2864
 6221SOL    HW130296   1.213   2.925   3.381  0.2290  0.3277 -0.3190
 6221SOL    HW230297   1.253   2.802   3.453  0.4597 -0.3637  0.0499
 6222SOL     OW30298   1.237   4.388   2.976  0.1881  0.2644 -0.3289
 6222SOL    HW130299   1.148   4.393   3.011  0.4188  1.3973  0.1020
 6222SOL    HW230300   1.222   4.302   2.937  1.1127  0.0161 -0.1441
 6223SOL     OW30301   1.818   2.926   3.285 -0.1728 -0.1054  0.0817
 6223SOL    HW130302   1.891   2.865   3.294  0.9497  1.2091 -0.1247
 6223SOL    HW230303   1.763   2.895   3.356 -1.9814 -0.0654 -1.2807
 6224SOL     OW30304   0.567   3.237   4.835  0.3116 -0.0998 -0.0432
 6224SOL    HW130305   0.594   3.183   4.909 -0.1253  1.0432  0.9410
 6224SOL    HW230306   0.539   3.171   4.771 -1.9324 -1.2311  2.1263
 6225SOL     OW30307   1.337   1.076   4.665  0.1435 -0.0501  0.2619
 6225SOL    HW130308   1.416   1.027   4.689 -0.0892 -0.4826  0.1454
 6225SOL    HW230309   1.372   1.135   4.598 -0.1215 -1.0926 -0.7977
 6226SOL     OW30310   1.165   1.848   9.438  0.3661  0.3961  0.1869
 6226SOL    HW130311   1.142   1.770   9.488  0.9064 -0.1819 -0.4619
 6226SOL    HW230312   1.176   1.811   9.350  1.1210  1.8191 -0.3165
 6227SOL     OW30313   4.086   0.926   3.186  0.6277 -0.0355 -0.2774
 6227SOL    HW130314   4.127   0.895   3.266 -1.2917 -3.1812 -0.4837
 6227SOL    HW230315   4.154   0.988   3.162  2.8026 -2.9311 -1.5728
 6228SOL     OW30316   2.683   4.233   3.020  0.2554 -0.2137 -1.1739
 6228SOL    HW130317   2.737   4.199   3.091  1.5399  1.4420 -1.3535
 6228SOL    HW230318   2.596   4.228   3.060  1.4940 -0.1739  1.5730
 6229SOL     OW30319   4.346   0.965  15.199  0.0200 -0.5137 -0.0685
 6229SOL    HW130320   4.358   0.926  15.112  0.3040  0.0937 -0.3052
 6229SOL    HW230321   4.305   0.893  15.246  1.3169 -0.2845  1.3929
 6230SOL     OW30322   0.057   2.784   7.266 -0.2658  0.2268  0.1099
 6230SOL    HW130323   0.085   2.724   7.335 -0.5497 -0.3269 -0.2584
 6230SOL    HW230324   0.037   2.722   7.196  0.3952 -1.1257  1.1253
 6231SOL     OW30325   0.602   0.629   0.453 -0.1849 -0.1753  0.0529
 6231SOL    HW130326   0.513   0.623   0.488  0.0205  1.5176  0.8793
 6231SOL    HW230327   0.623   0.538   0.432  2.0997  0.3003  0.3419
 6232SOL     OW30328   0.466   3.957   5.652 -0.4416 -0.3348  0.4366
 6232SOL    HW130329   0.408   3.884   5.676  0.4501 -1.3380 -0.4578
 6232SOL    HW230330   0.544   3.904   5.641 -0.0431  0.0768  1.2915
 6233SOL     OW30331   2.788   4.077   5.166  0.0175  0.1009 -0.0883
 6233SOL    HW130332   2.820   3.993   5.133 -1.0945 -0.2019 -0.3897
 6233SOL    HW230333   2.856   4.114   5.223 -1.0136  0.5637  0.8233
 6234SOL     OW30334   3.026   2.999   3.503 -0.2553  0.6692 -0.5969
 6234SOL    HW130335   3.070   2.969   3.423 -2.9486 -1.3232 -1.3625
 6234SOL    HW230336   2.940   3.023   3.469 -1.5196 -2.9362  0.0383
 6235SOL     OW30337   4.454   3.100   0.052 -0.0192  0.3231 -0.3941
 6235SOL    HW130338   4.388   3.082  17.739  1.2914  0.0776 -1.6075
 6235SOL    HW230339   4.536   3.085   0.005 -0.5618  1.9308 -1.8496
 6236SOL     OW30340   3.121   1.001   3.313  0.4741  0.0040  0.6897
 6236SOL    HW130341   3.179   1.074   3.294 -0.1157  0.7014  1.5286
 6236SOL    HW230342   3.044   1.032   3.266  0.0907 -0.8882  0.7295
 6237SOL     OW30343   1.891   2.786   8.426 -0.3699  0.2972  0.0197
 6237SOL    HW130344   1.957   2.854   8.441  0.1445 -0.1557 -0.1618
 6237SOL    HW230345   1.860   2.803   8.337 -0.4043 -1.1915 -0.2577
 6238SOL     OW30346   1.990   3.532   3.204  0.3424 -0.5316 -0.0768
 6238SOL    HW130347   2.024   3.473   3.271  0.4282  2.7887  2.8066
 6238SOL    HW230348   1.915   3.485   3.169 -0.5417  1.0015 -0.2620
 6239SOL     OW30349   2.482   2.113   7.493 -0.7694  0.0861  0.0212
 6239SOL    HW130350   2.418   2.140   7.559 -1.4093 -1.7403  0.1622
 6239SOL    HW230351   2.517   2.198   7.468  2.6816 -1.8213 -1.6859
 6240SOL     OW30352   2.992   1.920  10.189  0.4221  0.2049  0.8111
 6240SOL    HW130353   3.086   1.903  10.198  0.3939 -1.1293 -1.3732
 6240SOL    HW230354   2.961   1.905  10.278 -1.5060 -2.2238 -0.2658
 6241SOL     OW30355   0.915   0.188  15.352 -0.1303 -0.5926 -0.3250
 6241SOL    HW130356   0.910   0.230  15.437 -0.0059  0.3271 -0.7694
 6241SOL    HW230357   0.953   0.106  15.384  0.2919 -0.9324 -1.6736
 6242SOL     OW30358   2.383   0.621   7.861 -0.5653 -0.7252  0.2002
 6242SOL    HW130359   2.333   0.692   7.901  1.1897  1.7373 -1.9295
 6242SOL    HW230360   2.423   0.658   7.782  0.7730  1.3264  1.8469
 6243SOL     OW30361   3.240   0.201  15.158  0.3503 -0.6837 -0.2924
 6243SOL    HW130362   3.159   0.155  15.137  1.3166 -3.0481  1.2030
 6243SOL    HW230363   3.236   0.275  15.098 -0.6663  0.7199  1.5016
 6244SOL     OW30364   2.572   4.733   4.168  0.3388 -0.5501 -0.3796
 6244SOL    HW130365   2.570   4.638   4.180  0.9381 -0.1542  2.7777
 6244SOL    HW230366   2.479   0.007   4.149  0.5533  1.5251  0.0339
 6245SOL     OW30367   2.703   2.544   7.509 -0.6624 -0.7532  0.1772
 6245SOL    HW130368   2.637   2.562   7.576 -2.0718 -0.2835 -1.3417
 6245SOL    HW230369   2.780   2.588   7.545 -1.0684 -1.3148  1.7298
 6246SOL     OW30370   3.986   4.023  10.107 -0.0975 -0.4120  0.2536
 6246SOL    HW130371   4.032   4.048  10.026 -0.5268  1.2503  0.5098
 6246SOL    HW230372   3.928   4.099  10.107 -0.2539 -0.5390  2.9864
 6247SOL     OW30373   2.989   4.289   2.987  0.4221  0.2471 -0.4411
 6247SOL    HW130374   2.961   4.232   2.915 -0.6475  1.7043 -1.2011
 6247SOL    HW230375   2.998   4.368   2.933 -2.4639  2.9670  3.0602
 6248SOL     OW30376   3.063   1.687   9.505 -0.4085 -0.5867  0.2370
 6248SOL    HW130377   3.128   1.744   9.545  0.3313 -1.5694  0.4263
 6248SOL    HW230378   3.124   1.630   9.458 -0.3524  1.5709 -2.3251
 6249SOL     OW30379   2.923   3.367   6.681  1.3486 -0.2197  0.4387
 6249SOL    HW130380   2.993   3.425   6.651  0.2563  1.0696  0.3622
 6249SOL    HW230381   2.847   3.408   6.640  0.5718 -1.7749  0.3294
 6250SOL     OW30382   3.089   2.856   6.282 -0.7318 -0.3853  0.0161
 6250SOL    HW130383   3.129   2.821   6.363 -1.1317 -1.3716 -0.2114
 6250SOL    HW230384   3.144   2.816   6.214  1.0315  1.0021  0.6189
 6251SOL     OW30385   1.463   0.398   3.898 -0.1949 -1.0401 -0.1560
 6251SOL    HW130386   1.450   0.328   3.962 -3.2347 -0.3848 -0.0317
 6251SOL    HW230387   1.552   0.393   3.865  0.2783 -0.0914  0.9939
 6252SOL     OW30388   3.611   2.411  12.112 -0.2389 -0.0037  0.7220
 6252SOL    HW130389   3.583   2.502  12.114  1.3864  0.4567  2.2052
 6252SOL    HW230390   3.544   2.375  12.170  0.1239 -0.0968  1.0828
 6253SOL     OW30391   3.227   2.060   5.849 -0.3541  0.5586 -0.3710
 6253SOL    HW130392   3.132   2.059   5.840 -0.2079  0.1609 -1.7979
 6253SOL    HW230393   3.254   1.970   5.829 -3.1221 -0.1254 -1.0941
 6254SOL     OW30394   2.717   3.372   0.074 -0.2515 -0.1620  0.4135
 6254SOL    HW130395   2.653   3.403   0.009 -0.1679 -1.6247 -0.3753
 6254SOL    HW230396   2.782   3.341   0.011  0.7471  2.6508  0.0593
 6255SOL     OW30397   4.623   1.352   5.397 -0.0393  0.1457 -0.0585
 6255SOL    HW130398   4.700   1.316   5.441 -0.3964 -1.6773 -0.9157
 6255SOL    HW230399   4.611   1.417   5.465  2.2725 -0.5299  1.0043
 6256SOL     OW30400   1.320   2.557   3.411 -0.7313 -0.1773 -0.0300
 6256SOL    HW130401   1.229   2.579   3.428 -0.5187  0.7677 -0.0994
 6256SOL    HW230402   1.306   2.465   3.391 -2.4693 -0.2188  1.3803
 6257SOL     OW30403   3.490   2.805   9.826 -0.3682  0.1744  0.7370
 6257SOL    HW130404   3.572   2.828   9.782 -1.4538  2.2200 -0.2176
 6257SOL    HW230405   3.483   2.851   9.909 -4.0329  2.9137 -1.1048
 6258SOL     OW30406   4.084   3.710   6.444  0.3601 -0.3677 -0.3574
 6258SOL    HW130407   4.123   3.778   6.499  0.1216 -0.2533 -0.3302
 6258SOL    HW230408   4.135   3.731   6.365  1.6981 -3.1161 -0.2124
 6259SOL     OW30409   4.429   3.244   3.541  0.4902  0.5641  0.0512
 6259SOL    HW130410   4.438   3.331   3.579 -0.5477 -0.0615  1.7358
 6259SOL    HW230411   4.334   3.232   3.538  0.2457  2.1216  1.8192
 6260SOL     OW30412   3.511   2.318   2.356 -0.3112 -0.0369 -0.3057
 6260SOL    HW130413   3.517   2.233   2.311 -1.9852 -1.0927  1.4383
 6260SOL    HW230414   3.416   2.329   2.363 -0.3835 -1.1702  0.6252
 6261SOL     OW30415   3.377   0.227   0.618 -0.3582 -0.1192 -0.8743
 6261SOL    HW130416   3.369   0.132   0.623  1.2184 -0.1883  0.4152
 6261SOL    HW230417   3.287   0.248   0.596 -0.1261 -0.2475 -1.9511
 6262SOL     OW30418   4.117   2.884   6.241  0.0287 -0.9214  0.0743
 6262SOL    HW130419   4.102   2.790   6.235 -3.1764 -0.3648 -0.6473
 6262SOL    HW230420   4.187   2.884   6.307 -0.8623 -0.2503  1.0191
 6263SOL     OW30421   3.853   3.110   7.384  0.2309 -0.1653  0.2635
 6263SOL    HW130422   3.943   3.127   7.410 -0.0803  1.3779  0.3259
 6263SOL    HW230423   3.835   3.030   7.433 -0.8175  0.8595  1.5404
 6264SOL     OW30424   0.995   3.231  16.749  0.2514 -0.3694  0.4134
 6264SOL    HW130425   0.979   3.181  16.829 -1.0752 -0.8228 -0.1419
 6264SOL    HW230426   0.970   3.319  16.777 -0.7578 -0.0629 -1.4643
 6265SOL     OW30427   1.154   2.070   0.644  0.5873  0.8850  0.3141
 6265SOL    HW130428   1.107   2.070   0.727  1.2626  2.9415  0.6948
 6265SOL    HW230429   1.236   2.031   0.674  0.1596 -0.9968 -1.0067
 6266SOL     OW30430   1.309   2.759   5.128  0.3278 -0.0667  0.0220
 6266SOL    HW130431   1.384   2.807   5.093 -0.6660  1.2516 -0.2837
 6266SOL    HW230432   1.252   2.766   5.052 -0.0161 -1.0892  0.1850
 6267SOL     OW30433   0.195   4.443   6.984 -0.0540 -0.0515  0.3474
 6267SOL    HW130434   0.185   4.435   6.889  1.1665  1.6887  0.0762
 6267SOL    HW230435   0.276   4.493   6.984 -1.3496  2.0230 -1.7134
 6268SOL     OW30436   3.946   3.794   2.214  0.3703 -0.0916 -0.6277
 6268SOL    HW130437   3.892   3.815   2.138  1.3010 -0.3563 -1.3710
 6268SOL    HW230438   3.902   3.716   2.248 -2.7029  2.3615  1.0548
 6269SOL     OW30439   2.047   0.209   9.567  0.7944 -0.0887  0.1597
 6269SOL    HW130440   2.076   0.119   9.580 -3.1212 -1.1760  1.2757
 6269SOL    HW230441   2.075   0.244   9.652  1.2297  3.7655 -1.5686
 6270SOL     OW30442   0.776   3.386  16.435  0.2519 -0.2553  0.7774
 6270SOL    HW130443   0.859   3.352  16.469  0.6128 -0.3554 -0.2215
 6270SOL    HW230444   0.802   3.474  16.407 -1.7090  0.3423  0.8577
 6271SOL     OW30445   3.165   4.722   7.623 -0.4125 -0.1229 -0.0335
 6271SOL    HW130446   3.189   0.042   7.552  0.0808 -0.5988 -0.2617
 6271SOL    HW230447   3.204   0.028   7.698  1.3305  0.2936 -1.1818
 6272SOL     OW30448   4.275   4.541   8.078 -0.2684 -0.0826 -0.4210
 6272SOL    HW130449   4.200   4.600   8.075 -0.0906  0.0788 -1.8552
 6272SOL    HW230450   4.315   4.572   8.159  0.4645  0.2145 -0.8912
 6273SOL     OW30451   1.546   2.225   3.533  0.7406  0.2963 -0.6129
 6273SOL    HW130452   1.481   2.292   3.552  2.3701  1.9380 -0.8014
 6273SOL    HW230453   1.605   2.274   3.476  2.0576 -1.1103 -0.4669
 6274SOL     OW30454   2.040   0.843   8.090 -0.1239 -0.0223 -0.0364
 6274SOL    HW130455   2.098   0.915   8.119 -0.4225  0.3636 -0.4077
 6274SOL    HW230456   1.953   0.876   8.111 -0.2254 -0.1136 -0.3216
 6275SOL     OW30457   3.740   2.094   7.737 -0.1730 -0.4806  0.8397
 6275SOL    HW130458   3.748   2.020   7.677 -1.2120  1.0570 -1.1839
 6275SOL    HW230459   3.758   2.168   7.679  1.5671 -0.2901  1.6351
 6276SOL     OW30460   3.345   3.523   2.193  0.4823 -1.0202  0.1021
 6276SOL    HW130461   3.286   3.497   2.264 -1.4055  2.5767 -0.0838
 6276SOL    HW230462   3.428   3.477   2.200  0.9674 -0.6013 -3.1146
 6277SOL     OW30463   0.626   0.629  14.508 -0.1833  0.0455 -0.0165
 6277SOL    HW130464   0.565   0.697  14.482 -0.5341 -0.8396 -1.5316
 6277SOL    HW230465   0.574   0.551  14.489 -1.9901  1.4067 -0.6472
 6278SOL     OW30466   3.323   0.947   4.593 -0.5401 -0.4541  0.0189
 6278SOL    HW130467   3.228   0.961   4.587 -0.5939 -1.1349 -0.8481
 6278SOL    HW230468   3.334   0.896   4.673  0.2404  1.5560  1.1923
 6279SOL     OW30469   2.203   1.816   0.095 -0.0159 -0.0745 -0.0970
 6279SOL    HW130470   2.232   1.737   0.140 -3.3855 -0.7421  0.8877
 6279SOL    HW230471   2.223   1.797   0.003  0.9079  0.1863  0.0464
 6280SOL     OW30472   2.827   4.470   3.141  0.1239  0.3073  0.6224
 6280SOL    HW130473   2.869   4.408   3.081 -1.4813 -2.4219  2.3326
 6280SOL    HW230474   2.851   4.433   3.226  1.6962 -0.8658 -0.3313
 6281SOL     OW30475   1.198   2.426   1.305 -0.3106  0.4211 -0.1371
 6281SOL    HW130476   1.147   2.506   1.318 -0.3840  0.6749 -1.9757
 6281SOL    HW230477   1.221   2.427   1.212  2.2219  0.6800  0.4726
 6282SOL     OW30478   3.723   3.094   7.032  0.4625 -0.2524 -0.3627
 6282SOL    HW130479   3.674   3.176   7.027  1.3919  0.4627  2.3570
 6282SOL    HW230480   3.808   3.136   7.046  1.2951 -2.2685  0.6992
 6283SOL     OW30481   2.737   4.329   5.867 -0.1113  1.0933  0.6702
 6283SOL    HW130482   2.655   4.319   5.916 -0.1789 -1.1847  0.1352
 6283SOL    HW230483   2.802   4.271   5.908  1.4468  0.9300 -2.0280
 6284SOL     OW30484   0.327   1.516   6.975  0.1259  0.2697  0.5556
 6284SOL    HW130485   0.248   1.462   6.976  0.1575  0.1816 -1.5923
 6284SOL    HW230486   0.287   1.596   6.941 -0.0483 -0.6519 -1.3849
 6285SOL     OW30487   2.248   2.545   0.349 -0.1387  0.0026 -0.1049
 6285SOL    HW130488   2.179   2.488   0.316  0.4852 -0.3767 -0.7578
 6285SOL    HW230489   2.238   2.531   0.443 -0.5223  1.1851  0.0310
 6286SOL     OW30490   3.591   3.372   6.596  0.6432 -0.5584 -0.3992
 6286SOL    HW130491   3.543   3.454   6.605  0.0585 -0.9623  0.2141
 6286SOL    HW230492   3.676   3.395   6.559  1.4271  2.2567  3.1460
 6287SOL     OW30493   1.375   3.821   6.576 -0.0077 -0.4410  0.0108
 6287SOL    HW130494   1.317   3.768   6.522  0.7939 -0.4397 -0.8426
 6287SOL    HW230495   1.432   3.854   6.507  1.7231  0.7045  1.9923
 6288SOL     OW30496   2.155   1.049   7.494  0.3561  0.1747  0.1240
 6288SOL    HW130497   2.103   1.087   7.565  2.4262 -0.2612  1.8839
 6288SOL    HW230498   2.083   0.994   7.462  0.6804  0.2178 -0.6660
 6289SOL     OW30499   0.773   1.319   9.282  0.2655 -0.4375 -0.5150
 6289SOL    HW130500   0.749   1.394   9.335 -0.4376 -1.9176  1.2718
 6289SOL    HW230501   0.792   1.373   9.206 -1.1397  1.1513  0.2787
 6290SOL     OW30502   1.054   1.005   9.082  0.8091  0.4284  0.1724
 6290SOL    HW130503   0.975   1.058   9.084  0.0350 -0.6932 -1.6230
 6290SOL    HW230504   1.112   1.052   9.022  2.7146 -1.5546  0.4650
 6291SOL     OW30505   0.397   4.157   5.895 -0.6994 -0.2310  0.0729
 6291SOL    HW130506   0.402   4.126   5.804  0.7563  1.2233 -0.3452
 6291SOL    HW230507   0.490   4.169   5.909 -0.3498 -1.2705 -1.3304
 6292SOL     OW30508   2.362   3.374   5.111  0.2327 -0.1608 -0.0011
 6292SOL    HW130509   2.370   3.469   5.104 -0.6126  0.1416  3.0561
 6292SOL    HW230510   2.267   3.366   5.111  0.1360  0.8858  1.7823
 6293SOL     OW30511   0.303   2.755  16.250 -0.2688 -1.0562 -0.5424
 6293SOL    HW130512   0.283   2.735  16.158 -2.4304 -0.0690 -0.3053
 6293SOL    HW230513   0.219   2.760  16.296 -0.2957 -0.4477 -0.6534
 6294SOL     OW30514   4.352   2.692   6.590  0.2466  0.6350 -0.4570
 6294SOL    HW130515   4.398   2.700   6.507 -0.5545  0.8795 -0.8806
 6294SOL    HW230516   4.345   2.780   6.627 -0.3577 -0.2305  1.5323
 6295SOL     OW30517   3.093   0.013  11.951  0.3029  0.2211 -0.0180
 6295SOL    HW130518   3.078   4.659  11.968 -1.4970 -0.0255 -2.9657
 6295SOL    HW230519   3.154   4.737  11.879  0.0336  1.1171 -0.4344
 6296SOL     OW30520   3.232   2.692   8.410  0.1890  0.1101  0.2251
 6296SOL    HW130521   3.327   2.709   8.416  0.2122 -1.2678  3.6157
 6296SOL    HW230522   3.223   2.614   8.464 -0.4772  0.4039  0.5356
 6297SOL     OW30523   3.742   3.059   3.401 -1.2243 -0.0626  0.0706
 6297SOL    HW130524   3.687   2.981   3.391 -2.1855  0.4580  1.3616
 6297SOL    HW230525   3.788   3.034   3.481 -0.3950 -1.1294 -0.7408
 6298SOL     OW30526   4.314   2.650   1.287  0.0991  1.0644 -0.4924
 6298SOL    HW130527   4.279   2.641   1.376 -0.1110 -1.0468 -0.7883
 6298SOL    HW230528   4.270   2.580   1.238  1.3134  0.5582 -0.8480
 6299SOL     OW30529   3.456   0.015   6.139 -0.1628  0.1978  0.0667
 6299SOL    HW130530   3.414   4.703   6.208  2.5826 -1.3685  0.6042
 6299SOL    HW230531   3.413   4.708   6.066  0.8124 -0.0191 -0.3687
 6300SOL     OW30532   1.507   2.244   1.188  0.2711  0.3437 -0.3163
 6300SOL    HW130533   1.577   2.244   1.123  0.4289  1.5838 -0.1433
 6300SOL    HW230534   1.544   2.294   1.260  0.2154 -0.6236  0.3889
 6301SOL     OW30535   1.015   4.241   3.648  0.4472 -0.2870  0.2822
 6301SOL    HW130536   1.041   4.162   3.694  1.3140  2.3278  4.2536
 6301SOL    HW230537   1.077   4.305   3.683  1.4124 -1.4969  0.7688
 6302SOL     OW30538   4.285   3.766   2.591  0.2410 -0.2431  0.2010
 6302SOL    HW130539   4.275   3.777   2.496 -0.8934 -2.0035  0.1256
 6302SOL    HW230540   4.198   3.735   2.616  0.7871 -1.9579 -0.0031
 6303SOL     OW30541   3.054   2.574   0.501  0.2451  0.3098 -0.0801
 6303SOL    HW130542   3.060   2.662   0.465  3.1355 -0.5858 -1.8652
 6303SOL    HW230543   2.959   2.566   0.508  0.4668 -0.3565  2.0227
 6304SOL     OW30544   4.252   0.855   5.911 -0.3428  0.1434 -0.1766
 6304SOL    HW130545   4.254   0.888   5.821 -0.9251 -0.8974 -0.5746
 6304SOL    HW230546   4.169   0.807   5.903 -0.7572  0.8811 -0.2630
 6305SOL     OW30547   0.943   1.085   8.727  0.0516 -0.0915  0.0644
 6305SOL    HW130548   0.896   1.010   8.763 -1.7067  0.6882 -0.5927
 6305SOL    HW230549   0.907   1.159   8.777 -2.2608 -2.1281  1.3883
 6306SOL     OW30550   3.228   1.773   2.385  0.3258  0.4261  0.0101
 6306SOL    HW130551   3.278   1.836   2.332  1.5912 -1.6272 -1.2385
 6306SOL    HW230552   3.165   1.766   2.314  1.0436 -0.7585 -0.5019
 6307SOL     OW30553   4.697   2.567   5.740  0.0528  0.0442 -0.6270
 6307SOL    HW130554   0.006   2.502   5.792  0.6976 -0.0417 -1.3286
 6307SOL    HW230555   4.620   2.563   5.796 -0.5713  4.1598 -1.2342
 6308SOL     OW30556   1.180   0.801  10.685 -0.1251 -0.1479  0.6263
 6308SOL    HW130557   1.194   0.856  10.762  1.0007 -3.3433  2.7315
 6308SOL    HW230558   1.204   0.864  10.617 -1.7412 -0.7808 -0.5284
 6309SOL     OW30559   1.750   2.621   4.446  0.5703  0.3383  0.4096
 6309SOL    HW130560   1.784   2.535   4.422 -0.1632  0.5026 -1.2022
 6309SOL    HW230561   1.825   2.671   4.479  0.3607  0.7140  0.3214
 6310SOL     OW30562   4.061   1.354  15.872  0.1692  0.0726 -0.4815
 6310SOL    HW130563   4.107   1.391  15.797  1.4516  0.5970  0.5755
 6310SOL    HW230564   4.091   1.264  15.858  1.6916  0.8092 -1.9151
 6311SOL     OW30565   1.658   1.269  14.519  0.0671 -0.2744  0.4722
 6311SOL    HW130566   1.703   1.339  14.568  0.0175  1.0405 -1.3648
 6311SOL    HW230567   1.566   1.286  14.539 -0.0689  1.5817 -1.7137
 6312SOL     OW30568   1.410   1.965   2.940  0.2828 -0.5185 -0.0455
 6312SOL    HW130569   1.352   1.938   2.869 -0.8738  0.1704  0.6463
 6312SOL    HW230570   1.358   1.998   3.013  0.8524  0.1557  0.0624
 6313SOL     OW30571   3.877   2.212   0.071  0.3674  0.0656  0.1821
 6313SOL    HW130572   3.876   2.130   0.022 -0.9998 -0.5058  1.1744
 6313SOL    HW230573   3.791   2.252   0.058 -0.5855 -3.0621 -3.0164
 6314SOL     OW30574   3.416   0.291   9.297  0.6009  0.3453  0.4986
 6314SOL    HW130575   3.457   0.342   9.367  3.0427 -0.8288 -0.0441
 6314SOL    HW230576   3.334   0.288   9.346  0.7999  1.3232  0.8892
 6315SOL     OW30577   3.875   2.359  17.202  0.6368  0.0561 -0.6482
 6315SOL    HW130578   3.857   2.417  17.276  0.1922 -0.4707 -0.3391
 6315SOL    HW230579   3.857   2.275  17.245  0.5904  0.6302  0.4650
 6316SOL     OW30580   1.835   1.134   6.207 -0.2134  0.2021 -0.4430
 6316SOL    HW130581   1.744   1.156   6.190 -0.1494  0.6871 -0.1710
 6316SOL    HW230582   1.822   1.079   6.285 -1.1320 -1.7181 -1.9739
 6317SOL     OW30583   4.026   3.028  13.849 -0.1951  0.1121 -0.5808
 6317SOL    HW130584   4.087   3.070  13.789  2.9678 -3.1931  0.3020
 6317SOL    HW230585   3.971   3.105  13.863 -2.4232 -0.8217 -4.4492
 6318SOL     OW30586   4.205   3.339  12.143 -0.5790 -0.1476  0.7788
 6318SOL    HW130587   4.209   3.250  12.176 -0.1645 -1.1659 -1.9745
 6318SOL    HW230588   4.111   3.353  12.130 -0.4650 -3.2073 -3.4250
 6319SOL     OW30589   4.550   1.258   4.524  0.5420  0.4464 -0.1398
 6319SOL    HW130590   4.581   1.321   4.590 -4.2503  1.6551  0.9772
 6319SOL    HW230591   4.545   1.181   4.580 -0.8670  1.2363  0.8391
 6320SOL     OW30592   3.329   2.623   7.285 -0.8377 -0.0957 -0.0222
 6320SOL    HW130593   3.256   2.684   7.272 -0.1626  1.0494  1.4950
 6320SOL    HW230594   3.324   2.560   7.214 -0.1796 -0.1154 -0.0477
 6321SOL     OW30595   1.555   0.217   6.675  0.2981  0.8653 -0.4178
 6321SOL    HW130596   1.573   0.311   6.672 -0.9988  1.1440  0.3477
 6321SOL    HW230597   1.534   0.185   6.588 -0.5023  0.8121 -0.2042
 6322SOL     OW30598   3.310   2.829   0.477  0.2234 -0.4994  0.3795
 6322SOL    HW130599   3.400   2.797   0.476  1.1850  2.1336  1.8505
 6322SOL    HW230600   3.312   2.872   0.563  0.9308 -0.0562  0.1426
 6323SOL     OW30601   3.198   0.873  15.931  0.1405 -0.0822 -0.1787
 6323SOL    HW130602   3.183   0.946  15.992 -1.4636  0.4904 -1.2657
 6323SOL    HW230603   3.157   0.904  15.850 -3.2260 -0.5934  1.3637
 6324SOL     OW30604   0.806   4.457   8.286  1.0641  0.3399 -0.3662
 6324SOL    HW130605   0.877   4.427   8.342 -0.0235  0.8821  1.3166
 6324SOL    HW230606   0.816   4.551   8.304  0.1101  0.1276  1.3359
 6325SOL     OW30607   2.837   0.651  15.277  0.5040  0.2421 -0.1251
 6325SOL    HW130608   2.880   0.637  15.192  1.1717 -0.3642  0.3131
 6325SOL    HW230609   2.913   0.626  15.329  0.4125 -0.7631 -0.4612
 6326SOL     OW30610   1.459   4.731   2.449  0.7451  0.0232 -0.0190
 6326SOL    HW130611   1.541   4.690   2.477  0.4521  0.6499  1.7443
 6326SOL    HW230612   1.486   0.084   2.441 -0.6878  0.6318  2.1804
 6327SOL     OW30613   4.211   3.586   7.642  0.3590  0.2480 -0.6473
 6327SOL    HW130614   4.165   3.502   7.655 -0.1150  0.5786 -0.1693
 6327SOL    HW230615   4.135   3.643   7.657 -0.5069 -1.2180  0.6191
 6328SOL     OW30616   3.425   3.574   6.289  0.0306  0.2364 -0.0969
 6328SOL    HW130617   3.408   3.609   6.201  0.8997  0.4413 -0.1851
 6328SOL    HW230618   3.361   3.503   6.291  0.6567 -0.2803  1.8483
 6329SOL     OW30619   0.138   0.205  16.079  0.0056  0.0739 -0.8022
 6329SOL    HW130620   0.046   0.215  16.106  0.7088  0.8088  1.3533
 6329SOL    HW230621   0.122   0.221  15.986 -1.9835 -1.9082 -0.8276
 6330SOL     OW30622   2.123   3.156  12.348  0.1264  0.2757  0.4363
 6330SOL    HW130623   2.210   3.134  12.317 -0.7654 -0.9301 -1.2109
 6330SOL    HW230624   2.072   3.080  12.319  2.3528 -0.6198 -1.1164
 6331SOL     OW30625   0.137   0.821   6.751 -0.8717  0.1468 -0.3671
 6331SOL    HW130626   0.189   0.761   6.698  0.4563  2.0753 -1.2335
 6331SOL    HW230627   0.062   0.762   6.765 -0.0631 -0.8642 -0.3360
 6332SOL     OW30628   4.023   0.839  16.316  0.0628  0.2582  0.3613
 6332SOL    HW130629   4.059   0.781  16.383  1.4756  1.2250  0.4367
 6332SOL    HW230630   3.942   0.794  16.292  0.5295  0.6592 -1.9492
 6333SOL     OW30631   2.317   4.351   7.614  0.0731  0.0479 -0.0056
 6333SOL    HW130632   2.285   4.314   7.532  1.7182 -1.2008 -0.0813
 6333SOL    HW230633   2.298   4.280   7.675 -1.8463  0.4531 -0.1311
 6334SOL     OW30634   1.156   2.265   5.052  0.4666 -0.0890  0.0833
 6334SOL    HW130635   1.087   2.292   5.112 -0.1865  0.1356 -0.7579
 6334SOL    HW230636   1.170   2.345   5.000  1.4047 -0.4281 -0.1966
 6335SOL     OW30637   2.655   2.785   9.214 -0.1387  0.0790 -0.0894
 6335SOL    HW130638   2.566   2.755   9.231 -1.1028  2.4292 -1.1569
 6335SOL    HW230639   2.647   2.813   9.123 -2.2155  1.1910  0.4428
 6336SOL     OW30640   2.301   3.592   2.865  0.2691  0.6294  0.3237
 6336SOL    HW130641   2.264   3.538   2.935 -1.8619  2.1054  0.3145
 6336SOL    HW230642   2.254   3.674   2.875 -2.9985 -1.2774  0.4803
 6337SOL     OW30643   2.585   3.008   2.812  0.4061  0.6747  0.1628
 6337SOL    HW130644   2.610   3.081   2.868 -0.7203  0.3563  1.0911
 6337SOL    HW230645   2.583   2.936   2.876 -0.7404  1.8791  1.4768
 6338SOL     OW30646   0.553   1.020  16.975 -0.1644 -0.0719  0.1888
 6338SOL    HW130647   0.535   0.985  16.887 -2.0173 -0.3348  0.6859
 6338SOL    HW230648   0.602   0.952  17.022 -0.3046 -0.6781 -0.5449
 6339SOL     OW30649   1.110   2.091  12.874  0.0726  0.6320 -0.3758
 6339SOL    HW130650   1.136   2.086  12.782 -2.0397 -1.0601 -0.8932
 6339SOL    HW230651   1.149   2.009  12.903 -2.7857 -0.1708  1.2243
 6340SOL     OW30652   2.725   0.246   9.292  0.1125 -0.6249 -0.3529
 6340SOL    HW130653   2.820   0.233   9.293  0.3013  0.8561  0.9790
 6340SOL    HW230654   2.727   0.309   9.219 -1.0207 -1.8718 -1.4650
 6341SOL     OW30655   3.886   3.982   6.367 -0.1207  0.0379 -0.5215
 6341SOL    HW130656   3.838   3.999   6.448  0.3181 -3.8859  0.5691
 6341SOL    HW230657   3.813   3.976   6.305  0.4048  0.9038 -1.2153
 6342SOL     OW30658   4.553   3.333   7.996  0.8416  0.1004 -0.3520
 6342SOL    HW130659   4.525   3.383   7.919  0.5713  0.0657 -0.2776
 6342SOL    HW230660   4.470   3.330   8.044 -0.1980  1.4276 -2.0301
 6343SOL     OW30661   3.040   4.710  16.297 -0.4927  0.5358 -0.4051
 6343SOL    HW130662   2.959   0.004  16.257 -0.6526  0.6183 -0.0106
 6343SOL    HW230663   3.012   4.723  16.388  0.5878 -0.1758  0.0251
 6344SOL     OW30664   1.959   0.382   4.988 -0.4837 -0.2933 -0.0943
 6344SOL    HW130665   1.914   0.313   4.940 -3.4792  0.6797  1.3240
 6344SOL    HW230666   1.903   0.458   4.975  0.7943  0.5046 -1.0108
 6345SOL     OW30667   0.387   2.641  15.192 -0.7150 -0.3617  0.9217
 6345SOL    HW130668   0.472   2.598  15.188 -1.3212 -1.5894  1.1550
 6345SOL    HW230669   0.380   2.626  15.287 -1.1063 -3.1327  0.4511
 6346SOL     OW30670   3.903   3.234   1.336  0.3043 -0.0820  0.5195
 6346SOL    HW130671   3.933   3.171   1.270 -0.3428 -1.0437  1.1304
 6346SOL    HW230672   3.856   3.304   1.291 -0.7722 -0.0247  1.7295
 6347SOL     OW30673   1.820   2.022   6.355  0.2499  0.7272  0.2941
 6347SOL    HW130674   1.880   1.997   6.285 -1.3087 -1.9590 -0.0808
 6347SOL    HW230675   1.879   2.016   6.430 -1.6805  1.6004  1.8753
 6348SOL     OW30676   2.752   1.194   3.475  0.9028  0.2695  0.5896
 6348SOL    HW130677   2.713   1.113   3.505  0.0436 -0.3573 -2.1991
 6348SOL    HW230678   2.695   1.264   3.508  0.3866 -1.0665  2.5269
 6349SOL     OW30679   0.930   2.788   5.299 -0.4425 -0.3244 -0.0556
 6349SOL    HW130680   0.929   2.857   5.233  0.6026 -1.4066 -1.2100
 6349SOL    HW230681   0.923   2.833   5.383  0.7533  0.4164 -0.3547
 6350SOL     OW30682   2.269   2.159   4.097  0.0842 -0.1813 -0.6181
 6350SOL    HW130683   2.297   2.108   4.173 -0.8574  0.3912  0.1098
 6350SOL    HW230684   2.210   2.089   4.068  0.8778 -0.2544 -2.0722
 6351SOL     OW30685   1.696   2.112   4.502  0.4371  0.8205 -0.3256
 6351SOL    HW130686   1.643   2.061   4.563  0.6484 -1.6252 -2.1994
 6351SOL    HW230687   1.627   2.126   4.437 -0.8939 -0.3289  0.8525
 6352SOL     OW30688   3.489   3.322   5.346  0.3646 -0.7459  0.1147
 6352SOL    HW130689   3.477   3.412   5.378 -2.0791 -1.1143  0.2661
 6352SOL    HW230690   3.581   3.339   5.328  1.0074 -1.4787  2.7198
 6353SOL     OW30691   4.082   2.179  13.440 -0.0044  0.4332 -0.1044
 6353SOL    HW130692   4.152   2.242  13.424 -0.3676  0.5447 -1.2679
 6353SOL    HW230693   4.108   2.147  13.526  0.9475 -2.4531 -1.4840
 6354SOL     OW30694   0.274   3.391   9.071  0.3777  0.3637  0.4560
 6354SOL    HW130695   0.310   3.375   8.984  0.0060  1.2595  0.1420
 6354SOL    HW230696   0.199   3.332   9.071 -0.1079  0.9872  1.4044
 6355SOL     OW30697   2.978   3.430  14.755  0.7618 -0.1082  0.5323
 6355SOL    HW130698   2.885   3.427  14.731  1.1029  0.4207 -0.8130
 6355SOL    HW230699   3.003   3.377  14.680 -0.8270 -3.0786  2.0689
 6356SOL     OW30700   2.241   4.217   3.026  0.0761 -0.1240  0.5000
 6356SOL    HW130701   2.166   4.159   3.042  1.4201 -1.6456  1.2572
 6356SOL    HW230702   2.205   4.302   3.053  1.4800  1.2672 -2.0424
 6357SOL     OW30703   1.336   2.941   5.935 -0.3391  0.5563 -0.1579
 6357SOL    HW130704   1.262   2.990   5.971 -2.0649 -1.0675 -1.5352
 6357SOL    HW230705   1.390   2.932   6.014  1.8356  3.1544 -1.3539
 6358SOL     OW30706   3.766   0.404   3.762  0.1986 -0.3999  0.5607
 6358SOL    HW130707   3.725   0.343   3.823 -2.9199  0.5270 -0.6055
 6358SOL    HW230708   3.703   0.475   3.774  1.9980  1.1027  1.0961
 6359SOL     OW30709   3.724   3.399   6.150  0.5217 -0.1906  0.0471
 6359SOL    HW130710   3.788   3.453   6.198  0.1854 -0.6211  0.9891
 6359SOL    HW230711   3.759   3.311   6.138  0.8482 -0.2996  1.7360
 6360SOL     OW30712   1.148   0.512  16.845  0.0460  0.4527  0.0091
 6360SOL    HW130713   1.134   0.572  16.918 -1.6464  2.8053 -2.2557
 6360SOL    HW230714   1.196   0.567  16.782 -1.1799  2.3701  0.7505
 6361SOL     OW30715   4.498   1.117   4.251 -0.0320 -0.1224 -0.5100
 6361SOL    HW130716   4.464   1.203   4.224  0.4718  0.4274  0.5698
 6361SOL    HW230717   4.505   1.131   4.345 -2.5132  3.0689 -0.8024
 6362SOL     OW30718   0.695   2.462   9.133 -0.0285 -0.3835  0.1594
 6362SOL    HW130719   0.749   2.447   9.210  2.5101 -3.1329 -2.1779
 6362SOL    HW230720   0.747   2.419   9.065  1.6743 -0.0827  1.2840
 6363SOL     OW30721   1.510   4.723  13.599  0.4861  0.5417 -0.5275
 6363SOL    HW130722   1.473   0.054  13.545 -0.9606  1.1220  1.2127
 6363SOL    HW230723   1.592   4.698  13.556  0.3843 -1.7723  0.6087
 6364SOL     OW30724   3.476   2.367   8.327  0.4248 -0.0390 -0.0662
 6364SOL    HW130725   3.562   2.384   8.290  1.0522  0.9712  1.9222
 6364SOL    HW230726   3.417   2.347   8.254  0.4943  0.7124 -0.3255
 6365SOL     OW30727   3.188   1.793   3.301  0.6732  0.2432  0.4042
 6365SOL    HW130728   3.272   1.767   3.339  0.1640 -3.4989 -1.0295
 6365SOL    HW230729   3.147   1.707   3.297 -0.3092  0.8209 -1.8229
 6366SOL     OW30730   1.731   0.709   0.790  0.0623 -0.1790 -0.7719
 6366SOL    HW130731   1.815   0.717   0.745  0.2352 -1.8709 -0.7568
 6366SOL    HW230732   1.706   0.623   0.755  1.6574 -0.2185 -1.7969
 6367SOL     OW30733   4.339   2.703   8.025  0.3195  0.1757  0.0324
 6367SOL    HW130734   4.330   2.731   8.116  2.6514 -1.7537  0.8402
 6367SOL    HW230735   4.362   2.789   7.990 -1.2908  0.7183  0.3168
 6368SOL     OW30736   4.467   3.480   7.761  0.8439  1.0076  0.4756
 6368SOL    HW130737   4.396   3.535   7.729  0.0088 -0.6083 -0.4463
 6368SOL    HW230738   4.544   3.536   7.776 -0.1803  3.0941 -2.0745
 6369SOL     OW30739   1.732   3.923   8.054 -0.4085 -0.4179  0.0227
 6369SOL    HW130740   1.647   3.895   8.022  0.2277 -1.1630 -1.0265
 6369SOL    HW230741   1.711   4.012   8.084  0.3614  0.2274 -1.3558
 6370SOL     OW30742   4.330   1.012  10.743  0.2367  0.4720  0.0597
 6370SOL    HW130743   4.383   1.012  10.822 -1.5792  2.5063  1.2839
 6370SOL    HW230744   4.240   1.009  10.776  0.2210  1.3854  0.0882
 6371SOL     OW30745   2.375   3.048   3.476 -0.4545 -0.5414 -0.2373
 6371SOL    HW130746   2.359   3.032   3.569 -0.8389 -1.5949 -0.4800
 6371SOL    HW230747   2.297   3.002   3.443 -1.1776 -0.0941  0.8514
 6372SOL     OW30748   1.356   2.754   4.787  0.5220  0.0634 -0.1872
 6372SOL    HW130749   1.282   2.713   4.741  0.8413 -0.9981  0.2521
 6372SOL    HW230750   1.428   2.730   4.728 -1.6414 -0.9781 -2.4474
 6373SOL     OW30751   0.250   0.655   2.619  0.5866 -0.1895 -0.5224
 6373SOL    HW130752   0.209   0.670   2.535 -0.2086  0.4525 -0.0142
 6373SOL    HW230753   0.175   0.640   2.677 -0.1313 -3.3206 -2.2137
 6374SOL     OW30754   3.506   1.014   9.124 -0.4739 -0.1052  0.0296
 6374SOL    HW130755   3.563   1.022   9.048 -0.6840 -0.6645 -0.1850
 6374SOL    HW230756   3.460   0.934   9.101 -0.8874 -0.5429  2.3649
 6375SOL     OW30757   4.683   2.877   4.427 -0.4425 -0.4523 -0.1317
 6375SOL    HW130758   4.625   2.930   4.372 -0.1777  0.5207  0.5352
 6375SOL    HW230759   4.623   2.815   4.469 -0.0537 -0.9025 -0.2507
 6376SOL     OW30760   2.547   4.273   6.728 -0.1526 -0.6078 -0.8426
 6376SOL    HW130761   2.473   4.241   6.779  0.2031 -1.1012 -0.6255
 6376SOL    HW230762   2.610   4.201   6.733  0.2899 -0.3185 -2.2088
 6377SOL     OW30763   3.113   1.774   2.875 -0.4361  0.3364  0.4881
 6377SOL    HW130764   3.179   1.820   2.823  1.5481 -2.1231  0.8780
 6377SOL    HW230765   3.063   1.850   2.906 -0.5861 -0.0150  1.1062
 6378SOL     OW30766   3.912   0.018   3.712 -0.4122 -0.7201  0.5005
 6378SOL    HW130767   3.981   4.715   3.763  0.7993 -1.1633 -1.5353
 6378SOL    HW230768   3.917   0.112   3.729 -2.0858 -0.5096 -0.1504
 6379SOL     OW30769   2.105   1.283  10.661 -0.5703 -0.5630  0.1251
 6379SOL    HW130770   2.145   1.367  10.641  0.5825 -0.9786  0.6991
 6379SOL    HW230771   2.110   1.280  10.757 -0.6556  1.1988  0.1872
 6380SOL     OW30772   1.997   3.504   5.656 -0.0411  0.4196  0.0592
 6380SOL    HW130773   2.081   3.526   5.617 -0.5561  0.7646 -0.8436
 6380SOL    HW230774   1.946   3.482   5.578  1.2311  0.4860 -0.7961
 6381SOL     OW30775   2.813   3.750   1.118 -0.5614  0.0658 -0.3102
 6381SOL    HW130776   2.906   3.768   1.128 -0.6450  1.0515 -1.2739
 6381SOL    HW230777   2.790   3.726   1.208  1.6051 -1.3823 -0.1498
 6382SOL     OW30778   1.227   0.553   9.420 -0.2130 -0.1654 -0.7038
 6382SOL    HW130779   1.310   0.578   9.461 -1.4262  2.2485  0.2928
 6382SOL    HW230780   1.195   0.636   9.386 -0.2119  0.6947  1.4010
 6383SOL     OW30781   1.203   1.443   2.406  0.2192 -0.1512 -0.2546
 6383SOL    HW130782   1.108   1.451   2.404  0.3315  1.0282 -0.8759
 6383SOL    HW230783   1.226   1.440   2.313 -1.2603 -1.2813 -0.5786
 6384SOL     OW30784   0.958   3.722   2.907 -0.2398 -0.2734 -0.3638
 6384SOL    HW130785   0.953   3.633   2.942  0.4225  0.1028  0.6769
 6384SOL    HW230786   0.940   3.770   2.987 -1.3197  1.5904 -1.7281
 6385SOL     OW30787   0.018   0.160   7.305  0.7313  0.1709  0.3915
 6385SOL    HW130788   0.078   0.229   7.274  0.7782 -0.3739 -0.7460
 6385SOL    HW230789   4.704   0.212   7.366  0.4102  1.9866 -1.4168
 6386SOL     OW30790   0.088   1.187   7.364 -0.6802  0.1331  0.2899
 6386SOL    HW130791   0.162   1.157   7.311 -0.9663 -1.1434  0.6057
 6386SOL    HW230792   0.011   1.156   7.317  0.0754 -0.2387 -0.7082
 6387SOL     OW30793   0.331   0.350   2.394  0.1791 -0.8173  0.7268
 6387SOL    HW130794   0.357   0.270   2.440 -0.0499  0.0445  2.3890
 6387SOL    HW230795   0.287   0.307   2.321 -0.3679  1.1759 -0.1194
 6388SOL     OW30796   0.285   4.178   7.284 -0.1253 -0.3550  0.0540
 6388SOL    HW130797   0.235   4.184   7.202 -0.4727  2.1875  0.4303
 6388SOL    HW230798   0.359   4.125   7.256 -1.7286 -1.8757 -1.2997
 6389SOL     OW30799   1.713   3.705   8.586 -0.0534  0.0177  0.3189
 6389SOL    HW130800   1.655   3.636   8.552 -1.3082  1.2076  0.0223
 6389SOL    HW230801   1.743   3.747   8.505 -0.7482 -1.3625 -0.6633
 6390SOL     OW30802   4.214   1.532   6.930 -0.1772  0.0207 -0.2994
 6390SOL    HW130803   4.237   1.624   6.937 -1.0915  0.2368 -0.1653
 6390SOL    HW230804   4.205   1.513   7.024  0.5383 -0.0333 -0.2418
 6391SOL     OW30805   2.577   3.497   4.694  0.3430  0.0894 -0.4193
 6391SOL    HW130806   2.527   3.535   4.766 -2.2334  0.4033 -2.3902
 6391SOL    HW230807   2.650   3.560   4.691 -0.0794  0.5611 -0.8261
 6392SOL     OW30808   1.157   2.083   6.289 -0.4691 -0.0702  0.1677
 6392SOL    HW130809   1.107   2.005   6.312 -0.2588  0.1641  1.4555
 6392SOL    HW230810   1.104   2.144   6.342 -1.2648 -0.7701  0.1645
 6393SOL     OW30811   3.430   2.756   5.778 -0.1223 -0.0111  0.5414
 6393SOL    HW130812   3.519   2.745   5.745  0.2906  1.9535  1.0158
 6393SOL    HW230813   3.427   2.684   5.841  0.7307 -1.3849 -0.9741
 6394SOL     OW30814   2.646   3.652  14.804  0.5130 -0.1690 -0.4244
 6394SOL    HW130815   2.671   3.560  14.800 -2.4578 -1.0642  1.2543
 6394SOL    HW230816   2.647   3.654  14.899  0.0065  0.5778 -0.4390
 6395SOL     OW30817   1.701   0.073  11.313  0.0200 -0.3895 -0.0610
 6395SOL    HW130818   1.686   0.151  11.367 -1.3054 -0.0876 -0.8458
 6395SOL    HW230819   1.669   0.092  11.224 -1.5210 -0.0266  0.5714
 6396SOL     OW30820   3.965   3.106  16.851 -0.2252  0.3542 -0.0059
 6396SOL    HW130821   3.898   3.156  16.803 -1.4648 -1.8688 -0.6066
 6396SOL    HW230822   4.001   3.056  16.778 -1.6910 -1.1855  0.3336
 6397SOL     OW30823   2.198   3.135   4.761 -0.2920 -0.8104  0.5999
 6397SOL    HW130824   2.209   3.044   4.732  1.9086  0.4062 -2.3557
 6397SOL    HW230825   2.104   3.154   4.760 -0.0244  0.5048  1.8561
 6398SOL     OW30826   1.746   2.827   5.934 -0.1156  0.3834  0.1430
 6398SOL    HW130827   1.772   2.871   5.853  0.5684 -0.1156  0.0939
 6398SOL    HW230828   1.682   2.887   5.973 -0.5671  0.3995 -0.6235
 6399SOL     OW30829   3.374   3.447  17.332  0.9432 -0.5823  0.5893
 6399SOL    HW130830   3.405   3.469  17.244  0.4267 -1.1313  0.2673
 6399SOL    HW230831   3.437   3.495  17.386  0.5104  0.4202  0.2072
 6400SOL     OW30832   4.075   1.225   0.679 -0.3459 -0.1389  0.0850
 6400SOL    HW130833   4.095   1.288   0.609  0.4612 -0.3939  0.0843
 6400SOL    HW230834   4.044   1.149   0.630 -0.5996 -0.3210  0.5296
 6401SOL     OW30835   1.724   2.679   6.648 -0.3362 -0.9630 -0.0943
 6401SOL    HW130836   1.776   2.744   6.694 -0.0192 -1.1926 -0.1230
 6401SOL    HW230837   1.793   2.613   6.646  1.3331  0.7791  0.1726
 6402SOL     OW30838   0.618   0.136   9.422 -0.4262  0.4109 -0.2893
 6402SOL    HW130839   0.593   0.154   9.512 -1.5553 -0.4806 -0.4202
 6402SOL    HW230840   0.544   0.181   9.380 -0.7275  0.5067  0.3524
 6403SOL     OW30841   3.098   0.126   7.133  0.0054  0.3856  0.1407
 6403SOL    HW130842   3.046   0.206   7.137 -0.7390 -0.0500 -0.7881
 6403SOL    HW230843   3.117   0.115   7.040  0.1198 -2.6114  0.4945
 6404SOL     OW30844   1.909   3.747   7.699  0.3386 -0.0945  0.4051
 6404SOL    HW130845   2.003   3.753   7.710  0.0944 -0.5118  2.6598
 6404SOL    HW230846   1.906   3.651   7.690 -1.2111  0.0276 -0.3943
 6405SOL     OW30847   3.251   1.610   6.858  0.4358  0.2234 -0.1066
 6405SOL    HW130848   3.181   1.545   6.867  1.1714 -0.3823  1.3956
 6405SOL    HW230849   3.303   1.588   6.781  0.3163  3.0628 -1.0088
 6406SOL     OW30850   2.921   1.153   7.683 -0.4470  0.3089 -0.3269
 6406SOL    HW130851   2.857   1.222   7.695  1.6480  1.6147  3.2634
 6406SOL    HW230852   2.888   1.088   7.746  0.1165 -0.3157 -0.6711
 6407SOL     OW30853   1.385   1.572  13.726 -0.0383  0.4237 -0.4369
 6407SOL    HW130854   1.369   1.633  13.798 -0.9764  0.8943 -1.0394
 6407SOL    HW230855   1.319   1.505  13.742  0.6741  0.0355  0.8377
 6408SOL     OW30856   3.142   0.121   1.529 -0.3342 -0.4174  0.3245
 6408SOL    HW130857   3.132   0.149   1.438  1.9625 -3.8401 -0.9758
 6408SOL    HW230858   3.173   0.031   1.527  0.0052 -0.3745  3.3288
 6409SOL     OW30859   4.654   2.044   5.226 -0.1827  0.0983  0.1459
 6409SOL    HW130860   4.735   2.030   5.176 -0.2599  0.7881 -0.1773
 6409SOL    HW230861   4.658   2.140   5.231 -0.0387  0.1513 -0.9123
 6410SOL     OW30862   1.506   0.967   4.410  0.6229  0.4455 -0.1987
 6410SOL    HW130863   1.565   1.037   4.382  0.2862  0.5762 -0.5627
 6410SOL    HW230864   1.547   0.941   4.493  0.3201  0.4891 -0.0387
 6411SOL     OW30865   3.950   1.336   7.656  0.1512 -0.5733  0.3317
 6411SOL    HW130866   3.911   1.385   7.729  2.2179 -0.5011  1.3764
 6411SOL    HW230867   3.948   1.400   7.584 -1.0158  0.2695  1.1112
 6412SOL     OW30868   2.556   1.984   9.825 -0.2300 -0.0503  0.1147
 6412SOL    HW130869   2.625   1.942   9.876  0.5161  2.3391  1.0273
 6412SOL    HW230870   2.516   1.904   9.789 -1.7961  1.3476 -1.2537
 6413SOL     OW30871   0.779   4.644   5.552 -0.1199 -0.0693 -0.1079
 6413SOL    HW130872   0.732   4.724   5.575 -2.9180 -1.9689  0.7583
 6413SOL    HW230873   0.816   4.623   5.639  0.7711 -1.1625 -0.7424
 6414SOL     OW30874   3.866   4.122   3.354 -0.0841  0.4759 -0.6408
 6414SOL    HW130875   3.925   4.194   3.331 -0.0047  0.5480 -0.2142
 6414SOL    HW230876   3.937   4.059   3.364 -0.3365 -0.1439 -2.7257
 6415SOL     OW30877   3.609   3.521   5.907  0.3337  0.3820 -0.3255
 6415SOL    HW130878   3.682   3.508   5.969 -0.7806  0.9639  1.0978
 6415SOL    HW230879   3.543   3.549   5.970 -0.5724 -3.4688  0.4333
 6416SOL     OW30880   0.789   0.042   5.882 -0.6019  0.2106 -0.1721
 6416SOL    HW130881   0.815   4.688   5.882  2.2043  1.0073 -0.5218
 6416SOL    HW230882   0.739   0.042   5.963 -0.7545 -1.6432 -0.2502
 6417SOL     OW30883   1.736   3.728   0.836 -0.2122  0.1462 -0.6012
 6417SOL    HW130884   1.716   3.636   0.852  2.1107 -0.3059 -0.4433
 6417SOL    HW230885   1.732   3.760   0.927 -1.6951  0.5100 -0.7876
 6418SOL     OW30886   3.601   0.357   2.344  0.2805 -0.5073 -0.3439
 6418SOL    HW130887   3.657   0.382   2.417 -2.0019 -1.3134  1.7115
 6418SOL    HW230888   3.560   0.278   2.378 -0.0684  0.1418  0.7591
 6419SOL     OW30889   4.714   3.126   8.051  0.4810 -0.2267 -0.1659
 6419SOL    HW130890   4.639   3.183   8.034  1.9273  1.4221 -1.0392
 6419SOL    HW230891   4.691   3.042   8.012 -0.7867  0.1227 -0.1751
 6420SOL     OW30892   2.555   0.869   1.753  0.2778  0.0676 -0.7408
 6420SOL    HW130893   2.607   0.815   1.813  0.2951  0.9730  0.0680
 6420SOL    HW230894   2.593   0.956   1.764 -0.9875  0.8834 -2.7660
 6421SOL     OW30895   2.250   0.548   9.092 -0.3161 -0.5202  0.2114
 6421SOL    HW130896   2.161   0.518   9.074 -0.6668  1.1750 -0.8601
 6421SOL    HW230897   2.226   0.637   9.114  1.7116  0.5372 -1.8583
 6422SOL     OW30898   0.120   0.761   3.766  0.1280  0.1044 -0.0373
 6422SOL    HW130899   0.188   0.815   3.807  1.4420 -0.1864 -1.8529
 6422SOL    HW230900   0.146   0.671   3.785  1.0720  0.4382  0.2116
 6423SOL     OW30901   0.384   3.153   6.087 -0.0533 -0.4589 -0.1405
 6423SOL    HW130902   0.436   3.176   6.163  0.0310 -1.6966  0.1868
 6423SOL    HW230903   0.412   3.061   6.084  0.4550 -0.3390  1.2157
 6424SOL     OW30904   3.308   1.998   2.246 -0.7564  0.1140  0.3250
 6424SOL    HW130905   3.221   2.032   2.266 -1.0715 -0.5022  0.0042
 6424SOL    HW230906   3.335   2.064   2.181 -0.9435  0.5233  0.6603
 6425SOL     OW30907   0.474   2.265   4.646  0.2035  0.3218  0.3705
 6425SOL    HW130908   0.433   2.199   4.703  0.4719 -0.6657 -0.5842
 6425SOL    HW230909   0.524   2.323   4.703 -1.9574  1.6088  0.9755
 6426SOL     OW30910   0.566   0.557   3.220 -0.4706  0.4236  0.7316
 6426SOL    HW130911   0.536   0.466   3.228  0.9013 -0.0165  0.7989
 6426SOL    HW230912   0.565   0.569   3.125  2.8810  0.8562  0.7636
 6427SOL     OW30913   3.008   3.146   1.791 -0.4270  0.3230 -0.1669
 6427SOL    HW130914   2.935   3.096   1.756  1.4673 -1.8284 -1.0821
 6427SOL    HW230915   2.982   3.146   1.883 -1.8076 -2.6892 -0.5412
 6428SOL     OW30916   3.724   1.348   6.241 -0.1261  0.6401 -0.4266
 6428SOL    HW130917   3.639   1.386   6.260  0.3858  0.2084  2.7083
 6428SOL    HW230918   3.750   1.398   6.164 -0.5131  0.5599 -0.6049
 6429SOL     OW30919   4.496   0.657   7.567 -0.2736  0.2376  0.4613
 6429SOL    HW130920   4.444   0.703   7.501  1.5386  0.5564 -0.7737
 6429SOL    HW230921   4.577   0.641   7.517 -0.6494  0.2798 -0.1618
 6430SOL     OW30922   0.141   4.374   9.066 -0.1565  0.2301  0.7649
 6430SOL    HW130923   0.213   4.311   9.058  1.0289  1.3548  2.5642
 6430SOL    HW230924   0.095   4.313   9.124  0.9907  0.3063  1.7438
 6431SOL     OW30925   2.329   4.475  15.421  0.2156  0.0075  0.4491
 6431SOL    HW130926   2.329   4.528  15.341  1.0443  0.7184  0.9242
 6431SOL    HW230927   2.290   4.537  15.483  1.3629  3.0501 -1.8335
 6432SOL     OW30928   2.233   4.118   7.738 -0.0375  0.0542  0.5045
 6432SOL    HW130929   2.278   4.037   7.712 -1.1872 -0.4566  0.0857
 6432SOL    HW230930   2.141   4.092   7.742  0.0093 -0.1956  0.0175
 6433SOL     OW30931   4.104   2.598  12.719 -0.1247  0.1831  0.4153
 6433SOL    HW130932   4.021   2.637  12.691 -1.2270 -3.5176 -1.5318
 6433SOL    HW230933   4.068   2.526  12.770  0.2715 -0.9831 -0.9443
 6434SOL     OW30934   0.606   3.092   5.067 -0.1048 -0.2614 -0.4850
 6434SOL    HW130935   0.647   3.142   5.137  1.0701 -1.8422 -0.0549
 6434SOL    HW230936   0.513   3.083   5.087 -0.2480 -0.4596 -1.2157
 6435SOL     OW30937   0.123   4.108   2.672 -0.5694  0.0843 -0.2081
 6435SOL    HW130938   0.029   4.095   2.670 -0.5755 -0.2548  1.8112
 6435SOL    HW230939   0.128   4.185   2.615 -0.8613 -0.6164 -1.1695
 6436SOL     OW30940   3.183   2.859  12.497 -0.0271  0.0719 -0.2993
 6436SOL    HW130941   3.208   2.854  12.590  0.9742 -0.6623 -0.6090
 6436SOL    HW230942   3.248   2.918  12.459  0.2395  0.8202  1.2870
 6437SOL     OW30943   4.384   1.494  14.341 -0.3349  0.6482  0.2637
 6437SOL    HW130944   4.362   1.538  14.259 -1.9221 -1.8362 -0.6554
 6437SOL    HW230945   4.400   1.574  14.391 -0.9508  0.3081  1.0018
 6438SOL     OW30946   1.086   1.726  13.690 -0.0040  0.3941 -0.7436
 6438SOL    HW130947   1.151   1.754  13.754 -2.3587  0.3852  1.6325
 6438SOL    HW230948   1.054   1.804  13.645 -2.3297 -0.2411 -0.1726
 6439SOL     OW30949   0.707   3.478   6.898  0.4069  0.2348 -0.0828
 6439SOL    HW130950   0.786   3.423   6.891  1.4135  1.3767  2.3874
 6439SOL    HW230951   0.731   3.548   6.837  1.4956  0.2407  0.3452
 6440SOL     OW30952   2.935   0.070   2.466 -0.3437 -0.0765  0.2725
 6440SOL    HW130953   2.987   4.730   2.453 -0.6177  0.3063 -3.1010
 6440SOL    HW230954   2.872   0.061   2.395 -1.5131  0.5384  1.2343
 6441SOL     OW30955   2.177   3.463   0.671 -0.4147 -0.1850  0.0102
 6441SOL    HW130956   2.233   3.539   0.681  0.1024 -0.4897 -0.5363
 6441SOL    HW230957   2.109   3.481   0.606  1.7286  1.1808 -1.8807
 6442SOL     OW30958   1.288   2.121   0.414  0.3214  0.3599 -0.0964
 6442SOL    HW130959   1.242   2.104   0.496  0.9162  2.4218  0.6864
 6442SOL    HW230960   1.328   2.208   0.426 -0.3628  0.6127  0.3347
 6443SOL     OW30961   2.384   0.659   4.447  0.2205 -0.6093  0.9230
 6443SOL    HW130962   2.315   0.710   4.490  2.5961  0.0018  3.9938
 6443SOL    HW230963   2.338   0.581   4.416  0.7187 -0.6225  0.2265
 6444SOL     OW30964   1.233   1.797   3.638 -0.1117  0.2604 -0.3219
 6444SOL    HW130965   1.242   1.770   3.730  3.9418  1.2064 -0.4288
 6444SOL    HW230966   1.144   1.832   3.626 -0.5326  0.7839  4.1352
 6445SOL     OW30967   1.506   3.402   0.526  0.0015  0.1421 -0.3639
 6445SOL    HW130968   1.411   3.404   0.536 -0.1769 -2.4825 -1.4447
 6445SOL    HW230969   1.507   3.311   0.496 -0.7294  0.0644 -0.1541
 6446SOL     OW30970   2.576   1.073   8.195  0.3767 -0.1981 -0.5501
 6446SOL    HW130971   2.578   1.135   8.269  2.3964 -0.0693 -0.7084
 6446SOL    HW230972   2.601   1.136   8.127 -1.7827  0.4034 -0.7814
 6447SOL     OW30973   1.159   4.428   7.983 -0.1732  0.3781  0.2856
 6447SOL    HW130974   1.160   4.439   7.888  2.1928  2.3224  0.5151
 6447SOL    HW230975   1.121   4.509   8.016  0.6083  0.2347  1.5579
 6448SOL     OW30976   3.655   1.309   5.785  0.2363  0.2173  0.0781
 6448SOL    HW130977   3.703   1.304   5.703 -1.4827  0.0712 -0.9277
 6448SOL    HW230978   3.723   1.273   5.842  1.0463  2.5802  0.5902
 6449SOL     OW30979   0.958   2.066  14.120 -0.0319  0.0896 -0.5280
 6449SOL    HW130980   1.020   2.071  14.192 -0.7173 -1.2561  0.1682
 6449SOL    HW230981   0.884   2.067  14.181 -1.3935  2.4343 -2.2152
 6450SOL     OW30982   1.446   1.476   3.089 -0.1281 -0.1340  0.3881
 6450SOL    HW130983   1.471   1.413   3.157  1.3880 -0.4544 -0.4764
 6450SOL    HW230984   1.358   1.504   3.114 -0.2617 -0.2539  0.0506
 6451SOL     OW30985   3.831   0.968   8.093 -0.8623 -0.0193 -0.2128
 6451SOL    HW130986   3.922   0.964   8.063 -0.3192 -0.5218  1.5412
 6451SOL    HW230987   3.781   0.932   8.019 -2.0776  1.0379  0.0922
 6452SOL     OW30988   1.950   2.231   5.003  0.3150  0.4453 -0.3507
 6452SOL    HW130989   2.009   2.215   5.077 -1.1726  0.1278  0.7596
 6452SOL    HW230990   1.874   2.267   5.049 -0.3420 -0.3438 -0.8261
 6453SOL     OW30991   4.661   4.461  11.471 -0.1832  0.3086  0.4505
 6453SOL    HW130992   4.726   4.422  11.530  1.6271 -0.7651 -2.2252
 6453SOL    HW230993   4.667   4.399  11.398 -0.2905  2.0154 -0.9816
 6454SOL     OW30994   0.299   4.573   4.469 -0.4510  0.3665  0.0210
 6454SOL    HW130995   0.278   4.483   4.443 -0.1968  0.0147  1.0503
 6454SOL    HW230996   0.395   4.575   4.478 -0.3119 -0.1962 -1.2803
 6455SOL     OW30997   0.799   4.405  15.446 -0.1367 -0.0312  0.2867
 6455SOL    HW130998   0.786   4.334  15.509 -3.1026 -1.9280 -2.5005
 6455SOL    HW230999   0.895   4.407  15.441 -0.0778 -1.0197  0.9532
 6456SOL     OW31000   1.465   2.571   1.344  0.9027 -0.1816  0.3757
 6456SOL    HW131001   1.457   2.602   1.254 -1.9356  0.0183  0.6938
 6456SOL    HW231002   1.386   2.517   1.347 -0.7703  2.1579 -1.4042
 6457SOL     OW31003   2.909   0.198  12.038 -0.4100  0.2165 -0.2794
 6457SOL    HW131004   2.977   0.261  12.060  0.6581 -0.2886 -2.1561
 6457SOL    HW231005   2.963   0.140  11.984  1.6658  2.8505 -1.0396
 6458SOL     OW31006   3.890   2.063   2.924 -0.3781  0.3192 -0.3071
 6458SOL    HW131007   3.934   2.112   2.994 -0.6973 -0.8016  0.6733
 6458SOL    HW231008   3.823   2.013   2.969 -0.1358  0.9842  0.7819
 6459SOL     OW31009   0.152   4.218   0.967  0.1125 -0.1339  0.0262
 6459SOL    HW131010   0.199   4.144   1.005  1.5875  1.5272  1.5103
 6459SOL    HW231011   0.218   4.256   0.909 -1.2814  0.9615 -0.8365
 6460SOL     OW31012   2.032   4.670   0.977  0.2617  0.2640 -0.0109
 6460SOL    HW131013   1.960   4.613   0.949  0.2480  0.4837 -0.4125
 6460SOL    HW231014   2.062   4.710   0.896  3.0450  0.0071  0.9121
 6461SOL     OW31015   3.197   1.315   8.510  0.6756  0.0047  0.2924
 6461SOL    HW131016   3.259   1.263   8.458  1.4186 -0.2732  1.4596
 6461SOL    HW231017   3.114   1.274   8.488  0.2493 -0.6158  3.1914
 6462SOL     OW31018   2.157   4.466   4.786 -0.0446  0.9232  0.2488
 6462SOL    HW131019   2.219   4.495   4.719 -0.9715 -0.2427 -1.1409
 6462SOL    HW231020   2.074   4.491   4.744 -0.4572  0.4213  0.7686
 6463SOL     OW31021   1.969   2.297   5.265 -0.3581  0.0601 -0.5975
 6463SOL    HW131022   2.059   2.306   5.296  0.3701 -4.1230 -1.6144
 6463SOL    HW231023   1.920   2.377   5.284  1.2461  1.0949 -0.7996
 6464SOL     OW31024   0.961   1.027   8.352  0.3693  0.0831  0.2267
 6464SOL    HW131025   0.997   0.963   8.413  0.5545 -0.0199  0.0105
 6464SOL    HW231026   1.020   1.029   8.277 -0.6282  2.8561 -0.4813
 6465SOL     OW31027   3.786   3.743   3.681  0.5840 -0.0832 -0.3463
 6465SOL    HW131028   3.788   3.674   3.614 -0.3371 -1.1310  0.7008
 6465SOL    HW231029   3.871   3.783   3.665  1.2711 -0.8041  1.5207
 6466SOL     OW31030   0.496   0.585   5.386 -0.1163 -0.3207  0.1516
 6466SOL    HW131031   0.543   0.592   5.469  2.6720 -0.4944 -1.4198
 6466SOL    HW231032   0.443   0.507   5.403  0.4392 -0.7872 -0.2915
 6467SOL     OW31033   1.180   1.972  17.399  1.1145  0.1071 -0.8874
 6467SOL    HW131034   1.222   1.914  17.462 -0.9434 -0.6865 -0.2255
 6467SOL    HW231035   1.100   1.986  17.450  1.0538  2.2326 -1.5383
 6468SOL     OW31036   4.213   3.734   6.700 -0.0450 -0.5361 -0.0320
 6468SOL    HW131037   4.134   3.682   6.710  0.4712 -1.2089  0.4969
 6468SOL    HW231038   4.193   3.802   6.764  0.6700  0.3564 -0.7553
 6469SOL     OW31039   0.877   1.717   0.028  0.3467 -0.9891  0.2130
 6469SOL    HW131040   0.796   1.765   0.012  1.1139  0.1745 -0.2181
 6469SOL    HW231041   0.855   1.629  17.751 -0.5369 -0.2711 -1.2037
 6470SOL     OW31042   0.898   3.730   0.527  0.4159  0.4468  0.1089
 6470SOL    HW131043   0.891   3.656   0.588  1.9535  0.0916 -0.1569
 6470SOL    HW231044   0.817   3.778   0.543 -0.5492 -0.7505 -1.1413
 6471SOL     OW31045   4.107   2.577   0.114  0.4538  0.7604  0.0575
 6471SOL    HW131046   4.071   2.582   0.203 -0.8046  1.5144 -0.4950
 6471SOL    HW231047   4.123   2.484   0.098 -1.1823  0.7994 -1.8082
 6472SOL     OW31048   4.508   3.899  11.597  0.1072 -0.1957  0.0224
 6472SOL    HW131049   4.483   3.809  11.579  1.2796 -0.1393 -1.9222
 6472SOL    HW231050   4.602   3.885  11.606  0.5748  2.1426 -1.0798
 6473SOL     OW31051   2.796   1.405  11.737 -0.2504 -0.3692  0.1717
 6473SOL    HW131052   2.805   1.438  11.648  0.3686  0.4009  0.5178
 6473SOL    HW231053   2.707   1.372  11.734 -0.7494  1.0088 -0.0244
 6474SOL     OW31054   1.991   4.467   9.999 -0.5131 -0.0506 -0.2340
 6474SOL    HW131055   1.924   4.475  10.067 -0.9398 -0.3740 -0.6178
 6474SOL    HW231056   1.965   4.393   9.944  0.7354 -1.4169  1.0296
 6475SOL     OW31057   0.182   1.746   6.656 -0.1311  0.0403 -0.3099
 6475SOL    HW131058   0.087   1.753   6.644 -0.4735 -2.8416  0.7788
 6475SOL    HW231059   0.216   1.715   6.572  0.0622 -1.8730  0.4875
 6476SOL     OW31060   0.541   3.300   3.008 -0.8226 -0.0752  0.1019
 6476SOL    HW131061   0.470   3.355   2.974 -1.3988 -1.1180 -0.4025
 6476SOL    HW231062   0.521   3.299   3.102 -0.0907  0.9845  0.2640
 6477SOL     OW31063   2.711   4.264  11.455 -0.1931 -0.7939  0.3791
 6477SOL    HW131064   2.790   4.265  11.401 -0.4600 -0.2642 -0.0049
 6477SOL    HW231065   2.735   4.228  11.540  2.0824  0.7116  0.3823
 6478SOL     OW31066   1.748   2.823   9.236  0.0517 -0.0586 -0.3859
 6478SOL    HW131067   1.756   2.918   9.227  0.7426 -0.1860 -1.0633
 6478SOL    HW231068   1.653   2.814   9.248  0.1236 -1.6017 -0.9435
 6479SOL     OW31069   1.452   2.403   5.073  0.4168 -0.5155 -0.1832
 6479SOL    HW131070   1.427   2.459   5.146  3.7027 -3.6984  3.3895
 6479SOL    HW231071   1.367   2.366   5.048 -0.0024  0.8483 -0.7819
 6480SOL     OW31072   0.680   1.697   3.725 -0.1245  0.0390 -0.1594
 6480SOL    HW131073   0.625   1.759   3.772 -0.3039 -1.0586  1.0709
 6480SOL    HW231074   0.639   1.619   3.761  1.6751 -0.8224  0.0531
 6481SOL     OW31075   4.607   0.570  14.764  0.0386  0.1895  0.0906
 6481SOL    HW131076   4.668   0.524  14.706  0.0260  1.0934 -0.6386
 6481SOL    HW231077   4.529   0.521  14.740  1.0852 -2.2386  1.6061
 6482SOL     OW31078   0.392   3.246   8.101  0.1162 -0.0078  0.1915
 6482SOL    HW131079   0.373   3.158   8.134 -4.7291  0.2031 -2.0501
 6482SOL    HW231080   0.426   3.228   8.013 -1.9976 -2.4563 -0.1345
 6483SOL     OW31081   2.008   0.639   2.492 -0.3651 -0.6187  0.2227
 6483SOL    HW131082   2.058   0.663   2.570 -1.6258  0.0983  0.8107
 6483SOL    HW231083   1.922   0.640   2.533 -0.1398  4.6740  0.5522
 6484SOL     OW31084   0.411   1.476   8.559 -0.4052  0.1662  0.0415
 6484SOL    HW131085   0.381   1.539   8.625  1.4335 -0.9419  1.9737
 6484SOL    HW231086   0.505   1.475   8.579 -0.5323 -1.4731  0.5641
 6485SOL     OW31087   0.845   2.633   0.190  0.1404  0.7392 -0.2315
 6485SOL    HW131088   0.843   2.712   0.136  2.1599  1.1215  0.2839
 6485SOL    HW231089   0.759   2.633   0.234  0.2048  1.6016 -0.1112
 6486SOL     OW31090   0.464   2.295   7.609  0.1081 -0.2288 -0.3791
 6486SOL    HW131091   0.428   2.212   7.577 -2.8194  0.5227  0.9994
 6486SOL    HW231092   0.438   2.351   7.536 -1.5340 -0.6763 -0.1296
 6487SOL     OW31093   2.168   2.370   2.278 -0.3635  0.3968  0.0386
 6487SOL    HW131094   2.110   2.296   2.298  0.5969 -0.4816 -0.3857
 6487SOL    HW231095   2.156   2.434   2.348 -0.3468  0.1951  0.2269
 6488SOL     OW31096   2.877   2.578  13.236  0.0332  0.0997 -0.2212
 6488SOL    HW131097   2.817   2.620  13.173  0.2660 -0.8181 -1.0629
 6488SOL    HW231098   2.922   2.656  13.267  1.3514 -0.9652  0.5108
 6489SOL     OW31099   2.740   1.977  10.010  0.5785 -0.4553 -0.3474
 6489SOL    HW131100   2.688   2.010  10.083  1.1605  0.8333 -0.5052
 6489SOL    HW231101   2.813   1.948  10.065  0.7944 -0.9085 -0.8697
 6490SOL     OW31102   0.754   0.943   1.166  0.4823 -0.0249  0.8294
 6490SOL    HW131103   0.833   0.889   1.161  0.0424 -0.6572  0.6775
 6490SOL    HW231104   0.708   0.911   1.089 -1.0433  2.4016  0.7069
 6491SOL     OW31105   0.248   4.492   1.115  0.1851 -0.4693 -0.0689
 6491SOL    HW131106   0.306   4.427   1.156  2.3155 -0.2893 -2.7675
 6491SOL    HW231107   0.159   4.463   1.132 -0.5769  1.3347 -1.0199
 6492SOL     OW31108   3.903   4.700   2.917  0.0161  0.3795 -0.1424
 6492SOL    HW131109   3.967   0.015   2.870  0.6623  1.3221  1.8291
 6492SOL    HW231110   3.841   0.030   2.941  1.3633  1.2857  0.7142
 6493SOL     OW31111   4.320   3.247  12.484  0.0963 -0.1898 -0.5379
 6493SOL    HW131112   4.342   3.156  12.463  0.9855  0.2738 -1.5746
 6493SOL    HW231113   4.286   3.249  12.573  0.9511 -3.8815 -0.1123
 6494SOL     OW31114   3.474   0.579   6.697 -0.1923  0.1102  0.3433
 6494SOL    HW131115   3.382   0.577   6.670  0.4619 -0.3437 -1.7940
 6494SOL    HW231116   3.505   0.662   6.663  1.6653  0.1172  2.0667
 6495SOL     OW31117   1.936   4.336   2.407  0.0725  0.8275  0.3555
 6495SOL    HW131118   1.937   4.272   2.478  0.0472  1.0568  0.5629
 6495SOL    HW231119   2.022   4.317   2.368 -0.1775  2.6526 -1.0943
 6496SOL     OW31120   2.232   4.671  10.776  0.1631  0.3765  0.4233
 6496SOL    HW131121   2.294   0.005  10.780  2.1023 -1.1777 -1.6301
 6496SOL    HW231122   2.291   4.604  10.741  2.4612  3.0412 -0.7898
 6497SOL     OW31123   4.595   3.728   9.261  0.0596  0.0653  0.1134
 6497SOL    HW131124   4.644   3.653   9.296  1.8937  1.7671  1.1905
 6497SOL    HW231125   4.548   3.674   9.197  1.3298 -0.7874 -0.1084
 6498SOL     OW31126   2.744   3.172  11.006 -0.1459  1.0118  0.6344
 6498SOL    HW131127   2.798   3.235  11.054 -0.9768  2.9436 -0.9894
 6498SOL    HW231128   2.748   3.190  10.912  1.5165  0.0069  0.4954
 6499SOL     OW31129   2.938   0.384   5.935 -0.8118  0.6450 -0.6992
 6499SOL    HW131130   2.904   0.416   5.852  1.6440 -1.1373 -2.4176
 6499SOL    HW231131   3.030   0.412   5.931 -0.0099 -1.8621  0.4667
 6500SOL     OW31132   0.628   3.647   4.498 -0.2074  0.3191 -0.1717
 6500SOL    HW131133   0.656   3.556   4.511 -0.7106 -0.0329 -1.6142
 6500SOL    HW231134   0.551   3.641   4.442  1.8845  0.1309 -3.0301
 6501SOL     OW31135   3.637   1.259  17.055 -0.4087 -0.2467  0.7243
 6501SOL    HW131136   3.602   1.191  16.997 -3.3327  0.7252  1.3584
 6501SOL    HW231137   3.577   1.333  17.052 -1.1488 -0.8323  1.1725
 6502SOL     OW31138   1.631   3.160   0.087  0.7710 -0.1439  0.4846
 6502SOL    HW131139   1.601   3.186   0.174 -0.4347 -3.7578  1.1564
 6502SOL    HW231140   1.629   3.064   0.092  0.0553 -0.2166 -1.1608
 6503SOL     OW31141   1.933   3.826   2.761  0.1871  0.4292 -0.1344
 6503SOL    HW131142   1.904   3.872   2.840  2.1791  0.0866  0.7853
 6503SOL    HW231143   1.898   3.737   2.774  0.6144  0.3852  0.7558
 6504SOL     OW31144   4.378   4.239   5.749 -0.2434  0.0551 -0.1723
 6504SOL    HW131145   4.378   4.331   5.720 -0.5314  0.4703  1.1648
 6504SOL    HW231146   4.378   4.243   5.844  2.2448  2.4556 -0.2538
 6505SOL     OW31147   1.179   2.467   6.543 -0.5341  0.0912  0.2553
 6505SOL    HW131148   1.269   2.473   6.509 -0.6354 -1.5427 -0.3112
 6505SOL    HW231149   1.188   2.502   6.632 -1.6131 -1.6277  1.0422
 6506SOL     OW31150   0.448   2.094   5.171 -0.2341  0.5738 -0.1702
 6506SOL    HW131151   0.481   2.081   5.082  0.8391 -2.3006  0.6319
 6506SOL    HW231152   0.512   2.043   5.221  0.2859  1.0807 -0.3238
 6507SOL     OW31153   2.702   4.094   3.922  0.4557 -0.1986  0.1539
 6507SOL    HW131154   2.728   4.035   3.992  0.9090  0.2472  0.3538
 6507SOL    HW231155   2.788   4.134   3.912 -0.9917  2.9738  0.1872
 6508SOL     OW31156   1.403   0.649  12.431  0.6953  0.1117 -0.1754
 6508SOL    HW131157   1.481   0.596  12.416  1.0456  0.8201 -0.8551
 6508SOL    HW231158   1.370   0.656  12.342 -0.2574 -2.9168 -0.0598
 6509SOL     OW31159   4.578   0.856   2.132  0.3167 -0.3713 -0.0961
 6509SOL    HW131160   4.620   0.783   2.086  0.5768 -0.6756  0.6284
 6509SOL    HW231161   4.510   0.806   2.177  0.1690  1.1057  1.3356
 6510SOL     OW31162   4.244   2.805   0.039  0.6943  0.4720 -0.5400
 6510SOL    HW131163   4.191   2.728   0.059 -0.3954  1.0754 -1.0833
 6510SOL    HW231164   4.242   2.805  17.697 -0.0600 -0.7434 -0.5201
 6511SOL     OW31165   3.769   2.687   1.454  0.2302 -0.0952  0.2440
 6511SOL    HW131166   3.762   2.728   1.540  0.9578  0.0466  0.2394
 6511SOL    HW231167   3.785   2.594   1.471  1.7544  0.0846 -0.2202
 6512SOL     OW31168   2.148   1.128   0.250 -0.6196  0.0335 -0.3545
 6512SOL    HW131169   2.166   1.052   0.193 -0.7648 -1.6065  1.7770
 6512SOL    HW231170   2.216   1.111   0.315 -1.0918 -0.1758  0.0862
 6513SOL     OW31171   1.938   3.957   0.788  0.1901  0.2438 -0.3107
 6513SOL    HW131172   1.966   3.973   0.878 -0.1280  0.0627 -0.1793
 6513SOL    HW231173   1.870   3.891   0.804  0.6975 -0.5880 -1.6359
 6514SOL     OW31174   4.241   0.232   3.250 -0.0418  0.1955  0.0104
 6514SOL    HW131175   4.336   0.221   3.242  0.1621  1.3247  0.8817
 6514SOL    HW231176   4.228   0.244   3.156 -0.8386  0.5371  0.1648
 6515SOL     OW31177   3.290   3.650  16.542 -0.3399  0.1815  0.1131
 6515SOL    HW131178   3.245   3.593  16.604  1.7899 -1.6728 -0.0757
 6515SOL    HW231179   3.339   3.713  16.595 -1.3453 -0.3354  1.6361
 6516SOL     OW31180   3.690   3.226   8.335  0.4568  0.2800  0.1297
 6516SOL    HW131181   3.747   3.158   8.298 -1.3422 -1.0294 -0.2533
 6516SOL    HW231182   3.656   3.275   8.260 -0.2805  0.2052  0.4150
 6517SOL     OW31183   0.474   2.001   3.540 -0.1096 -0.4494  0.0443
 6517SOL    HW131184   0.534   2.007   3.615 -0.4023 -0.7031  0.2997
 6517SOL    HW231185   0.493   2.083   3.495 -1.0406 -1.2439 -1.7596
 6518SOL     OW31186   1.762   1.727   8.163  0.1892  0.0766 -0.2021
 6518SOL    HW131187   1.753   1.665   8.090 -0.1345 -0.6080  0.4167
 6518SOL    HW231188   1.685   1.784   8.154 -1.0890 -1.6851 -0.6021
 6519SOL     OW31189   4.597   3.807  14.230 -0.2102  0.8040 -0.2863
 6519SOL    HW131190   4.573   3.857  14.308  1.4811  0.6173  0.3508
 6519SOL    HW231191   4.570   3.717  14.247 -0.5995  1.0101  0.1631
 6520SOL     OW31192   2.490   0.512   9.373  0.3085 -0.0354 -0.5391
 6520SOL    HW131193   2.541   0.568   9.314  1.0785  0.3809  0.5295
 6520SOL    HW231194   2.476   0.429   9.327  2.4557 -0.7573  0.1057
 6521SOL     OW31195   0.032   3.461  12.583 -0.1289  0.1154  0.0699
 6521SOL    HW131196   0.020   3.514  12.504  0.1316  2.3282  1.5114
 6521SOL    HW231197   4.736   3.380  12.547 -2.7441  0.8882  0.8281
 6522SOL     OW31198   2.324   1.363   7.488  0.3519  0.2649  0.2561
 6522SOL    HW131199   2.243   1.325   7.522  0.6484 -1.9262 -1.4796
 6522SOL    HW231200   2.396   1.321   7.536 -2.1255 -2.0718  1.9633
 6523SOL     OW31201   2.029   3.965   3.740 -0.0621 -0.8737  0.1997
 6523SOL    HW131202   2.115   3.931   3.763  0.2223 -1.1223 -1.2166
 6523SOL    HW231203   2.053   4.058   3.736 -0.0714 -0.8031  1.6918
 6524SOL     OW31204   4.713   3.555   0.492 -0.1911 -0.1226 -0.5090
 6524SOL    HW131205   0.001   3.587   0.578 -2.0119 -0.7211  0.2995
 6524SOL    HW231206   0.046   3.577   0.434 -1.4123  1.7743 -1.3062
 6525SOL     OW31207   2.208   1.731   4.601 -0.1281  0.1044 -0.0492
 6525SOL    HW131208   2.207   1.709   4.507  0.1875  1.8209 -0.4438
 6525SOL    HW231209   2.265   1.807   4.596  3.0190 -2.2967 -1.2764
 6526SOL     OW31210   0.577   4.526   4.891 -0.3900 -0.1160  0.3910
 6526SOL    HW131211   0.593   4.441   4.932  1.0765 -0.4447 -0.8854
 6526SOL    HW231212   0.483   4.542   4.895 -0.4901 -1.1406  2.2214
 6527SOL     OW31213   1.729   0.055   7.298 -0.3201  0.0557  0.1828
 6527SOL    HW131214   1.810   0.013   7.329  0.6532  2.3683  0.7199
 6527SOL    HW231215   1.687   0.084   7.378  2.7359 -1.0679  2.1843
 6528SOL     OW31216   1.160   2.792   8.514 -0.2792  0.0705  0.0635
 6528SOL    HW131217   1.070   2.825   8.509 -0.4947 -0.5181  0.0017
 6528SOL    HW231218   1.213   2.852   8.567 -1.9421  3.3768 -2.0038
 6529SOL     OW31219   2.701   4.524   9.360  0.3771 -0.2966  0.3250
 6529SOL    HW131220   2.657   4.449   9.319  1.0260  0.4663 -1.7608
 6529SOL    HW231221   2.773   4.544   9.300 -0.4271 -2.7731 -1.4601
 6530SOL     OW31222   0.800   2.730   8.201  0.0087 -0.3449  0.0040
 6530SOL    HW131223   0.754   2.812   8.182  0.3607 -0.4806 -1.4908
 6530SOL    HW231224   0.811   2.691   8.114 -0.4526  0.7893 -0.5694
 6531SOL     OW31225   1.878   4.412   5.827 -0.3525  0.3121  0.7394
 6531SOL    HW131226   1.881   4.484   5.763  1.8942 -1.4403 -1.1186
 6531SOL    HW231227   1.938   4.348   5.789  0.4470  0.2142  2.1897
 6532SOL     OW31228   1.326   3.507   6.834  0.6641 -0.2562 -0.0901
 6532SOL    HW131229   1.296   3.416   6.834  1.3091 -0.4688  0.2127
 6532SOL    HW231230   1.397   3.504   6.769 -0.3676 -0.0645 -1.2173
 6533SOL     OW31231   3.182   1.902   6.105  0.1377 -0.2821 -0.1521
 6533SOL    HW131232   3.181   1.821   6.157 -1.3634 -1.1607 -1.5402
 6533SOL    HW231233   3.156   1.874   6.017  3.0049 -0.9935 -0.7779
 6534SOL     OW31234   4.057   1.421   2.286  0.4318  0.3640 -0.3571
 6534SOL    HW131235   3.976   1.435   2.237  0.9809  0.2044 -1.2964
 6534SOL    HW231236   4.024   1.464   2.366 -1.1563 -0.0124 -0.8233
 6535SOL     OW31237   0.709   3.428   9.216 -0.1620 -0.2320 -0.6225
 6535SOL    HW131238   0.669   3.348   9.181 -2.6121  1.6068 -2.0060
 6535SOL    HW231239   0.799   3.410   9.187  0.3240 -0.6559  1.1548
 6536SOL     OW31240   1.938   3.525   3.624 -0.2068  0.5043 -0.4785
 6536SOL    HW131241   1.845   3.542   3.633 -0.1599  0.2440  0.5073
 6536SOL    HW231242   1.952   3.527   3.719 -0.2864  0.3309 -0.4644
 6537SOL     OW31243   2.749   0.809   5.926  0.3412  0.2835 -0.0057
 6537SOL    HW131244   2.744   0.726   5.973 -0.2515  0.2606 -0.1202
 6537SOL    HW231245   2.809   0.854   5.986 -0.8731  0.8986  0.7446
 6538SOL     OW31246   1.441   4.715   7.959 -0.3924 -0.4107  0.1550
 6538SOL    HW131247   1.450   4.622   7.977  0.8244  0.1847  2.5928
 6538SOL    HW231248   1.429   4.707   7.865 -0.9190  0.3478  0.1554
 6539SOL     OW31249   2.524   0.048   1.329 -0.3160  0.4267 -0.3311
 6539SOL    HW131250   2.544   0.063   1.422 -3.2402  2.6430 -0.0666
 6539SOL    HW231251   2.430   0.061   1.345 -0.3264  1.5980 -1.3088
 6540SOL     OW31252   0.611   0.963   9.544 -0.0255  0.3259  0.2439
 6540SOL    HW131253   0.638   0.996   9.458 -2.7534  1.8118 -0.0859
 6540SOL    HW231254   0.678   0.900   9.568 -0.2190  0.0292  0.0118
 6541SOL     OW31255   4.415   0.737   5.298 -0.7987 -0.3671  0.1330
 6541SOL    HW131256   4.450   0.786   5.223  1.0271  0.0370  1.2458
 6541SOL    HW231257   4.466   0.656   5.295 -2.0099 -1.0917 -1.0752
 6542SOL     OW31258   3.221   0.387  14.890  0.3232  0.6540 -0.8764
 6542SOL    HW131259   3.312   0.395  14.920  0.9241 -2.7232 -1.8659
 6542SOL    HW231260   3.245   0.416  14.802  1.2177 -1.8574 -1.4474
 6543SOL     OW31261   3.023   2.639   1.836  0.0833 -0.4702 -0.5469
 6543SOL    HW131262   2.984   2.724   1.815  0.2886  0.0632  1.2469
 6543SOL    HW231263   3.085   2.633   1.763  1.1008 -1.0697  0.3714
 6544SOL     OW31264   0.145   4.579   2.535  0.4514  0.0683 -0.0833
 6544SOL    HW131265   0.160   4.487   2.513 -1.1340 -0.5742  1.5496
 6544SOL    HW231266   0.053   4.584   2.560  0.2141  0.9802 -1.1217
 6545SOL     OW31267   4.046   2.828   5.828  0.0108 -1.0604  0.1253
 6545SOL    HW131268   4.041   2.858   5.737 -0.2318 -0.0986  0.4460
 6545SOL    HW231269   4.074   2.739   5.811  0.6546 -0.5945 -1.2767
 6546SOL     OW31270   3.248   2.867  17.432 -0.0652 -0.3348  0.0812
 6546SOL    HW131271   3.238   2.839  17.523  1.3616  0.1655  0.3928
 6546SOL    HW231272   3.286   2.954  17.446  0.4326 -0.4312 -0.6197
 6547SOL     OW31273   0.036   2.107   5.552 -0.9308 -0.5744  0.3774
 6547SOL    HW131274   0.091   2.183   5.533 -1.8229 -0.1480 -0.5089
 6547SOL    HW231275   4.699   2.122   5.496 -1.2832 -1.1794  0.6875
 6548SOL     OW31276   4.225   4.650   2.975  0.1398 -0.6874  0.4031
 6548SOL    HW131277   4.290   4.581   2.989 -0.1417 -0.8833  0.7418
 6548SOL    HW231278   4.218   4.639   2.880 -0.2522  1.9501  0.1152
 6549SOL     OW31279   2.962   4.620   5.471  0.0274 -0.0579 -0.4333
 6549SOL    HW131280   3.043   4.644   5.426 -1.6654  1.5200 -2.6203
 6549SOL    HW231281   2.953   4.678   5.547 -1.5166  0.6847 -1.1872
 6550SOL     OW31282   2.325   1.453  14.104 -0.1700  0.2899  0.1420
 6550SOL    HW131283   2.250   1.397  14.126 -0.3568  0.3620 -0.3013
 6550SOL    HW231284   2.330   1.451  14.008 -2.7188 -0.2089  0.0178
 6551SOL     OW31285   0.624   3.567  13.257 -0.2466  0.7599 -0.2132
 6551SOL    HW131286   0.645   3.474  13.247  1.7766  1.4944 -2.6546
 6551SOL    HW231287   0.593   3.582  13.168  0.6539  0.9969 -0.4863
 6552SOL     OW31288   3.237   0.034   9.114 -0.2253 -0.7593 -0.1450
 6552SOL    HW131289   3.212   4.706   9.177 -1.7016 -1.6093 -1.6427
 6552SOL    HW231290   3.299   4.724   9.059  2.6784  0.0375  2.3941
 6553SOL     OW31291   4.228   3.271   2.976  0.2081  0.3160 -0.1565
 6553SOL    HW131292   4.190   3.271   2.889  1.6434  0.5699 -0.7807
 6553SOL    HW231293   4.162   3.324   3.021 -1.2402 -1.8084  0.2457
 6554SOL     OW31294   3.797   1.943   7.482  0.6203  0.4915 -0.0857
 6554SOL    HW131295   3.798   1.852   7.455  0.8049  0.7082 -0.7976
 6554SOL    HW231296   3.870   1.979   7.432 -0.3236  1.3088 -0.8889
 6555SOL     OW31297   1.163   2.762  13.644 -0.5303  0.3463 -0.0677
 6555SOL    HW131298   1.234   2.820  13.614 -0.2505 -1.5553 -3.1030
 6555SOL    HW231299   1.116   2.835  13.685 -0.3489  0.7639 -0.5917
 6556SOL     OW31300   2.847   0.069  13.000  0.6457  0.3469  0.3208
 6556SOL    HW131301   2.850   0.095  13.092  1.1670 -0.8660  0.6474
 6556SOL    HW231302   2.930   0.022  12.993 -0.5304 -1.5336 -1.0505
 6557SOL     OW31303   4.461   3.524   5.134 -0.0430  0.4243  0.0956
 6557SOL    HW131304   4.429   3.446   5.180  0.7663 -0.1754 -0.3530
 6557SOL    HW231305   4.465   3.585   5.207  0.5782  1.1846 -0.5707
 6558SOL     OW31306   0.005   3.136  14.538 -0.0502 -0.6171 -0.5194
 6558SOL    HW131307   0.097   3.113  14.549 -0.0292  0.4568  1.4836
 6558SOL    HW231308   4.709   3.052  14.567  0.7169 -0.6819  0.2102
 6559SOL     OW31309   3.797   0.256   7.960 -0.0759  0.4896 -0.4267
 6559SOL    HW131310   3.722   0.297   8.003 -0.8299  0.4179 -1.6503
 6559SOL    HW231311   3.783   0.165   7.987  0.6339  0.2676 -0.7903
 6560SOL     OW31312   0.780   4.695  13.534 -0.6856  0.0694  0.3220
 6560SOL    HW131313   0.824   4.635  13.594  3.4605  1.3960 -1.4201
 6560SOL    HW231314   0.720   4.735  13.597 -0.6267  0.1899  0.3002
 6561SOL     OW31315   2.667   1.864  12.121 -0.3052  0.0891  0.2638
 6561SOL    HW131316   2.575   1.889  12.133 -0.5662 -1.0361  0.6511
 6561SOL    HW231317   2.697   1.922  12.051 -0.3654  1.1802  1.1623
 6562SOL     OW31318   1.308   4.307   6.509 -0.1443  0.3965  0.5000
 6562SOL    HW131319   1.236   4.370   6.500 -1.2047 -0.3237  3.8142
 6562SOL    HW231320   1.317   4.274   6.419 -0.9541  1.2031  0.1249
 6563SOL     OW31321   1.714   2.014   7.844 -0.4854 -0.1578  0.2314
 6563SOL    HW131322   1.626   2.033   7.876 -0.6231  0.9231 -0.7769
 6563SOL    HW231323   1.721   2.070   7.767 -0.5891  0.0501  0.3745
 6564SOL     OW31324   2.568   4.021  16.195  0.3044  0.1551 -1.1493
 6564SOL    HW131325   2.631   4.039  16.125  1.2939  1.4555  0.0694
 6564SOL    HW231326   2.508   3.967  16.144 -0.1116 -0.3663 -0.1002
 6565SOL     OW31327   0.777   0.147   8.016 -0.3229 -0.1051  0.1210
 6565SOL    HW131328   0.834   0.076   7.986  1.3343  0.8857  0.9882
 6565SOL    HW231329   0.833   0.184   8.084  1.3030 -1.1188 -0.6673
 6566SOL     OW31330   3.038   2.616   0.136  0.0262 -0.4939 -0.0144
 6566SOL    HW131331   3.114   2.673   0.126  0.2971 -0.4727  2.3546
 6566SOL    HW231332   3.011   2.665   0.213 -1.3999 -0.4623 -0.5317
 6567SOL     OW31333   0.560   1.001   8.850  0.1983 -0.2363  0.1064
 6567SOL    HW131334   0.533   1.045   8.769 -2.1470  1.0561  1.5899
 6567SOL    HW231335   0.603   0.925   8.813  2.2391 -0.0949  2.2031
 6568SOL     OW31336   0.070   0.339  17.117 -0.7137  0.0703  0.5830
 6568SOL    HW131337   0.070   0.256  17.165  0.5381  1.2180  2.5604
 6568SOL    HW231338   0.039   0.309  17.032  0.7078  0.2838 -0.0070
 6569SOL     OW31339   2.701   0.145   8.330 -0.1944 -0.1401  0.0921
 6569SOL    HW131340   2.610   0.139   8.358 -0.7953 -1.6875 -2.1854
 6569SOL    HW231341   2.693   0.213   8.262 -0.1882  1.5089  1.7418
 6570SOL     OW31342   3.955   2.014   6.100 -0.4725  0.4194 -0.9080
 6570SOL    HW131343   3.862   2.030   6.086 -1.4897 -2.5101  2.4895
 6570SOL    HW231344   3.979   2.090   6.154  0.3042 -1.0915  0.8772
 6571SOL     OW31345   1.631   4.140   7.039 -0.2672 -0.0196 -0.0396
 6571SOL    HW131346   1.536   4.131   7.034 -0.1701 -0.9858 -0.1279
 6571SOL    HW231347   1.626   4.152   7.134 -1.0145 -0.6221  0.0005
 6572SOL     OW31348   3.363   1.313   5.235 -0.6368  0.5114  0.6099
 6572SOL    HW131349   3.345   1.231   5.281  1.6492 -1.0279 -1.2375
 6572SOL    HW231350   3.449   1.338   5.268  0.9501  1.1047 -3.9716
 6573SOL     OW31351   3.000   0.534  12.136  0.3817  0.2434 -0.0482
 6573SOL    HW131352   3.072   0.515  12.075 -0.0865  0.5513 -0.6979
 6573SOL    HW231353   3.022   0.454  12.183 -0.6142  0.3886  0.6697
 6574SOL     OW31354   4.644   3.394   5.641  0.5145  0.2342  0.1977
 6574SOL    HW131355   4.687   3.310   5.654 -0.6587 -0.5397 -0.9683
 6574SOL    HW231356   4.556   3.358   5.648  1.3802 -1.7366  0.7277
 6575SOL     OW31357   1.696   0.470  11.692  0.1146  0.0119 -0.1092
 6575SOL    HW131358   1.757   0.503  11.626  2.4064 -2.0570  0.9381
 6575SOL    HW231359   1.761   0.426  11.748  0.9406  2.3743  0.7560
 6576SOL     OW31360   1.387   1.700   1.434  1.3109 -0.2263  0.5847
 6576SOL    HW131361   1.383   1.611   1.399 -0.4710  0.4861 -1.0384
 6576SOL    HW231362   1.482   1.713   1.441  1.3926 -0.8408  0.6984
 6577SOL     OW31363   3.809   4.209   2.228 -0.2605 -0.4943  0.0380
 6577SOL    HW131364   3.828   4.226   2.320 -1.0867  0.4162  0.0442
 6577SOL    HW231365   3.839   4.293   2.191  0.4669 -1.7521 -2.2089
 6578SOL     OW31366   0.485   0.573   6.412  0.2351  0.7302  0.1864
 6578SOL    HW131367   0.491   0.506   6.344  1.1269  0.5751  0.4095
 6578SOL    HW231368   0.568   0.561   6.459  0.5929  0.6999 -0.4499
 6579SOL     OW31369   2.036   2.864   5.305 -0.3503  0.5194  0.1385
 6579SOL    HW131370   2.114   2.853   5.250  0.4456 -0.9230  1.5545
 6579SOL    HW231371   2.034   2.785   5.359  0.4118 -0.4869 -1.3016
 6580SOL     OW31372   4.634   2.646  16.092  0.1266  0.5489 -0.3306
 6580SOL    HW131373   4.603   2.628  16.003 -0.5255  2.6249 -0.5165
 6580SOL    HW231374   4.560   2.621  16.147  0.4553 -1.3880 -0.7511
 6581SOL     OW31375   1.092   2.046   0.892  0.3159 -0.2949  0.0004
 6581SOL    HW131376   1.149   2.034   0.967 -0.5808 -1.4628  0.4975
 6581SOL    HW231377   1.018   2.094   0.930 -0.4048 -1.3620 -0.0354
 6582SOL     OW31378   0.569   1.509  12.827  0.5773  0.2672 -0.0144
 6582SOL    HW131379   0.524   1.431  12.795  0.0311  0.9533 -0.9351
 6582SOL    HW231380   0.609   1.479  12.908 -0.8378 -1.7110 -0.0460
 6583SOL     OW31381   0.823   4.530   7.976  0.1469 -0.2885  0.2308
 6583SOL    HW131382   0.733   4.562   7.976  0.0010 -0.6980 -0.2592
 6583SOL    HW231383   0.844   4.508   8.067 -4.1526 -0.3848  1.2161
 6584SOL     OW31384   2.313   1.407   3.065 -0.4809  0.3050 -0.1483
 6584SOL    HW131385   2.277   1.371   2.983 -2.3827 -0.0958  0.8580
 6584SOL    HW231386   2.384   1.343   3.070 -2.1567 -1.5273  0.5534
 6585SOL     OW31387   0.023   1.656   2.163  0.3580 -0.3065  0.4140
 6585SOL    HW131388   0.105   1.693   2.130  0.1695 -0.0207  0.2647
 6585SOL    HW231389   4.710   1.733   2.187  1.6859  1.0369 -1.0641
 6586SOL     OW31390   2.963   0.656   2.002  0.0127  0.6199  0.0399
 6586SOL    HW131391   3.057   0.654   1.983 -0.3117  0.7420 -1.6521
 6586SOL    HW231392   2.967   0.628   2.093  0.1372  0.3085 -0.0618
 6587SOL     OW31393   4.166   3.721  10.764  0.3041  0.6899 -0.4959
 6587SOL    HW131394   4.172   3.799  10.710 -0.0884  2.0707  1.4368
 6587SOL    HW231395   4.208   3.760  10.841 -0.1078  0.8864 -0.3683
 6588SOL     OW31396   0.180   2.676   7.622  0.2176 -0.1486  0.1526
 6588SOL    HW131397   0.223   2.760   7.604  0.7347 -0.3578  0.4151
 6588SOL    HW231398   0.106   2.698   7.679  0.5988  1.4472  0.0405
 6589SOL     OW31399   3.402   1.710  10.488  0.1664  0.0516  0.3095
 6589SOL    HW131400   3.372   1.675  10.571  0.2594 -0.5028  0.1055
 6589SOL    HW231401   3.473   1.648  10.473  0.7881  0.5595  1.1800
 6590SOL     OW31402   0.514   0.417   6.208 -0.1088  0.6048  1.3644
 6590SOL    HW131403   0.432   0.372   6.189  0.3883  0.4984 -0.5568
 6590SOL    HW231404   0.571   0.344   6.234  0.5626  0.2113 -1.2301
 6591SOL     OW31405   0.890   3.767   4.906 -0.0726 -0.0413 -0.4604
 6591SOL    HW131406   0.845   3.834   4.854 -3.1880 -0.5813  1.5437
 6591SOL    HW231407   0.975   3.807   4.926 -0.3390  1.3399 -2.0500
 6592SOL     OW31408   3.212   0.096   5.127  0.1231  0.4505  0.2478
 6592SOL    HW131409   3.233   0.180   5.169 -0.2248  0.8561 -0.3956
 6592SOL    HW231410   3.270   0.086   5.053  0.9304 -0.2143  0.9767
 6593SOL     OW31411   1.819   2.359   8.476 -0.0408  0.2880  0.5979
 6593SOL    HW131412   1.848   2.393   8.391 -1.0709 -0.8119 -0.1939
 6593SOL    HW231413   1.815   2.442   8.523  0.8934  0.4151  0.4619
 6594SOL     OW31414   2.050   2.701   0.019 -0.2310 -0.2272 -0.0977
 6594SOL    HW131415   2.013   2.737   0.099  1.4510  1.6332 -0.1392
 6594SOL    HW231416   1.993   2.626   0.002  0.8428 -0.6328 -1.9599
 6595SOL     OW31417   1.470   1.118  14.313 -0.0154  0.7646  0.0294
 6595SOL    HW131418   1.413   1.082  14.381 -1.6533 -0.1689 -1.8775
 6595SOL    HW231419   1.542   1.156  14.364 -1.5656  0.6791  2.3075
 6596SOL     OW31420   1.809   1.994   5.112  0.1714  0.2168 -0.0005
 6596SOL    HW131421   1.764   1.983   5.195  0.2085 -0.4349 -0.0643
 6596SOL    HW231422   1.802   2.089   5.099  2.6947  0.3257 -0.6427
 6597SOL     OW31423   2.868   0.825   5.258 -0.5475  0.3933  0.3663
 6597SOL    HW131424   2.828   0.803   5.174  1.5880  1.9499 -1.0524
 6597SOL    HW231425   2.959   0.814   5.233 -0.9747 -1.1861 -0.4638
 6598SOL     OW31426   2.944   0.348   3.813  0.0437  0.0400 -0.1591
 6598SOL    HW131427   2.984   0.342   3.726  0.8937 -1.8971  0.3887
 6598SOL    HW231428   2.931   0.258   3.841  0.0205  0.3604  0.8681
 6599SOL     OW31429   1.636   2.306   7.714 -0.0124 -0.4438 -0.0850
 6599SOL    HW131430   1.551   2.279   7.748  0.3638  0.0100  1.1923
 6599SOL    HW231431   1.681   2.321   7.797  0.4881 -1.5151 -0.1513
 6600SOL     OW31432   1.686   0.721   5.911  0.3023 -0.2148  0.0432
 6600SOL    HW131433   1.673   0.779   5.836  1.1787  1.3355  1.0914
 6600SOL    HW231434   1.782   0.719   5.907  0.3451  2.6854 -0.3584
 6601SOL     OW31435   0.706   2.221   7.951  0.3185  0.2857  0.3760
 6601SOL    HW131436   0.610   2.219   7.952  0.4107 -2.7693  3.1504
 6601SOL    HW231437   0.730   2.141   7.999 -0.1472  0.3731  0.7538
 6602SOL     OW31438   2.518   0.299   4.385  0.0406 -0.3069  0.5286
 6602SOL    HW131439   2.503   0.377   4.332 -0.1383  1.0115  2.5239
 6602SOL    HW231440   2.603   0.275   4.349  0.3963 -0.1047  1.2442
 6603SOL     OW31441   0.230   0.043   3.620 -0.1101 -0.1759 -0.2698
 6603SOL    HW131442   0.245   4.727   3.543  0.3658 -1.2401  0.5784
 6603SOL    HW231443   0.135   0.054   3.621  0.0570  1.2338  0.8125
 6604SOL     OW31444   1.822   1.851   1.243 -0.1129  0.3105 -0.1806
 6604SOL    HW131445   1.747   1.868   1.300  1.7430  2.1031  1.7402
 6604SOL    HW231446   1.898   1.901   1.273  0.4870 -1.5365  1.4010
 6605SOL     OW31447   3.813   2.928   0.365  0.4515  0.4738  0.0681
 6605SOL    HW131448   3.763   2.858   0.407  0.6177  0.0939 -0.3760
 6605SOL    HW231449   3.846   2.980   0.439 -0.4750 -1.0680  1.5565
 6606SOL     OW31450   2.969   2.146   1.221 -0.1520  0.0193  0.0749
 6606SOL    HW131451   2.890   2.174   1.268 -0.9777 -2.2994  0.0605
 6606SOL    HW231452   2.986   2.205   1.148 -2.9308  1.8707  0.9317
 6607SOL     OW31453   3.448   3.133   9.787  0.3862 -0.3108 -0.7305
 6607SOL    HW131454   3.372   3.145   9.732  0.1690 -2.5566 -0.9154
 6607SOL    HW231455   3.401   3.098   9.863  0.3095 -2.4034 -1.7582
 6608SOL     OW31456   3.695   0.197   9.600  0.0584 -0.2769  0.9206
 6608SOL    HW131457   3.787   0.210   9.623  0.1083  0.1976  0.4559
 6608SOL    HW231458   3.674   0.287   9.575 -0.6637 -0.5133  0.6507
 6609SOL     OW31459   0.184   3.154   9.701 -0.4774 -0.1072  0.0601
 6609SOL    HW131460   0.166   3.228   9.759 -2.1987 -0.9486  0.5852
 6609SOL    HW231461   0.185   3.193   9.614  2.4167 -1.9603 -0.7598
 6610SOL     OW31462   0.661   4.727   6.129 -0.6296 -0.6090 -0.0809
 6610SOL    HW131463   0.577   4.718   6.083 -0.5289 -0.4633 -0.2930
 6610SOL    HW231464   0.689   4.641   6.161 -1.1273 -0.2428  1.3245
 6611SOL     OW31465   1.092   3.214   8.406  0.2174 -0.2501  0.4034
 6611SOL    HW131466   1.148   3.274   8.356 -0.2949 -0.6937 -0.7101
 6611SOL    HW231467   1.098   3.139   8.345  0.7832 -0.4013  0.6442
 6612SOL     OW31468   2.859   3.350   0.363  0.3241  0.4895  0.1455
 6612SOL    HW131469   2.805   3.277   0.392  0.8318  0.5489  1.2753
 6612SOL    HW231470   2.828   3.372   0.275 -1.2165  1.5598  0.9549
 6613SOL     OW31471   1.686   2.309   2.090  0.2004 -0.0263 -0.2251
 6613SOL    HW131472   1.680   2.405   2.082  0.2523  0.3194  3.5746
 6613SOL    HW231473   1.696   2.318   2.185 -0.8596 -0.5790 -0.0608
 6614SOL     OW31474   1.956   4.367  10.983 -0.5322 -0.3117  0.4025
 6614SOL    HW131475   1.986   4.458  10.988  1.6250 -1.1671  2.9188
 6614SOL    HW231476   1.871   4.385  10.943 -0.5197  0.2478  0.6325
 6615SOL     OW31477   1.395   0.931   9.016  0.4256  0.2960 -0.0698
 6615SOL    HW131478   1.369   0.986   9.090  0.5796 -2.0878  1.7464
 6615SOL    HW231479   1.326   0.931   8.950  3.0895  2.4546 -2.8248
 6616SOL     OW31480   2.074   4.662  16.072 -0.0788  0.4615 -0.0273
 6616SOL    HW131481   2.116   4.679  16.156  1.4993  4.8277 -1.6809
 6616SOL    HW231482   2.040   4.573  16.081 -2.0656  1.2474  0.2634
 6617SOL     OW31483   4.597   0.683  13.721  0.1596 -0.1075  0.1792
 6617SOL    HW131484   4.591   0.770  13.680 -0.5370 -0.3195 -0.1698
 6617SOL    HW231485   4.539   0.641  13.657 -2.2527  1.6282  1.1949
 6618SOL     OW31486   2.863   1.343   4.901 -0.0971 -0.3645  0.0865
 6618SOL    HW131487   2.838   1.377   4.815 -3.3056 -0.1056  1.1228
 6618SOL    HW231488   2.856   1.248   4.902 -2.6129 -0.1737  0.8662
 6619SOL     OW31489   0.674   1.257  15.754  0.1812  0.3009 -0.6740
 6619SOL    HW131490   0.725   1.179  15.734  0.9859  0.5960  0.1781
 6619SOL    HW231491   0.623   1.265  15.674  0.0965 -1.1108 -0.7661
 6620SOL     OW31492   4.133   2.351   5.924  0.2754 -0.0413  0.3645
 6620SOL    HW131493   4.074   2.375   5.996 -1.3060 -1.1223 -0.5725
 6620SOL    HW231494   4.108   2.260   5.908  1.6227 -0.0789 -1.5162
 6621SOL     OW31495   0.579   2.689   6.554 -0.3977  0.2645  0.0306
 6621SOL    HW131496   0.535   2.639   6.485  0.7265 -0.4361 -0.1831
 6621SOL    HW231497   0.508   2.730   6.603 -1.6762 -0.9889 -0.8058
 6622SOL     OW31498   2.645   2.498   7.015 -1.0911  0.0829  0.6038
 6622SOL    HW131499   2.730   2.471   7.049 -0.0266 -1.1418 -2.9981
 6622SOL    HW231500   2.618   2.426   6.959  1.6657 -0.5193  0.0297
 6623SOL     OW31501   1.037   2.137   2.650  0.7234  0.3818  0.2042
 6623SOL    HW131502   1.118   2.126   2.600 -0.0172 -2.0547 -0.4162
 6623SOL    HW231503   0.984   2.071   2.606  0.0377  1.0747 -0.0190
 6624SOL     OW31504   3.405   2.996   6.121  0.3011  0.1472  0.1445
 6624SOL    HW131505   3.319   2.956   6.107 -0.1538  0.4628  2.0014
 6624SOL    HW231506   3.389   3.087   6.096  1.0429 -0.1415 -1.3273
 6625SOL     OW31507   1.555   2.362   6.866  0.3585 -0.5311 -0.4836
 6625SOL    HW131508   1.570   2.328   6.778 -0.7064  0.0491 -0.8934
 6625SOL    HW231509   1.541   2.280   6.914  0.2657  0.9664  2.0765
 6626SOL     OW31510   3.787   2.670   5.630  0.2191 -0.2227  0.4154
 6626SOL    HW131511   3.817   2.760   5.641  0.7537 -0.2610 -0.6867
 6626SOL    HW231512   3.805   2.640   5.540 -1.0841 -1.1003  0.4459
 6627SOL     OW31513   0.792   4.690  13.257 -0.0407  0.1605 -0.2455
 6627SOL    HW131514   0.744   0.025  13.221 -0.4788 -0.1359 -0.2704
 6627SOL    HW231515   0.788   4.708  13.351 -2.2914 -1.2076 -0.0802
 6628SOL     OW31516   4.524   4.592   4.458 -0.4793 -0.4819 -0.5171
 6628SOL    HW131517   4.491   4.628   4.376  0.5230  0.6109 -0.4455
 6628SOL    HW231518   4.516   4.499   4.438  1.3794 -0.9215  0.8323
 6629SOL     OW31519   1.709   0.115  12.261  0.6206  0.4481  0.0731
 6629SOL    HW131520   1.777   0.081  12.321  0.5019  1.7872  0.9689
 6629SOL    HW231521   1.710   0.039  12.203  0.0590  1.2044 -0.9136
 6630SOL     OW31522   4.451   0.976   3.347 -0.2505 -0.1759 -0.1605
 6630SOL    HW131523   4.545   0.968   3.365 -0.2494  1.8214  0.6214
 6630SOL    HW231524   4.464   0.929   3.264  0.4055 -2.9343  1.4814
 6631SOL     OW31525   3.850   1.516   1.897 -0.1037  0.4751  0.2078
 6631SOL    HW131526   3.814   1.598   1.863  1.1487  1.1623  0.5203
 6631SOL    HW231527   3.904   1.479   1.828 -1.9657 -0.4856 -0.7424
 6632SOL     OW31528   0.701   0.860  17.146 -0.0347 -0.1189 -0.2035
 6632SOL    HW131529   0.656   0.850  17.229  1.8582 -0.4080  0.7819
 6632SOL    HW231530   0.775   0.906  17.185 -0.1623 -0.2118  0.1436
 6633SOL     OW31531   2.078   4.419   8.270 -0.2783 -0.2881 -0.0740
 6633SOL    HW131532   2.045   4.504   8.298  3.0528  1.0367 -0.1092
 6633SOL    HW231533   2.167   4.430   8.303 -0.5061  0.6698  0.2268
 6634SOL     OW31534   0.533   4.557   5.917 -0.4027  0.8810  0.2173
 6634SOL    HW131535   0.448   4.598   5.905  0.7922  3.1372 -0.4839
 6634SOL    HW231536   0.531   4.511   6.001 -0.0329 -2.0603 -1.3566
 6635SOL     OW31537   3.674   3.969   2.335  0.0699  0.1705  0.1788
 6635SOL    HW131538   3.723   4.008   2.408 -0.0273 -1.5690  1.1641
 6635SOL    HW231539   3.696   4.036   2.270 -0.9150  2.0781  1.7944
 6636SOL     OW31540   2.841   2.260   1.449 -0.4122 -0.0039 -0.1875
 6636SOL    HW131541   2.790   2.243   1.528  0.8436  0.1269  0.6523
 6636SOL    HW231542   2.817   2.344   1.411  0.3832  0.0789 -0.5153
 6637SOL     OW31543   3.657   2.087   0.231 -0.6202 -0.2912 -0.5311
 6637SOL    HW131544   3.712   2.045   0.165  1.7107  1.1129  0.5435
 6637SOL    HW231545   3.612   2.009   0.264  0.8045 -0.8447  0.0771
 6638SOL     OW31546   4.446   0.715   7.827 -0.0762 -0.6185  0.6363
 6638SOL    HW131547   4.431   0.809   7.835 -1.4020 -0.7128 -0.7137
 6638SOL    HW231548   4.470   0.701   7.736 -0.2354  1.0534  0.3395
 6639SOL     OW31549   0.803   0.776  16.909 -0.3568  0.3799 -0.2770
 6639SOL    HW131550   0.745   0.717  16.861  1.4217 -1.0930 -0.6340
 6639SOL    HW231551   0.751   0.800  16.985 -0.1352  0.7251 -0.2327
 6640SOL     OW31552   1.889   2.095  12.582  0.1369 -0.3564 -0.2302
 6640SOL    HW131553   1.805   2.136  12.562 -0.6071 -1.5595  0.5059
 6640SOL    HW231554   1.952   2.167  12.578  0.4496 -0.6465 -0.5396
 6641SOL     OW31555   1.402   0.761  14.658 -0.1240  0.1174 -0.0185
 6641SOL    HW131556   1.448   0.716  14.728 -0.2785  1.1592  0.7547
 6641SOL    HW231557   1.442   0.714  14.586 -1.1902 -0.8661  0.0235
 6642SOL     OW31558   3.441   0.407   8.033 -0.1820 -0.3680  0.0237
 6642SOL    HW131559   3.361   0.381   8.079  0.6432 -1.2379  0.9736
 6642SOL    HW231560   3.509   0.349   8.068 -1.0322  0.3131  2.7878
 6643SOL     OW31561   0.897   4.563   7.404  0.6436  0.2111  0.4617
 6643SOL    HW131562   0.880   4.572   7.497  2.0634  2.1594  0.5529
 6643SOL    HW231563   0.959   4.490   7.399  0.7321  0.2188  1.3901
 6644SOL     OW31564   3.210   0.219   1.762 -0.6704 -0.3858  0.6105
 6644SOL    HW131565   3.203   0.170   1.680  1.9965 -1.2265  0.8851
 6644SOL    HW231566   3.161   0.299   1.744  0.3819  0.4589  1.5163
 6645SOL     OW31567   1.226   1.255   4.832  0.2977  0.3398  0.4339
 6645SOL    HW131568   1.168   1.194   4.879  0.9910 -1.9701 -1.6791
 6645SOL    HW231569   1.280   1.196   4.779  0.2495  1.0811 -0.4300
 6646SOL     OW31570   1.715   2.298   5.117  0.0646  0.3061  0.9776
 6646SOL    HW131571   1.712   2.286   5.212  4.0417 -4.7820  0.4873
 6646SOL    HW231572   1.625   2.327   5.098  0.7596  1.5916 -0.3016
 6647SOL     OW31573   3.549   4.439   4.340  0.4912 -0.8079  0.8938
 6647SOL    HW131574   3.473   4.496   4.328  0.6131 -1.2210 -1.6759
 6647SOL    HW231575   3.541   4.368   4.277  1.4645 -1.5439  1.5991
 6648SOL     OW31576   2.608   3.178  15.396 -0.6380  0.6912 -0.3896
 6648SOL    HW131577   2.546   3.106  15.407 -0.7998  1.1338  1.6962
 6648SOL    HW231578   2.683   3.142  15.444 -2.2983 -1.3525  0.6539
 6649SOL     OW31579   0.816   2.883  16.080  0.0235 -0.3003  0.6982
 6649SOL    HW131580   0.737   2.830  16.066  0.5327 -0.4382 -1.6041
 6649SOL    HW231581   0.786   2.973  16.075  0.6544 -0.2468 -2.4135
 6650SOL     OW31582   2.146   3.880   1.814 -0.6470 -0.4142 -0.5058
 6650SOL    HW131583   2.206   3.883   1.889 -0.4246  0.1312 -0.7040
 6650SOL    HW231584   2.067   3.846   1.855 -1.7556  1.6677 -0.9223
 6651SOL     OW31585   0.462   2.468   7.167  0.5097 -0.0565 -0.2025
 6651SOL    HW131586   0.524   2.539   7.186  0.9488 -0.9726  1.7215
 6651SOL    HW231587   0.483   2.438   7.079  3.4208  0.9829  0.1566
 6652SOL     OW31588   3.565   3.668   5.657  0.2149  0.1889 -0.0761
 6652SOL    HW131589   3.614   3.612   5.718  2.2208  1.5828 -0.4236
 6652SOL    HW231590   3.623   3.744   5.655 -0.9255  1.1131  1.4164
 6653SOL     OW31591   2.542   1.857  11.400  0.0714 -0.1900 -0.6720
 6653SOL    HW131592   2.578   1.858  11.312  1.2855  1.2570 -0.1541
 6653SOL    HW231593   2.562   1.775  11.444  2.4187  0.7310 -0.0376
 6654SOL     OW31594   0.482   0.359   7.785  1.1636  0.1626 -0.1050
 6654SOL    HW131595   0.524   0.445   7.792  0.7847  0.2119  1.6475
 6654SOL    HW231596   0.439   0.354   7.870 -2.5756 -0.4397 -2.0144
 6655SOL     OW31597   3.603   2.835   6.066  0.0693  0.4203 -0.3566
 6655SOL    HW131598   3.528   2.879   6.105  0.7999 -0.5206  2.1106
 6655SOL    HW231599   3.632   2.889   5.993 -0.5605 -0.6220 -1.3794
 6656SOL     OW31600   4.733   0.601   9.728  0.3095  0.2990 -0.4708
 6656SOL    HW131601   0.011   0.650   9.647 -0.4739  2.9193  0.9568
 6656SOL    HW231602   4.641   0.622   9.744 -0.8881 -4.7916 -0.9605
 6657SOL     OW31603   1.904   1.879   7.987  0.1497 -0.3986  0.4749
 6657SOL    HW131604   1.848   1.835   8.051  0.4437 -0.8331  0.4315
 6657SOL    HW231605   1.839   1.931   7.939 -0.1787  0.4682  1.8676
 6658SOL     OW31606   4.177   0.903   3.436  0.3843  0.2172 -0.3281
 6658SOL    HW131607   4.266   0.928   3.410  0.7190  0.8865  1.5170
 6658SOL    HW231608   4.193   0.840   3.506  1.0614 -1.7420 -2.2249
 6659SOL     OW31609   0.534   3.126   6.675 -0.1610 -0.5589  0.2536
 6659SOL    HW131610   0.524   3.100   6.766 -1.0295  2.1927  0.9544
 6659SOL    HW231611   0.496   3.214   6.666 -0.3285 -0.8161 -1.6095
 6660SOL     OW31612   4.137   1.274  11.261  0.1261  0.4290 -0.0421
 6660SOL    HW131613   4.063   1.308  11.312  0.8721  1.3807  0.3996
 6660SOL    HW231614   4.091   1.246  11.182  1.1179  0.8230 -0.7708
 6661SOL     OW31615   3.951   0.574   8.327  0.4441  0.5290  0.1724
 6661SOL    HW131616   3.978   0.666   8.325 -1.2509  1.0101 -0.8300
 6661SOL    HW231617   3.937   0.552   8.235 -0.7171 -0.1044  0.4971
 6662SOL     OW31618   3.610   3.866   7.902 -0.0878  0.5590  0.1323
 6662SOL    HW131619   3.546   3.935   7.886  0.6692  1.1586 -0.3458
 6662SOL    HW231620   3.602   3.840   7.810 -1.1701  0.1448  0.3470
 6663SOL     OW31621   0.970   3.634   4.338 -0.7043 -0.3480 -0.2130
 6663SOL    HW131622   1.007   3.575   4.404  0.7418  0.2946 -0.4520
 6663SOL    HW231623   0.932   3.703   4.392  2.2336  1.7340 -0.8159
 6664SOL     OW31624   3.932   1.132   5.823 -0.4274  0.3832 -0.0573
 6664SOL    HW131625   3.903   1.111   5.734 -0.3558 -0.0646  0.0263
 6664SOL    HW231626   3.922   1.046   5.865  0.0324  0.3614  0.0050
 6665SOL     OW31627   1.082   4.287  15.496  0.2956 -0.0828  0.5208
 6665SOL    HW131628   1.121   4.328  15.419 -0.8742  0.6628  0.3268
 6665SOL    HW231629   1.059   4.202  15.460 -1.2195  0.2512  0.7284
 6666SOL     OW31630   0.719   0.481   5.854 -0.0534  0.2129  0.6825
 6666SOL    HW131631   0.665   0.409   5.821  3.0754 -2.2029  0.7481
 6666SOL    HW231632   0.804   0.443   5.875  0.9267  1.6597 -0.6843
 6667SOL     OW31633   0.307   0.976   3.385  0.0049  0.0069 -0.2737
 6667SOL    HW131634   0.268   1.063   3.390 -0.4917 -0.2546  0.4142
 6667SOL    HW231635   0.278   0.957   3.296 -1.0635 -0.0372  0.0857
 6668SOL     OW31636   4.605   3.357   7.086 -0.1960 -0.4865 -0.4591
 6668SOL    HW131637   4.614   3.442   7.044  0.3005  0.2911  1.2109
 6668SOL    HW231638   4.655   3.374   7.166 -0.7519  1.2394 -0.4920
 6669SOL     OW31639   4.349   2.664   6.134  0.2714 -0.2604 -0.1001
 6669SOL    HW131640   4.258   2.643   6.154 -0.1226  0.5766 -1.0260
 6669SOL    HW231641   4.400   2.667   6.215 -0.4205 -0.7463  0.3474
 6670SOL     OW31642   3.117   0.050   3.531  0.0817  0.0758  0.0819
 6670SOL    HW131643   3.023   0.062   3.519 -0.3078 -2.1494  0.9012
 6670SOL    HW231644   3.141   0.129   3.484  1.2199 -1.1606 -1.4297
 6671SOL     OW31645   3.809   0.124   9.015 -0.0078 -0.6678 -0.1135
 6671SOL    HW131646   3.717   0.144   9.029  0.1518  0.5288 -0.8161
 6671SOL    HW231647   3.822   0.157   8.926 -1.2119  0.3919  0.1103
 6672SOL     OW31648   0.473   3.227  13.326 -0.1104  0.0248  0.2130
 6672SOL    HW131649   0.503   3.141  13.356  1.7121  0.7794  0.5541
 6672SOL    HW231650   0.447   3.271  13.408 -2.0793  0.3897 -0.6038
 6673SOL     OW31651   3.439   3.151   2.011  0.3558 -0.2425 -0.0991
 6673SOL    HW131652   3.458   3.138   2.104 -1.4058  0.4383  0.3568
 6673SOL    HW231653   3.348   3.179   2.009  1.1250  2.2674  0.0122
 6674SOL     OW31654   0.843   0.758   7.297  0.0404  0.4304  0.1965
 6674SOL    HW131655   0.837   0.830   7.234  2.1477 -1.0844 -1.6995
 6674SOL    HW231656   0.821   0.684   7.241 -1.3854  2.0477 -1.3698
 6675SOL     OW31657   0.472   3.647   7.211 -0.6353 -0.1357  0.0436
 6675SOL    HW131658   0.386   3.653   7.170 -0.6103  1.6069  0.2311
 6675SOL    HW231659   0.440   3.611   7.293 -0.5747  1.2562  0.6740
 6676SOL     OW31660   1.449   3.171  14.665 -0.4355 -0.1824  0.0004
 6676SOL    HW131661   1.472   3.242  14.605 -1.7176  0.7365  0.6067
 6676SOL    HW231662   1.438   3.220  14.746 -0.0319  0.4690 -0.3348
 6677SOL     OW31663   2.493   1.573   2.918 -0.3786 -0.3646 -0.3849
 6677SOL    HW131664   2.517   1.517   2.844 -1.1449 -0.1896 -0.7689
 6677SOL    HW231665   2.399   1.556   2.927 -0.1730 -1.4456 -0.2598
 6678SOL     OW31666   2.665   1.590   7.955  0.0387  0.2245 -0.1625
 6678SOL    HW131667   2.615   1.553   7.883 -0.1389  0.1144  0.0152
 6678SOL    HW231668   2.685   1.512   8.007 -0.4849 -0.7200 -1.3751
 6679SOL     OW31669   2.693   1.529  10.649 -0.1069 -0.8464  0.7397
 6679SOL    HW131670   2.726   1.501  10.564  0.1368 -1.2343  0.9600
 6679SOL    HW231671   2.600   1.512  10.631 -0.7422  0.9094  2.3714
 6680SOL     OW31672   2.459   1.730   5.561  0.0405 -0.2228 -0.2391
 6680SOL    HW131673   2.451   1.780   5.642  2.5311 -1.7530  0.9143
 6680SOL    HW231674   2.448   1.642   5.596  1.5859 -0.5112 -0.5238
 6681SOL     OW31675   3.029   2.820   4.411  0.1800 -0.6416  0.5130
 6681SOL    HW131676   3.058   2.857   4.494  0.3804  0.7064 -0.1610
 6681SOL    HW231677   2.938   2.810   4.438  0.0382 -0.7890 -0.0268
 6682SOL     OW31678   2.857   3.186   6.874  0.3307  0.4232 -0.6442
 6682SOL    HW131679   2.941   3.140   6.874 -0.3146 -0.8362  3.4362
 6682SOL    HW231680   2.868   3.247   6.802  2.7735  1.3462  0.5117
 6683SOL     OW31681   0.515   1.908   6.716 -0.3434 -0.6435 -0.3921
 6683SOL    HW131682   0.530   1.985   6.770 -0.8236 -1.5499  1.0314
 6683SOL    HW231683   0.501   1.959   6.636  0.9734  2.7325  1.5253
 6684SOL     OW31684   3.105   1.016   7.210  0.4405  0.3468 -0.6591
 6684SOL    HW131685   3.094   1.111   7.214  0.8614  0.3736 -0.0537
 6684SOL    HW231686   3.130   0.999   7.301 -0.7647 -5.0838 -1.3410
 6685SOL     OW31687   1.626   3.796  14.900  0.5530 -0.1883 -0.4869
 6685SOL    HW131688   1.701   3.840  14.860  0.4392  1.1688  0.8033
 6685SOL    HW231689   1.665   3.754  14.977 -2.0398 -2.2445 -0.2733
 6686SOL     OW31690   0.989   1.870   6.363 -0.0886  0.1437 -0.3118
 6686SOL    HW131691   0.934   1.893   6.288  0.3382 -0.4503 -0.8011
 6686SOL    HW231692   0.929   1.812   6.410 -0.0397  0.2165 -0.1598
 6687SOL     OW31693   3.671   4.451   8.839  0.7686 -0.4917 -0.0385
 6687SOL    HW131694   3.591   4.467   8.789  1.7684  0.4207 -1.3623
 6687SOL    HW231695   3.644   4.364   8.869 -0.4680 -0.2922 -0.5792
 6688SOL     OW31696   0.826   0.933   6.498 -0.2769  0.3421 -0.1439
 6688SOL    HW131697   0.837   0.942   6.403 -0.4423  1.5100 -0.0542
 6688SOL    HW231698   0.857   0.842   6.506  0.4777  0.6545  0.5560
 6689SOL     OW31699   1.167   4.203   5.011  0.1198  0.0511  0.1950
 6689SOL    HW131700   1.258   4.200   5.040 -0.4986  0.9950  2.2382
 6689SOL    HW231701   1.134   4.230   5.097 -2.0912 -0.2779 -0.5367
 6690SOL     OW31702   0.340   3.130   7.131  0.5434 -0.6817 -0.7851
 6690SOL    HW131703   0.321   3.210   7.179  1.9697 -0.6272 -0.2968
 6690SOL    HW231704   0.308   3.155   7.045  0.6324 -1.1482 -0.9550
 6691SOL     OW31705   0.188   3.967   9.147  0.1194 -0.4625  0.2588
 6691SOL    HW131706   0.171   3.879   9.182 -1.7958  0.2331  1.0827
 6691SOL    HW231707   0.278   3.962   9.116  0.1280 -0.4909  0.2884
 6692SOL     OW31708   1.162   1.474   3.146  0.1804 -0.1806  0.2778
 6692SOL    HW131709   1.097   1.441   3.083 -1.0738 -1.1498  2.0561
 6692SOL    HW231710   1.158   1.415   3.221 -2.0012  1.3201  1.3235
 6693SOL     OW31711   0.117   1.805  12.638 -0.4572 -0.1903 -0.6088
 6693SOL    HW131712   0.021   1.810  12.635 -0.3671  0.8163 -1.7227
 6693SOL    HW231713   0.130   1.753  12.558  2.5810 -1.4320  0.6981
 6694SOL     OW31714   2.673   3.584  10.378 -0.1699 -0.0365  0.0207
 6694SOL    HW131715   2.624   3.541  10.308  0.1298 -0.5723  0.1382
 6694SOL    HW231716   2.709   3.646  10.314 -0.9930  0.9490  0.5139
 6695SOL     OW31717   1.573   0.234   5.137 -0.2179 -0.0553 -0.4643
 6695SOL    HW131718   1.566   0.307   5.199  3.0092 -0.4670  0.3909
 6695SOL    HW231719   1.480   0.213   5.137 -0.1178 -0.5134 -0.1026
 6696SOL     OW31720   3.766   3.741  13.856  0.3499 -0.3537  0.3099
 6696SOL    HW131721   3.752   3.808  13.923  2.0010  0.8266 -0.5085
 6696SOL    HW231722   3.686   3.689  13.852 -0.0636  0.3777 -1.1139
 6697SOL     OW31723   3.117   2.916   4.690 -0.0351 -0.0267 -0.1556
 6697SOL    HW131724   3.054   2.885   4.755  1.9061 -1.5283  1.0314
 6697SOL    HW231725   3.074   2.994   4.655 -0.1626 -0.2567 -0.5208
 6698SOL     OW31726   3.461   4.260   2.159 -0.8309 -0.9926 -0.4983
 6698SOL    HW131727   3.454   4.174   2.117 -1.8291 -1.0421 -0.2297
 6698SOL    HW231728   3.534   4.302   2.112 -0.0741 -1.3978  0.3233
 6699SOL     OW31729   0.156   0.942   4.204  0.2240  0.2096 -0.4270
 6699SOL    HW131730   0.205   0.922   4.125  2.7506  1.1790  0.8973
 6699SOL    HW231731   0.216   1.003   4.247 -1.6283 -1.0544  3.9847
 6700SOL     OW31732   0.576   1.745   4.559  0.9727  0.2929 -0.2421
 6700SOL    HW131733   0.572   1.700   4.643 -0.9968 -2.3047 -1.7019
 6700SOL    HW231734   0.617   1.822   4.598 -0.5871  0.8819  0.2155
 6701SOL     OW31735   3.932   4.250   8.051  0.2308  0.1594 -0.4404
 6701SOL    HW131736   3.860   4.288   8.101 -0.0962 -0.0766 -0.7326
 6701SOL    HW231737   3.887   4.204   7.981 -0.2102  0.4137 -0.3264
 6702SOL     OW31738   0.955   4.019   2.108  0.3031 -0.2594 -0.2008
 6702SOL    HW131739   1.001   4.092   2.068 -0.3768 -0.3112 -1.0565
 6702SOL    HW231740   0.989   4.012   2.198 -0.9822  1.8581  0.4449
 6703SOL     OW31741   0.749   2.519   5.124 -0.4021  0.0027 -0.3649
 6703SOL    HW131742   0.792   2.601   5.099  0.3204  0.4561  2.3146
 6703SOL    HW231743   0.734   2.548   5.215 -2.1604  2.5871 -1.4738
 6704SOL     OW31744   1.234   1.402  10.791 -0.2595 -0.2833  0.4498
 6704SOL    HW131745   1.177   1.326  10.780 -0.0087 -0.5939  1.2936
 6704SOL    HW231746   1.188   1.453  10.857  2.0705 -0.5075  2.2187
 6705SOL     OW31747   2.321   3.678   8.256 -0.2408 -0.5888 -0.6541
 6705SOL    HW131748   2.258   3.748   8.272  1.3592  0.4581  1.2154
 6705SOL    HW231749   2.327   3.654   8.348 -0.4061  0.2671 -0.4147
 6706SOL     OW31750   1.622   3.437   6.732  0.7598  0.1386 -0.1095
 6706SOL    HW131751   1.672   3.360   6.760 -1.1477 -1.0761 -0.0420
 6706SOL    HW231752   1.675   3.509   6.765  3.0643 -2.3254  1.5869
 6707SOL     OW31753   2.058   3.003   1.050  0.2628  0.2600 -1.0287
 6707SOL    HW131754   2.030   2.987   1.140 -0.7418 -1.8340 -1.7168
 6707SOL    HW231755   2.146   2.965   1.055  0.4812  0.6774 -1.7507
 6708SOL     OW31756   3.063   3.394  17.492  0.5567  0.0359  0.5778
 6708SOL    HW131757   3.158   3.383  17.487  0.8598  2.5974  0.5875
 6708SOL    HW231758   3.046   3.429  17.404  0.4469  1.1400  1.0327
 6709SOL     OW31759   0.489   3.669  10.077 -0.1145 -0.3288 -0.3888
 6709SOL    HW131760   0.449   3.749  10.042 -1.9434 -0.0156  2.4338
 6709SOL    HW231761   0.461   3.605  10.011  0.1081  0.1655 -0.9708
 6710SOL     OW31762   4.736   1.777  17.182  0.0026 -0.3241  0.1659
 6710SOL    HW131763   0.011   1.870  17.200 -0.7806 -0.2964  0.6168
 6710SOL    HW231764   0.010   1.773  17.087 -3.7853 -1.8773 -0.2992
 6711SOL     OW31765   3.166   4.242   6.437 -0.0125 -0.7862 -0.7466
 6711SOL    HW131766   3.136   4.320   6.391  0.5162 -0.5364 -0.6707
 6711SOL    HW231767   3.088   4.192   6.462 -0.6763 -0.3362 -1.9446
 6712SOL     OW31768   2.071   4.113   2.092 -0.1978 -0.2657  0.3385
 6712SOL    HW131769   2.106   4.164   2.019  1.3822 -0.8913  0.6741
 6712SOL    HW231770   1.976   4.117   2.081 -0.2573 -1.0000  0.5895
 6713SOL     OW31771   2.102   1.230   6.358  0.3209  0.2461  0.6192
 6713SOL    HW131772   2.133   1.241   6.448 -1.3777 -1.0485  1.3519
 6713SOL    HW231773   2.021   1.279   6.372 -0.3498 -1.0359  1.1824
 6714SOL     OW31774   4.445   1.323  16.087  0.4830  0.9980  0.7792
 6714SOL    HW131775   4.423   1.388  16.153 -3.6989  1.8985 -1.4939
 6714SOL    HW231776   4.540   1.333  16.093  0.7904 -0.1992 -1.7392
 6715SOL     OW31777   2.714   2.133   0.910  0.8315  0.5345 -0.4420
 6715SOL    HW131778   2.726   2.224   0.886  2.3920  0.2129 -0.9322
 6715SOL    HW231779   2.710   2.152   1.004  4.1205  1.1804 -0.4185
 6716SOL     OW31780   2.173   3.624   1.245 -0.2414 -0.2347 -0.2352
 6716SOL    HW131781   2.193   3.635   1.338 -2.4326  0.6112  0.1361
 6716SOL    HW231782   2.145   3.532   1.243 -2.4585  0.4664 -0.8872
 6717SOL     OW31783   4.015   1.253   6.979  0.3228 -0.5019  0.2142
 6717SOL    HW131784   4.016   1.221   7.069  0.3889  0.0243  0.4007
 6717SOL    HW231785   4.103   1.227   6.951 -0.0286  0.8882 -2.2304
 6718SOL     OW31786   1.829   0.027   9.788 -0.4354 -0.4303  0.0567
 6718SOL    HW131787   1.892   0.083   9.834  1.1667 -0.2252 -2.3512
 6718SOL    HW231788   1.879   4.685   9.784  0.4228  0.0589  0.7288
 6719SOL     OW31789   2.065   1.476  11.201  0.3966  0.1212 -0.0649
 6719SOL    HW131790   2.080   1.530  11.123 -0.2943 -0.7915 -0.8293
 6719SOL    HW231791   1.971   1.463  11.211  0.7939 -0.3334  3.1954
 6720SOL     OW31792   4.729   0.781   9.521  0.0539  0.1346 -0.3297
 6720SOL    HW131793   4.693   0.866   9.546  0.3137 -0.1457  0.9992
 6720SOL    HW231794   4.662   0.747   9.462 -0.6648 -0.7033  0.9637
 6721SOL     OW31795   1.847   2.507  17.603  0.6210 -0.0317  0.2394
 6721SOL    HW131796   1.935   2.498  17.569  1.0555 -0.0202  1.3472
 6721SOL    HW231797   1.796   2.481  17.526 -0.7412 -1.6124  1.6581
 6722SOL     OW31798   3.738   0.047  12.140  0.3970 -0.5431  0.3162
 6722SOL    HW131799   3.676   4.725  12.101  1.3645 -0.7486 -0.8919
 6722SOL    HW231800   3.812   0.059  12.081 -0.1621 -0.5273 -0.3844
 6723SOL     OW31801   0.913   4.350   7.063 -0.4048  0.0425 -0.4406
 6723SOL    HW131802   0.932   4.433   7.019  2.0004  0.0961  0.7041
 6723SOL    HW231803   0.847   4.382   7.124 -1.3272 -1.8302 -0.4671
 6724SOL     OW31804   3.944   3.255   7.074  0.4289  0.4989  0.0503
 6724SOL    HW131805   3.997   3.302   7.010 -0.0620  0.0759 -0.6669
 6724SOL    HW231806   4.014   3.212   7.124 -0.1200 -0.2729  0.1596
 6725SOL     OW31807   2.314   3.743   1.007 -0.5619  0.4080  0.5862
 6725SOL    HW131808   2.302   3.697   1.091 -1.4593  2.2022  1.4536
 6725SOL    HW231809   2.408   3.729   1.000 -0.2404  1.8473  2.1395
 6726SOL     OW31810   3.394   4.682   7.151 -0.1938 -0.3183  0.3135
 6726SOL    HW131811   3.432   4.631   7.079  0.1253 -1.8953  1.6009
 6726SOL    HW231812   3.299   4.675   7.140 -0.0236  0.0555 -1.3404
 6727SOL     OW31813   3.659   0.101  12.412 -0.4315 -0.2488 -0.4326
 6727SOL    HW131814   3.649   0.075  12.320 -2.4395 -0.1706 -0.2380
 6727SOL    HW231815   3.727   0.168  12.406 -1.5658  0.8517 -1.1582
 6728SOL     OW31816   4.464   0.103   2.082  0.1032 -0.3804  0.3433
 6728SOL    HW131817   4.386   0.106   2.028 -0.0901  0.5266  0.6796
 6728SOL    HW231818   4.454   0.166   2.154  1.1579  1.0431 -0.7575
 6729SOL     OW31819   0.880   3.932  10.785  0.2729 -0.0249  0.6791
 6729SOL    HW131820   0.816   3.863  10.804  0.9690 -0.6674  0.7068
 6729SOL    HW231821   0.859   3.958  10.695 -2.3389  0.8973  1.5740
 6730SOL     OW31822   1.040   0.865   6.787  0.0301  0.1003  0.1404
 6730SOL    HW131823   1.059   0.866   6.881  1.0015 -0.4734 -0.0453
 6730SOL    HW231824   1.029   0.958   6.769 -2.2213 -0.3764 -0.8723
 6731SOL     OW31825   1.306   4.205  12.877  0.5612  0.4681 -0.0590
 6731SOL    HW131826   1.215   4.176  12.872  1.0826 -1.6888  2.8431
 6731SOL    HW231827   1.337   4.194  12.787  1.9256 -1.2382  0.6062
 6732SOL     OW31828   1.047   2.103   9.441 -0.0827  0.1996 -0.4868
 6732SOL    HW131829   1.078   2.016   9.465  1.7727  2.0721  4.0142
 6732SOL    HW231830   1.030   2.092   9.348 -0.9856  0.8490 -0.4002
 6733SOL     OW31831   2.608   3.634   2.105 -0.2047  0.8947 -0.1957
 6733SOL    HW131832   2.653   3.717   2.122 -0.9202  1.2954 -0.2686
 6733SOL    HW231833   2.685   3.594   2.064 -1.0133 -1.6066  0.7145
 6734SOL     OW31834   1.982   1.094   9.091  0.0704 -0.0583  0.3721
 6734SOL    HW131835   1.914   1.027   9.098 -1.1182  1.1901  0.8158
 6734SOL    HW231836   1.941   1.178   9.070  2.4870  0.5006 -2.0435
 6735SOL     OW31837   0.923   3.360   6.411  0.2490 -0.5011  0.1934
 6735SOL    HW131838   0.978   3.433   6.439  0.8585  0.2105 -2.8708
 6735SOL    HW231839   0.835   3.398   6.408  1.7858  3.0050 -0.6693
 6736SOL     OW31840   3.634   2.960  15.770  0.0411  0.2443 -0.0105
 6736SOL    HW131841   3.568   2.920  15.713 -0.7685 -0.8207  1.6774
 6736SOL    HW231842   3.592   3.040  15.802  0.0664 -0.0070  0.6527
 6737SOL     OW31843   2.712   3.394   7.834  0.2512  0.2662 -0.0552
 6737SOL    HW131844   2.644   3.455   7.805 -1.9698 -1.4250  1.6046
 6737SOL    HW231845   2.730   3.420   7.924  0.1147  2.6555 -0.7143
 6738SOL     OW31846   3.593   0.338   6.720 -0.3062  0.2345  0.6139
 6738SOL    HW131847   3.609   0.341   6.625 -2.5376 -4.5263  0.0919
 6738SOL    HW231848   3.547   0.418   6.743  1.3341  0.9193  1.4911
 6739SOL     OW31849   2.182   1.649   4.338  0.4268  0.5705  0.2475
 6739SOL    HW131850   2.166   1.700   4.259  0.4652 -1.7064 -1.2262
 6739SOL    HW231851   2.218   1.574   4.292 -0.3264 -1.4657  3.0077
 6740SOL     OW31852   1.863   0.444   8.090  0.4141  0.3546 -0.0484
 6740SOL    HW131853   1.909   0.525   8.069  2.6138 -0.0836  3.0615
 6740SOL    HW231854   1.933   0.390   8.129 -0.3237 -0.3166  0.3409
 6741SOL     OW31855   4.215   1.868   9.870  0.1023 -0.0597  0.0945
 6741SOL    HW131856   4.126   1.879   9.837 -0.2119 -0.9546  0.6612
 6741SOL    HW231857   4.216   1.797   9.934 -2.3035  0.7264  0.9979
 6742SOL     OW31858   3.252   1.012   2.872  0.3006 -0.3387  0.1246
 6742SOL    HW131859   3.279   0.941   2.930  2.0729 -0.0251 -0.3208
 6742SOL    HW231860   3.272   1.092   2.919  0.7636  0.3368 -1.2206
 6743SOL     OW31861   3.107   3.569  12.198 -0.1147 -0.1948  0.0823
 6743SOL    HW131862   3.096   3.659  12.167 -1.3496 -1.1385 -2.1781
 6743SOL    HW231863   3.019   3.543  12.222 -1.5708  2.2578 -2.6000
 6744SOL     OW31864   1.327   3.658   3.676  0.0712 -0.1821  0.3767
 6744SOL    HW131865   1.264   3.587   3.663  1.1246 -0.9681 -0.4521
 6744SOL    HW231866   1.388   3.610   3.731  0.1557  1.0784  1.3761
 6745SOL     OW31867   2.387   1.183   5.418 -0.2125 -0.2000  0.1255
 6745SOL    HW131868   2.376   1.182   5.323  0.6713 -2.1552  0.0487
 6745SOL    HW231869   2.465   1.237   5.430 -0.8977  0.6427  0.8477
 6746SOL     OW31870   3.186   0.593   3.663 -0.1293  0.1082 -0.3550
 6746SOL    HW131871   3.160   0.654   3.594 -1.5136  0.8279  0.8103
 6746SOL    HW231872   3.271   0.575   3.622  0.2535 -2.2268  1.4602
 6747SOL     OW31873   4.241   2.641   7.277  0.4322  0.0221  0.6245
 6747SOL    HW131874   4.214   2.645   7.185 -2.0814 -1.0915  1.3097
 6747SOL    HW231875   4.167   2.598   7.319 -1.0662  0.5233 -1.4852
 6748SOL     OW31876   1.338   1.045  17.499 -0.4608 -0.2152  0.2401
 6748SOL    HW131877   1.413   0.992  17.523  2.1883  2.9637 -0.9635
 6748SOL    HW231878   1.271   0.977  17.502  0.9225 -1.4681  2.2212
 6749SOL     OW31879   3.282   3.932   8.792 -0.2335  0.1083 -0.5396
 6749SOL    HW131880   3.299   3.839   8.808  0.8939  0.2487 -0.8857
 6749SOL    HW231881   3.218   3.921   8.722  1.2179 -0.8040 -1.7200
 6750SOL     OW31882   3.493   0.334   5.052 -0.0400 -0.6317  0.3008
 6750SOL    HW131883   3.403   0.339   5.083 -0.0548  0.7485  0.0680
 6750SOL    HW231884   3.488   0.411   4.995 -1.6174 -1.7600 -1.1067
 6751SOL     OW31885   3.521   1.843   3.289  0.2869  0.2718 -0.4194
 6751SOL    HW131886   3.612   1.816   3.292  0.0824 -0.3688 -0.1284
 6751SOL    HW231887   3.492   1.788   3.217 -0.6139 -1.1322  1.0096
 6752SOL     OW31888   4.381   3.982   2.837  0.0675  0.4394 -0.3773
 6752SOL    HW131889   4.386   3.924   2.761 -0.3138 -1.7019  1.2475
 6752SOL    HW231890   4.345   3.921   2.900  1.0366 -0.0555 -0.3090
 6753SOL     OW31891   1.167   0.468   2.157  0.1927  0.7401 -0.2435
 6753SOL    HW131892   1.198   0.476   2.067 -1.2399 -0.1224 -0.7932
 6753SOL    HW231893   1.074   0.481   2.137 -0.0897 -0.1844  0.4795
 6754SOL     OW31894   3.321   3.046   4.873  0.5725  0.4097 -0.0351
 6754SOL    HW131895   3.301   2.994   4.795 -0.3917  0.4877  0.1578
 6754SOL    HW231896   3.275   3.126   4.848 -1.4238 -0.3956  1.0441
 6755SOL     OW31897   3.800   1.525   1.460 -0.8123 -0.7118  0.5210
 6755SOL    HW131898   3.843   1.447   1.495  1.6975  1.1068  1.4759
 6755SOL    HW231899   3.711   1.515   1.495 -1.4852 -1.9494 -1.5529
 6756SOL     OW31900   1.105   4.698   6.095 -0.1856 -0.1786 -0.2312
 6756SOL    HW131901   1.146   4.641   6.030 -2.3192  0.0756 -1.7631
 6756SOL    HW231902   1.141   4.647   6.168  0.6310  0.7485  0.0145
 6757SOL     OW31903   0.772   3.678  10.796  0.5355 -0.1685 -0.4321
 6757SOL    HW131904   0.766   3.665  10.702  0.6733  3.0121 -0.8545
 6757SOL    HW231905   0.677   3.672  10.810  0.5671  0.3070 -0.0185
 6758SOL     OW31906   2.474   0.812   7.434 -0.4105 -0.2564 -0.5883
 6758SOL    HW131907   2.565   0.840   7.448 -0.0712 -1.8848  0.4464
 6758SOL    HW231908   2.448   0.865   7.359  0.6638 -0.0203 -0.7997
 6759SOL     OW31909   4.592   1.829   6.326  0.4379  0.2826 -0.1233
 6759SOL    HW131910   4.575   1.921   6.307 -1.0678  0.2476  1.0394
 6759SOL    HW231911   4.532   1.773   6.277  0.7514  0.1477 -0.3512
 6760SOL     OW31912   4.121   3.271   4.668  0.6368 -0.1229 -0.4341
 6760SOL    HW131913   4.181   3.343   4.650 -0.4184 -0.0394 -3.6250
 6760SOL    HW231914   4.075   3.310   4.743  1.3719 -0.9870  0.4609
 6761SOL     OW31915   3.074   4.528   4.562  0.3292 -0.6611 -0.1562
 6761SOL    HW131916   3.094   4.559   4.474 -1.6088  0.3151 -0.2545
 6761SOL    HW231917   3.122   4.445   4.568  1.4966 -0.0521 -1.0070
 6762SOL     OW31918   2.725   4.153   9.318 -0.5620 -0.2075  0.5608
 6762SOL    HW131919   2.806   4.175   9.272 -1.3772 -2.5528 -1.9499
 6762SOL    HW231920   2.669   4.229   9.304 -0.7495 -0.3258  0.6783
 6763SOL     OW31921   2.889   0.505   3.341 -0.1563 -0.0369  0.2046
 6763SOL    HW131922   2.844   0.445   3.281 -0.9721 -0.5009  1.2894
 6763SOL    HW231923   2.836   0.492   3.419  1.5847 -0.0773  1.3788
 6764SOL     OW31924   3.190   0.319   5.625  0.0822  0.7358 -0.7982
 6764SOL    HW131925   3.186   0.402   5.577  0.0380  1.4271  0.4016
 6764SOL    HW231926   3.280   0.328   5.658 -0.3447 -1.9835  1.1153
 6765SOL     OW31927   2.669   3.380  14.725 -0.5923 -0.0049 -0.3334
 6765SOL    HW131928   2.690   3.288  14.711  2.2632  0.4658  0.8654
 6765SOL    HW231929   2.612   3.401  14.651 -0.3127  1.0789 -0.2428
 6766SOL     OW31930   4.568   4.456   5.554 -0.9380 -0.3273 -0.1071
 6766SOL    HW131931   4.487   4.482   5.598 -0.1600 -0.8443  1.6547
 6766SOL    HW231932   4.534   4.449   5.465 -0.4779 -0.5231 -0.2656
 6767SOL     OW31933   4.109   2.797  15.041 -0.0969  0.7790  0.4578
 6767SOL    HW131934   4.183   2.817  15.099 -0.0437  0.4240  0.5150
 6767SOL    HW231935   4.105   2.873  14.984 -1.4057 -0.0854 -0.6089
 6768SOL     OW31936   2.701   2.352  13.298  0.6609  0.7206 -0.0245
 6768SOL    HW131937   2.739   2.271  13.264 -3.3985 -0.5703 -1.4575
 6768SOL    HW231938   2.780   2.405  13.296  1.6874 -0.7910  0.3308
 6769SOL     OW31939   3.076   3.729   7.562  0.2225 -0.4513 -0.2016
 6769SOL    HW131940   3.043   3.653   7.611 -2.1567  0.0100 -1.0771
 6769SOL    HW231941   3.044   3.703   7.475 -0.3223 -1.8088  0.3905
 6770SOL     OW31942   0.753   3.688  10.048 -0.3722  0.4004  0.1136
 6770SOL    HW131943   0.776   3.610  10.098 -0.0890 -0.0390 -0.7100
 6770SOL    HW231944   0.663   3.661  10.034 -0.2809  0.0381  0.2196
 6771SOL     OW31945   3.714   3.021  11.398 -0.0635 -0.2803 -0.3290
 6771SOL    HW131946   3.724   3.099  11.453 -4.0331 -2.1153  2.9536
 6771SOL    HW231947   3.619   3.017  11.400 -0.0354 -0.4663  0.6804
 6772SOL     OW31948   4.658   4.730   7.108 -0.2087  0.2154 -0.0089
 6772SOL    HW131949   4.704   0.037   7.178  0.8116  0.5174 -0.8716
 6772SOL    HW231950   4.646   4.639   7.136  1.3860  0.1077  0.3466
 6773SOL     OW31951   0.179   2.114  17.057 -0.0786  0.6480  0.5245
 6773SOL    HW131952   0.101   2.094  17.004  0.0297 -0.5364  0.8154
 6773SOL    HW231953   0.227   2.033  17.037 -0.4805  0.5706 -0.1386
 6774SOL     OW31954   2.248   0.453   6.399 -0.0545  0.3725  0.3163
 6774SOL    HW131955   2.173   0.394   6.393  0.5416 -0.3016 -0.4273
 6774SOL    HW231956   2.254   0.465   6.304 -0.5658  0.9394  0.3545
 6775SOL     OW31957   1.226   0.468   5.302  0.5775 -0.0101 -0.1390
 6775SOL    HW131958   1.169   0.476   5.225 -0.4175  1.1456  0.7176
 6775SOL    HW231959   1.240   0.558   5.332 -0.5096 -0.8028  2.8069
 6776SOL     OW31960   2.555   2.925   3.709 -0.0298  0.4662 -0.4703
 6776SOL    HW131961   2.619   2.965   3.767  1.3625 -2.0926 -0.2607
 6776SOL    HW231962   2.540   2.838   3.747 -2.2202  1.6305  1.3641
 6777SOL     OW31963   0.011   0.602   2.754 -0.0595 -0.3252 -0.1652
 6777SOL    HW131964   4.729   0.510   2.773 -0.4718 -0.3872 -0.8830
 6777SOL    HW231965   4.662   0.629   2.727 -0.2468 -1.3488 -0.5981
 6778SOL     OW31966   0.385   0.882   7.426 -0.0810 -0.0429 -0.4368
 6778SOL    HW131967   0.300   0.860   7.466  0.0386 -1.2390 -0.8386
 6778SOL    HW231968   0.381   0.973   7.398  0.1610  0.9014  2.6119
 6779SOL     OW31969   0.426   2.226   7.968  0.4056 -0.3268  0.5464
 6779SOL    HW131970   0.336   2.202   7.945 -0.0075  2.3826 -0.7087
 6779SOL    HW231971   0.407   2.314   8.001  1.2494 -0.4840  1.4622
 6780SOL     OW31972   2.133   3.880   9.094 -0.3033 -0.4255  0.4605
 6780SOL    HW131973   2.182   3.930   9.159 -0.5621 -0.0709  0.3856
 6780SOL    HW231974   2.199   3.888   9.026 -0.5505 -1.2689  0.1314
 6781SOL     OW31975   0.154   0.324   6.644  0.1615 -0.2629  0.3024
 6781SOL    HW131976   0.176   0.283   6.728 -1.3121 -0.0412  0.8095
 6781SOL    HW231977   0.085   0.386   6.669  0.7049 -0.4733  2.3181
 6782SOL     OW31978   1.270   0.140  15.243  0.3452 -0.1724 -0.2962
 6782SOL    HW131979   1.185   0.158  15.202  0.6218  2.1375  0.1553
 6782SOL    HW231980   1.255   0.174  15.331  0.9542  0.9030 -0.6067
 6783SOL     OW31981   2.145   3.777   1.577 -0.0788 -0.4873  0.1865
 6783SOL    HW131982   2.174   3.847   1.519  1.0000 -0.2402  1.0412
 6783SOL    HW231983   2.149   3.818   1.663  2.6133 -1.2018  0.3893
 6784SOL     OW31984   4.700   1.802   5.709  0.0346  0.5298 -0.6567
 6784SOL    HW131985   4.606   1.800   5.723  0.2142 -2.0396  0.2289
 6784SOL    HW231986   4.704   1.874   5.646  1.4535  0.8133 -0.2596
 6785SOL     OW31987   3.014   2.453   8.320  0.1101  0.0720  0.2824
 6785SOL    HW131988   2.921   2.473   8.317  0.2776  0.6012 -1.7372
 6785SOL    HW231989   3.040   2.486   8.234 -1.1507 -2.0079 -0.8997
 6786SOL     OW31990   2.357   1.021   4.715 -0.5771 -0.3621  0.2219
 6786SOL    HW131991   2.297   1.058   4.780  0.0007 -0.8163  0.9992
 6786SOL    HW231992   2.400   1.100   4.682  0.3675 -1.3741 -0.9763
 6787SOL     OW31993   2.748   1.129   9.149 -0.3826  0.3802  0.2006
 6787SOL    HW131994   2.831   1.080   9.156  0.0532  1.0084 -0.5886
 6787SOL    HW231995   2.688   1.055   9.139 -0.0630  0.0938  0.3596
 6788SOL     OW31996   3.898   0.534   4.419 -0.1488 -0.2844  0.1317
 6788SOL    HW131997   3.910   0.574   4.506 -0.3256  0.8992 -0.3893
 6788SOL    HW231998   3.850   0.602   4.372  0.9181  1.1982  1.1809
 6789SOL     OW31999   3.060   2.779   2.214  0.1594  0.2493  0.0327
 6789SOL    HW132000   3.096   2.802   2.128 -0.6208  0.3738 -0.2634
 6789SOL    HW232001   2.969   2.779   2.185 -0.0973 -2.2663  0.8801
 6790SOL     OW32002   1.707   1.308   7.979  0.3256  0.0575  0.0101
 6790SOL    HW132003   1.717   1.278   8.070  0.3685  0.7839  0.2468
 6790SOL    HW232004   1.641   1.244   7.953  0.6169 -0.0488 -0.4753
 6791SOL     OW32005   1.054   3.100  12.807  0.4694  0.2093  0.1386
 6791SOL    HW132006   0.965   3.070  12.790  0.7533  0.2848 -1.4449
 6791SOL    HW232007   1.087   3.079  12.720  1.4392  0.9836  0.3210
 6792SOL     OW32008   3.116   0.587   8.099 -0.2502  0.1245 -0.0767
 6792SOL    HW132009   3.174   0.601   8.174 -1.6672  0.2785  0.9819
 6792SOL    HW232010   3.042   0.640   8.128  0.6056 -0.1679  2.6952
 6793SOL     OW32011   2.622   1.504  12.738 -0.1581 -0.7051  0.1505
 6793SOL    HW132012   2.657   1.483  12.651 -0.9487  2.9828 -1.0306
 6793SOL    HW232013   2.566   1.575  12.707 -0.0424 -1.2503 -1.2919
 6794SOL     OW32014   0.396   2.496   4.879 -0.2490 -0.0778  0.2205
 6794SOL    HW132015   0.485   2.461   4.881  0.9271  2.9281  0.0289
 6794SOL    HW232016   0.402   2.567   4.815 -0.4391 -0.8807 -0.6845
 6795SOL     OW32017   1.885   3.822   9.026 -0.6980  0.2140 -0.4818
 6795SOL    HW132018   1.852   3.893   9.081 -0.1604 -0.6969  1.0392
 6795SOL    HW232019   1.980   3.839   9.026 -0.7096  0.2849 -0.3461
 6796SOL     OW32020   2.213   2.670  11.124 -0.0785  0.4801 -0.2905
 6796SOL    HW132021   2.151   2.615  11.171  1.0887 -1.5171 -1.0858
 6796SOL    HW232022   2.260   2.604  11.073 -0.1939  0.0914  0.1083
 6797SOL     OW32023   3.392   1.326   6.365  0.3340  0.1812 -0.0709
 6797SOL    HW132024   3.378   1.414   6.401  0.5051  0.6858 -1.2537
 6797SOL    HW232025   3.309   1.280   6.382 -0.0098  1.4307  1.6868
 6798SOL     OW32026   0.575   4.085   4.626  0.4751  0.0069  0.1587
 6798SOL    HW132027   0.553   4.160   4.570  1.5944  0.3755  0.1987
 6798SOL    HW232028   0.508   4.018   4.618  0.1697  0.2635  0.5825
 6799SOL     OW32029   2.242   1.477   9.497  0.6683  0.0215  0.2783
 6799SOL    HW132030   2.204   1.544   9.440 -1.8427 -2.0418 -0.4826
 6799SOL    HW232031   2.290   1.428   9.432  2.1359  1.1886  0.4689
 6800SOL     OW32032   0.304   3.130   8.383  0.3069  0.1797 -0.3134
 6800SOL    HW132033   0.243   3.200   8.357  0.6947  1.0813  1.2331
 6800SOL    HW232034   0.385   3.155   8.338  0.4807  0.3976  0.1180
 6801SOL     OW32035   2.510   3.176   2.625  0.8286 -0.0824  0.0422
 6801SOL    HW132036   2.547   3.104   2.677  0.2618  1.4044  2.4918
 6801SOL    HW232037   2.443   3.200   2.688  0.2264 -0.9329 -0.2616
 6802SOL     OW32038   1.433   0.955  13.552 -0.1924  0.5180  0.1815
 6802SOL    HW132039   1.374   0.997  13.615  1.1326  1.4309  0.8231
 6802SOL    HW232040   1.430   1.018  13.481  0.0110  1.2291  0.8052
 6803SOL     OW32041   2.555   4.419  11.882 -0.7089 -0.1119 -0.2816
 6803SOL    HW132042   2.520   4.466  11.806 -1.2778  2.9097  1.8613
 6803SOL    HW232043   2.499   4.456  11.950 -0.4246 -1.2852  0.5835
 6804SOL     OW32044   2.296   2.602   3.404  0.1900 -0.4597  0.4658
 6804SOL    HW132045   2.350   2.674   3.372  0.2830 -0.2742  1.0432
 6804SOL    HW232046   2.273   2.560   3.321 -1.5742  0.5829  0.4361
 6805SOL     OW32047   1.872   0.510   7.338 -0.1710 -0.2458  0.3077
 6805SOL    HW132048   1.931   0.493   7.411  1.4140  0.2886 -0.8500
 6805SOL    HW232049   1.923   0.566   7.280 -0.1543 -0.7352 -0.1581
 6806SOL     OW32050   3.643   3.884   5.851  0.4482  0.7986 -0.4322
 6806SOL    HW132051   3.556   3.877   5.891  0.1389 -0.3674 -1.3163
 6806SOL    HW232052   3.663   3.977   5.862 -1.6529  0.7396  3.7755
 6807SOL     OW32053   2.332   1.279   5.672 -0.0592 -0.5657 -0.4909
 6807SOL    HW132054   2.319   1.210   5.738 -0.5669 -0.1678 -0.1750
 6807SOL    HW232055   2.319   1.229   5.592  1.6873 -1.5835 -0.1352
 6808SOL     OW32056   3.189   0.760   3.429 -0.4175  0.0164  0.0290
 6808SOL    HW132057   3.284   0.768   3.419 -0.3988 -0.3032 -0.0524
 6808SOL    HW232058   3.163   0.848   3.403 -2.1104 -0.5543 -0.2240
 6809SOL     OW32059   3.956   2.882  16.414 -0.0516  0.1091 -0.1985
 6809SOL    HW132060   3.895   2.954  16.429  0.3143  0.5761 -0.9616
 6809SOL    HW232061   3.904   2.807  16.383 -0.3691 -0.2514  1.1826
 6810SOL     OW32062   2.154   2.373   4.906  0.2209 -0.1986  0.8668
 6810SOL    HW132063   2.076   2.319   4.916  0.2790 -0.3039  0.7468
 6810SOL    HW232064   2.229   2.317   4.887  1.3157  1.6458 -0.3139
 6811SOL     OW32065   4.375   2.935   3.296 -0.1018 -0.0141  0.3205
 6811SOL    HW132066   4.435   3.009   3.303  1.4450 -1.1622 -0.5973
 6811SOL    HW232067   4.396   2.886   3.376  2.3524 -0.5281 -0.6375
 6812SOL     OW32068   4.408   2.319   5.903  0.3529 -0.6055  0.3340
 6812SOL    HW132069   4.445   2.268   5.975 -1.8940  0.0739  1.9811
 6812SOL    HW232070   4.314   2.302   5.909  0.3645 -0.8904 -0.2488
 6813SOL     OW32071   4.204   4.683   7.566 -0.1471  0.3276 -0.5586
 6813SOL    HW132072   4.126   4.721   7.526 -0.1672  1.1221  0.2471
 6813SOL    HW232073   4.224   0.010   7.633  0.7533  2.8198 -3.2969
 6814SOL     OW32074   3.843   0.298   1.772 -0.0017 -0.0275  0.1262
 6814SOL    HW132075   3.894   0.225   1.808  0.2837 -0.4777 -1.1943
 6814SOL    HW232076   3.886   0.306   1.687 -1.2811  0.8211 -0.4289
 6815SOL     OW32077   3.891   3.051  15.530 -0.2165  0.3538 -0.2097
 6815SOL    HW132078   3.889   2.971  15.477 -1.8558  0.8566 -0.9042
 6815SOL    HW232079   3.805   3.033  15.568  0.5440 -0.6130  1.0938
 6816SOL     OW32080   0.650   1.182  17.174 -0.2670  0.0669 -0.2474
 6816SOL    HW132081   0.593   1.125  17.226 -2.5262  1.3368 -1.2805
 6816SOL    HW232082   0.652   1.138  17.088 -0.7017 -0.0851 -0.1839
 6817SOL     OW32083   1.736   0.327   4.389 -0.0348 -0.1327 -0.0818
 6817SOL    HW132084   1.689   0.409   4.403  0.7972  0.5249 -1.0881
 6817SOL    HW232085   1.693   0.262   4.444  0.0075 -0.8487 -0.8886
 6818SOL     OW32086   2.512   1.929   1.984  0.0048  0.1386 -0.0665
 6818SOL    HW132087   2.556   1.999   2.033  2.7213 -1.7454  0.2170
 6818SOL    HW232088   2.548   1.934   1.896  1.8533  2.7525  0.8514
 6819SOL     OW32089   1.609   4.408   2.590  0.0597  0.0913  0.3642
 6819SOL    HW132090   1.663   4.339   2.630  1.9123  1.4800  0.2337
 6819SOL    HW232091   1.543   4.421   2.658 -1.8282  0.0538 -1.4872
 6820SOL     OW32092   2.347   2.090   8.720  0.5565 -0.2762  1.0453
 6820SOL    HW132093   2.355   2.157   8.653  1.7067  1.5087  2.9796
 6820SOL    HW232094   2.376   2.007   8.681 -2.0661 -0.2529 -0.9979
 6821SOL     OW32095   4.604   3.035   3.477  0.0361  0.2422 -0.6951
 6821SOL    HW132096   4.517   3.053   3.512  1.0696  0.8446  1.5622
 6821SOL    HW232097   4.653   3.109   3.512 -0.9396  0.4033  0.3339
 6822SOL     OW32098   4.527   0.804   4.831 -0.2709  0.1039  0.0389
 6822SOL    HW132099   4.481   0.769   4.755 -1.0107  2.1332 -0.4634
 6822SOL    HW232100   4.598   0.743   4.846 -1.0521 -0.7303  0.3742
 6823SOL     OW32101   2.112   3.133   4.089  0.3069  0.4293  0.2503
 6823SOL    HW132102   2.151   3.115   4.175 -0.7357 -0.5903  0.5109
 6823SOL    HW232103   2.113   3.043   4.058  0.7297  0.2465  0.7940
 6824SOL     OW32104   3.795   3.374  15.758  0.3120  0.0164 -0.3292
 6824SOL    HW132105   3.801   3.466  15.732  0.5261  0.8988  2.8222
 6824SOL    HW232106   3.708   3.367  15.798  0.6613  0.9406  0.6152
 6825SOL     OW32107   3.102   1.284  13.864  0.4339 -0.5776  0.0571
 6825SOL    HW132108   3.067   1.198  13.842 -1.7401 -0.0821  1.5962
 6825SOL    HW232109   3.039   1.329  13.807 -1.1536 -0.7174  1.6934
 6826SOL     OW32110   2.720   1.393   8.132  0.0377 -0.0762  0.4872
 6826SOL    HW132111   2.698   1.366   8.221 -1.5739  0.1277  0.1593
 6826SOL    HW232112   2.812   1.369   8.128 -0.2425 -0.9188 -1.1511
 6827SOL     OW32113   3.100   2.040   7.525  0.2647  0.4598  0.2592
 6827SOL    HW132114   3.006   2.034   7.543 -0.1236 -2.0075 -2.6481
 6827SOL    HW232115   3.108   2.099   7.449 -1.1553  0.4864  0.1253
 6828SOL     OW32116   1.623   2.548   5.813  0.2831  0.5269  0.1104
 6828SOL    HW132117   1.660   2.579   5.896 -0.8084 -0.6739  1.0608
 6828SOL    HW232118   1.577   2.628   5.787 -0.0987  0.7016  1.2927
 6829SOL     OW32119   3.553   1.927   1.686 -0.2630  0.8194  0.0837
 6829SOL    HW132120   3.472   1.961   1.723 -0.4705 -0.4357  0.8074
 6829SOL    HW232121   3.535   1.889   1.600 -4.8021  2.6088  0.2199
 6830SOL     OW32122   1.488   4.656   3.538 -0.1053 -0.0851  0.6389
 6830SOL    HW132123   1.531   4.605   3.606 -0.0825 -0.9746 -0.0475
 6830SOL    HW232124   1.427   4.587   3.513  0.3452 -0.5045  0.6938
 6831SOL     OW32125   1.328   4.324   8.485  0.0472  0.7144 -0.7110
 6831SOL    HW132126   1.386   4.296   8.414  0.3066 -0.8215  0.1042
 6831SOL    HW232127   1.389   4.305   8.556  0.1775  2.5083 -0.3400
 6832SOL     OW32128   3.614   1.362   2.011  0.1690  0.1137  0.4342
 6832SOL    HW132129   3.693   1.415   2.002  0.4421 -0.1405  1.3045
 6832SOL    HW232130   3.554   1.425   2.052 -0.2906 -0.5771  0.8205
 6833SOL     OW32131   3.054   1.918   7.259  0.0208 -0.4417  0.1418
 6833SOL    HW132132   3.120   1.875   7.313  0.8425  0.5281 -0.0929
 6833SOL    HW232133   3.108   1.969   7.199  0.6148  1.0036  1.9096
 6834SOL     OW32134   4.504   1.568   3.152  0.3646  0.0653  0.1130
 6834SOL    HW132135   4.561   1.492   3.168  2.0320  0.6625 -2.9122
 6834SOL    HW232136   4.417   1.529   3.147  1.3576 -2.3353  1.4783
 6835SOL     OW32137   2.278   3.098   3.745  0.0956 -0.3059  0.2073
 6835SOL    HW132138   2.206   3.160   3.758 -1.7723 -2.3662 -0.1693
 6835SOL    HW232139   2.335   3.101   3.821 -0.8344  1.1271  0.8504
 6836SOL     OW32140   4.395   2.099   0.217 -0.2805 -0.3614  0.2426
 6836SOL    HW132141   4.332   2.129   0.283 -0.5742  0.6636 -0.4890
 6836SOL    HW232142   4.333   2.059   0.155  0.3948 -0.4663 -0.3696
 6837SOL     OW32143   3.166   2.486   1.209  0.0895 -0.1834  0.3847
 6837SOL    HW132144   3.244   2.443   1.173 -0.0377  0.9707 -1.2854
 6837SOL    HW232145   3.196   2.577   1.206 -0.8103  0.0941 -0.0754
 6838SOL     OW32146   0.810   0.915   8.105 -0.3779 -0.2295  0.1489
 6838SOL    HW132147   0.781   0.849   8.042  0.0907 -1.2242  0.9851
 6838SOL    HW232148   0.896   0.930   8.065  0.3019  0.2135  1.7612
 6839SOL     OW32149   3.580   4.553   5.849 -0.4763  0.3718  0.6662
 6839SOL    HW132150   3.598   4.510   5.765 -1.0436 -1.0015  1.2629
 6839SOL    HW232151   3.670   4.563   5.879 -0.7172  2.3414  0.7420
 6840SOL     OW32152   4.025   3.731   2.650 -0.2425  0.8635 -0.0450
 6840SOL    HW132153   3.952   3.785   2.680 -2.3639 -2.2351  0.4485
 6840SOL    HW232154   3.989   3.643   2.662  1.7484 -0.0964 -1.1421
 6841SOL     OW32155   4.279   0.552  15.120  0.1848  0.0450 -0.2943
 6841SOL    HW132156   4.281   0.469  15.073  1.3424 -0.0285 -0.1284
 6841SOL    HW232157   4.302   0.520  15.208  1.4415  0.0903 -0.5987
 6842SOL     OW32158   4.504   3.299  10.096  0.1205  0.0594 -0.0350
 6842SOL    HW132159   4.549   3.382  10.084  1.1377 -0.4118  0.4914
 6842SOL    HW232160   4.417   3.323  10.129 -0.0395 -0.3038 -0.1892
 6843SOL     OW32161   0.681   4.518   0.261  0.9187 -0.2893  0.1177
 6843SOL    HW132162   0.693   4.585   0.328  0.7371 -1.1628  1.0154
 6843SOL    HW232163   0.630   4.576   0.204 -1.0756 -0.5000  1.7088
 6844SOL     OW32164   4.706   2.852   6.408 -0.1369  0.0432 -0.1439
 6844SOL    HW132165   0.039   2.913   6.392  0.5183 -0.7358 -0.1645
 6844SOL    HW232166   4.669   2.883   6.490  0.8879 -3.2180  1.5572
 6845SOL     OW32167   3.578   1.993   8.875 -0.3985  0.2193  0.2102
 6845SOL    HW132168   3.503   2.047   8.899 -0.0361  0.0861  1.6409
 6845SOL    HW232169   3.530   1.930   8.821 -1.6163  3.8283 -2.9076
 6846SOL     OW32170   3.805   3.849  15.410  0.2422  0.3646 -0.8466
 6846SOL    HW132171   3.796   3.935  15.450 -2.3786  0.6026 -1.9719
 6846SOL    HW232172   3.779   3.873  15.321  1.3742 -0.9747 -1.5357
 6847SOL     OW32173   2.570   2.334   5.555 -0.2673 -0.7109 -0.1384
 6847SOL    HW132174   2.525   2.417   5.539  1.4442  0.0419 -1.0116
 6847SOL    HW232175   2.652   2.353   5.511 -0.6791 -2.1867 -1.5190
 6848SOL     OW32176   3.110   1.294   7.210 -0.1591 -0.0501  0.5006
 6848SOL    HW132177   3.084   1.303   7.302 -0.1995 -2.4368  0.7196
 6848SOL    HW232178   3.135   1.386   7.198  0.3868 -0.5003 -1.7621
 6849SOL     OW32179   3.647   3.820   4.284  0.2454  0.3625 -0.6670
 6849SOL    HW132180   3.585   3.882   4.246  0.8088  1.0288 -0.4851
 6849SOL    HW232181   3.610   3.734   4.262 -1.1930  1.3072 -1.9019
 6850SOL     OW32182   3.725   1.768   4.195  0.3673  0.4063 -0.7262
 6850SOL    HW132183   3.724   1.813   4.110 -0.0010  0.4168 -0.7187
 6850SOL    HW232184   3.816   1.775   4.223  0.3259  1.4436 -0.8362
 6851SOL     OW32185   4.679   0.221   3.373 -0.7580  0.2088 -0.1151
 6851SOL    HW132186   4.693   0.288   3.439 -0.2351  0.0132 -0.0335
 6851SOL    HW232187   0.025   0.212   3.330 -2.0320  2.8501 -3.1383
 6852SOL     OW32188   0.761   3.653  10.506 -0.0037 -0.3948  0.4798
 6852SOL    HW132189   0.778   3.710  10.431  1.7298 -1.4348  0.0836
 6852SOL    HW232190   0.830   3.587  10.504  1.2372  0.9338 -0.1461
 6853SOL     OW32191   4.736   3.599   7.465  0.1138  0.6413 -0.0780
 6853SOL    HW132192   4.697   3.605   7.552  1.0138 -0.2308  0.3746
 6853SOL    HW232193   0.034   3.687   7.453 -0.3681  0.8248 -0.2189
 6854SOL     OW32194   0.934   4.253  10.660 -0.2579  0.1958  0.9203
 6854SOL    HW132195   0.984   4.220  10.735 -0.2826  0.6267  1.1294
 6854SOL    HW232196   0.924   4.175  10.605  2.9386 -1.3701  2.5457
 6855SOL     OW32197   1.004   3.627   8.342 -0.0079  0.1104  0.0144
 6855SOL    HW132198   0.940   3.571   8.299 -1.7439  1.5254  0.7783
 6855SOL    HW232199   0.959   3.711   8.340 -1.9895 -0.9051  1.9913
 6856SOL     OW32200   3.510   3.173  15.867 -0.2299  0.0072  0.1248
 6856SOL    HW132201   3.420   3.141  15.876  0.3384 -1.5877  0.1357
 6856SOL    HW232202   3.489   3.249  15.813 -2.6857 -0.1556  0.8606
 6857SOL     OW32203   3.524   2.575   6.352  0.1226 -0.2252  0.1252
 6857SOL    HW132204   3.501   2.668   6.351 -3.6233 -1.1294  1.6493
 6857SOL    HW232205   3.608   2.579   6.399  0.0312 -1.4354  0.3892
 6858SOL     OW32206   2.714   0.232   7.798 -0.8887  0.2559 -0.4021
 6858SOL    HW132207   2.744   0.148   7.765 -1.6098 -0.9547  1.9981
 6858SOL    HW232208   2.669   0.284   7.731 -3.1407 -0.6950  0.3535
 6859SOL     OW32209   3.399   2.163   6.263  0.1524 -0.1187 -0.0239
 6859SOL    HW132210   3.445   2.120   6.335  0.2451  0.5082  0.2910
 6859SOL    HW232211   3.313   2.121   6.267 -0.7337  1.9364  2.2957
 6860SOL     OW32212   2.365   4.489  11.667 -0.0458 -0.1883 -0.1963
 6860SOL    HW132213   2.409   4.457  11.588  0.0952 -1.7714  0.5150
 6860SOL    HW232214   2.338   4.574  11.632 -0.4960 -1.3835 -2.7388
 6861SOL     OW32215   1.193   3.368   5.386 -0.2858 -0.3590  0.2269
 6861SOL    HW132216   1.196   3.384   5.481  4.3092 -1.5745  0.2807
 6861SOL    HW232217   1.118   3.308   5.386 -0.1953 -0.4622 -0.4258
 6862SOL     OW32218   2.564   2.777   2.977  0.7279 -0.0842  0.1560
 6862SOL    HW132219   2.553   2.741   3.065  0.1649 -0.1439  0.0635
 6862SOL    HW232220   2.472   2.800   2.961  0.1656 -1.1321  1.8933
 6863SOL     OW32221   2.850   3.190   2.032  0.3919 -0.4409 -0.1752
 6863SOL    HW132222   2.780   3.126   2.040 -0.3278  0.2559 -0.9684
 6863SOL    HW232223   2.876   3.203   2.123  1.5615  1.1637 -0.7274
 6864SOL     OW32224   0.406   0.752   0.754  0.3280  0.4326  0.3823
 6864SOL    HW132225   0.415   0.845   0.732  0.0169  1.2457  3.5470
 6864SOL    HW232226   0.344   0.709   0.695  0.1467  2.2680 -0.7465
 6865SOL     OW32227   1.739   4.312   3.411  0.1463  0.5087  0.3921
 6865SOL    HW132228   1.698   4.360   3.340  2.0623 -1.3588 -1.9691
 6865SOL    HW232229   1.810   4.277   3.358 -1.5864 -0.1165 -1.5270
 6866SOL     OW32230   3.880   0.137   2.572 -0.3352 -0.0276 -0.2107
 6866SOL    HW132231   3.834   0.054   2.559  0.2929 -0.6535  1.4558
 6866SOL    HW232232   3.947   0.117   2.638  0.2057  0.9551 -0.4505
 6867SOL     OW32233   1.964   0.445   2.324 -0.6424  0.3366  0.0178
 6867SOL    HW132234   1.982   0.524   2.377  0.7774  0.2279 -0.2841
 6867SOL    HW232235   2.036   0.471   2.266 -0.3345 -1.7521 -0.5029
 6868SOL     OW32236   3.556   0.017   8.604 -0.1402  0.7386 -0.6388
 6868SOL    HW132237   3.584   4.684   8.660 -0.4179  1.6516  0.6629
 6868SOL    HW232238   3.524   0.081   8.667  0.1449  1.6232 -1.3810
 6869SOL     OW32239   0.030   3.691   0.722  0.1211  0.0738 -0.1996
 6869SOL    HW132240   0.101   3.743   0.761 -0.1269  1.2016 -1.2509
 6869SOL    HW232241   4.707   3.703   0.794 -1.5757  1.5315 -1.9194
 6870SOL     OW32242   0.869   4.228   0.822  0.1113  0.5522 -0.2938
 6870SOL    HW132243   0.888   4.149   0.771 -0.1322  0.7147 -0.6356
 6870SOL    HW232244   0.955   4.263   0.845 -0.0180  1.1739 -0.7730
 6871SOL     OW32245   2.296   3.094   9.102 -0.1212  0.2263  0.1171
 6871SOL    HW132246   2.224   3.144   9.065 -0.4833 -1.1252 -1.0275
 6871SOL    HW232247   2.256   3.051   9.178 -1.2394 -2.0466 -1.7686
 6872SOL     OW32248   2.022   1.814   5.427 -0.2518  0.1221 -0.1503
 6872SOL    HW132249   2.084   1.883   5.454 -1.6920  0.8024  1.3776
 6872SOL    HW232250   2.042   1.743   5.487  0.5178  0.1364 -0.3802
 6873SOL     OW32251   2.622   1.876   2.615  0.3646 -0.6498  0.3855
 6873SOL    HW132252   2.599   1.949   2.673 -1.9022  0.0156 -1.3730
 6873SOL    HW232253   2.708   1.862   2.656  0.1148 -1.4883  0.6282
 6874SOL     OW32254   4.102   2.983  17.053  0.0714  0.8265 -0.1203
 6874SOL    HW132255   4.165   3.055  17.044  1.8057 -0.7289 -0.3817
 6874SOL    HW232256   4.033   3.017  16.996  0.2818 -0.9544 -1.4403
 6875SOL     OW32257   2.041   1.592   9.988 -0.1397 -0.2561 -0.0485
 6875SOL    HW132258   1.965   1.536   9.973 -1.0037  0.5569  1.3041
 6875SOL    HW232259   2.087   1.536  10.050 -1.2835 -0.6833  0.4098
 6876SOL     OW32260   3.235   0.805  15.157 -0.1316 -0.1955  0.2531
 6876SOL    HW132261   3.216   0.778  15.068  1.3481  2.7035 -0.9301
 6876SOL    HW232262   3.241   0.724  15.207  2.5664 -0.6974 -0.9309
 6877SOL     OW32263   1.931   1.817   7.722  0.3041  0.3029 -0.3259
 6877SOL    HW132264   1.916   1.818   7.816  2.0932 -1.8692  0.0164
 6877SOL    HW232265   1.858   1.870   7.691 -1.4990 -2.3488 -0.6882
 6878SOL     OW32266   1.781   1.118   6.984 -0.4710  0.5599 -0.0423
 6878SOL    HW132267   1.715   1.183   7.008  1.0096  1.2435  2.1557
 6878SOL    HW232268   1.731   1.049   6.940 -3.0666  2.3016  0.1393
 6879SOL     OW32269   2.737   1.918  15.045 -0.4232 -0.8496 -0.3599
 6879SOL    HW132270   2.706   1.859  14.976  0.8607 -1.3988 -0.4609
 6879SOL    HW232271   2.823   1.942  15.010 -0.8202  2.2683  0.8329
 6880SOL     OW32272   2.632   3.102   2.169 -0.1160 -0.3488  0.6720
 6880SOL    HW132273   2.583   3.183   2.182 -1.6843 -1.3388  0.9431
 6880SOL    HW232274   2.671   3.104   2.256  1.3445  0.1780 -0.0025
 6881SOL     OW32275   4.439   2.623   3.840 -0.0650  0.1406  0.7933
 6881SOL    HW132276   4.524   2.653   3.870  0.4133 -1.4262  0.9926
 6881SOL    HW232277   4.421   2.544   3.891 -0.3511 -0.3218 -0.0060
 6882SOL     OW32278   1.576   3.603   3.114  0.1049 -0.3427  0.3588
 6882SOL    HW132279   1.485   3.577   3.105 -0.7080  2.4958  0.5135
 6882SOL    HW232280   1.561   3.679   3.171 -1.6346  0.6556 -1.4326
 6883SOL     OW32281   0.426   1.444   7.217 -0.9315  0.3392 -0.1325
 6883SOL    HW132282   0.381   1.468   7.136  1.1205 -1.6647 -1.8589
 6883SOL    HW232283   0.499   1.506   7.217 -3.1561  2.9744 -0.0880
 6884SOL     OW32284   2.239   0.988   9.397  0.5180 -0.3459 -0.0015
 6884SOL    HW132285   2.249   0.902   9.439 -2.3329 -0.9431 -0.5259
 6884SOL    HW232286   2.187   1.036   9.462  0.7795 -0.7747  0.5277
 6885SOL     OW32287   3.980   2.550   5.431  0.0799  0.7763 -0.4512
 6885SOL    HW132288   4.043   2.617   5.459  0.5863  0.9624 -2.0136
 6885SOL    HW232289   3.950   2.582   5.346 -3.8396 -1.1171  0.2362
 6886SOL     OW32290   3.711   1.132   4.202 -0.6677 -0.0364  0.2774
 6886SOL    HW132291   3.794   1.172   4.179 -2.2781  2.7082 -0.8046
 6886SOL    HW232292   3.691   1.175   4.285  0.5976  2.2420 -0.6280
 6887SOL     OW32293   0.853   1.329   8.905  0.1367 -0.7885 -0.2121
 6887SOL    HW132294   0.806   1.389   8.963 -0.1257  0.5138 -1.7723
 6887SOL    HW232295   0.931   1.380   8.882  0.1491 -0.5080  0.4618
 6888SOL     OW32296   3.934   1.526   6.856  0.1434 -0.7598  0.5920
 6888SOL    HW132297   3.992   1.582   6.908  0.5434 -0.7529  0.1450
 6888SOL    HW232298   3.965   1.441   6.887  2.7910  0.2726  0.7816
 6889SOL     OW32299   2.523   2.537   1.482 -0.0655  0.2883 -0.1495
 6889SOL    HW132300   2.544   2.618   1.436  0.1395  0.4707  0.2685
 6889SOL    HW232301   2.516   2.477   1.407 -3.6316  1.0161 -0.4212
 6890SOL     OW32302   0.437   1.162  15.576  0.3908  0.1378  0.8107
 6890SOL    HW132303   0.379   1.145  15.651  1.8207 -0.9194  1.6907
 6890SOL    HW232304   0.441   1.258  15.578  1.3211  0.1380 -1.8575
 6891SOL     OW32305   0.572   1.045   5.943 -0.6723 -0.1412 -0.0366
 6891SOL    HW132306   0.516   1.112   5.904  0.1201 -0.1522 -1.1976
 6891SOL    HW232307   0.537   1.041   6.032  0.8483 -1.3745  0.5152
 6892SOL     OW32308   4.161   3.380   6.211  0.1373  0.7764  0.6942
 6892SOL    HW132309   4.132   3.411   6.125 -1.0340 -0.9432  0.4769
 6892SOL    HW232310   4.231   3.442   6.231  0.1164  1.1719 -0.4853
 6893SOL     OW32311   0.619   2.080   4.936 -0.4485  0.1415  0.1514
 6893SOL    HW132312   0.647   2.164   4.900 -0.1587 -0.1177 -0.2294
 6893SOL    HW232313   0.669   2.069   5.018  0.7952 -2.1776 -0.9027
 6894SOL     OW32314   3.751   3.501   8.001  0.2434  0.1768  0.6957
 6894SOL    HW132315   3.665   3.493   8.043 -0.1110 -0.4823 -0.1475
 6894SOL    HW232316   3.783   3.412   8.015  0.5482  0.0834 -0.5742
 6895SOL     OW32317   3.690   3.102   4.633 -0.1804 -0.4053  0.0390
 6895SOL    HW132318   3.674   3.102   4.728 -2.7124 -2.0650 -0.4138
 6895SOL    HW232319   3.644   3.184   4.615  2.1345  0.9757  0.4323
 6896SOL     OW32320   0.636   3.900   9.688 -0.1115  0.0298 -0.1452
 6896SOL    HW132321   0.561   3.954   9.666 -1.8394 -2.8054 -1.2917
 6896SOL    HW232322   0.668   3.928   9.774  0.4899  0.1400 -0.4091
 6897SOL     OW32323   1.900   2.187   7.621 -0.1300 -0.3885 -0.4459
 6897SOL    HW132324   1.956   2.174   7.697 -0.1402 -0.9326 -0.5304
 6897SOL    HW232325   1.908   2.281   7.607  0.9466 -0.2229  1.3910
 6898SOL     OW32326   0.760   3.889   4.420  0.1035  0.2228  0.1422
 6898SOL    HW132327   0.678   3.926   4.388 -0.0961 -0.4332 -0.0930
 6898SOL    HW232328   0.727   3.807   4.457  0.1225  0.2297  0.1753
 6899SOL     OW32329   3.967   1.266   2.808  0.0730 -0.4517  0.1936
 6899SOL    HW132330   4.027   1.192   2.795  2.0076  1.0196  0.8970
 6899SOL    HW232331   3.887   1.242   2.761  0.1983  0.2766 -0.3933
 6900SOL     OW32332   3.162   1.881   4.510  0.2692  0.4119 -0.6206
 6900SOL    HW132333   3.130   1.899   4.422  1.5716  1.6372 -0.8456
 6900SOL    HW232334   3.182   1.789   4.496 -3.0419 -0.5437  1.2120
 6901SOL     OW32335   0.503   0.974  14.829 -0.5105  0.3894 -0.1304
 6901SOL    HW132336   0.436   1.033  14.794 -1.3710 -2.0455 -2.5919
 6901SOL    HW232337   0.490   0.974  14.924  0.2995 -1.1316 -0.0327
 6902SOL     OW32338   2.094   1.704   8.159  0.6652  0.2269  0.2222
 6902SOL    HW132339   2.119   1.757   8.235 -1.1271  1.9310 -0.3870
 6902SOL    HW232340   2.022   1.748   8.114  2.2362  1.9082 -0.6991
 6903SOL     OW32341   0.157   0.959   7.705 -0.0955  0.5039 -0.6459
 6903SOL    HW132342   0.097   0.939   7.633 -3.9169  0.4271  2.5827
 6903SOL    HW232343   0.147   0.880   7.757  0.7383 -0.1771 -1.5198
 6904SOL     OW32344   0.275   3.890   7.601 -0.4514 -0.8588  0.0129
 6904SOL    HW132345   0.361   3.929   7.588 -0.5394 -0.6458  0.0695
 6904SOL    HW232346   0.273   3.879   7.696  1.1096 -1.5214 -0.0444
 6905SOL     OW32347   4.249   1.080   0.868  0.5359  0.0910  0.1996
 6905SOL    HW132348   4.180   1.117   0.813 -1.4233 -1.9557  1.2499
 6905SOL    HW232349   4.222   0.990   0.888 -0.1532  0.2666  0.0749
 6906SOL     OW32350   1.691   1.896  10.457 -0.4730 -0.0732  0.0237
 6906SOL    HW132351   1.626   1.834  10.491 -1.5915 -0.6351 -3.1264
 6906SOL    HW232352   1.629   1.965  10.432 -2.5957 -1.5973  1.0594
 6907SOL     OW32353   0.482   2.757  17.594 -0.2184 -0.7312  0.9819
 6907SOL    HW132354   0.414   2.689  17.593  0.7110 -1.6165 -3.5302
 6907SOL    HW232355   0.461   2.796  17.679 -0.9193  0.2053  0.3770
 6908SOL     OW32356   1.610   1.341   5.900  0.0126 -0.0686 -0.5151
 6908SOL    HW132357   1.686   1.316   5.848  1.4917  0.4834  1.3815
 6908SOL    HW232358   1.637   1.432   5.916  0.1109  0.1829 -2.1212
 6909SOL     OW32359   0.685   1.601   7.847  0.0876  0.3508 -0.3571
 6909SOL    HW132360   0.684   1.594   7.752  0.5186  0.7041 -0.3871
 6909SOL    HW232361   0.695   1.695   7.859 -0.7447  0.2279  1.3535
 6910SOL     OW32362   0.187   4.098  11.391 -0.4189 -0.2259  0.2107
 6910SOL    HW132363   0.155   4.061  11.308 -0.9502  1.1837 -0.2121
 6910SOL    HW232364   0.220   4.014  11.422  1.2992 -0.5696 -2.4458
 6911SOL     OW32365   0.909   1.420   4.818  0.0652 -0.2708  0.1899
 6911SOL    HW132366   0.873   1.395   4.904 -0.5640 -3.1380 -0.8885
 6911SOL    HW232367   0.850   1.384   4.752 -0.7476 -0.0115  0.7732
 6912SOL     OW32368   3.444   0.607  13.528  0.0066 -0.8716  0.1100
 6912SOL    HW132369   3.375   0.672  13.515  0.9038 -0.1961 -1.3033
 6912SOL    HW232370   3.405   0.554  13.597  0.1042 -1.8049 -0.5586
 6913SOL     OW32371   4.739   4.435   8.003  0.0968 -0.1901  0.5245
 6913SOL    HW132372   0.013   4.409   8.094  2.1403  1.1349  0.6209
 6913SOL    HW232373   4.712   4.350   7.969 -0.8407  0.5469 -0.5863
 6914SOL     OW32374   3.792   2.250  16.707 -0.2543  0.1504  0.1046
 6914SOL    HW132375   3.753   2.220  16.789 -0.8444  1.8149  0.4456
 6914SOL    HW232376   3.875   2.290  16.734  0.4967 -0.2606 -1.6460
 6915SOL     OW32377   2.522   2.603   6.149 -0.1344  1.0945 -0.4048
 6915SOL    HW132378   2.547   2.596   6.057 -0.8859 -1.7376 -0.3915
 6915SOL    HW232379   2.598   2.565   6.193 -0.1856 -0.3642 -1.5975
 6916SOL     OW32380   3.574   0.394   0.559  0.0972 -0.0831  0.5591
 6916SOL    HW132381   3.492   0.347   0.573  1.1736 -1.8739  1.0023
 6916SOL    HW232382   3.548   0.470   0.611 -1.0162 -0.0268 -0.0840
 6917SOL     OW32383   3.719   3.806   3.370  0.1083 -0.1577 -0.0471
 6917SOL    HW132384   3.645   3.856   3.407  1.2565  1.0710  0.5927
 6917SOL    HW232385   3.674   3.731   3.331 -0.5778  0.8364 -1.1833
 6918SOL     OW32386   0.567   3.741   5.413  0.1597  0.0698  0.3416
 6918SOL    HW132387   0.515   3.663   5.434  1.8439 -0.3362  2.9913
 6918SOL    HW232388   0.606   3.765   5.497 -0.8091  1.0425  0.5146
 6919SOL     OW32389   1.195   2.406   3.816  0.8521 -0.9103 -0.1925
 6919SOL    HW132390   1.209   2.494   3.782  0.1905 -0.1982  1.3770
 6919SOL    HW232391   1.136   2.425   3.889 -1.5970  1.3643 -2.8084
 6920SOL     OW32392   1.343   3.904  10.309 -0.7000  0.0528 -0.0097
 6920SOL    HW132393   1.270   3.945  10.355 -0.4565 -0.8637  1.1898
 6920SOL    HW232394   1.336   3.814  10.343 -0.0740 -0.9596 -2.5359
 6921SOL     OW32395   2.139   0.992   5.367 -0.1524 -0.3940 -0.1070
 6921SOL    HW132396   2.164   0.949   5.448 -0.5962  1.1523  0.8549
 6921SOL    HW232397   2.112   1.078   5.398  2.5872 -0.0095  1.1944
 6922SOL     OW32398   1.096   0.362   4.820  0.1531  0.3564 -0.1520
 6922SOL    HW132399   1.041   0.284   4.831  2.0973 -1.6153 -4.1428
 6922SOL    HW232400   1.093   0.405   4.905  0.8500 -3.2136  1.6578
 6923SOL     OW32401   3.065   3.675  13.348 -0.5784 -0.1286  0.4313
 6923SOL    HW132402   3.083   3.680  13.442 -2.2360 -0.9839  0.7960
 6923SOL    HW232403   3.036   3.766  13.336  0.5625  0.1984  0.1921
 6924SOL     OW32404   0.119   1.467   8.716  0.1558  0.3474 -0.0608
 6924SOL    HW132405   0.090   1.462   8.807 -0.0931 -1.9474 -0.2595
 6924SOL    HW232406   0.090   1.380   8.690  0.9133  0.4628 -1.3116
 6925SOL     OW32407   2.337   1.518   6.399  0.0396  0.3418 -0.1970
 6925SOL    HW132408   2.292   1.495   6.317 -0.1881 -1.7648  0.5354
 6925SOL    HW232409   2.419   1.552   6.363  0.4245  0.7485  1.0740
 6926SOL     OW32410   4.189   1.667   3.700 -0.5247 -0.0841 -0.1548
 6926SOL    HW132411   4.212   1.606   3.770 -2.3125 -0.0234  0.4915
 6926SOL    HW232412   4.124   1.713   3.752  0.9823  0.7616  0.9591
 6927SOL     OW32413   4.401   1.335   2.938 -0.3505  0.3757 -0.2774
 6927SOL    HW132414   4.411   1.329   3.033 -0.2666 -1.6537 -0.4171
 6927SOL    HW232415   4.371   1.425   2.923 -2.8540 -0.5573 -0.7988
 6928SOL     OW32416   1.726   2.259  13.206  0.2933 -0.3913 -0.0066
 6928SOL    HW132417   1.715   2.223  13.118 -0.7572  0.7487 -0.3384
 6928SOL    HW232418   1.806   2.305  13.182  0.9961 -1.5933 -0.0073
 6929SOL     OW32419   1.864   0.359   4.652 -0.8115  0.2808  0.1425
 6929SOL    HW132420   1.794   0.373   4.715 -1.0806  1.1784 -0.3514
 6929SOL    HW232421   1.816   0.359   4.569  0.9309 -3.6997 -0.8770
 6930SOL     OW32422   0.088   1.188   5.100  0.5844  0.4442  0.2321
 6930SOL    HW132423   0.058   1.271   5.138  0.8892  0.1718  1.0779
 6930SOL    HW232424   0.068   1.194   5.007  0.1606  2.5573  0.4417
 6931SOL     OW32425   2.029   4.456   8.668  0.1513 -0.0318 -0.2176
 6931SOL    HW132426   1.973   4.455   8.745  2.3283 -0.2191  1.3643
 6931SOL    HW232427   2.003   4.545   8.643  2.8316  0.4314 -1.3787
 6932SOL     OW32428   0.859   1.264   4.382 -0.2030  0.5105 -0.6137
 6932SOL    HW132429   0.942   1.219   4.370 -0.4848 -0.2852  0.3842
 6932SOL    HW232430   0.866   1.327   4.311 -0.7008  0.7076 -0.4933
 6933SOL     OW32431   1.268   0.980   7.370 -0.0170 -0.2403  0.1650
 6933SOL    HW132432   1.191   0.924   7.375  0.1773 -0.6621 -1.4947
 6933SOL    HW232433   1.348   0.932   7.347 -0.1094 -0.8351  1.0864
 6934SOL     OW32434   0.744   2.324   1.112  1.4203  0.1629 -0.4885
 6934SOL    HW132435   0.700   2.286   1.037 -0.5485  1.5152 -0.0154
 6934SOL    HW232436   0.711   2.265   1.181  1.1492  1.7000  0.6985
 6935SOL     OW32437   3.764   3.114   2.273  0.3452 -0.5388 -0.1763
 6935SOL    HW132438   3.671   3.103   2.292 -0.6107  1.9327 -3.4529
 6935SOL    HW232439   3.790   3.167   2.348  0.8553 -1.4679  0.3082
 6936SOL     OW32440   1.023   1.790   9.175 -0.0588  0.0527  0.4356
 6936SOL    HW132441   0.930   1.808   9.187  0.3189  2.3298 -0.0563
 6936SOL    HW232442   1.031   1.842   9.095  2.0309 -0.6591  0.1907
 6937SOL     OW32443   1.267   0.412   1.603 -0.1595 -0.1718 -0.1095
 6937SOL    HW132444   1.256   0.503   1.573 -0.3422 -0.5599 -1.2384
 6937SOL    HW232445   1.175   0.392   1.618 -0.0627 -1.7591 -1.5869
 6938SOL     OW32446   2.360   2.668   4.827  0.2293 -0.1451 -0.5097
 6938SOL    HW132447   2.338   2.579   4.853 -1.4974  0.2482 -0.5830
 6938SOL    HW232448   2.451   2.676   4.855 -0.1630  2.8981 -0.0544
 6939SOL     OW32449   2.792   1.535   1.537  0.4641 -0.4564  0.0423
 6939SOL    HW132450   2.863   1.566   1.594  0.8550 -0.2531 -0.5562
 6939SOL    HW232451   2.785   1.441   1.550  1.1862 -0.5247 -0.0883
 6940SOL     OW32452   3.843   0.527  11.206  0.1468 -0.2990  0.1469
 6940SOL    HW132453   3.816   0.462  11.142  0.4775  0.4081 -0.6996
 6940SOL    HW232454   3.832   0.612  11.162 -0.5113  0.2852  1.4234
 6941SOL     OW32455   4.397   3.087   1.710  0.2521  0.4156  0.1995
 6941SOL    HW132456   4.387   2.994   1.687  1.5172 -0.1579  1.9621
 6941SOL    HW232457   4.490   3.100   1.694  0.3950  1.5179  1.9691
 6942SOL     OW32458   2.363   2.244   6.663  0.4036 -0.4965 -0.1689
 6942SOL    HW132459   2.339   2.232   6.755 -1.2850  0.8393 -0.4418
 6942SOL    HW232460   2.426   2.175   6.640 -1.2301 -1.9235 -0.3416
 6943SOL     OW32461   3.071   0.443   1.636 -0.2971 -0.0309  0.0329
 6943SOL    HW132462   3.014   0.519   1.628 -0.1039  0.3129  1.8412
 6943SOL    HW232463   3.117   0.447   1.552  0.2756  2.1333  0.4686
 6944SOL     OW32464   1.896   1.921   0.722  0.0116 -0.2593  0.4327
 6944SOL    HW132465   1.967   1.869   0.685 -0.9636 -0.9133 -0.5315
 6944SOL    HW232466   1.819   1.864   0.730 -0.7128  0.6679  0.1602
 6945SOL     OW32467   0.550   4.381   6.160 -0.4399 -1.0979  0.2614
 6945SOL    HW132468   0.583   4.306   6.111 -1.4705 -1.4567  0.1354
 6945SOL    HW232469   0.594   4.378   6.246 -1.0263 -2.0211  0.5254
 6946SOL     OW32470   2.604   0.146   5.829  0.0360 -0.1619 -0.6968
 6946SOL    HW132471   2.643   0.188   5.753 -0.4255 -0.8380 -1.3058
 6946SOL    HW232472   2.652   0.066   5.850  0.3221 -0.0370 -0.8807
 6947SOL     OW32473   2.556   2.218   5.817 -0.0347 -0.0025  0.5357
 6947SOL    HW132474   2.645   2.182   5.818  0.4895  1.2831  0.1569
 6947SOL    HW232475   2.561   2.258   5.730  2.0548 -1.6889 -0.1075
 6948SOL     OW32476   3.370   1.519  16.256 -0.0466  0.1687 -0.2627
 6948SOL    HW132477   3.439   1.572  16.216  0.1473 -2.5028 -3.4795
 6948SOL    HW232478   3.305   1.583  16.286 -2.0521 -1.3525 -1.4100
 6949SOL     OW32479   0.932   3.011  14.229 -0.1670  0.2891 -0.4267
 6949SOL    HW132480   0.907   2.955  14.156  2.6034  0.9065 -1.8595
 6949SOL    HW232481   0.967   3.092  14.192 -0.1109  0.6765  0.4563
 6950SOL     OW32482   1.353   3.870  13.419  0.5707  0.2827 -0.4361
 6950SOL    HW132483   1.447   3.866  13.434  0.5807 -1.8810 -1.1104
 6950SOL    HW232484   1.355   3.897  13.327  0.5771  1.5464 -0.0630
 6951SOL     OW32485   4.367   4.233   3.551  0.2867  0.1320 -0.4360
 6951SOL    HW132486   4.459   4.249   3.572 -0.1672 -0.4111  1.9485
 6951SOL    HW232487   4.359   4.277   3.466  0.9175 -1.9707 -1.5966
 6952SOL     OW32488   1.120   2.669   3.750  1.3673 -1.2540  0.6545
 6952SOL    HW132489   1.044   2.672   3.807  1.6353 -0.3531  0.9649
 6952SOL    HW232490   1.071   2.665   3.667  1.1796 -1.1802  0.7622
 6953SOL     OW32491   1.435   4.409   9.791  0.0621 -0.0897  0.3128
 6953SOL    HW132492   1.390   4.455   9.862  0.7682 -0.3845  0.9460
 6953SOL    HW232493   1.457   4.329   9.839  0.7604 -0.0442  0.0699
 6954SOL     OW32494   4.340   2.916  10.751  0.0511 -0.3046 -0.8892
 6954SOL    HW132495   4.323   2.877  10.837  0.4356  2.1329  0.2972
 6954SOL    HW232496   4.305   2.856  10.685  0.9321 -1.2100 -0.5384
 6955SOL     OW32497   1.140   1.720   5.678 -0.0896 -0.2316  0.1659
 6955SOL    HW132498   1.125   1.677   5.762 -0.8567  3.2549  1.8144
 6955SOL    HW232499   1.103   1.805   5.705  1.0416  0.3428 -0.0905
 6956SOL     OW32500   0.675   4.356   2.522 -0.4239 -0.2521 -0.0221
 6956SOL    HW132501   0.651   4.299   2.595 -0.5289 -1.1357 -0.7523
 6956SOL    HW232502   0.649   4.441   2.558 -1.8590 -1.2437  1.3324
 6957SOL     OW32503   4.607   3.728   9.893 -0.1229 -0.2666  0.7986
 6957SOL    HW132504   4.605   3.674   9.972  0.6053 -0.5165  0.6454
 6957SOL    HW232505   4.661   3.802   9.922 -0.5177 -0.0247  0.9270
 6958SOL     OW32506   3.525   3.287  11.519  0.0906  0.0630  0.2842
 6958SOL    HW132507   3.501   3.287  11.611  2.9004 -1.2348  1.0295
 6958SOL    HW232508   3.492   3.364  11.473 -1.7322 -1.2571 -0.6222
 6959SOL     OW32509   4.109   1.073   7.487  0.5097  0.0561 -0.3503
 6959SOL    HW132510   4.069   0.992   7.518  0.4657 -0.3810 -1.5425
 6959SOL    HW232511   4.143   1.107   7.570  1.1393  1.8337 -1.3337
 6960SOL     OW32512   3.545   1.602   7.117 -0.7999 -0.5677 -0.3588
 6960SOL    HW132513   3.580   1.513   7.112  1.3325  0.2638 -0.3315
 6960SOL    HW232514   3.602   1.652   7.059  1.3499 -1.3725  1.0602
 6961SOL     OW32515   2.857   2.268   7.683 -0.0126 -0.5200  0.3807
 6961SOL    HW132516   2.767   2.296   7.700 -0.0881 -0.4200 -0.1790
 6961SOL    HW232517   2.852   2.181   7.644  1.5484 -0.2922 -0.3538
 6962SOL     OW32518   2.943   1.345   2.954 -0.0001 -0.1244  0.6310
 6962SOL    HW132519   2.906   1.275   2.901  2.5261 -1.1176  0.1802
 6962SOL    HW232520   2.934   1.308   3.042  0.7084 -1.4045  0.1673
 6963SOL     OW32521   1.806   2.465   0.109  0.0770 -0.8917 -0.6509
 6963SOL    HW132522   1.778   2.374   0.113 -2.4850 -0.0668 -0.1078
 6963SOL    HW232523   1.821   2.461   0.015  2.2246 -0.1927 -0.3421
 6964SOL     OW32524   2.166   4.572   5.037 -0.0746 -0.1699 -0.2576
 6964SOL    HW132525   2.154   4.541   4.947  0.2019  0.7773 -0.6246
 6964SOL    HW232526   2.078   4.570   5.074 -0.8793 -0.8519 -2.2394
 6965SOL     OW32527   4.414   3.290   5.289  0.1969  0.8672 -0.3588
 6965SOL    HW132528   4.397   3.349   5.362 -1.0312  1.4131 -1.1014
 6965SOL    HW232529   4.339   3.231   5.295  1.5839 -0.9778 -0.8485
 6966SOL     OW32530   0.037   4.040   8.724  0.1557  0.3691 -0.0819
 6966SOL    HW132531   4.725   3.965   8.754 -1.3865  1.8391  1.0181
 6966SOL    HW232532   4.737   4.110   8.777 -1.1215 -1.1948  1.0295
 6967SOL     OW32533   3.007   1.630   4.753  0.0149 -0.5318  0.5959
 6967SOL    HW132534   3.014   1.670   4.667  0.0754  0.6266  1.1404
 6967SOL    HW232535   2.957   1.551   4.735 -1.7357  1.3231 -2.6197
 6968SOL     OW32536   0.926   0.363   3.412  0.2025 -0.1702  0.2954
 6968SOL    HW132537   1.005   0.310   3.421 -0.3740 -1.1869 -0.6333
 6968SOL    HW232538   0.912   0.373   3.318  0.2488  0.8914  0.4003
 6969SOL     OW32539   1.365   3.765  14.994 -0.6459  0.1009 -0.7764
 6969SOL    HW132540   1.451   3.786  14.959 -0.7746  1.9724  0.0115
 6969SOL    HW232541   1.372   3.677  15.031  0.6670  0.7358  0.4754
 6970SOL     OW32542   0.742   4.335   4.386  0.6271  0.1956 -0.3015
 6970SOL    HW132543   0.822   4.367   4.428 -0.2401 -1.1939  2.4259
 6970SOL    HW232544   0.666   4.346   4.443 -0.3371 -2.6660 -1.0582
 6971SOL     OW32545   1.462   4.136   8.113 -0.0551 -0.1203 -0.1081
 6971SOL    HW132546   1.379   4.184   8.119  0.5516  0.7257  1.4015
 6971SOL    HW232547   1.482   4.127   8.206 -3.4850 -2.9728  0.3352
 6972SOL     OW32548   2.902   0.046   0.613  0.8174  0.2640  0.4990
 6972SOL    HW132549   2.968   4.725   0.577  0.1437  0.6397 -1.3361
 6972SOL    HW232550   2.827   4.726   0.599  0.5277  0.4254  1.3952
 6973SOL     OW32551   1.436   4.495  12.602  0.3646  0.6232 -0.2264
 6973SOL    HW132552   1.373   4.527  12.537  1.4882  0.0835 -1.5799
 6973SOL    HW232553   1.430   4.576  12.653  0.4873  0.2251  0.4132
 6974SOL     OW32554   0.561   0.604  11.183  0.3813  0.0338 -0.1671
 6974SOL    HW132555   0.540   0.512  11.169 -1.9873  0.5819 -0.2498
 6974SOL    HW232556   0.533   0.642  11.100 -2.8520 -1.7737  0.0851
 6975SOL     OW32557   4.512   2.444   4.672  0.0227 -0.3228  0.1865
 6975SOL    HW132558   4.447   2.399   4.618 -2.6429  3.3987  0.2635
 6975SOL    HW232559   4.553   2.373   4.720 -0.9236  0.1648  1.7194
 6976SOL     OW32560   1.228   2.089   8.066 -0.2173 -0.2231  0.7483
 6976SOL    HW132561   1.235   2.044   8.150  1.2766 -0.7411  0.3524
 6976SOL    HW232562   1.161   2.036   8.023  1.5442  0.2109 -2.5630
 6977SOL     OW32563   2.928   4.076   7.890  0.2626  0.1485  0.4219
 6977SOL    HW132564   2.937   4.153   7.834 -2.3972  1.2277  1.4583
 6977SOL    HW232565   2.917   4.115   7.977  0.7697  0.5567  0.3078
 6978SOL     OW32566   2.066   1.645   1.959 -0.4966  0.0295  0.0953
 6978SOL    HW132567   2.087   1.556   1.932  2.2249  0.2221  1.6483
 6978SOL    HW232568   1.975   1.650   1.927 -0.4792 -1.1606 -0.1579
 6979SOL     OW32569   1.123   3.466   4.531 -0.2259 -0.1105 -0.1966
 6979SOL    HW132570   1.169   3.463   4.615  0.8495  0.6736 -0.7654
 6979SOL    HW232571   1.121   3.371   4.516  0.1785 -0.2194  0.4043
 6980SOL     OW32572   2.241   3.595   6.464  0.3318  0.2055  0.2881
 6980SOL    HW132573   2.228   3.611   6.370 -1.6397  1.0079  0.6932
 6980SOL    HW232574   2.336   3.585   6.465  0.2802 -0.4444 -1.2763
 6981SOL     OW32575   0.072   1.637   4.180  0.2235 -0.0246 -0.2058
 6981SOL    HW132576   0.123   1.716   4.161  0.0036  0.3217  0.6686
 6981SOL    HW232577   4.726   1.680   4.195  1.3912  1.0179  3.2287
 6982SOL     OW32578   0.978   4.173   2.778 -0.1474 -0.8195 -0.1367
 6982SOL    HW132579   0.911   4.108   2.798 -2.0274 -0.0362 -4.0555
 6982SOL    HW232580   1.060   4.127   2.799  0.0094 -0.0027  1.0461
 6983SOL     OW32581   4.426   2.623   9.236  0.0389  0.0529  0.5029
 6983SOL    HW132582   4.375   2.639   9.315 -0.9823  1.6800 -0.4907
 6983SOL    HW232583   4.511   2.612   9.279  0.2073  1.7229  0.5836
 6984SOL     OW32584   1.929   0.253   5.238  0.0481  0.1273 -0.3563
 6984SOL    HW132585   1.865   0.321   5.260  0.3071  0.7056 -1.3775
 6984SOL    HW232586   1.967   0.275   5.152  1.2205  1.1446  0.4134
 6985SOL     OW32587   3.217   4.388  17.701  0.0788 -0.1904 -0.1513
 6985SOL    HW132588   3.227   4.319  17.635  0.8784 -1.0051  0.8319
 6985SOL    HW232589   3.186   4.452  17.637  1.0046 -1.4223 -1.8240
 6986SOL     OW32590   4.688   1.951  13.208 -0.7237  0.0803 -0.2170
 6986SOL    HW132591   4.676   2.034  13.254  0.5447 -0.6951  1.5006
 6986SOL    HW232592   0.021   1.970  13.147 -1.2762  0.8344 -0.6291
 6987SOL     OW32593   0.514   2.820   2.173  0.0455  0.2798  0.6361
 6987SOL    HW132594   0.536   2.896   2.119 -1.0417  0.1493  0.0124
 6987SOL    HW232595   0.573   2.832   2.247 -2.8995 -1.5928  3.2627
 6988SOL     OW32596   2.314   4.058   4.053 -0.0623 -0.1778 -0.5288
 6988SOL    HW132597   2.306   3.963   4.062  1.9328 -0.2543  0.4052
 6988SOL    HW232598   2.330   4.079   4.145  0.5108  4.4122 -1.7071
 6989SOL     OW32599   2.732   0.813  10.064 -0.4549  0.0867  0.0040
 6989SOL    HW132600   2.664   0.782  10.005 -0.7351 -0.0115  0.3758
 6989SOL    HW232601   2.746   0.737  10.121 -0.6851 -0.1078 -0.2022
 6990SOL     OW32602   0.529   0.002   4.114 -0.5760 -0.1501  0.7462
 6990SOL    HW132603   0.471   0.011   4.189 -2.5629  0.3216 -0.8227
 6990SOL    HW232604   0.471   4.733   4.038  1.1797  0.2844 -0.6387
 6991SOL     OW32605   0.527   1.672   0.037 -0.6496  0.0162  0.2970
 6991SOL    HW132606   0.529   1.742  17.725 -2.7187 -3.4918 -3.4562
 6991SOL    HW232607   0.545   1.725   0.116  0.4617 -0.2768  0.2443
 6992SOL     OW32608   4.728   4.463   4.008  0.1659 -0.1766 -0.9162
 6992SOL    HW132609   4.670   4.386   4.006  1.0598 -0.9119  0.9127
 6992SOL    HW232610   0.029   4.441   3.924  2.8133 -0.7974  0.5021
 6993SOL     OW32611   0.685   0.430   1.858 -0.2697 -0.3426  0.0777
 6993SOL    HW132612   0.617   0.431   1.791 -2.0584 -0.4006  1.8836
 6993SOL    HW232613   0.641   0.400   1.937 -2.7140 -0.1004 -1.1898
 6994SOL     OW32614   0.260   3.831   6.604 -0.3805 -0.0425 -0.0603
 6994SOL    HW132615   0.325   3.791   6.662 -0.1835 -0.1104 -0.3273
 6994SOL    HW232616   0.297   3.843   6.516 -0.9963  2.9551  0.0833
 6995SOL     OW32617   0.716   2.598   6.936  0.6168  0.5536 -0.2222
 6995SOL    HW132618   0.743   2.544   6.862  0.2238 -0.5478  0.4421
 6995SOL    HW232619   0.622   2.592   6.923  1.0242 -0.1543 -2.8100
 6996SOL     OW32620   1.034   4.021   9.586 -0.3069  0.3058 -0.7545
 6996SOL    HW132621   1.123   4.056   9.598 -1.0040  0.8746  2.6957
 6996SOL    HW232622   1.013   4.064   9.503 -1.3512  0.1348 -0.5816
 6997SOL     OW32623   0.049   1.074   9.337 -0.4842  0.6499  0.4194
 6997SOL    HW132624   0.112   1.003   9.344  0.9610  1.9260  0.3966
 6997SOL    HW232625   4.713   1.017   9.353 -1.1874  1.4065 -0.2189
 6998SOL     OW32626   3.473   1.553   2.783 -0.2019 -0.0034 -0.0507
 6998SOL    HW132627   3.430   1.609   2.717 -0.1811 -3.2641 -2.8219
 6998SOL    HW232628   3.426   1.471   2.766 -0.9653  0.4557 -0.1774
 6999SOL     OW32629   1.809   2.395   9.259  0.0262 -0.0474  0.3799
 6999SOL    HW132630   1.882   2.405   9.198  0.8017  1.1534  1.5029
 6999SOL    HW232631   1.811   2.480   9.302  1.0805  0.9196 -1.5743
 7000SOL     OW32632   3.874   3.685   5.775  0.3096  0.7774  0.0051
 7000SOL    HW132633   3.801   3.747   5.780 -0.7601 -0.4255 -0.7715
 7000SOL    HW232634   3.888   3.679   5.870 -1.6181 -1.2968  0.1437
 7001SOL     OW32635   0.321   1.290   9.080  0.1458 -0.0376  0.2962
 7001SOL    HW132636   0.360   1.205   9.102  0.7263  0.4165  1.0149
 7001SOL    HW232637   0.324   1.330   9.167  1.5050 -0.5449  0.4878
 7002SOL     OW32638   0.670   0.271   6.655 -0.1680  0.4526 -0.2182
 7002SOL    HW132639   0.580   0.259   6.628 -0.3939  2.9072 -0.5783
 7002SOL    HW232640   0.688   0.320   6.575  2.0598  0.1589  0.0877
 7003SOL     OW32641   1.592   0.586   4.076 -0.1595 -0.1140 -0.0377
 7003SOL    HW132642   1.563   0.536   4.000  1.7386  0.3169 -1.0390
 7003SOL    HW232643   1.564   0.516   4.135 -1.0869  1.8946  1.9048
 7004SOL     OW32644   0.535   2.227   3.435 -0.9940  0.1498  0.3517
 7004SOL    HW132645   0.626   2.255   3.448 -0.6209 -1.4173  1.0994
 7004SOL    HW232646   0.510   2.267   3.352 -2.1802 -2.3911 -0.5144
 7005SOL     OW32647   1.094   1.928   5.850 -0.0409 -0.3939  0.9213
 7005SOL    HW132648   1.035   1.883   5.912  0.1881 -0.6982  0.9153
 7005SOL    HW232649   1.158   1.974   5.904 -1.2817  1.1949  1.0203
 7006SOL     OW32650   4.165   1.032   1.775 -0.2610  0.3358 -0.0459
 7006SOL    HW132651   4.114   0.968   1.725 -1.1582  1.3782 -0.4865
 7006SOL    HW232652   4.106   1.107   1.764 -2.3401 -0.8607  2.7687
 7007SOL     OW32653   0.162   2.897   4.608 -0.3722 -0.0527 -0.0588
 7007SOL    HW132654   0.088   2.874   4.552  2.4295 -2.2622 -2.8591
 7007SOL    HW232655   0.118   2.950   4.675  0.7544 -0.5835  1.1245
 7008SOL     OW32656   0.128   1.277   2.845  0.0934 -0.2996 -0.3428
 7008SOL    HW132657   0.096   1.195   2.807 -1.7599 -0.6111  1.8601
 7008SOL    HW232658   0.118   1.341   2.774 -1.0116  0.2369  0.2936
 7009SOL     OW32659   1.260   0.458  13.559  0.1865  0.0409 -0.0519
 7009SOL    HW132660   1.219   0.498  13.481  1.6299 -1.3875 -1.5480
 7009SOL    HW232661   1.219   0.372  13.556  0.6090 -0.1237 -1.2776
 7010SOL     OW32662   2.285   3.586   6.187 -0.0202 -0.4621  0.2561
 7010SOL    HW132663   2.268   3.679   6.172  2.5998 -0.5084 -2.8946
 7010SOL    HW232664   2.345   3.558   6.118 -0.7851  2.0000 -1.3977
 7011SOL     OW32665   0.121   2.535  15.653 -0.1638 -0.3779  0.5654
 7011SOL    HW132666   0.157   2.448  15.634  1.9496  1.3129 -3.0683
 7011SOL    HW232667   0.134   2.546  15.747  0.9830  0.5049  0.2940
 7012SOL     OW32668   0.040   1.110   6.285  0.2200 -0.0724  0.1557
 7012SOL    HW132669   4.721   1.033   6.286  0.1769 -0.0367  0.3299
 7012SOL    HW232670   0.006   1.161   6.358  1.9875  0.9321  0.2772
 7013SOL     OW32671   4.508   3.193  10.358  0.7575  0.2739  0.6777
 7013SOL    HW132672   4.422   3.191  10.401  1.3787  0.1698  1.9170
 7013SOL    HW232673   4.484   3.245  10.281  0.0748 -1.0937 -0.0212
 7014SOL     OW32674   3.121   1.234   2.197  0.1650  0.4018 -0.4839
 7014SOL    HW132675   3.161   1.310   2.239 -0.2110  0.8331 -0.8953
 7014SOL    HW232676   3.153   1.246   2.108  0.6382  0.5784 -0.2881
 7015SOL     OW32677   0.147   1.603   7.636 -0.5030 -0.6960  0.4963
 7015SOL    HW132678   0.163   1.517   7.674  0.1685 -0.6098  0.4181
 7015SOL    HW232679   0.229   1.643   7.666  0.2261 -1.1477 -0.8662
 7016SOL     OW32680   1.122   1.949   4.923 -0.0111 -0.0980 -0.2650
 7016SOL    HW132681   1.179   1.889   4.875  1.8154 -0.6208  2.5028
 7016SOL    HW232682   1.172   1.966   5.004 -1.2819  2.2985  0.0118
 7017SOL     OW32683   1.500   2.235   8.703 -0.7160  0.0835  0.3737
 7017SOL    HW132684   1.558   2.257   8.630  1.1815 -3.6404  0.7765
 7017SOL    HW232685   1.413   2.226   8.665 -0.7135  0.5322  0.2644
 7018SOL     OW32686   0.453   2.671  13.800  0.1784 -0.2573 -0.2393
 7018SOL    HW132687   0.375   2.617  13.813 -0.5568  1.2318  1.5828
 7018SOL    HW232688   0.509   2.613  13.850  0.2475 -0.2098 -0.2614
 7019SOL     OW32689   0.322   0.062   6.187  0.1893  0.7690  0.1614
 7019SOL    HW132690   0.322   0.033   6.096  0.0030  0.5352  0.2345
 7019SOL    HW232691   0.306   4.720   6.235  0.5267  0.8257  0.3709
 7020SOL     OW32692   4.209   2.947   1.377  0.3240 -0.1113 -0.2315
 7020SOL    HW132693   4.219   2.936   1.282 -0.9852 -0.1565 -0.3538
 7020SOL    HW232694   4.123   2.910   1.394  0.5423 -0.3119  0.4443
 7021SOL     OW32695   4.169   0.171   4.744 -0.1767 -0.9422 -0.9052
 7021SOL    HW132696   4.201   0.102   4.686  2.2299 -0.5276 -0.0581
 7021SOL    HW232697   4.098   0.129   4.793 -0.8625 -0.1408 -1.1983
 7022SOL     OW32698   1.115   1.197   6.127 -0.4563  0.0843 -0.7176
 7022SOL    HW132699   1.157   1.231   6.206 -0.9864  1.8204 -1.1871
 7022SOL    HW232700   1.182   1.216   6.061 -0.4189  0.1185 -0.6699
 7023SOL     OW32701   2.707   1.112   5.150  0.7277  0.1018 -0.3881
 7023SOL    HW132702   2.750   1.086   5.069  1.0264  0.0833 -0.2259
 7023SOL    HW232703   2.653   1.033   5.157  3.9031 -2.1010 -1.1021
 7024SOL     OW32704   2.696   4.082   8.431  0.1823  0.0108 -0.1633
 7024SOL    HW132705   2.621   4.132   8.462 -1.4229 -1.0389 -2.4039
 7024SOL    HW232706   2.654   4.019   8.372  0.7778 -0.2411 -0.3246
 7025SOL     OW32707   0.492   1.253   4.639  0.3642  0.3554 -0.2402
 7025SOL    HW132708   0.446   1.322   4.591  0.8804  1.6162  1.0733
 7025SOL    HW232709   0.412   1.217   4.676 -0.2269  0.3367 -1.5150
 7026SOL     OW32710   3.483   3.426   2.721  0.5108  0.2477 -0.1800
 7026SOL    HW132711   3.536   3.482   2.778  0.2884  1.0909 -0.8062
 7026SOL    HW232712   3.541   3.419   2.645  0.4156  0.9252 -0.3148
 7027SOL     OW32713   2.271   0.803   9.735  1.2554  0.1698 -0.0569
 7027SOL    HW132714   2.354   0.848   9.718  2.6332 -1.7922  1.5000
 7027SOL    HW232715   2.258   0.750   9.655  2.8508  0.5465 -0.5739
 7028SOL     OW32716   4.613   1.665   3.842  0.7723  0.5397 -0.1863
 7028SOL    HW132717   4.549   1.669   3.771 -1.4644  0.9416  1.8539
 7028SOL    HW232718   4.626   1.755   3.872 -0.9058  1.2303 -1.5150
 7029SOL     OW32719   3.539   2.471   0.658 -0.5540  0.2216  0.2257
 7029SOL    HW132720   3.484   2.514   0.592 -0.7635  2.6061  1.9560
 7029SOL    HW232721   3.626   2.456   0.622 -0.6305 -0.3198  0.2626
 7030SOL     OW32722   4.207   2.958   8.474  0.3192 -0.6762 -0.5942
 7030SOL    HW132723   4.146   2.995   8.537  0.8636 -0.9822  0.1153
 7030SOL    HW232724   4.163   2.875   8.453 -0.4721 -0.3328 -0.2545
 7031SOL     OW32725   4.491   1.499   4.023 -0.1811  0.2739 -0.1627
 7031SOL    HW132726   4.430   1.457   3.962  0.3491 -0.3639 -0.2517
 7031SOL    HW232727   4.562   1.541   3.974 -0.3795  1.5822  0.6662
 7032SOL     OW32728   2.832   2.199   8.180 -0.3227  0.3189 -0.1120
 7032SOL    HW132729   2.816   2.135   8.111  0.8632  0.8611 -0.8828
 7032SOL    HW232730   2.926   2.193   8.164 -0.1505 -0.6281  1.2070
 7033SOL     OW32731   3.824   4.031  16.996 -0.1101  0.0749  0.0853
 7033SOL    HW132732   3.904   3.979  17.001  0.4928  0.9088 -0.9251
 7033SOL    HW232733   3.779   3.988  16.924  0.6724  0.7363 -0.7977
 7034SOL     OW32734   4.352   1.097   3.872  0.1713  0.4803 -0.2019
 7034SOL    HW132735   4.363   1.092   3.777 -0.3739 -1.1504 -0.1795
 7034SOL    HW232736   4.259   1.080   3.882  0.6479 -2.4363 -0.7968
 7035SOL     OW32737   4.556   4.353   4.361 -0.0943  1.0321  0.1683
 7035SOL    HW132738   4.557   4.352   4.265  0.5938 -1.9043  0.2118
 7035SOL    HW232739   4.505   4.274   4.381  0.5702  0.5558  0.0056
 7036SOL     OW32740   3.324   3.078  14.963  0.1423 -0.1352  0.1833
 7036SOL    HW132741   3.336   3.076  14.869  1.4198 -0.8109  0.3588
 7036SOL    HW232742   3.323   2.985  14.985 -0.6089 -0.0937  0.3382
 7037SOL     OW32743   4.241   0.578   8.575 -0.1665  0.4194  0.2357
 7037SOL    HW132744   4.307   0.597   8.508 -0.6255 -0.9131 -0.6003
 7037SOL    HW232745   4.271   0.640   8.641 -0.0244 -0.2541  0.8131
 7038SOL     OW32746   0.113   3.081  12.076 -0.2491 -0.0142  0.3604
 7038SOL    HW132747   0.077   3.001  12.114 -1.2358  0.4216  0.3383
 7038SOL    HW232748   0.090   3.140  12.147  1.2509  2.8691 -1.5435
 7039SOL     OW32749   3.132   4.119   5.204 -0.2552  0.8538  0.1122
 7039SOL    HW132750   3.222   4.117   5.171 -0.9313 -2.5552 -1.6114
 7039SOL    HW232751   3.099   4.202   5.171  1.2688  2.1520  1.8327
 7040SOL     OW32752   4.469   4.684   6.885 -0.1756  0.0804  0.3741
 7040SOL    HW132753   4.493   4.598   6.850 -1.2551  0.1334 -0.5084
 7040SOL    HW232754   4.519   4.670   6.965 -1.7895 -1.6273  1.1011
 7041SOL     OW32755   2.290   0.417   3.271 -0.7054  0.4098  0.2956
 7041SOL    HW132756   2.349   0.437   3.344  0.7541  2.0485 -1.3356
 7041SOL    HW232757   2.207   0.460   3.294  0.1614  1.7580  0.9123
 7042SOL     OW32758   0.061   1.901   3.445 -0.2670  0.0107 -0.5154
 7042SOL    HW132759   4.715   1.924   3.408 -1.2382 -4.1919 -0.8229
 7042SOL    HW232760   0.108   1.936   3.369  0.7601  0.5133  0.3346
 7043SOL     OW32761   2.915   0.099  12.315  0.5394  0.1454  0.3822
 7043SOL    HW132762   2.921   0.006  12.291 -1.4260  0.9460 -3.0983
 7043SOL    HW232763   2.930   0.136  12.228  0.6837  3.3649  1.7790
 7044SOL     OW32764   0.149   2.767  15.148  0.2568  0.4596 -0.0624
 7044SOL    HW132765   0.096   2.699  15.189  0.8333  0.3682  0.5358
 7044SOL    HW232766   0.238   2.736  15.164  0.2470 -0.7205 -2.2963
 7045SOL     OW32767   2.917   0.617   4.060 -0.4595 -0.2774 -0.9504
 7045SOL    HW132768   2.910   0.709   4.035 -2.1066 -0.6040 -1.6775
 7045SOL    HW232769   2.827   0.587   4.062 -0.3018 -0.7512 -1.0752
 7046SOL     OW32770   2.660   1.306   7.325 -0.1886  0.5474  0.2961
 7046SOL    HW132771   2.693   1.248   7.393 -2.0830 -1.1927 -0.2846
 7046SOL    HW232772   2.600   1.246   7.281  1.6373 -0.4846 -0.8181
 7047SOL     OW32773   2.521   3.931   0.411  0.2921  0.1639  0.1073
 7047SOL    HW132774   2.484   3.862   0.356 -2.8744  0.3688  1.9593
 7047SOL    HW232775   2.520   4.009   0.355 -0.7209 -0.2585 -0.4662
 7048SOL     OW32776   1.242   0.272   7.358 -0.5479 -0.2158 -0.1200
 7048SOL    HW132777   1.235   0.356   7.404  0.5151 -1.0198  1.5098
 7048SOL    HW232778   1.154   0.235   7.369 -0.1802 -0.6448  1.3995
 7049SOL     OW32779   0.765   4.589   1.599 -0.4096 -0.2661  0.6285
 7049SOL    HW132780   0.859   4.597   1.615 -0.2383 -1.2912  0.1745
 7049SOL    HW232781   0.754   4.509   1.651 -1.5256 -0.8690 -0.5379
 7050SOL     OW32782   2.419   3.491   2.419  0.3577  0.0888 -0.1942
 7050SOL    HW132783   2.331   3.462   2.443  0.2503 -1.4110 -2.4640
 7050SOL    HW232784   2.416   3.458   2.329 -1.8300 -1.1055  0.3127
 7051SOL     OW32785   4.432   2.539  14.390 -0.0090  0.2442 -0.5486
 7051SOL    HW132786   4.392   2.557  14.475  0.1279  0.3409 -0.5045
 7051SOL    HW232787   4.414   2.624  14.350 -0.2778 -0.1136 -1.1965
 7052SOL     OW32788   3.680   3.356  13.176 -0.2907  0.2485 -0.4424
 7052SOL    HW132789   3.611   3.309  13.129 -1.6049  0.2674  1.4516
 7052SOL    HW232790   3.678   3.441  13.131 -0.3219  0.4227 -0.1148
 7053SOL     OW32791   4.287   2.517  15.016 -0.3416  0.2438 -0.1689
 7053SOL    HW132792   4.192   2.512  15.026 -0.3684  0.6586 -0.2090
 7053SOL    HW232793   4.282   2.553  14.928 -1.1092  1.1275  0.2386
 7054SOL     OW32794   4.356   0.022   9.078 -0.5243 -0.1699 -0.6949
 7054SOL    HW132795   4.305   4.682   9.099 -0.5289  0.0043 -0.0592
 7054SOL    HW232796   4.441   4.722   9.060 -1.8844 -2.8846 -1.2795
 7055SOL     OW32797   2.915   3.350   6.299  0.2902 -0.0305 -0.5478
 7055SOL    HW132798   2.945   3.262   6.321  2.6661  0.9529  0.1509
 7055SOL    HW232799   2.893   3.382   6.386  1.5510 -1.2809  0.2334
 7056SOL     OW32800   4.257   0.021   5.902 -0.0695  0.3071 -0.0082
 7056SOL    HW132801   4.166   4.733   5.890 -0.0370 -0.3861  1.2830
 7056SOL    HW232802   4.289   4.691   5.960 -1.1616  0.1819  0.4398
 7057SOL     OW32803   1.245   1.723   3.134  0.6036  0.0714  0.2117
 7057SOL    HW132804   1.243   1.718   3.038  0.2578  1.4727  0.1417
 7057SOL    HW232805   1.208   1.636   3.150 -0.5221  0.1833 -1.6404
 7058SOL     OW32806   1.140   0.985   6.348 -0.2968 -0.3654  0.0471
 7058SOL    HW132807   1.218   0.943   6.312  1.3790  2.1270  0.7756
 7058SOL    HW232808   1.120   1.044   6.275  1.1686  0.3338  0.2108
 7059SOL     OW32809   0.941   3.023   4.020 -0.2671 -0.2704  0.2276
 7059SOL    HW132810   1.019   3.032   3.966 -0.7006  0.7651 -0.2189
 7059SOL    HW232811   0.877   2.992   3.955 -0.1097 -0.1900  0.0333
 7060SOL     OW32812   2.634   3.665   9.700 -0.4904  0.4381 -0.7713
 7060SOL    HW132813   2.670   3.742   9.743 -0.3468  0.0418 -0.1787
 7060SOL    HW232814   2.641   3.607   9.776  1.8365  1.2180 -0.4158
 7061SOL     OW32815   4.057   2.640  12.366 -0.1146 -0.0450  0.0474
 7061SOL    HW132816   4.044   2.561  12.418 -0.0874 -1.7543 -2.5241
 7061SOL    HW232817   4.153   2.640  12.359 -0.1159  1.1816  0.0220
 7062SOL     OW32818   1.709   3.195   5.968  0.3044 -0.0773  0.0790
 7062SOL    HW132819   1.795   3.185   6.008  0.1929 -1.6406 -0.0639
 7062SOL    HW232820   1.723   3.282   5.931 -0.7818 -0.7364 -1.9057
 7063SOL     OW32821   4.379   1.215   5.367  0.4062  0.3665 -0.1663
 7063SOL    HW132822   4.340   1.297   5.397  0.1183  0.0782  0.2482
 7063SOL    HW232823   4.465   1.244   5.335  1.5893 -1.3957  1.4152
 7064SOL     OW32824   1.473   2.839  11.790 -0.1525 -0.5119  0.2784
 7064SOL    HW132825   1.543   2.807  11.848  0.0474  0.6084  0.6664
 7064SOL    HW232826   1.520   2.912  11.749  2.3736 -1.6317  1.1146
 7065SOL     OW32827   1.276   0.415   6.260 -0.2345  0.1612  0.1168
 7065SOL    HW132828   1.287   0.479   6.190  2.5316 -0.1717  0.2435
 7065SOL    HW232829   1.219   0.358   6.209  0.6802 -0.2626 -0.4262
 7066SOL     OW32830   3.561   3.105  11.838 -0.0514  0.3293  0.0650
 7066SOL    HW132831   3.480   3.145  11.804 -0.0829  1.1057  1.0622
 7066SOL    HW232832   3.626   3.146  11.780 -1.3912  1.7351 -0.4480
 7067SOL     OW32833   3.480   2.945  12.036  0.4847 -1.0868  0.7643
 7067SOL    HW132834   3.396   2.970  11.998  0.7183 -1.3778  0.0648
 7067SOL    HW232835   3.532   3.000  11.978 -0.7010 -1.4403 -0.6513
 7068SOL     OW32836   2.838   1.192  15.917  0.4697  0.5902 -0.1200
 7068SOL    HW132837   2.798   1.180  16.003  0.2812  1.7945 -0.0312
 7068SOL    HW232838   2.760   1.221  15.870  0.6910 -0.8657 -1.3853
 7069SOL     OW32839   1.873   3.126   5.351 -0.4447  0.0807 -0.1720
 7069SOL    HW132840   1.785   3.113   5.317 -0.1156 -0.0567 -0.9776
 7069SOL    HW232841   1.929   3.052   5.328 -1.2532 -0.7164  0.4045
 7070SOL     OW32842   1.831   3.887   3.046  0.5800  0.3666  0.4169
 7070SOL    HW132843   1.750   3.844   3.018  0.9275  0.1052 -0.1841
 7070SOL    HW232844   1.796   3.914   3.131 -0.6615 -1.2237  0.4073
 7071SOL     OW32845   4.363   4.461   9.061 -0.4553  0.4468 -0.3072
 7071SOL    HW132846   4.365   4.452   8.966 -1.4242  1.7552 -0.4478
 7071SOL    HW232847   4.336   4.381   9.106  0.4612 -0.4461 -1.3599
 7072SOL     OW32848   0.811   2.207  11.487 -0.1312 -0.1861  0.3913
 7072SOL    HW132849   0.773   2.169  11.408  0.2541 -0.3117  0.2656
 7072SOL    HW232850   0.823   2.298  11.463  0.4054 -0.6446 -1.1025
 7073SOL     OW32851   3.811   2.804  13.847  0.5517 -0.2615  0.0311
 7073SOL    HW132852   3.757   2.784  13.770  1.0966  1.1965 -0.7458
 7073SOL    HW232853   3.900   2.780  13.821  0.0779 -0.9433 -0.9649
 7074SOL     OW32854   2.596   2.325   8.172 -0.7296  0.2224 -0.3794
 7074SOL    HW132855   2.603   2.415   8.204 -1.0627  0.8653 -2.1047
 7074SOL    HW232856   2.685   2.297   8.153 -0.8880  0.8584 -2.0797
 7075SOL     OW32857   4.411   3.039   6.013 -0.5690  0.3319 -0.8121
 7075SOL    HW132858   4.319   3.014   6.023  0.0684 -1.3571  0.6952
 7075SOL    HW232859   4.444   2.958   5.974 -0.4001  0.2741 -0.5447
 7076SOL     OW32860   3.651   2.367   8.931 -0.0845  0.0602 -0.1949
 7076SOL    HW132861   3.566   2.352   8.890 -1.2433  2.2922  1.3971
 7076SOL    HW232862   3.622   2.408   9.013  1.7967 -2.0316  1.5282
 7077SOL     OW32863   4.662   0.566   7.999  0.2460 -0.5173 -0.4048
 7077SOL    HW132864   4.596   0.616   7.952 -0.9434 -1.9776 -0.2743
 7077SOL    HW232865   4.657   0.620   8.078 -1.9483 -2.4174  0.7661
 7078SOL     OW32866   3.314   1.559   8.589 -0.0669 -0.5987  0.4236
 7078SOL    HW132867   3.294   1.592   8.502 -0.4438 -1.0780  0.3271
 7078SOL    HW232868   3.270   1.474   8.582 -0.5394 -0.3330  0.1353
 7079SOL     OW32869   4.376   0.492   4.196  0.2167 -0.7288 -0.4952
 7079SOL    HW132870   4.300   0.435   4.203 -0.9681  0.7719 -1.2421
 7079SOL    HW232871   4.352   0.557   4.131  0.2002  0.9724  1.1873
 7080SOL     OW32872   4.445   0.285   4.035  0.6298 -0.1108  0.1040
 7080SOL    HW132873   4.485   0.354   4.088  1.4585 -0.8300  0.4171
 7080SOL    HW232874   4.351   0.304   4.035  0.7034  0.2257 -1.7332
 7081SOL     OW32875   1.254   3.744   4.532  0.4613  0.2018 -0.0422
 7081SOL    HW132876   1.242   3.650   4.544 -2.5774  0.3691 -1.7003
 7081SOL    HW232877   1.270   3.781   4.619  0.9852  0.4404 -0.2421
 7082SOL     OW32878   1.515   2.867   4.987  0.3950 -0.2846 -0.0824
 7082SOL    HW132879   1.451   2.845   4.918 -0.0433 -1.3655  0.6704
 7082SOL    HW232880   1.585   2.921   4.949 -0.6496  0.8227 -0.4285
 7083SOL     OW32881   3.927   3.958  16.712  0.6180 -0.3395 -0.0127
 7083SOL    HW132882   3.937   4.043  16.755  0.3078  0.0676 -0.7396
 7083SOL    HW232883   3.940   3.992  16.623 -1.6330  1.0938  0.2059
 7084SOL     OW32884   1.792   1.711   5.302  0.2701 -0.9456 -0.1124
 7084SOL    HW132885   1.774   1.799   5.334 -1.5769 -1.9345  1.6369
 7084SOL    HW232886   1.883   1.706   5.331 -0.3784 -0.4883  2.0317
 7085SOL     OW32887   1.016   1.127   3.330  0.0144 -0.0687  0.2041
 7085SOL    HW132888   0.998   1.052   3.387  2.8479 -0.4003  0.6809
 7085SOL    HW232889   1.098   1.166   3.360  0.7698  1.0940 -3.3324
 7086SOL     OW32890   3.514   0.038  13.600 -0.3495 -0.0580  0.0784
 7086SOL    HW132891   3.531   4.695  13.646  1.7405 -1.1975 -2.7512
 7086SOL    HW232892   3.494   0.099  13.671  1.4724  0.1134  0.4399
 7087SOL     OW32893   2.724   2.686   4.884 -0.1617  0.2765  0.8556
 7087SOL    HW132894   2.667   2.758   4.911 -0.7507  1.0320 -2.3587
 7087SOL    HW232895   2.802   2.741   4.876  1.3255 -2.2016 -1.3605
 7088SOL     OW32896   1.904   1.217   2.903 -0.3160  0.3812  0.0701
 7088SOL    HW132897   1.818   1.232   2.864 -0.6515 -0.4964  0.4642
 7088SOL    HW232898   1.897   1.266   2.985 -1.0016  0.1502  0.1498
 7089SOL     OW32899   0.947   2.515   0.556  0.2408 -0.0348 -0.6519
 7089SOL    HW132900   0.940   2.608   0.534 -1.1229  0.2519  0.9814
 7089SOL    HW232901   0.976   2.478   0.473 -0.4899  0.3497 -1.0835
 7090SOL     OW32902   2.633   2.273  12.175  0.0721  0.1251 -0.3519
 7090SOL    HW132903   2.662   2.236  12.092 -0.9500  0.3514 -0.8135
 7090SOL    HW232904   2.722   2.303  12.196  0.0885 -1.0389  1.1819
 7091SOL     OW32905   2.701   0.066  17.205  0.1324 -0.2111  0.0970
 7091SOL    HW132906   2.726   0.077  17.113  0.1923 -0.4440  0.0841
 7091SOL    HW232907   2.750   0.133  17.252  0.9901 -1.2497  0.6849
 7092SOL     OW32908   1.868   0.174   2.377  0.0961 -0.4476  0.0476
 7092SOL    HW132909   1.910   0.089   2.380  2.4215  0.6457 -1.5314
 7092SOL    HW232910   1.937   0.234   2.347 -0.5341 -0.4237 -1.3521
 7093SOL     OW32911   2.109   0.644   3.989  0.4326 -0.5929 -0.0708
 7093SOL    HW132912   2.042   0.689   3.938 -0.8884 -2.3777  0.1047
 7093SOL    HW232913   2.057   0.594   4.052  0.5497  1.4832  1.6783
 7094SOL     OW32914   0.857   0.706   2.982  0.0969  0.1389 -0.3369
 7094SOL    HW132915   0.855   0.739   3.072  0.5374  1.5663 -0.8413
 7094SOL    HW232916   0.802   0.629   2.993 -0.2592  0.7450  2.0839
 7095SOL     OW32917   2.127   4.679   9.577  0.1655 -0.3500  0.0092
 7095SOL    HW132918   2.047   4.627   9.570 -0.3199  0.3980  0.1100
 7095SOL    HW232919   2.177   4.644   9.651 -0.1890 -2.5270 -0.7718
 7096SOL     OW32920   2.758   2.062  17.593  0.6469 -0.5172  0.3971
 7096SOL    HW132921   2.706   1.988  17.626 -0.1791 -0.4422 -0.7693
 7096SOL    HW232922   2.769   2.107  17.677  0.0494  0.5400 -0.0956
 7097SOL     OW32923   4.609   3.611  12.324  0.3199  0.4084  0.4797
 7097SOL    HW132924   4.534   3.557  12.299 -1.2343  2.6970  0.2719
 7097SOL    HW232925   4.575   3.695  12.296 -0.3718 -0.5049 -1.4005
 7098SOL     OW32926   2.742   1.568  15.150  0.5283 -0.1585 -0.1770
 7098SOL    HW132927   2.693   1.588  15.070  0.9600  0.2892 -0.3280
 7098SOL    HW232928   2.826   1.527  15.129  1.5531  1.1023  1.4848
 7099SOL     OW32929   3.194   3.589   3.954 -0.0816 -0.5694 -0.0264
 7099SOL    HW132930   3.185   3.494   3.955 -0.8857 -0.4732  1.6680
 7099SOL    HW232931   3.108   3.619   3.924 -0.5974 -0.9337  1.1018
 7100SOL     OW32932   1.742   3.670   4.005  0.4102 -0.0269  0.0587
 7100SOL    HW132933   1.790   3.753   4.002 -0.9182  0.8077  1.5587
 7100SOL    HW232934   1.729   3.665   4.100 -2.1813 -0.4324 -0.3101
 7101SOL     OW32935   4.285   1.612   8.927  0.0180 -0.0533 -0.1716
 7101SOL    HW132936   4.199   1.646   8.902 -0.3367 -0.6487  0.2495
 7101SOL    HW232937   4.316   1.569   8.847  1.7914  1.0338 -0.0563
 7102SOL     OW32938   2.581   1.626   6.284  0.0618 -0.8562 -0.4058
 7102SOL    HW132939   2.662   1.581   6.310  1.1596  0.3761 -1.6798
 7102SOL    HW232940   2.604   1.632   6.191  0.3800 -0.4162 -0.2976
 7103SOL     OW32941   1.232   4.457   3.691  0.1852  0.5358 -0.3912
 7103SOL    HW132942   1.228   4.473   3.596  0.3512  0.7596 -0.3621
 7103SOL    HW232943   1.152   4.504   3.713 -0.8996 -2.4846  2.0019
 7104SOL     OW32944   4.552   1.874   2.450  0.0661 -0.1341 -0.2743
 7104SOL    HW132945   4.503   1.793   2.463 -2.0408  1.2430  0.2798
 7104SOL    HW232946   4.510   1.920   2.523 -0.2926  1.1979 -1.3336
 7105SOL     OW32947   4.704   1.749   9.012  0.4885 -0.4244 -0.0628
 7105SOL    HW132948   4.683   1.666   8.970  0.0790 -0.7478  0.7793
 7105SOL    HW232949   0.036   1.731   9.074  2.1133 -0.9520 -2.0433
 7106SOL     OW32950   4.191   0.069   1.127 -0.3348  0.7750 -0.4341
 7106SOL    HW132951   4.157   4.719   1.125  0.5615  0.4407 -1.4904
 7106SOL    HW232952   4.285   0.053   1.137 -0.3672  0.7888 -0.1238
 7107SOL     OW32953   2.794   2.183   0.064 -0.5373 -0.2018  0.2922
 7107SOL    HW132954   2.827   2.273   0.060 -1.2006  0.0763  1.0733
 7107SOL    HW232955   2.761   2.175   0.153 -0.1364  2.2978  0.6731
 7108SOL     OW32956   1.072   2.589   7.476  0.0329  0.6465 -0.0275
 7108SOL    HW132957   1.128   2.527   7.523  1.3698  3.0078  1.5066
 7108SOL    HW232958   1.002   2.539   7.436 -0.0663  1.7224 -1.1954
 7109SOL     OW32959   0.672   4.134  11.877 -0.5829  0.1340  0.5259
 7109SOL    HW132960   0.601   4.174  11.828  1.0556 -1.1592 -2.9309
 7109SOL    HW232961   0.682   4.185  11.958 -0.6885  1.5842 -0.3750
 7110SOL     OW32962   4.143   1.472  10.914 -0.4560 -0.9378 -0.3034
 7110SOL    HW132963   4.156   1.497  11.006  0.1230 -0.0676 -0.6245
 7110SOL    HW232964   4.171   1.549  10.866  1.1924  1.3238  4.2266
 7111SOL     OW32965   1.183   3.310   0.845  0.1810  0.2430  0.8274
 7111SOL    HW132966   1.120   3.240   0.860  2.0221 -1.9577 -1.8580
 7111SOL    HW232967   1.213   3.334   0.933  1.7657  0.3097  0.2732
 7112SOL     OW32968   4.308   2.581   9.505 -0.2472  0.0696  0.1496
 7112SOL    HW132969   4.268   2.498   9.531 -1.0796  0.1345 -0.9097
 7112SOL    HW232970   4.374   2.597   9.573  0.0449 -0.6249  0.0334
 7113SOL     OW32971   3.421   1.544   7.745  0.1281  0.2581  0.2141
 7113SOL    HW132972   3.486   1.579   7.684  2.4743 -1.8354  1.5300
 7113SOL    HW232973   3.460   1.458   7.761  0.7015  0.2880 -1.0347
 7114SOL     OW32974   0.681   2.327   2.984 -0.5698  0.1585 -0.0902
 7114SOL    HW132975   0.693   2.247   2.934 -0.7154 -0.4426  0.8468
 7114SOL    HW232976   0.604   2.360   2.937 -1.5852 -1.7411  0.2402
 7115SOL     OW32977   3.703   3.044   5.403  0.1547 -0.2494  0.9139
 7115SOL    HW132978   3.728   3.034   5.495  1.7466 -1.2008  0.3879
 7115SOL    HW232979   3.609   3.029   5.409 -0.1881  1.6478 -0.0198
 7116SOL     OW32980   3.167   2.390   9.190 -0.0698  0.3533  0.3603
 7116SOL    HW132981   3.138   2.361   9.276 -1.2184  5.1962  1.5781
 7116SOL    HW232982   3.220   2.467   9.210  0.1831  0.6756 -1.5300
 7117SOL     OW32983   1.332   3.074   7.419  0.5727 -0.3085  0.0072
 7117SOL    HW132984   1.318   3.139   7.487 -1.7359 -0.2826 -0.4883
 7117SOL    HW232985   1.250   3.026   7.414 -0.0198  0.6384  0.7498
 7118SOL     OW32986   2.603   0.007  11.673 -0.2741 -0.7022  0.4032
 7118SOL    HW132987   2.660   0.006  11.749 -1.1668  1.1051  1.1044
 7118SOL    HW232988   2.523   0.048  11.707  0.5800  1.2742  0.0146
 7119SOL     OW32989   1.057   1.404   3.438  0.3623 -0.2836  0.6830
 7119SOL    HW132990   1.076   1.416   3.531 -0.2986  2.4475  0.4630
 7119SOL    HW232991   0.995   1.332   3.447  0.5346 -0.0409  3.6725
 7120SOL     OW32992   3.889   2.144   8.577 -0.3325 -0.3994  0.1910
 7120SOL    HW132993   3.924   2.201   8.645 -0.7712  1.6491 -1.3027
 7120SOL    HW232994   3.971   2.104   8.547 -1.4200 -0.1121 -3.1526
 7121SOL     OW32995   0.751   4.228  12.128  0.4155  0.0984 -0.0800
 7121SOL    HW132996   0.700   4.164  12.178 -0.4383  2.6290  2.2306
 7121SOL    HW232997   0.812   4.261  12.194  1.1671 -0.9288 -0.2470
 7122SOL     OW32998   3.343   2.522   9.387 -0.7321  0.0336  0.3771
 7122SOL    HW132999   3.378   2.557   9.469  1.4534  1.9236 -1.3543
 7122SOL    HW233000   3.316   2.607   9.353  0.7403 -0.0936 -1.0730
 7123SOL     OW33001   4.390   1.922  11.664 -0.2379  0.2564 -0.1862
 7123SOL    HW133002   4.485   1.914  11.673 -0.3701  1.0172  1.8410
 7123SOL    HW233003   4.347   1.861  11.723 -1.3513  2.4336  1.2406
 7124SOL     OW33004   1.343   3.593   5.676  0.1102  0.0545 -0.3923
 7124SOL    HW133005   1.420   3.538   5.659  0.1228 -0.0109 -0.1348
 7124SOL    HW233006   1.372   3.637   5.756 -1.6069  0.4733 -0.0125
 7125SOL     OW33007   1.727   3.771   4.697  0.3080 -0.4475 -0.5207
 7125SOL    HW133008   1.781   3.705   4.653 -0.3331 -0.3312 -1.4804
 7125SOL    HW233009   1.700   3.841   4.637 -4.1371 -1.3311  0.4427
 7126SOL     OW33010   3.764   3.623  15.662 -0.7904  0.5015  0.5165
 7126SOL    HW133011   3.815   3.661  15.590 -4.1558 -1.1978 -2.7711
 7126SOL    HW233012   3.743   3.698  15.717  0.8382  0.3078  1.4158
 7127SOL     OW33013   1.610   3.971  13.772  0.3819  0.3776  0.4018
 7127SOL    HW133014   1.528   4.012  13.746 -0.8862 -0.6641  2.7000
 7127SOL    HW233015   1.579   3.899  13.828 -0.1121  0.5522  0.3578
 7128SOL     OW33016   2.674   4.492   4.303  0.4497  0.4273 -0.4011
 7128SOL    HW133017   2.587   4.454   4.319 -0.3074  1.2586 -2.4484
 7128SOL    HW233018   2.702   4.504   4.394  2.5010 -3.8465 -0.4805
 7129SOL     OW33019   1.324   3.908   3.601 -0.2887 -0.2767  0.0642
 7129SOL    HW133020   1.342   3.815   3.617 -0.0016 -0.1286  0.6048
 7129SOL    HW233021   1.404   3.941   3.642  0.5287  0.2614 -1.9644
 7130SOL     OW33022   2.914   2.491   2.664  0.0908 -0.2695 -0.1090
 7130SOL    HW133023   2.995   2.442   2.680 -0.1971 -1.3130 -1.9436
 7130SOL    HW233024   2.941   2.524   2.578  1.6633 -0.7215  0.2031
 7131SOL     OW33025   3.875   0.863   7.772  0.3898  0.1801  0.1964
 7131SOL    HW133026   3.910   0.839   7.687 -1.8106 -2.4080  0.0239
 7131SOL    HW233027   3.856   0.955   7.757  1.4656  0.3259 -0.2730
 7132SOL     OW33028   1.936   3.539  15.642 -0.0259  0.1330  0.4535
 7132SOL    HW133029   1.953   3.570  15.554  2.5726  0.2620  0.9995
 7132SOL    HW233030   2.024   3.540  15.680  0.4414 -1.1961 -0.6095
 7133SOL     OW33031   1.519   4.462   2.319  0.2586  0.0331  0.2687
 7133SOL    HW133032   1.507   4.417   2.402  1.6424 -1.0592 -0.1358
 7133SOL    HW233033   1.432   4.501   2.306 -0.1724 -0.4894  1.6145
 7134SOL     OW33034   0.371   4.366   4.755  0.2847  0.2783  0.1064
 7134SOL    HW133035   0.360   4.461   4.767 -1.1014  0.0277  0.8312
 7134SOL    HW233036   0.310   4.331   4.819 -0.1947  0.8208 -0.0519
 7135SOL     OW33037   1.465   1.229   6.571 -0.0050  0.2844  0.0981
 7135SOL    HW133038   1.404   1.157   6.586 -0.4010  0.2417 -1.6972
 7135SOL    HW233039   1.440   1.290   6.641  0.0786 -3.0520  2.9970
 7136SOL     OW33040   1.878   2.623   9.366 -0.1787  0.2589  0.3029
 7136SOL    HW133041   1.842   2.701   9.322 -0.6967 -1.1794 -1.8349
 7136SOL    HW233042   1.967   2.618   9.331 -0.1894  4.5341 -0.3614
 7137SOL     OW33043   2.885   1.894   9.697 -0.3626 -0.1664  0.1203
 7137SOL    HW133044   2.886   1.799   9.689  1.8136 -0.0877 -0.5717
 7137SOL    HW233045   2.907   1.904   9.789  0.5827 -1.2249  0.0047
 7138SOL     OW33046   3.849   3.023   3.650 -0.2862  0.6874  0.7065
 7138SOL    HW133047   3.834   3.004   3.743  0.9573 -2.4559  0.2581
 7138SOL    HW233048   3.941   3.049   3.651 -0.1596  0.2472  0.2169
 7139SOL     OW33049   3.467   4.469   8.628 -0.0034 -0.1981  0.4411
 7139SOL    HW133050   3.412   4.525   8.574 -1.8472 -1.1357  1.3525
 7139SOL    HW233051   3.411   4.421   8.689 -1.9042  0.2416 -0.9712
 7140SOL     OW33052   2.243   0.320   7.847  0.1266 -0.4028 -0.2367
 7140SOL    HW133053   2.208   0.326   7.759 -1.6232  0.7551  0.5449
 7140SOL    HW233054   2.334   0.345   7.831 -0.9041  1.7305 -2.6741
 7141SOL     OW33055   0.348   3.705   9.021  0.2896  0.0619 -0.1478
 7141SOL    HW133056   0.316   3.705   8.931  2.0229  4.4621 -0.7839
 7141SOL    HW233057   0.418   3.640   9.026 -0.0935 -0.3342  0.0273
 7142SOL     OW33058   1.355   2.889   2.753 -0.0961 -0.1029 -0.0633
 7142SOL    HW133059   1.409   2.933   2.687 -1.6108  1.4482 -0.2620
 7142SOL    HW233060   1.408   2.816   2.787 -2.5701 -2.0314 -0.3549
 7143SOL     OW33061   1.123   3.091   8.652  0.5837 -0.0644  0.6229
 7143SOL    HW133062   1.123   3.122   8.561 -0.1244 -2.6795 -0.2686
 7143SOL    HW233063   1.208   3.048   8.658  0.9721  0.3778 -1.6579
 7144SOL     OW33064   1.487   0.818   0.868 -0.0858 -0.0688 -0.1376
 7144SOL    HW133065   1.478   0.755   0.940 -0.5163  0.3350  0.1617
 7144SOL    HW233066   1.579   0.803   0.847 -0.1776  1.9188 -1.9093
 7145SOL     OW33067   2.632   3.340  12.145 -0.0903 -0.3132  0.3355
 7145SOL    HW133068   2.593   3.254  12.134 -2.0721  0.0308  4.6309
 7145SOL    HW233069   2.557   3.387  12.181  0.8440  0.8036  0.8555
 7146SOL     OW33070   2.965   3.774   5.632 -0.7499 -0.4972  0.1449
 7146SOL    HW133071   3.014   3.700   5.596 -0.8940 -0.3863 -0.2681
 7146SOL    HW233072   2.992   3.842   5.570  3.0628 -2.4076 -0.3181
 7147SOL     OW33073   2.087   4.410   6.861  0.3985  0.0451 -0.2928
 7147SOL    HW133074   2.012   4.356   6.883 -0.2169  2.2082  2.9329
 7147SOL    HW233075   2.118   4.442   6.946  0.5540  0.3644 -0.4672
 7148SOL     OW33076   2.206   3.844   2.829 -0.1635  0.3036 -0.3359
 7148SOL    HW133077   2.179   3.883   2.913  2.4946 -0.6401  0.9548
 7148SOL    HW233078   2.120   3.823   2.793 -0.9986  0.5407  1.4968
 7149SOL     OW33079   3.227   3.938   7.825  0.1725  0.2349  0.6124
 7149SOL    HW133080   3.285   4.001   7.868 -0.4632  2.8004 -2.3338
 7149SOL    HW233081   3.142   3.975   7.846  0.4041  0.1829  1.6498
 7150SOL     OW33082   0.229   4.475   7.543  0.0700  0.1084  0.0750
 7150SOL    HW133083   0.208   4.473   7.637 -2.0255 -0.1767 -0.3977
 7150SOL    HW233084   0.205   4.566   7.525  1.1167  0.2384 -0.6113
 7151SOL     OW33085   1.962   2.158   8.871 -0.0792 -0.6208  0.0415
 7151SOL    HW133086   1.934   2.248   8.887  4.4312  0.8283 -0.3877
 7151SOL    HW233087   1.875   2.118   8.871 -1.2615  1.9582 -1.4697
 7152SOL     OW33088   3.769   2.853  16.180  0.1417 -0.2342 -0.4808
 7152SOL    HW133089   3.746   2.789  16.247  1.0842 -1.4633 -1.3445
 7152SOL    HW233090   3.695   2.913  16.190 -1.3770 -2.6025  2.5022
 7153SOL     OW33091   0.846   2.228   4.854  0.2931 -0.0831 -0.1546
 7153SOL    HW133092   0.916   2.289   4.833 -0.5670  1.1788  0.5947
 7153SOL    HW233093   0.882   2.144   4.827  1.6127  0.7058 -0.8199
 7154SOL     OW33094   0.030   0.523   6.780  0.4454 -0.2301 -0.0444
 7154SOL    HW133095   0.022   0.519   6.875  2.1609 -0.8279  0.0740
 7154SOL    HW233096   4.685   0.561   6.757  1.3872  0.7597 -1.8173
 7155SOL     OW33097   2.655   0.215  13.976 -0.0401  0.1625 -0.2011
 7155SOL    HW133098   2.632   0.123  13.989  1.5248  0.0135  1.4938
 7155SOL    HW233099   2.584   0.261  14.023 -1.4242 -1.5619 -0.6150
 7156SOL     OW33100   1.767   4.374  12.844  0.3406  0.0853  0.0748
 7156SOL    HW133101   1.835   4.400  12.906 -0.3564  1.7620  0.1331
 7156SOL    HW233102   1.689   4.416  12.881 -0.6811 -0.8572 -1.0099
 7157SOL     OW33103   2.575   0.479  15.969  0.3967  0.6663 -0.2710
 7157SOL    HW133104   2.634   0.404  15.969 -1.1999 -0.5782 -0.4479
 7157SOL    HW233105   2.568   0.504  16.062  0.5532  2.1351 -0.6501
 7158SOL     OW33106   0.664   1.952  17.611 -0.0169 -0.1223  0.1175
 7158SOL    HW133107   0.727   2.023  17.626 -0.3160  0.0430  0.6065
 7158SOL    HW233108   0.590   1.999  17.575  0.3135  0.1435 -0.2084
 7159SOL     OW33109   3.962   4.056  16.435  0.0779 -0.8400 -0.0468
 7159SOL    HW133110   3.935   4.104  16.357  0.3261 -0.3322  0.1788
 7159SOL    HW233111   3.994   3.973  16.398  0.4290 -0.0954 -1.4376
 7160SOL     OW33112   2.889   3.127   5.655 -0.0368 -0.0490 -0.1615
 7160SOL    HW133113   2.861   3.039   5.629 -0.1968 -0.2188  0.6104
 7160SOL    HW233114   2.919   3.173   5.576  3.3764 -0.7641  0.7232
 7161SOL     OW33115   1.426   3.742   8.813  0.4272  0.0343 -0.5771
 7161SOL    HW133116   1.482   3.818   8.829  1.3116 -0.3279 -1.9876
 7161SOL    HW233117   1.454   3.681   8.882 -0.2319  0.4639  0.0756
 7162SOL     OW33118   1.758   0.103   3.611 -0.0642 -0.0197 -0.2704
 7162SOL    HW133119   1.839   0.118   3.661  0.2946 -3.2885  0.1577
 7162SOL    HW233120   1.731   0.020   3.650  2.7049 -0.4729  0.7364
 7163SOL     OW33121   1.479   0.251  16.451  0.7596  0.0811 -0.1863
 7163SOL    HW133122   1.498   0.210  16.535  0.3694 -2.7945 -1.4841
 7163SOL    HW233123   1.419   0.320  16.476 -0.6419 -0.6505 -1.5436
 7164SOL     OW33124   2.031   0.451   7.543  0.4616 -0.0595 -0.0518
 7164SOL    HW133125   2.018   0.441   7.637  0.2210 -2.1635 -0.3051
 7164SOL    HW233126   2.094   0.380   7.531 -1.4428 -1.9048  0.8790
 7165SOL     OW33127   4.110   1.641   8.171  0.2175 -0.5167 -0.0773
 7165SOL    HW133128   4.154   1.581   8.232 -1.1805 -1.1131  0.3449
 7165SOL    HW233129   4.117   1.727   8.212 -2.4559 -0.7694  0.9308
 7166SOL     OW33130   2.413   2.966   3.967  0.3976 -0.6539 -0.0162
 7166SOL    HW133131   2.462   2.889   3.997 -0.9586 -1.5866 -0.2110
 7166SOL    HW233132   2.330   2.938   4.006 -0.7317  0.0840 -1.8795
 7167SOL     OW33133   0.266   0.315   6.222 -0.3530 -0.7013 -0.1307
 7167SOL    HW133134   0.278   0.220   6.218 -0.3653 -0.6842 -0.5929
 7167SOL    HW233135   0.206   0.313   6.296  1.7444  3.1082  1.6340
 7168SOL     OW33136   0.593   3.754   3.128 -0.1401  1.0272  0.7240
 7168SOL    HW133137   0.619   3.737   3.219 -2.1429  1.3488  1.3565
 7168SOL    HW233138   0.588   3.665   3.093  0.9441  1.6851 -1.0740
 7169SOL     OW33139   1.513   1.933   7.644  0.7890  0.2155  0.2508
 7169SOL    HW133140   1.434   1.985   7.659  0.0645 -1.3039  1.6607
 7169SOL    HW233141   1.476   1.860   7.595  1.9517 -2.1294  2.8862
 7170SOL     OW33142   4.217   0.953   0.629  0.0742 -0.1014 -0.0058
 7170SOL    HW133143   4.239   0.896   0.555  0.4802 -0.5016  0.4272
 7170SOL    HW233144   4.167   0.887   0.676 -0.3531  1.1114  1.2499
 7171SOL     OW33145   3.103   4.622   2.368 -0.3791 -0.1797  0.1930
 7171SOL    HW133146   3.100   4.533   2.333  0.4220 -0.2418  0.2852
 7171SOL    HW233147   3.101   4.668   2.283  1.9846  0.7145  0.6300
 7172SOL     OW33148   4.361   0.409  15.672  0.2684  0.1262 -0.0883
 7172SOL    HW133149   4.313   0.451  15.743 -0.3154 -0.1401 -0.3212
 7172SOL    HW233150   4.411   0.350  15.728  1.6658  0.6569 -0.7800
 7173SOL     OW33151   3.875   2.177   2.206 -0.0869 -0.1058  0.0448
 7173SOL    HW133152   3.831   2.104   2.249 -2.2755 -0.1514 -2.2871
 7173SOL    HW233153   3.839   2.247   2.261  0.4923  1.0334 -1.0039
 7174SOL     OW33154   2.836   4.190  11.708  0.5806  0.0043 -0.2702
 7174SOL    HW133155   2.902   4.127  11.736  2.5622  1.8784 -0.7202
 7174SOL    HW233156   2.846   4.255  11.778 -2.0734  1.1556 -0.9675
 7175SOL     OW33157   2.413   3.299   2.193 -0.2555  0.1636  0.6003
 7175SOL    HW133158   2.349   3.299   2.122  2.8636 -0.0755 -2.2090
 7175SOL    HW233159   2.383   3.220   2.238  1.4002 -0.4446  0.6091
 7176SOL     OW33160   4.035   3.376   3.196  0.3293  0.1724  0.4689
 7176SOL    HW133161   3.967   3.310   3.201  0.8520 -0.5513 -2.1957
 7176SOL    HW233162   4.083   3.350   3.275  2.4873  0.6641 -0.6707
 7177SOL     OW33163   3.419   4.596   5.066 -1.0466 -0.1056 -0.0686
 7177SOL    HW133164   3.473   4.517   5.062  0.7927  1.2106 -1.7513
 7177SOL    HW233165   3.482   4.663   5.091  0.3437 -1.9555  1.3891
 7178SOL     OW33166   3.811   3.690   6.441 -0.9130  0.4465 -0.4677
 7178SOL    HW133167   3.906   3.698   6.445 -1.1648  2.6404  1.2822
 7178SOL    HW233168   3.791   3.725   6.355  0.8938  0.9021 -0.7074
 7179SOL     OW33169   3.641   1.629   7.577  0.3450 -0.0935 -0.0954
 7179SOL    HW133170   3.676   1.544   7.550 -1.1761 -1.5084  2.3404
 7179SOL    HW233171   3.721   1.680   7.581  0.2887 -0.1733  2.0090
 7180SOL     OW33172   2.565   3.965   2.944  0.7417  0.1081  0.4717
 7180SOL    HW133173   2.575   3.920   3.028  0.3676 -0.9801 -0.0717
 7180SOL    HW233174   2.656   3.991   2.954  0.1341  1.2182  3.2619
 7181SOL     OW33175   2.283   3.835   2.338  0.3737  0.1573 -0.0059
 7181SOL    HW133176   2.270   3.847   2.432 -2.0604 -0.7739 -0.2294
 7181SOL    HW233177   2.193   3.837   2.305  1.7900  0.4796 -3.7635
 7182SOL     OW33178   0.097   3.326   1.611 -0.1388 -0.0590 -0.3401
 7182SOL    HW133179   0.102   3.387   1.685  1.4311  0.9180 -1.2530
 7182SOL    HW233180   0.018   3.272   1.617 -0.5950  0.5918 -0.5568
 7183SOL     OW33181   0.348   3.541   4.453  0.7616 -0.0258  0.4628
 7183SOL    HW133182   0.276   3.508   4.507 -0.6830  1.2466 -0.6791
 7183SOL    HW233183   0.315   3.622   4.415 -1.7266 -1.1326  0.2334
 7184SOL     OW33184   0.644   0.800   2.819  0.2912  0.0890  0.2820
 7184SOL    HW133185   0.722   0.760   2.858  1.3017  1.9971  0.2613
 7184SOL    HW233186   0.605   0.725   2.775  2.0453 -2.1667  2.5560
 7185SOL     OW33187   1.228   3.389   3.248  0.1665 -0.0037 -0.4239
 7185SOL    HW133188   1.210   3.449   3.320 -1.1436  1.2411 -1.7768
 7185SOL    HW233189   1.298   3.331   3.276  0.4012 -0.7978 -2.6379
 7186SOL     OW33190   0.786   4.666  17.337 -0.0983  0.3895 -0.9766
 7186SOL    HW133191   0.755   4.706  17.255 -0.3279  0.5860 -0.7914
 7186SOL    HW233192   0.802   4.574  17.318  2.9472  0.8798 -0.7592
 7187SOL     OW33193   3.556   3.610   8.345 -0.2745  0.4420 -0.4618
 7187SOL    HW133194   3.517   3.641   8.263 -1.0491 -0.0471 -0.2712
 7187SOL    HW233195   3.499   3.537   8.367  2.4888 -2.2793 -2.2440
 7188SOL     OW33196   1.293   0.769   4.890 -0.3111 -0.8979 -0.4921
 7188SOL    HW133197   1.230   0.810   4.831  1.5096  0.1551 -1.6986
 7188SOL    HW233198   1.234   0.746   4.962  1.1167 -2.6184  0.1512
 7189SOL     OW33199   2.284   3.225   6.971  0.4704  0.2579 -0.0125
 7189SOL    HW133200   2.329   3.189   7.047 -0.2214  1.2554  0.8724
 7189SOL    HW233201   2.211   3.280   7.001 -0.5938 -0.1511 -1.8656
 7190SOL     OW33202   4.210   0.322  12.787 -0.0211  0.2586 -0.0037
 7190SOL    HW133203   4.142   0.259  12.810  0.5742 -0.1819  0.5668
 7190SOL    HW233204   4.249   0.287  12.708 -2.0282  0.7250 -1.1854
 7191SOL     OW33205   1.632   0.666   7.417 -0.1606 -0.3857 -0.4369
 7191SOL    HW133206   1.548   0.620   7.418 -0.8112  0.8279  0.6273
 7191SOL    HW233207   1.688   0.622   7.354  0.0440 -1.5964  0.5956
 7192SOL     OW33208   0.124   3.214   7.484  0.1806  0.6170 -0.0030
 7192SOL    HW133209   0.059   3.176   7.425 -1.2148  2.6970  0.1888
 7192SOL    HW233210   0.053   3.217   7.548 -1.3880  0.1355 -1.7030
 7193SOL     OW33211   0.532   4.673   9.216 -0.5202  0.1217 -0.0506
 7193SOL    HW133212   0.541   4.720   9.299  1.3585  0.9227 -0.7023
 7193SOL    HW233213   0.446   4.631   9.225  0.0536 -1.2843 -1.1151
 7194SOL     OW33214   0.988   3.677   3.777  0.6569  0.0821  0.1863
 7194SOL    HW133215   1.030   3.612   3.721  0.7257 -1.4580  2.0166
 7194SOL    HW233216   1.053   3.692   3.846 -1.7059 -0.9809  2.6363
 7195SOL     OW33217   0.704   0.402   0.380 -0.0427 -0.3960  0.2264
 7195SOL    HW133218   0.708   0.316   0.422  0.9095  0.0267  1.0152
 7195SOL    HW233219   0.719   0.369   0.291  1.2850  1.6722 -0.3161
 7196SOL     OW33220   2.535   2.525   5.165  0.3043  0.4081 -0.5168
 7196SOL    HW133221   2.608   2.587   5.157 -0.5739  1.2949 -1.6592
 7196SOL    HW233222   2.574   2.447   5.204 -0.8001  0.8204  1.4133
 7197SOL     OW33223   1.330   3.959   6.824 -0.0042 -1.1058 -0.4210
 7197SOL    HW133224   1.347   3.929   6.734 -2.8105 -1.5500 -0.7962
 7197SOL    HW233225   1.364   3.882   6.870  1.6487 -0.8096 -1.1356
 7198SOL     OW33226   3.393   3.598   3.016  0.1078 -0.0051  0.1045
 7198SOL    HW133227   3.348   3.527   3.063 -0.7854 -0.2542 -1.1148
 7198SOL    HW233228   3.317   3.628   2.967 -1.3861 -3.3424  0.3706
 7199SOL     OW33229   1.392   0.858   6.373 -0.0062  0.0504  0.4992
 7199SOL    HW133230   1.366   0.866   6.465  1.8585 -0.6622  1.0830
 7199SOL    HW233231   1.485   0.840   6.387  0.0444 -0.0759 -0.0016
 7200SOL     OW33232   2.051   2.627   5.431  0.4379  0.3536 -0.3329
 7200SOL    HW133233   2.132   2.620   5.380  0.3296  1.3965 -0.6369
 7200SOL    HW233234   2.068   2.598   5.521 -0.2961 -1.1874 -0.6852
 7201SOL     OW33235   1.159   2.131   2.255  0.0242  0.0589  0.3292
 7201SOL    HW133236   1.138   2.209   2.203 -0.1074 -1.0905 -1.3460
 7201SOL    HW233237   1.158   2.064   2.187  0.0768  0.8197 -0.4277
 7202SOL     OW33238   2.736   1.991   5.699  0.2322  0.2369  0.2468
 7202SOL    HW133239   2.777   1.923   5.646 -2.4195 -2.4571  1.6467
 7202SOL    HW233240   2.816   2.024   5.741  1.7067 -0.0788 -2.2745
 7203SOL     OW33241   2.433   0.935   1.414 -0.5322 -0.3204 -0.1123
 7203SOL    HW133242   2.522   0.969   1.416 -1.6647  2.6394  0.2391
 7203SOL    HW233243   2.384   1.015   1.435 -0.8056 -0.9285  1.5162
 7204SOL     OW33244   2.275   2.485   1.823 -0.4086 -0.3073 -0.2122
 7204SOL    HW133245   2.225   2.414   1.864  1.4236 -2.1716 -1.2125
 7204SOL    HW233246   2.209   2.551   1.845  1.6631  1.4141  0.8267
 7205SOL     OW33247   3.229   2.468   3.763  0.2430  0.2584 -0.4565
 7205SOL    HW133248   3.275   2.398   3.715  0.0758  0.1274 -0.4250
 7205SOL    HW233249   3.188   2.409   3.826  4.2908 -0.9317  1.1022
 7206SOL     OW33250   2.802   1.883   1.369 -0.2795 -0.2237  0.0873
 7206SOL    HW133251   2.777   1.904   1.459 -1.0450  0.1684 -0.2087
 7206SOL    HW233252   2.775   1.962   1.321  1.2181 -0.6855 -1.5281
 7207SOL     OW33253   4.245   0.001  10.987 -0.3307 -0.3141  0.0224
 7207SOL    HW133254   4.225   4.706  11.075 -4.0157  1.3942 -0.1510
 7207SOL    HW233255   4.314   0.064  11.008  1.0639 -1.6334 -0.6020
 7208SOL     OW33256   2.899   2.607   3.416 -0.5766  0.0214 -0.0732
 7208SOL    HW133257   2.948   2.526   3.433  0.3504  1.0091  1.9459
 7208SOL    HW233258   2.927   2.663   3.488  1.5415 -1.1033 -0.0324
 7209SOL     OW33259   0.008   0.328   6.118  0.0100  0.1998 -0.1367
 7209SOL    HW133260   0.053   0.288   6.192  3.1206 -0.8585 -2.6211
 7209SOL    HW233261   4.690   0.390   6.164  1.3389  1.7008 -0.5404
 7210SOL     OW33262   1.961   2.938   1.298 -0.2546 -0.7086  0.4960
 7210SOL    HW133263   2.019   2.930   1.374 -0.3350 -2.5551  0.3473
 7210SOL    HW233264   1.903   2.865   1.318  0.9957 -2.0437 -0.7540
 7211SOL     OW33265   2.154   1.414   1.856  0.0829 -0.0343 -0.3872
 7211SOL    HW133266   2.126   1.322   1.861 -1.8944  0.5989  0.2631
 7211SOL    HW233267   2.246   1.401   1.879  0.1744  1.7004  0.2057
 7212SOL     OW33268   2.900   4.713   6.304  0.1397  0.1703  0.5089
 7212SOL    HW133269   2.926   0.053   6.257 -0.1904 -0.1242 -0.1717
 7212SOL    HW233270   2.809   4.699   6.278 -0.1612  2.0807  0.5644
 7213SOL     OW33271   0.440   0.124   4.586  0.0570  0.3657 -0.2884
 7213SOL    HW133272   0.349   0.151   4.590  0.8394  2.8456  1.0287
 7213SOL    HW233273   0.478   0.185   4.649  0.5326  1.1581 -1.3388
 7214SOL     OW33274   1.287   1.010   4.271  0.3944  0.3044 -0.5759
 7214SOL    HW133275   1.269   0.933   4.218 -1.4174 -0.0864  0.5949
 7214SOL    HW233276   1.363   0.984   4.323 -0.4093 -0.2849  0.3096
 7215SOL     OW33277   4.204   4.588   2.698 -0.2013  0.0723  0.2007
 7215SOL    HW133278   4.256   4.587   2.617 -0.9688 -0.1716 -0.2855
 7215SOL    HW233279   4.167   4.500   2.700  2.0402 -0.8912 -0.4841
 7216SOL     OW33280   3.001   2.847  17.024  0.6535 -0.0545 -0.8253
 7216SOL    HW133281   2.914   2.808  17.023 -0.1944  1.8517 -1.7674
 7216SOL    HW233282   3.018   2.820  17.114 -0.9367  0.3838 -0.3937
 7217SOL     OW33283   1.550   2.116   6.994 -0.2902  0.4095 -1.2326
 7217SOL    HW133284   1.527   2.131   7.085  1.5656  0.3335 -0.7407
 7217SOL    HW233285   1.629   2.065   7.012 -0.2581  0.5608 -0.9428
 7218SOL     OW33286   1.053   4.429  10.213  0.3111 -0.2464 -0.1374
 7218SOL    HW133287   1.116   4.501  10.211  1.0980 -0.9139  0.6888
 7218SOL    HW233288   1.069   4.373  10.137  4.3616  0.4220  0.2264
 7219SOL     OW33289   2.584   1.395   7.011  0.1587  0.0232  0.3074
 7219SOL    HW133290   2.664   1.378   6.961  0.0063  2.1027 -0.6228
 7219SOL    HW233291   2.580   1.489   6.993 -3.1548 -0.0596  0.7249
 7220SOL     OW33292   3.410   1.796   8.735  0.0371 -0.4138 -0.4461
 7220SOL    HW133293   3.367   1.851   8.669  0.6552  0.8743  0.2334
 7220SOL    HW233294   3.394   1.706   8.704  0.2165 -0.4202 -0.5208
 7221SOL     OW33295   3.140   1.760  15.216  0.3189 -0.0290  0.2625
 7221SOL    HW133296   3.109   1.797  15.134  2.2642  1.9451  0.4250
 7221SOL    HW233297   3.055   1.727  15.247 -0.0844  0.0453 -0.7660
 7222SOL     OW33298   0.346   2.314   3.610  0.6364  0.1514  0.0152
 7222SOL    HW133299   0.406   2.283   3.542 -0.3813 -2.3822  0.2959
 7222SOL    HW233300   0.266   2.271   3.581  1.2888 -0.6645 -0.5713
 7223SOL     OW33301   3.238   1.841  10.950  0.4106 -0.2376 -0.5673
 7223SOL    HW133302   3.319   1.848  10.900  0.3779 -0.0625 -0.5952
 7223SOL    HW233303   3.166   1.866  10.891 -1.7772 -1.6061  1.5051
 7224SOL     OW33304   1.858   3.988  11.917  0.1511  0.2986  0.5349
 7224SOL    HW133305   1.948   3.956  11.919 -0.3201 -0.9916  1.4678
 7224SOL    HW233306   1.806   3.907  11.912 -0.7517  0.9699 -1.2000
 7225SOL     OW33307   2.997   2.210  12.183  0.4889 -0.0699  0.3486
 7225SOL    HW133308   2.939   2.285  12.171  1.5093  0.6728 -0.0152
 7225SOL    HW233309   3.011   2.186  12.092 -0.8326  1.7063 -0.3072
 7226SOL     OW33310   3.543   3.124   3.154  0.7024 -0.4539 -0.4010
 7226SOL    HW133311   3.509   3.171   3.078  0.9943  0.2683 -0.0787
 7226SOL    HW233312   3.593   3.049   3.123  1.0404 -0.4568  0.1547
 7227SOL     OW33313   1.991   1.668   6.281  0.1575 -0.1122 -0.3337
 7227SOL    HW133314   1.966   1.748   6.235  1.7105  0.8696  0.5136
 7227SOL    HW233315   1.952   1.600   6.227  1.4507 -1.8163  0.9063
 7228SOL     OW33316   3.223   4.727   1.008 -0.3850  0.0930 -0.2423
 7228SOL    HW133317   3.253   0.076   0.988  0.4104  0.2149  1.4820
 7228SOL    HW233318   3.295   4.694   1.061 -2.4654  0.1306  2.6451
 7229SOL     OW33319   4.329   1.363   3.807  0.2779 -0.4701 -0.4268
 7229SOL    HW133320   4.422   1.361   3.785  0.2216  2.7416 -1.0012
 7229SOL    HW233321   4.322   1.271   3.831 -0.6958 -0.2344  0.2035
 7230SOL     OW33322   0.992   1.627   7.698 -0.2933 -0.7450 -0.3234
 7230SOL    HW133323   0.932   1.689   7.740  1.5197 -0.0358  1.2168
 7230SOL    HW233324   1.010   1.568   7.771 -2.0111 -2.4179 -1.2570
 7231SOL     OW33325   3.875   3.931   1.649 -0.7177  0.0451 -0.2992
 7231SOL    HW133326   3.921   3.846   1.650  0.6294  0.7643 -0.7117
 7231SOL    HW233327   3.786   3.901   1.664 -0.6583 -0.3719 -0.7638
 7232SOL     OW33328   3.421   4.578   7.661  0.1334  0.1718  0.5691
 7232SOL    HW133329   3.476   4.614   7.591  1.2427 -0.9878  0.8460
 7232SOL    HW233330   3.352   4.552   7.601 -1.2462  1.1222  1.7538
 7233SOL     OW33331   1.065   3.947   4.946  0.6173  0.1533  0.3849
 7233SOL    HW133332   1.084   4.028   4.994  0.9539 -0.3795  1.1569
 7233SOL    HW233333   1.072   3.979   4.856 -1.2856  3.5923  1.4649
 7234SOL     OW33334   2.841   1.793   2.759  0.2433  0.0666  0.1313
 7234SOL    HW133335   2.815   1.709   2.722  1.5656 -0.7680  1.0555
 7234SOL    HW233336   2.937   1.788   2.753  0.2830  0.6296  0.3128
 7235SOL     OW33337   2.854   4.088   3.184 -0.2118 -0.0788 -0.0280
 7235SOL    HW133338   2.946   4.115   3.184 -0.6028  1.2806 -1.9607
 7235SOL    HW233339   2.855   4.040   3.266 -5.0997 -0.4663 -0.1926
 7236SOL     OW33340   0.442   4.119   5.434  0.2919 -0.2603  0.0237
 7236SOL    HW133341   0.434   4.055   5.505 -0.1105  0.0443  0.2567
 7236SOL    HW233342   0.526   4.093   5.397 -0.5566 -0.1820 -1.9805
 7237SOL     OW33343   2.249   3.176   7.926 -0.1138  0.2092  0.2842
 7237SOL    HW133344   2.275   3.269   7.928 -0.0175  0.1948 -0.3218
 7237SOL    HW233345   2.223   3.158   8.016 -1.7299 -1.1410 -0.4599
 7238SOL     OW33346   2.801   3.280  12.729  0.2958  0.7458  0.1613
 7238SOL    HW133347   2.712   3.268  12.697  0.9076 -2.3422 -0.3499
 7238SOL    HW233348   2.841   3.213  12.674  1.4045  2.3160 -0.9443
 7239SOL     OW33349   2.766   3.132   7.256 -0.1661  0.0053  0.1759
 7239SOL    HW133350   2.844   3.121   7.311  1.3275  0.4344 -1.8309
 7239SOL    HW233351   2.796   3.202   7.198 -1.3351 -0.1208 -0.5701
 7240SOL     OW33352   4.014   3.915  14.103  0.1313  0.3338 -0.3979
 7240SOL    HW133353   3.921   3.918  14.081 -0.2885  3.0149  1.7681
 7240SOL    HW233354   4.052   3.891  14.018  0.1809  1.6729 -0.7554
 7241SOL     OW33355   3.739   2.394   7.962  0.0010  0.2829 -0.2368
 7241SOL    HW133356   3.799   2.393   8.037  1.9694  2.2436 -1.7649
 7241SOL    HW233357   3.665   2.446   7.992 -0.9911  0.0550 -2.3181
 7242SOL     OW33358   0.285   1.967   5.541  0.1893 -0.0373  0.8881
 7242SOL    HW133359   0.290   2.058   5.570  2.7127 -0.1403  0.7252
 7242SOL    HW233360   0.194   1.972   5.513  0.0902 -3.9856  0.4437
 7243SOL     OW33361   1.628   2.249   6.227 -0.1895 -0.1268 -0.3207
 7243SOL    HW133362   1.664   2.161   6.220 -0.5838 -0.4211  1.2824
 7243SOL    HW233363   1.706   2.294   6.261 -0.2863  0.2335 -0.5738
 7244SOL     OW33364   3.670   2.270  14.295  0.1886 -0.1827 -0.9682
 7244SOL    HW133365   3.584   2.312  14.283 -0.0127 -0.6565 -1.2309
 7244SOL    HW233366   3.651   2.186  14.252 -1.0828 -0.9525  1.0886
 7245SOL     OW33367   4.092   4.482  12.433  0.2535 -0.2013 -0.3091
 7245SOL    HW133368   4.027   4.532  12.385  1.1512 -0.3711 -1.6981
 7245SOL    HW233369   4.135   4.437  12.360 -0.6515  0.8127 -1.4589
 7246SOL     OW33370   0.924   0.540   1.777  0.0824  0.5789  0.2315
 7246SOL    HW133371   0.954   0.491   1.701  0.0740 -1.1115  1.3076
 7246SOL    HW233372   0.859   0.483   1.817  1.2021  0.3471  1.7287
 7247SOL     OW33373   0.304   0.760   5.621 -0.5532 -0.5473 -0.2707
 7247SOL    HW133374   0.311   0.682   5.567 -0.9706 -0.0834 -0.9933
 7247SOL    HW233375   0.344   0.728   5.702 -0.5336  1.3133  0.4564
 7248SOL     OW33376   4.444   2.432  17.710  0.0737  0.0237 -0.0150
 7248SOL    HW133377   4.518   2.491  17.726  0.5616 -0.5999  0.0210
 7248SOL    HW233378   4.482   2.348  17.736 -1.7389 -0.4045  1.2233
 7249SOL     OW33379   3.315   4.210   1.592  0.4151 -0.1384 -0.2574
 7249SOL    HW133380   3.346   4.233   1.504  2.1060  0.2927  0.4478
 7249SOL    HW233381   3.264   4.288   1.614 -1.8026 -0.9319 -2.4345
 7250SOL     OW33382   3.288   4.089   6.929 -0.0086 -0.1120  0.1137
 7250SOL    HW133383   3.259   4.142   7.003 -1.1779 -2.7825  1.5616
 7250SOL    HW233384   3.375   4.059   6.954  0.1013 -0.3798 -0.5765
 7251SOL     OW33385   0.934   0.178   8.759 -0.0496 -0.0997 -0.3347
 7251SOL    HW133386   0.942   0.266   8.796 -0.6880 -0.5553  0.9019
 7251SOL    HW233387   0.954   0.127   8.838 -2.8544 -0.6181  0.0585
 7252SOL     OW33388   0.217   3.741  13.146 -0.4118  0.4097  0.3203
 7252SOL    HW133389   0.133   3.724  13.104  0.9425 -2.0204 -1.4097
 7252SOL    HW233390   0.211   3.825  13.191 -2.2312  0.0823  0.6755
 7253SOL     OW33391   1.999   2.061   0.925  0.4875 -0.4466  0.4452
 7253SOL    HW133392   1.966   1.995   0.863 -0.2493  0.0934  0.2547
 7253SOL    HW233393   2.076   2.018   0.962 -0.9380 -0.5671  3.2428
 7254SOL     OW33394   4.491   3.862   5.033  0.6346 -0.1980 -0.5168
 7254SOL    HW133395   4.489   3.853   5.128 -0.8271  1.1915 -0.4187
 7254SOL    HW233396   4.584   3.861   5.012  1.1351 -2.1025  1.7348
 7255SOL     OW33397   0.631   2.278   2.569 -0.3060  0.1615  0.2241
 7255SOL    HW133398   0.677   2.195   2.563 -0.0623  0.4158 -1.3725
 7255SOL    HW233399   0.540   2.247   2.566  0.0389 -0.7793 -0.5918
 7256SOL     OW33400   4.649   1.081   3.119  0.5229 -0.4230 -0.2126
 7256SOL    HW133401   4.654   1.086   3.214  0.8466 -2.4801 -0.1210
 7256SOL    HW233402   4.586   1.011   3.103 -0.8531  0.6618  0.3739
 7257SOL     OW33403   2.798   4.722   1.302  0.6546  0.0469 -0.1634
 7257SOL    HW133404   2.714   0.026   1.313  0.6788 -0.7420  3.3123
 7257SOL    HW233405   2.785   4.635   1.266 -1.1101 -0.7331  2.3925
 7258SOL     OW33406   2.825   2.157   2.653  0.7773  0.0809  0.2469
 7258SOL    HW133407   2.888   2.117   2.593  0.5173 -2.1633  1.5031
 7258SOL    HW233408   2.871   2.196   2.727  0.7997  0.1400  0.2025
 7259SOL     OW33409   2.105   0.916   6.910 -0.1541  0.4024  0.1645
 7259SOL    HW133410   2.071   0.960   6.988  0.0020  1.7706 -0.5422
 7259SOL    HW233411   2.103   0.991   6.851 -1.7510 -2.0932 -2.9243
 7260SOL     OW33412   3.090   0.776  11.300  0.0014  0.4361  0.3937
 7260SOL    HW133413   3.103   0.693  11.255  0.0457  1.0893 -0.7930
 7260SOL    HW233414   3.091   0.751  11.392  0.9979 -1.2505 -0.0929
 7261SOL     OW33415   4.001   2.363   3.121  0.0445 -0.3102 -0.1127
 7261SOL    HW133416   3.981   2.404   3.037  2.1915 -1.0744 -1.0162
 7261SOL    HW233417   4.026   2.280   3.079 -3.2364 -0.9476 -0.8576
 7262SOL     OW33418   1.963   4.415  14.629 -0.2212 -0.0545 -0.2819
 7262SOL    HW133419   2.053   4.392  14.603 -0.3055 -2.8383  1.9933
 7262SOL    HW233420   1.913   4.362  14.566 -2.5920 -0.9674  2.3864
 7263SOL     OW33421   4.474   4.177   7.983  0.7151 -0.2791 -0.3774
 7263SOL    HW133422   4.441   4.251   8.034 -1.7580 -0.4866 -1.7038
 7263SOL    HW233423   4.402   4.127   7.946  0.7782  1.5592 -2.9805
 7264SOL     OW33424   4.106   4.438   9.951  0.5306 -0.1777  0.0823
 7264SOL    HW133425   4.197   4.466   9.956 -0.1093  2.4309 -3.2173
 7264SOL    HW233426   4.120   4.365   9.892 -1.1469 -1.3093  1.0777
 7265SOL     OW33427   0.158   3.421   6.450 -0.4121  0.2502  0.2837
 7265SOL    HW133428   0.116   3.507   6.448 -1.2905 -0.1450  1.5387
 7265SOL    HW233429   0.088   3.356   6.443 -0.0188 -0.0390 -1.0065
 7266SOL     OW33430   1.960   3.966   6.831  0.0552  0.3055 -0.0426
 7266SOL    HW133431   1.969   3.993   6.740 -1.3345 -2.0571 -0.8901
 7266SOL    HW233432   1.865   3.979   6.842 -0.0771  1.1252 -2.1270
 7267SOL     OW33433   3.851   1.858  16.773  0.5282 -0.1543 -0.0452
 7267SOL    HW133434   3.820   1.771  16.747 -1.7771  0.1385  1.7132
 7267SOL    HW233435   3.923   1.865  16.710  0.3623 -1.8538 -0.4098
 7268SOL     OW33436   1.832   0.693   3.169 -0.6030 -0.0747 -0.0006
 7268SOL    HW133437   1.784   0.617   3.136 -0.3661  0.0119 -0.5490
 7268SOL    HW233438   1.816   0.741   3.088  0.3514  1.7382  0.8793
 7269SOL     OW33439   2.960   3.645   3.837  0.6184 -0.0709  0.1283
 7269SOL    HW133440   3.003   3.722   3.799 -0.0921  0.8065  1.1078
 7269SOL    HW233441   2.873   3.641   3.797 -0.1206 -0.3018  1.7556
 7270SOL     OW33442   4.306   3.861   9.031 -0.4170  0.2675  0.4799
 7270SOL    HW133443   4.259   3.858   9.114  0.7560  0.9225  1.1586
 7270SOL    HW233444   4.391   3.893   9.061 -0.7109 -0.4281  2.0318
 7271SOL     OW33445   2.785   2.722   4.509 -0.0336 -0.4542 -0.6659
 7271SOL    HW133446   2.736   2.666   4.450 -3.3060  1.3661  0.3037
 7271SOL    HW233447   2.763   2.680   4.592 -0.9603  1.7083  0.1813
 7272SOL     OW33448   1.240   2.156   7.321 -0.1333 -0.1148 -0.4952
 7272SOL    HW133449   1.184   2.188   7.392  0.7381 -1.5515  0.8129
 7272SOL    HW233450   1.198   2.072   7.303  1.6078 -1.2431  0.7230
 7273SOL     OW33451   1.305   1.803   9.111 -0.2955  0.4014 -0.5140
 7273SOL    HW133452   1.213   1.817   9.133 -0.0206  0.5001  0.5701
 7273SOL    HW233453   1.332   1.893   9.092 -1.2763  0.1436 -3.0147
 7274SOL     OW33454   0.162   4.161   7.027  0.0824  0.5136 -0.0150
 7274SOL    HW133455   0.198   4.093   6.971 -0.4128  1.8046 -1.9222
 7274SOL    HW233456   0.178   4.246   6.986  0.3855  0.9649  1.0376
 7275SOL     OW33457   0.028   0.253   8.866  0.5589 -0.0330 -0.1252
 7275SOL    HW133458   4.686   0.257   8.816 -1.3640 -0.5716  2.9545
 7275SOL    HW233459   0.090   0.308   8.818 -2.3370 -0.1174 -3.9240
 7276SOL     OW33460   0.594   0.909   6.635  0.0487  0.5659 -0.4749
 7276SOL    HW133461   0.681   0.906   6.595 -0.2797 -1.4930 -1.0598
 7276SOL    HW233462   0.615   0.980   6.695  3.0285 -0.4235 -0.3034
 7277SOL     OW33463   0.414   3.341   6.556 -0.0917 -0.1659 -0.2679
 7277SOL    HW133464   0.325   3.377   6.560 -0.0744 -0.2826  1.4404
 7277SOL    HW233465   0.465   3.400   6.500  0.1374 -0.0608  0.0494
 7278SOL     OW33466   3.575   0.754   5.236  0.0176  0.1264  0.0848
 7278SOL    HW133467   3.652   0.811   5.234 -0.4822  0.7976  0.2128
 7278SOL    HW233468   3.545   0.739   5.146  0.4147 -1.4572  0.2094
 7279SOL     OW33469   3.766   4.646   7.048  0.2945 -0.0713  0.6928
 7279SOL    HW133470   3.842   4.589   7.039 -0.3250 -0.6089 -1.0781
 7279SOL    HW233471   3.693   4.595   7.083  1.3985 -1.0235  1.6012
 7280SOL     OW33472   3.997   1.566   5.250 -0.0376 -0.0670 -0.3585
 7280SOL    HW133473   4.012   1.658   5.226 -3.2059  0.4492 -0.4027
 7280SOL    HW233474   3.911   1.548   5.212 -1.2700 -0.3630  2.5422
 7281SOL     OW33475   0.491   1.776  16.567 -0.1803 -0.4002 -0.1950
 7281SOL    HW133476   0.574   1.818  16.543  0.3022 -0.8278  0.7200
 7281SOL    HW233477   0.484   1.807  16.657  0.4061  0.6694 -0.5185
 7282SOL     OW33478   0.938   4.033   5.481 -0.3167 -0.9220 -0.6225
 7282SOL    HW133479   0.998   3.970   5.442  0.2526  0.4546 -1.9533
 7282SOL    HW233480   0.867   4.033   5.417 -1.2877 -3.5001  0.4688
 7283SOL     OW33481   0.639   1.244   5.355  0.1653  0.1203  0.0889
 7283SOL    HW133482   0.636   1.233   5.450 -0.9468 -1.1409 -0.0925
 7283SOL    HW233483   0.553   1.284   5.339  0.5754  0.2849 -1.6285
 7284SOL     OW33484   2.519   1.420  11.714  0.0041 -0.3323 -0.6394
 7284SOL    HW133485   2.432   1.452  11.689 -0.1867  0.0520  0.5287
 7284SOL    HW233486   2.508   1.381  11.801  2.2883 -0.3477 -0.3710
 7285SOL     OW33487   0.439   4.299   7.524 -0.8456 -0.1026  0.2134
 7285SOL    HW133488   0.373   4.368   7.532 -2.5344 -1.7445  0.5571
 7285SOL    HW233489   0.402   4.257   7.446 -2.8140  0.1691  1.0001
 7286SOL     OW33490   2.831   4.387  17.400 -0.1798 -0.1171 -0.0768
 7286SOL    HW133491   2.771   4.408  17.472 -0.1022 -2.3808  0.6510
 7286SOL    HW233492   2.783   4.426  17.328  0.6230  0.6696 -0.1922
 7287SOL     OW33493   3.753   4.264   6.214  0.5055 -0.5872 -0.0355
 7287SOL    HW133494   3.720   4.325   6.280 -1.4507 -0.9226 -0.7131
 7287SOL    HW233495   3.671   4.237   6.172 -1.5299  1.8989  2.3649
 7288SOL     OW33496   3.312   3.182   1.206  0.2543 -0.8361 -0.2887
 7288SOL    HW133497   3.400   3.163   1.172  0.4877 -0.8691  0.3370
 7288SOL    HW233498   3.325   3.217   1.294 -0.3067  0.0851 -0.5734
 7289SOL     OW33499   2.392   4.409   4.282  0.2334  0.2669 -0.1866
 7289SOL    HW133500   2.347   4.476   4.333  0.0203 -0.3104  0.3857
 7289SOL    HW233501   2.347   4.414   4.197 -1.9031 -2.9120  0.7444
 7290SOL     OW33502   2.006   0.348   3.828 -0.1491  0.2201  0.2546
 7290SOL    HW133503   2.054   0.404   3.889  0.2425 -0.2479  0.3776
 7290SOL    HW233504   2.003   0.257   3.858  0.2258  0.7918  2.0181
 7291SOL     OW33505   0.930   3.752   8.942  0.4613  0.2537  0.1027
 7291SOL    HW133506   0.952   3.753   9.036  2.0620  0.3338 -0.2653
 7291SOL    HW233507   0.956   3.663   8.918  0.3800 -0.5379  2.9407
 7292SOL     OW33508   1.581   3.227   3.611 -0.1243  0.0661  0.7689
 7292SOL    HW133509   1.565   3.152   3.553 -1.8143  0.2386  1.0072
 7292SOL    HW233510   1.584   3.176   3.692  3.8186 -1.3480 -0.2910
 7293SOL     OW33511   0.246   2.312   1.723 -0.8236  0.1762 -0.1076
 7293SOL    HW133512   0.246   2.406   1.738  0.7608 -0.1303  1.7831
 7293SOL    HW233513   0.202   2.312   1.638 -4.1838  0.4528  1.6495
 7294SOL     OW33514   0.169   3.891   4.311 -0.2236 -0.3804 -0.7237
 7294SOL    HW133515   0.173   3.981   4.344 -0.6635 -1.3979  2.0665
 7294SOL    HW233516   0.120   3.901   4.229  0.2065 -0.2422 -0.9624
 7295SOL     OW33517   0.347   0.851   8.651 -0.3032  0.1061 -0.0302
 7295SOL    HW133518   0.339   0.913   8.579 -0.2074  1.6674  1.3138
 7295SOL    HW233519   0.298   0.892   8.722 -0.2428 -1.0677  0.6885
 7296SOL     OW33520   2.129   1.018   1.561  0.2568  0.3863  0.1087
 7296SOL    HW133521   2.076   0.941   1.540  0.9034 -0.2206  0.6805
 7296SOL    HW233522   2.187   0.985   1.630 -0.8542  0.1900  0.9593
 7297SOL     OW33523   0.522   0.297   9.635  0.1057 -0.6369 -0.4122
 7297SOL    HW133524   0.590   0.304   9.702 -0.2773  1.7285 -0.2662
 7297SOL    HW233525   0.548   0.382   9.599 -2.8169  0.4449  0.1255
 7298SOL     OW33526   1.924   2.171   2.426  0.4230  0.1833  0.2590
 7298SOL    HW133527   1.994   2.112   2.400  0.0693 -0.3367  0.4959
 7298SOL    HW233528   1.951   2.201   2.513 -4.2630  0.5875  1.5731
 7299SOL     OW33529   0.611   3.467   8.804 -0.2182 -0.4249  0.4391
 7299SOL    HW133530   0.613   3.537   8.740 -0.0252 -0.9294 -0.1103
 7299SOL    HW233531   0.690   3.421   8.775 -0.1162 -2.0720  3.3632
 7300SOL     OW33532   1.872   3.549   5.194  0.3625  0.1864  0.1553
 7300SOL    HW133533   1.828   3.535   5.110 -0.3956 -1.1170  0.7491
 7300SOL    HW233534   1.887   3.643   5.194 -3.3369  0.7710  2.2857
 7301SOL     OW33535   3.696   2.035   6.092 -0.1008  0.1178  0.1071
 7301SOL    HW133536   3.631   2.087   6.045  0.9548  1.0595 -0.3144
 7301SOL    HW233537   3.661   1.946   6.091  1.0460 -0.3398  0.1524
 7302SOL     OW33538   1.080   0.778   7.414 -0.5953  0.0126 -0.4759
 7302SOL    HW133539   1.060   0.758   7.506 -1.0689 -0.0969 -0.6072
 7302SOL    HW233540   0.993   0.772   7.375 -0.9824  0.5360  0.3007
 7303SOL     OW33541   3.008   1.346   7.455 -0.0729 -0.2838 -0.3500
 7303SOL    HW133542   3.066   1.396   7.512 -1.1715  1.0474 -0.4080
 7303SOL    HW233543   2.991   1.266   7.505  2.5145 -0.3551  0.3884
 7304SOL     OW33544   3.753   2.508   6.673  0.1590  0.2786 -0.4357
 7304SOL    HW133545   3.827   2.459   6.637 -0.9801 -0.6534 -1.4840
 7304SOL    HW233546   3.797   2.588   6.700  1.9071  0.9492 -5.3907
 7305SOL     OW33547   0.076   2.414   5.228  0.1735  0.2348  0.2728
 7305SOL    HW133548   0.132   2.473   5.178  1.3740 -0.1249  1.1853
 7305SOL    HW233549   0.137   2.352   5.267  0.2818  0.6773  0.8223
 7306SOL     OW33550   3.595   0.139  13.364  0.6909 -0.1388  0.3623
 7306SOL    HW133551   3.535   0.107  13.432  1.3278 -0.2557  0.8696
 7306SOL    HW233552   3.579   0.233  13.367 -3.6057 -0.9086  2.0366
 7307SOL     OW33553   3.735   1.541   2.888 -0.3291 -0.0564 -0.1408
 7307SOL    HW133554   3.643   1.558   2.865 -0.7557 -3.4207 -0.9573
 7307SOL    HW233555   3.733   1.452   2.922 -1.8843  0.2921  0.6922
 7308SOL     OW33556   2.009   4.513   3.499  0.2560 -0.0825 -0.2552
 7308SOL    HW133557   1.931   4.544   3.453  0.8222 -0.4224 -1.4623
 7308SOL    HW233558   2.082   4.514   3.436  0.8265 -1.6398  0.3709
 7309SOL     OW33559   1.338   2.587   4.369  0.1380 -0.5143 -1.2431
 7309SOL    HW133560   1.276   2.649   4.332  1.5147  1.4089 -0.3393
 7309SOL    HW233561   1.334   2.511   4.311 -3.0017 -0.3081 -1.2996
 7310SOL     OW33562   3.110   2.723   6.998 -0.2550  0.0814  0.0473
 7310SOL    HW133563   3.097   2.737   7.092 -0.6041  0.2847 -0.0331
 7310SOL    HW233564   3.021   2.710   6.966 -0.1672  1.9419 -0.9798
 7311SOL     OW33565   1.730   3.092  10.514 -1.1070 -0.0082  0.3497
 7311SOL    HW133566   1.666   3.103  10.584 -2.4075  0.4885 -0.9290
 7311SOL    HW233567   1.786   3.021  10.547  1.6661  0.8564 -2.5510
 7312SOL     OW33568   1.240   3.895   7.958  0.3568  0.1774  0.2654
 7312SOL    HW133569   1.247   3.940   8.042 -0.2154  1.0122 -0.1240
 7312SOL    HW233570   1.219   3.806   7.986 -0.9506  0.4326  0.1186
 7313SOL     OW33571   1.486   1.714   7.488 -0.8512 -0.2489 -0.3487
 7313SOL    HW133572   1.438   1.648   7.438 -0.7487 -2.1534  2.0626
 7313SOL    HW233573   1.563   1.738   7.437 -1.0350 -2.8434 -1.8195
 7314SOL     OW33574   0.411   0.528   0.895 -0.8807  0.4917  0.4088
 7314SOL    HW133575   0.403   0.448   0.841 -0.3043 -0.3755  1.6136
 7314SOL    HW233576   0.407   0.597   0.829 -1.1610  0.5370  0.4756
 7315SOL     OW33577   2.135   0.989   4.261 -0.0224  0.5133  0.0645
 7315SOL    HW133578   2.227   0.976   4.286  0.3219 -0.3631 -1.6729
 7315SOL    HW233579   2.080   0.956   4.332 -1.3917 -0.9790 -1.6981
 7316SOL     OW33580   2.503   4.032   9.435 -0.2302 -0.0582  0.1718
 7316SOL    HW133581   2.565   4.068   9.371  1.6036 -2.1889  0.7364
 7316SOL    HW233582   2.544   3.946   9.445 -3.3737 -1.8641 -2.4453
 7317SOL     OW33583   0.676   3.760  14.307  0.2195 -0.3847  0.0479
 7317SOL    HW133584   0.624   3.837  14.286 -1.6429 -1.1140  1.9762
 7317SOL    HW233585   0.741   3.759  14.236 -3.3501  0.0783 -3.1834
 7318SOL     OW33586   4.249   3.433  16.359 -0.1807  0.0137  0.0225
 7318SOL    HW133587   4.330   3.397  16.322 -0.3382  0.7423 -1.0389
 7318SOL    HW233588   4.175   3.379  16.331  0.5370  0.1319 -2.1223
 7319SOL     OW33589   4.164   2.622  15.392  0.1536  0.1499 -0.4423
 7319SOL    HW133590   4.242   2.619  15.336  0.7466 -1.3714  0.4871
 7319SOL    HW233591   4.130   2.535  15.370  1.1428 -0.2702 -0.3041
 7320SOL     OW33592   3.506   2.185   0.025 -0.1692 -0.0766  0.1843
 7320SOL    HW133593   3.575   2.166   0.089  1.2289 -1.6846 -1.8042
 7320SOL    HW233594   3.436   2.199   0.089  0.7444  1.2682  0.8853
 7321SOL     OW33595   2.811   3.813  14.623 -0.0416  0.0836  0.0272
 7321SOL    HW133596   2.831   3.722  14.601 -0.4269  0.0329 -0.1264
 7321SOL    HW233597   2.742   3.802  14.689  1.2367 -0.4684  1.2825
 7322SOL     OW33598   4.344   2.354  15.349  0.0617 -0.0820 -0.0579
 7322SOL    HW133599   4.292   2.318  15.277  0.9243 -2.5842  0.5995
 7322SOL    HW233600   4.293   2.340  15.428  1.3750  1.8312  1.1364
 7323SOL     OW33601   2.765   0.883   8.212 -0.6072  0.0539 -0.1415
 7323SOL    HW133602   2.789   0.913   8.300 -0.4966 -2.4941  0.6736
 7323SOL    HW233603   2.687   0.939   8.208 -0.0072  0.6770 -3.0003
 7324SOL     OW33604   1.789   0.122   5.656 -0.5505  0.2429 -0.2956
 7324SOL    HW133605   1.738   0.130   5.736  1.0625 -0.1368  0.7478
 7324SOL    HW233606   1.877   0.134   5.690 -0.6932  2.3868 -0.6327
 7325SOL     OW33607   4.066   4.077   2.660  0.0685  0.7650  0.0838
 7325SOL    HW133608   4.102   4.039   2.741 -0.1298 -0.5099 -0.4220
 7325SOL    HW233609   4.135   4.082   2.594 -0.0915  0.0368 -0.1378
 7326SOL     OW33610   3.921   0.288   6.515  0.0752 -0.1503 -0.0848
 7326SOL    HW133611   3.826   0.277   6.516  0.3915 -2.6661  2.3386
 7326SOL    HW233612   3.960   0.215   6.468 -0.3347  0.2496 -1.0354
 7327SOL     OW33613   4.199   1.409   5.470  0.4533 -0.2969  0.3856
 7327SOL    HW133614   4.146   1.473   5.422  2.2172 -0.2591 -1.4984
 7327SOL    HW233615   4.244   1.462   5.536 -0.9892 -1.8012  2.5644
 7328SOL     OW33616   3.851   1.815   1.465  0.0442 -0.4717  0.5311
 7328SOL    HW133617   3.886   1.842   1.380 -0.6620 -0.4023  0.2640
 7328SOL    HW233618   3.831   1.723   1.448  1.2841 -0.8028  0.8505
 7329SOL     OW33619   1.888   0.264  11.788 -0.4422 -0.0961  0.1048
 7329SOL    HW133620   1.912   0.262  11.695  1.8266 -3.3119  0.7379
 7329SOL    HW233621   1.970   0.297  11.824  0.0473  0.5831 -1.6499
 7330SOL     OW33622   2.556   0.454   1.669 -0.3169 -0.9119  0.2928
 7330SOL    HW133623   2.629   0.393   1.673 -0.4151 -0.8298  3.1708
 7330SOL    HW233624   2.587   0.525   1.726 -2.2122  0.5058 -0.4485
 7331SOL     OW33625   2.280   3.648   7.345 -0.3699  0.1990 -0.2253
 7331SOL    HW133626   2.195   3.692   7.342  0.4581  1.7227 -1.1215
 7331SOL    HW233627   2.314   3.672   7.431 -2.5915  0.7279  0.4965
 7332SOL     OW33628   1.453   0.187   8.123  0.7681 -0.4438  0.0496
 7332SOL    HW133629   1.533   0.166   8.172 -0.3227  0.2895  2.1144
 7332SOL    HW233630   1.450   0.119   8.055 -1.5557 -1.1122  0.8258
 7333SOL     OW33631   3.100   3.067   4.353  0.3856  0.2289  0.1461
 7333SOL    HW133632   3.105   2.971   4.349  0.0087  0.2133  0.0224
 7333SOL    HW233633   3.147   3.099   4.277  0.2137 -1.9562 -0.8867
 7334SOL     OW33634   0.359   3.670   1.795 -0.2854 -0.6464 -0.7440
 7334SOL    HW133635   0.376   3.614   1.720  1.3108 -1.2290  0.0526
 7334SOL    HW233636   0.423   3.740   1.785 -0.9016  0.2849  1.6879
 7335SOL     OW33637   0.891   2.659   2.354  0.5083 -0.0374  0.0771
 7335SOL    HW133638   0.857   2.683   2.441 -1.8255 -1.3049 -0.4761
 7335SOL    HW233639   0.850   2.574   2.337 -0.9394  0.6272  0.2996
 7336SOL     OW33640   2.847   2.563  10.901 -0.3473 -0.6167  0.2980
 7336SOL    HW133641   2.814   2.499  10.964 -0.2700  0.2390  1.2110
 7336SOL    HW233642   2.764   2.591  10.862  0.6719 -0.9571 -2.1052
 7337SOL     OW33643   2.703   2.285   9.953 -0.3088  0.8268 -0.2179
 7337SOL    HW133644   2.608   2.295   9.962 -0.2391  0.7596  0.6125
 7337SOL    HW233645   2.706   2.190   9.967 -2.2631  0.7252 -0.4098
 7338SOL     OW33646   1.282   3.488   4.751 -0.4063 -0.0722 -0.6164
 7338SOL    HW133647   1.258   3.459   4.839 -0.8274  0.4435 -0.5649
 7338SOL    HW233648   1.355   3.546   4.772  0.4222 -1.0401 -0.7965
 7339SOL     OW33649   3.162   2.868   5.036  0.2615 -0.3614 -0.2794
 7339SOL    HW133650   3.179   2.876   5.130 -0.6821  1.4592 -0.2578
 7339SOL    HW233651   3.227   2.933   5.007 -0.8225 -0.1233 -2.1214
 7340SOL     OW33652   1.046   4.570   9.168 -0.3324 -0.0755  0.4962
 7340SOL    HW133653   0.956   4.560   9.196 -1.3914  1.9544 -2.1724
 7340SOL    HW233654   1.078   4.631   9.235  0.8558 -0.2251  0.0691
 7341SOL     OW33655   1.329   2.202   9.429  0.2415 -0.0521  0.0297
 7341SOL    HW133656   1.394   2.142   9.465  0.4335 -0.4605 -0.9996
 7341SOL    HW233657   1.315   2.147   9.352 -0.4079  0.3344 -0.1268
 7342SOL     OW33658   4.254   3.793   3.500 -0.4482 -0.1043  0.2401
 7342SOL    HW133659   4.228   3.762   3.587 -0.7576 -0.9322 -0.1479
 7342SOL    HW233660   4.216   3.725   3.445 -0.1658  0.2560 -0.4007
 7343SOL     OW33661   1.021   3.044  16.258  0.3376  0.3213  0.2410
 7343SOL    HW133662   1.016   3.094  16.339  0.8303 -1.7719  1.5718
 7343SOL    HW233663   0.950   3.082  16.208  0.0890  0.7580  0.9262
 7344SOL     OW33664   3.745   2.483  15.159 -0.1708  0.1299 -0.0037
 7344SOL    HW133665   3.800   2.539  15.105  0.1613 -0.4556 -0.2752
 7344SOL    HW233666   3.687   2.453  15.089 -0.4152  0.5762  0.0085
 7345SOL     OW33667   1.233   2.445  12.970 -0.5510 -0.2468 -0.1231
 7345SOL    HW133668   1.327   2.456  12.956 -0.7908  1.7773 -0.1421
 7345SOL    HW233669   1.232   2.361  13.015  1.0512 -0.3251 -0.2189
 7346SOL     OW33670   0.050   0.933  15.012  0.1989  0.1653  0.2847
 7346SOL    HW133671   0.135   0.955  15.049  0.7444  1.7748 -1.9340
 7346SOL    HW233672   4.729   0.992  15.059 -0.9928 -0.6606 -0.1861
 7347SOL     OW33673   1.124   1.796   0.105 -0.0138  0.0731 -0.0565
 7347SOL    HW133674   1.032   1.786   0.081  0.7680 -1.8490 -2.3447
 7347SOL    HW233675   1.120   1.748   0.187  4.7767 -0.4558 -0.0988
 7348SOL     OW33676   0.504   1.307   6.243  0.2052  0.4163 -0.3524
 7348SOL    HW133677   0.446   1.242   6.283  0.9078  0.8198  1.3259
 7348SOL    HW233678   0.544   1.346   6.321  0.0871 -0.2462  0.0397
 7349SOL     OW33679   2.599   3.870   8.014  0.2029 -0.2976 -0.2345
 7349SOL    HW133680   2.592   3.869   7.918  2.5657 -1.5727 -0.3874
 7349SOL    HW233681   2.605   3.966   8.018 -1.4320 -0.0636 -3.0167
 7350SOL     OW33682   1.494   2.932   7.239  0.5082  0.3602  0.3694
 7350SOL    HW133683   1.516   3.001   7.176  1.0283  0.8022  1.0357
 7350SOL    HW233684   1.443   2.977   7.306  0.4449 -0.8838  1.1561
 7351SOL     OW33685   1.397   0.400  17.361  0.5615 -0.2837 -0.9110
 7351SOL    HW133686   1.418   0.328  17.421 -0.6722 -0.5328 -0.7844
 7351SOL    HW233687   1.329   0.359  17.308 -1.0845 -1.6844  2.3081
 7352SOL     OW33688   2.086   2.426   7.918  0.1906 -0.3091 -0.2020
 7352SOL    HW133689   2.034   2.505   7.930  0.8309 -0.2551  2.1038
 7352SOL    HW233690   2.066   2.391   8.004 -1.6407 -0.2984 -0.6299
 7353SOL     OW33691   4.205   0.936   9.315 -0.1887 -0.3404 -0.0038
 7353SOL    HW133692   4.120   0.979   9.303 -0.4875 -0.7752  0.5339
 7353SOL    HW233693   4.201   0.910   9.407  1.2811  0.4228  0.2708
 7354SOL     OW33694   4.704   0.459   3.984 -0.2766  0.2338 -0.8939
 7354SOL    HW133695   0.006   0.545   3.972 -1.7004  0.8350 -1.5363
 7354SOL    HW233696   4.622   0.468   3.935 -1.0605  1.5753  0.6444
 7355SOL     OW33697   0.077   1.968   4.620 -0.2053  0.0650  0.5533
 7355SOL    HW133698   0.044   2.057   4.607 -0.9049 -0.5030 -1.5634
 7355SOL    HW233699   0.165   1.996   4.644 -0.3291 -0.0047  1.0856
 7356SOL     OW33700   0.566   0.321   4.353  0.1135  0.0723  0.1042
 7356SOL    HW133701   0.552   0.310   4.447 -0.9121 -1.8200 -0.2676
 7356SOL    HW233702   0.534   0.236   4.323  0.6098  0.2629 -0.9521
 7357SOL     OW33703   4.310   1.247   1.289 -0.0100  0.5322 -0.3013
 7357SOL    HW133704   4.391   1.278   1.331  0.1330  0.0908 -0.2503
 7357SOL    HW233705   4.338   1.233   1.198  1.7219 -1.4485  0.5333
 7358SOL     OW33706   3.429   2.034  13.230  0.7141  0.1325  0.4148
 7358SOL    HW133707   3.393   2.123  13.230  0.7718  0.1627  1.6060
 7358SOL    HW233708   3.399   2.008  13.318 -0.1124 -0.2667  0.0227
 7359SOL     OW33709   3.102   4.090  11.502  0.2454  0.5737  0.1499
 7359SOL    HW133710   3.042   4.126  11.437  1.1846 -0.3888 -1.2369
 7359SOL    HW233711   3.184   4.098  11.453 -0.4151 -0.7198 -1.1686
 7360SOL     OW33712   3.185   2.967   3.281 -0.0721 -0.0592  0.1679
 7360SOL    HW133713   3.226   3.043   3.323  0.6274 -1.3787  1.8622
 7360SOL    HW233714   3.132   2.999   3.209  1.0649 -1.5982 -1.3450
 7361SOL     OW33715   3.133   1.055  12.137 -0.2199 -0.0902 -0.2270
 7361SOL    HW133716   3.085   1.120  12.187  0.1597  0.5322 -0.6791
 7361SOL    HW233717   3.213   1.043  12.187  0.2450  0.8244 -0.7586
 7362SOL     OW33718   4.115   0.283  17.381 -0.1947  0.3677  0.0106
 7362SOL    HW133719   4.142   0.193  17.397 -2.4413 -0.8664 -3.1589
 7362SOL    HW233720   4.184   0.304  17.318 -1.0037 -0.0082 -1.0109
 7363SOL     OW33721   4.248   2.342   6.644 -0.6035  0.1896  0.0677
 7363SOL    HW133722   4.195   2.411   6.605  1.1375  0.6926 -1.4455
 7363SOL    HW233723   4.252   2.378   6.732 -0.8871  1.2181 -0.3421
 7364SOL     OW33724   4.422   3.946   3.803 -0.2009  0.6114 -0.1267
 7364SOL    HW133725   4.373   3.947   3.721  1.2515 -1.9716 -1.0485
 7364SOL    HW233726   4.348   3.918   3.858  0.1608 -1.4808 -0.6885
 7365SOL     OW33727   1.171   0.936  15.501  0.0708 -0.9052 -0.4165
 7365SOL    HW133728   1.152   0.968  15.589 -2.2790 -0.2690 -1.1340
 7365SOL    HW233729   1.258   0.903  15.521  0.3006 -0.9111 -1.4206
 7366SOL     OW33730   2.566   3.233   2.976 -0.2449  0.4692  0.2134
 7366SOL    HW133731   2.594   3.193   3.059 -1.1456  0.2109  0.3952
 7366SOL    HW233732   2.475   3.256   2.997 -0.7884  0.0654 -1.7442
 7367SOL     OW33733   0.736   0.375   9.796 -0.3465  0.1558  0.2146
 7367SOL    HW133734   0.778   0.400   9.879 -2.1901  0.5160  1.0228
 7367SOL    HW233735   0.795   0.302   9.777 -2.1467 -1.4230  0.7634
 7368SOL     OW33736   3.019   3.797   2.027 -0.0123 -0.6448  0.1844
 7368SOL    HW133737   2.997   3.815   2.118 -1.1543  0.9797 -0.4122
 7368SOL    HW233738   2.970   3.716   2.015 -2.2881  0.4252  2.3240
 7369SOL     OW33739   0.736   1.398  13.924  0.3184 -0.2899 -0.8205
 7369SOL    HW133740   0.640   1.406  13.926  0.3249 -0.4552  0.3620
 7369SOL    HW233741   0.740   1.315  13.877  0.3803  0.2051 -1.6814
 7370SOL     OW33742   1.350   2.421   5.740  1.2144 -0.0520  0.4873
 7370SOL    HW133743   1.343   2.508   5.779 -1.5578 -0.1160  0.1389
 7370SOL    HW233744   1.296   2.433   5.662 -0.9924 -0.9574  1.8531
 7371SOL     OW33745   0.185   0.857   9.132  0.1112  0.1065 -0.3444
 7371SOL    HW133746   0.116   0.791   9.123 -0.7153  0.8911  0.2953
 7371SOL    HW233747   0.223   0.832   9.217 -0.7460  0.6386  0.1944
 7372SOL     OW33748   0.575   2.735  16.125 -0.1337  0.0766 -0.0405
 7372SOL    HW133749   0.597   2.730  16.218 -1.3305  1.1595  0.2975
 7372SOL    HW233750   0.481   2.751  16.123  0.0321  1.5334  3.3118
 7373SOL     OW33751   2.914   2.774   4.142 -0.4665  0.1865 -0.0671
 7373SOL    HW133752   2.891   2.681   4.140  1.3595 -0.3158  2.5087
 7373SOL    HW233753   2.971   2.787   4.218  0.0111  3.0293 -0.9193
 7374SOL     OW33754   3.296   3.319  15.505 -0.3659 -0.3183  0.4985
 7374SOL    HW133755   3.250   3.241  15.474 -2.0504  0.2219  1.6360
 7374SOL    HW233756   3.374   3.305  15.452 -1.0172 -0.1273 -0.5147
 7375SOL     OW33757   2.814   2.664   6.270  0.3514  0.0668  0.2061
 7375SOL    HW133758   2.818   2.730   6.201  2.0231  1.9659  2.1541
 7375SOL    HW233759   2.762   2.714   6.332  1.3756  0.8210  0.4565
 7376SOL     OW33760   1.329   2.175   4.821  0.2399  0.1695 -0.0461
 7376SOL    HW133761   1.267   2.199   4.889  0.5217 -0.0635  0.2964
 7376SOL    HW233762   1.373   2.103   4.866 -0.3292  0.7730  1.4783
 7377SOL     OW33763   1.337   4.082   5.396 -0.2208 -0.1578 -0.2182
 7377SOL    HW133764   1.411   4.045   5.445 -1.8939 -1.7068  1.1247
 7377SOL    HW233765   1.336   4.175   5.417 -1.3189 -0.2753  0.2233
 7378SOL     OW33766   0.873   0.355  12.076  0.0932  0.4332 -0.0622
 7378SOL    HW133767   0.894   0.418  12.007 -2.1217  1.0970 -0.1096
 7378SOL    HW233768   0.849   0.271  12.037  1.1870  0.0521  0.0733
 7379SOL     OW33769   2.808   4.209  13.330  0.3677  0.0721  0.1519
 7379SOL    HW133770   2.774   4.236  13.416  2.0422 -0.7536  1.0676
 7379SOL    HW233771   2.888   4.262  13.335  0.4279  0.0915 -1.2198
 7380SOL     OW33772   2.209   1.832   5.782  0.1887  0.2729  0.0858
 7380SOL    HW133773   2.122   1.829   5.820 -0.2889  0.2774 -1.0183
 7380SOL    HW233774   2.259   1.778   5.843 -1.8095 -0.2893  1.1929
 7381SOL     OW33775   0.342   3.342   7.330  0.1137  0.5505 -0.2468
 7381SOL    HW133776   0.424   3.376   7.368 -0.8191 -0.6996  2.9178
 7381SOL    HW233777   0.288   3.302   7.398  0.2942 -0.8153 -0.9068
 7382SOL     OW33778   4.050   1.081   6.354 -0.1386  0.2772 -0.0204
 7382SOL    HW133779   4.065   1.135   6.432 -2.1366 -0.8373  1.1326
 7382SOL    HW233780   4.091   1.127   6.281 -1.4744 -0.6967 -1.3915
 7383SOL     OW33781   3.002   2.828   8.320  0.3635 -0.1781  0.2823
 7383SOL    HW133782   3.032   2.916   8.297 -0.6834  0.1615  0.2377
 7383SOL    HW233783   3.082   2.791   8.357  0.8979 -1.0107 -1.7196
 7384SOL     OW33784   0.253   0.789  14.594  0.1416 -0.0097 -0.3552
 7384SOL    HW133785   0.172   0.804  14.642 -0.6890  3.2797 -2.7936
 7384SOL    HW233786   0.311   0.764  14.666 -1.9972 -2.4368  0.4835
 7385SOL     OW33787   2.118   4.677   1.610  0.0123  0.2077  0.0464
 7385SOL    HW133788   2.146   4.672   1.701 -0.3896 -2.3920  0.0427
 7385SOL    HW233789   2.085   4.589   1.589 -0.7470  0.4636  0.1528
 7386SOL     OW33790   0.153   2.433   2.181 -0.4820  0.3112 -0.2663
 7386SOL    HW133791   0.164   2.516   2.227  0.4990  0.6693 -1.1341
 7386SOL    HW233792   0.246   2.424   2.158  0.0228 -0.2211  1.9560
 7387SOL     OW33793   0.131   0.161   2.802 -0.2911  0.3139  0.2799
 7387SOL    HW133794   0.063   0.216   2.841  0.3211  0.9470  0.4579
 7387SOL    HW233795   0.203   0.223   2.799 -0.3164  0.3846  1.1934
 7388SOL     OW33796   1.134   2.900   4.926  0.1092  0.5920 -0.6937
 7388SOL    HW133797   1.210   2.877   4.873  2.3806  0.7949  2.5019
 7388SOL    HW233798   1.135   2.992   4.901  0.1116  0.9413  0.6322
 7389SOL     OW33799   1.398   4.370   4.435  0.4575 -0.4169  0.3793
 7389SOL    HW133800   1.363   4.421   4.362  1.4798 -0.3758 -0.0790
 7389SOL    HW233801   1.400   4.279   4.408 -0.2462 -0.0883 -0.7706
 7390SOL     OW33802   2.738   0.079   7.306 -0.1784  0.5177 -0.6700
 7390SOL    HW133803   2.828   0.075   7.339  0.5986  0.4828 -2.7661
 7390SOL    HW233804   2.730   0.006   7.244  1.3728  1.3094 -1.8182
 7391SOL     OW33805   3.068   1.342  16.231 -0.6367  0.3410 -0.0521
 7391SOL    HW133806   2.977   1.324  16.255 -0.5580  2.7160  2.1070
 7391SOL    HW233807   3.068   1.433  16.262 -0.9479  0.6271 -0.9098
 7392SOL     OW33808   4.307   3.869   5.530  0.0809  0.6759 -0.1625
 7392SOL    HW133809   4.264   3.867   5.615 -4.6623  0.4764 -2.5683
 7392SOL    HW233810   4.375   3.932   5.553 -0.6371  1.6563 -0.7656
 7393SOL     OW33811   3.154   2.349   2.718  0.0421 -0.1058  0.6414
 7393SOL    HW133812   3.171   2.441   2.739 -2.7582  0.7123 -0.7693
 7393SOL    HW233813   3.172   2.310   2.804  2.9606  2.4146  1.1742
 7394SOL     OW33814   1.849   1.479  10.702  0.5607  0.4354  0.4822
 7394SOL    HW133815   1.909   1.472  10.628  2.0023  1.0374  1.5809
 7394SOL    HW233816   1.867   1.573  10.715  0.0867  0.4428  1.0917
 7395SOL     OW33817   0.665   0.662   8.323  0.0469  0.2877 -0.0114
 7395SOL    HW133818   0.676   0.589   8.384 -0.1913  0.1411 -0.1472
 7395SOL    HW233819   0.652   0.739   8.379  1.3619  1.3066 -1.0981
 7396SOL     OW33820   0.048   2.454   8.382 -0.3205  0.7064  0.8184
 7396SOL    HW133821   0.056   2.516   8.310  2.0973 -0.5554 -0.0152
 7396SOL    HW233822   4.694   2.434   8.371  0.5611 -2.1788 -1.3951
 7397SOL     OW33823   0.002   4.148   9.152  0.1074 -0.1692 -0.2557
 7397SOL    HW133824   4.670   4.088   9.128 -0.1350  0.8463 -2.1139
 7397SOL    HW233825   0.071   4.086   9.126 -0.1618  0.0392 -1.4937
 7398SOL     OW33826   0.477   3.182  16.217 -0.5419  0.4953  0.1184
 7398SOL    HW133827   0.533   3.109  16.243 -1.2837 -0.7020 -1.6472
 7398SOL    HW233828   0.490   3.169  16.124 -0.0031  1.9899 -0.0109
 7399SOL     OW33829   4.191   0.011   8.835 -0.1243  0.1901 -0.1019
 7399SOL    HW133830   4.267   4.713   8.790 -0.3481  1.4765 -1.5781
 7399SOL    HW233831   4.240   0.067   8.895 -0.8026  1.4170 -0.6702
 7400SOL     OW33832   1.666   3.334  17.637  0.0892  0.2750  0.7227
 7400SOL    HW133833   1.621   3.272  17.694 -0.9164 -0.4452 -0.8440
 7400SOL    HW233834   1.737   3.376  17.687 -0.1254  0.9471  0.4629
 7401SOL     OW33835   4.718   3.813   6.994 -0.3195 -0.0371 -1.1210
 7401SOL    HW133836   4.696   3.873   7.065 -0.3024 -0.6519 -0.5952
 7401SOL    HW233837   4.638   3.782   6.952 -0.0523 -2.1206 -0.0598
 7402SOL     OW33838   2.692   1.820  11.109  0.3839 -0.0872 -0.4266
 7402SOL    HW133839   2.724   1.901  11.070  1.1766 -1.4539 -2.6320
 7402SOL    HW233840   2.653   1.770  11.037  1.7122 -2.3182  0.3885
 7403SOL     OW33841   0.662   0.167  11.655 -0.1948  0.3307  0.3374
 7403SOL    HW133842   0.633   0.256  11.632 -1.7710 -0.2786 -0.0368
 7403SOL    HW233843   0.757   0.175  11.647 -0.1719 -1.4776 -1.2158
 7404SOL     OW33844   4.491   3.883   7.486  0.6441 -0.1107  0.0838
 7404SOL    HW133845   4.525   3.914   7.570  1.0890 -2.1105  0.6392
 7404SOL    HW233846   4.526   3.939   7.416 -0.5052 -1.3597 -1.4863
 7405SOL     OW33847   3.196   4.250   7.135 -0.0497  0.1410 -0.1433
 7405SOL    HW133848   3.148   4.327   7.105 -0.5645 -0.3730 -0.6369
 7405SOL    HW233849   3.132   4.223   7.200 -0.0435  1.2427  0.3130
 7406SOL     OW33850   1.949   2.528   7.046 -0.2764 -0.0227  0.6649
 7406SOL    HW133851   1.987   2.605   7.088 -0.1546  1.4058 -2.0780
 7406SOL    HW233852   1.861   2.563   7.052 -0.7939 -0.8804 -1.7739
 7407SOL     OW33853   2.955   2.186   2.924 -0.3130 -0.0732  0.1182
 7407SOL    HW133854   3.047   2.175   2.949 -0.0635  1.3916 -0.1884
 7407SOL    HW233855   2.928   2.094   2.930 -0.5030 -0.0767 -0.9571
 7408SOL     OW33856   1.172   3.143   4.163  0.0010  0.5209  0.3527
 7408SOL    HW133857   1.080   3.132   4.138  1.1691 -2.8124 -2.5579
 7408SOL    HW233858   1.212   3.067   4.120  0.6120  2.6021 -2.7348
 7409SOL     OW33859   2.041   4.203   4.039 -0.4733 -0.0822  0.0936
 7409SOL    HW133860   2.015   4.212   3.947  1.8587  0.3235 -0.5347
 7409SOL    HW233861   2.103   4.131   4.036 -0.4679 -0.0368 -1.1055
 7410SOL     OW33862   3.674   0.776  13.499  0.3520 -0.6039 -0.1519
 7410SOL    HW133863   3.617   0.706  13.466  1.4324 -0.9965 -1.2185
 7410SOL    HW233864   3.756   0.755  13.452  0.8021  0.3369  0.2068
 7411SOL     OW33865   4.054   1.728   1.259 -0.5498 -0.1084 -0.2519
 7411SOL    HW133866   4.139   1.692   1.286 -0.0634  1.6892  0.6452
 7411SOL    HW233867   4.071   1.785   1.184 -1.3331  2.7209  1.6837
 7412SOL     OW33868   3.248   0.696   8.781 -0.1037 -0.0648 -0.3565
 7412SOL    HW133869   3.249   0.638   8.705  0.2466 -1.0740  0.4206
 7412SOL    HW233870   3.212   0.637   8.848  0.2128 -0.0797 -0.2000
 7413SOL     OW33871   3.079   1.830   1.512 -0.1400 -0.1155  0.2988
 7413SOL    HW133872   3.122   1.916   1.507  0.7314 -0.4238  2.4231
 7413SOL    HW233873   3.003   1.852   1.459  0.3176 -0.9431 -0.6872
 7414SOL     OW33874   1.282   0.384   4.405 -0.0902 -0.7824  0.0720
 7414SOL    HW133875   1.203   0.411   4.451  0.6333  2.8814 -0.7971
 7414SOL    HW233876   1.249   0.402   4.317  1.6694 -2.2967 -0.8888
 7415SOL     OW33877   2.393   2.422  12.133 -0.3820  0.0837  0.4213
 7415SOL    HW133878   2.419   2.449  12.045 -0.9756 -2.0485 -0.4189
 7415SOL    HW233879   2.471   2.378  12.169 -0.5710  0.3772  1.1756
 7416SOL     OW33880   1.952   0.166   6.137  0.2846 -0.3504  0.1821
 7416SOL    HW133881   1.964   0.243   6.081  0.3226 -0.5898 -0.1377
 7416SOL    HW233882   2.043   0.150   6.162  0.0216  1.0202  2.0224
 7417SOL     OW33883   4.369   2.526   1.984 -0.0053 -0.3513 -0.0539
 7417SOL    HW133884   4.383   2.466   2.057 -2.3410 -1.0397 -0.1486
 7417SOL    HW233885   4.351   2.477   1.903  0.4340  0.9671 -0.9375
 7418SOL     OW33886   0.513   2.435  16.595 -0.2342  0.2584 -0.2903
 7418SOL    HW133887   0.461   2.464  16.520 -0.3626 -0.3267 -0.4297
 7418SOL    HW233888   0.451   2.455  16.665 -1.1462 -1.8332 -0.5037
 7419SOL     OW33889   4.592   0.911   7.413  0.3954  0.6942 -0.2990
 7419SOL    HW133890   4.543   0.974   7.464  0.5702  0.5534  0.0429
 7419SOL    HW233891   4.521   0.863   7.369 -1.5238  0.8396  2.6640
 7420SOL     OW33892   0.022   4.517  15.203 -0.2286  0.2999  0.4782
 7420SOL    HW133893   0.000   4.430  15.235  1.9352 -0.8513 -1.1579
 7420SOL    HW233894   4.671   4.548  15.203 -0.2266  0.3106 -2.1331
 7421SOL     OW33895   0.835   2.698   7.929  0.4111  0.5687  0.2029
 7421SOL    HW133896   0.754   2.670   7.886 -0.4541  1.5039  1.2197
 7421SOL    HW233897   0.875   2.759   7.867 -0.7208 -0.3051 -1.3794
 7422SOL     OW33898   0.960   1.005   0.329 -0.4760  0.1072 -0.3379
 7422SOL    HW133899   1.015   0.955   0.269  0.4890  0.3897  0.3058
 7422SOL    HW233900   1.012   1.006   0.409  0.7838 -2.0129 -1.1283
 7423SOL     OW33901   2.874   2.276  15.029  0.0083  0.3145 -0.4956
 7423SOL    HW133902   2.950   2.219  15.042  0.3454  0.8520 -0.1210
 7423SOL    HW233903   2.844   2.257  14.940  1.4991  0.1800 -0.9636
 7424SOL     OW33904   2.794   4.602   2.741 -0.5967  0.2253  0.4470
 7424SOL    HW133905   2.733   4.560   2.801  1.3495 -2.2089  0.7521
 7424SOL    HW233906   2.845   4.637   2.814 -1.4652  1.5811  0.3906
 7425SOL     OW33907   2.732   0.580   5.369  0.5398 -0.9633  0.5520
 7425SOL    HW133908   2.647   0.570   5.326  0.2906 -0.1908  0.8584
 7425SOL    HW233909   2.767   0.663   5.336  0.9276 -0.9390  1.0259
 7426SOL     OW33910   3.642   0.158   9.995 -0.7257  0.2694  0.1077
 7426SOL    HW133911   3.620   0.142   9.904 -1.9815 -1.8612  0.7947
 7426SOL    HW233912   3.721   0.106  10.009 -1.6729 -0.6287  2.0830
 7427SOL     OW33913   1.539   4.569   8.589  0.2043  0.0069 -0.4815
 7427SOL    HW133914   1.534   4.493   8.647 -0.1654  1.3371  1.2613
 7427SOL    HW233915   1.567   4.642   8.645 -0.9656 -0.8856  1.2644
 7428SOL     OW33916   0.416   2.389   2.166 -0.2099  0.1250 -0.3561
 7428SOL    HW133917   0.411   2.293   2.160  4.1811 -0.0987 -0.4005
 7428SOL    HW233918   0.484   2.392   2.234 -0.5583  1.2461 -0.0599
 7429SOL     OW33919   1.270   1.760   5.116  0.3270  0.2274  0.8353
 7429SOL    HW133920   1.301   1.700   5.048 -3.5619 -1.6382  0.7258
 7429SOL    HW233921   1.184   1.729   5.143 -0.9683  2.5387 -0.6315
 7430SOL     OW33922   0.254   4.450   3.563  0.3053  0.3501  0.0706
 7430SOL    HW133923   0.202   4.529   3.546 -0.2946 -0.0584  0.0032
 7430SOL    HW233924   0.194   4.396   3.614  0.9605 -0.8949 -0.4894
 7431SOL     OW33925   0.483   1.467   1.980 -0.1296  0.0260 -0.1787
 7431SOL    HW133926   0.567   1.456   1.935 -0.5003 -0.9781 -0.6227
 7431SOL    HW233927   0.483   1.388   2.034 -0.2933  0.5477  0.5770
 7432SOL     OW33928   4.457   2.291   5.383 -0.1445  0.2358 -0.5205
 7432SOL    HW133929   4.416   2.342   5.314 -0.3714  2.8180  1.5322
 7432SOL    HW233930   4.514   2.358   5.421  0.0117 -1.4108  2.2056
 7433SOL     OW33931   0.847   2.318   8.924  0.2163 -0.6142 -0.4024
 7433SOL    HW133932   0.940   2.299   8.920  0.1929 -0.5108 -1.3489
 7433SOL    HW233933   0.840   2.339   8.831  2.5510 -0.1073 -0.4583
 7434SOL     OW33934   3.378   3.165   2.519 -0.2361 -0.4109  0.0721
 7434SOL    HW133935   3.377   3.085   2.572  0.3622  0.4433  1.3722
 7434SOL    HW233936   3.333   3.222   2.581  0.7880  0.0196  0.4149
 7435SOL     OW33937   4.316   3.158   8.207 -0.1054 -0.0520 -0.1401
 7435SOL    HW133938   4.334   3.252   8.198  1.1285 -0.4620 -1.8923
 7435SOL    HW233939   4.222   3.163   8.224  0.2957  0.7587  1.8231
 7436SOL     OW33940   4.738   0.564   5.318 -0.1245 -0.5721  1.0171
 7436SOL    HW133941   0.053   0.510   5.259 -0.7008  0.8365 -0.7844
 7436SOL    HW233942   0.013   0.653   5.286 -0.0269 -1.4773 -1.4136
 7437SOL     OW33943   1.866   4.626   4.364  0.1480 -0.1825  0.9591
 7437SOL    HW133944   1.834   4.711   4.393 -0.2430 -0.6862  1.9947
 7437SOL    HW233945   1.787   4.585   4.329 -1.2250  1.7384  1.8350
 7438SOL     OW33946   1.100   1.166  11.715 -0.2598  0.2512  0.1519
 7438SOL    HW133947   1.168   1.110  11.753  0.6044 -1.0921 -3.2766
 7438SOL    HW233948   1.030   1.165  11.780 -0.6168 -0.9059 -0.2327
 7439SOL     OW33949   2.900   1.254  11.933  0.0821  0.0846 -0.0808
 7439SOL    HW133950   2.857   1.322  11.881 -1.4686 -0.6980  0.1483
 7439SOL    HW233951   2.980   1.296  11.962  1.1363 -1.1803 -1.1782
 7440SOL     OW33952   4.475   3.477   3.639 -0.3356  0.1214 -0.4705
 7440SOL    HW133953   4.476   3.547   3.574  1.3590  0.4358 -0.1135
 7440SOL    HW233954   4.569   3.458   3.642 -0.0048  1.7937 -0.3584
 7441SOL     OW33955   3.737   4.076   3.580 -0.3385  0.0259  0.1060
 7441SOL    HW133956   3.696   3.993   3.559 -2.9223  1.3711 -0.1739
 7441SOL    HW233957   3.787   4.090   3.499 -2.4703 -0.4202 -1.2728
 7442SOL     OW33958   2.803   3.351   7.110  0.2750 -0.1780 -0.3423
 7442SOL    HW133959   2.838   3.312   7.030  0.6070 -0.8827  0.1427
 7442SOL    HW233960   2.741   3.415   7.075  0.7628  0.7939  0.5817
 7443SOL     OW33961   1.896   0.554  10.563  0.1061  0.0319  0.2854
 7443SOL    HW133962   1.862   0.622  10.505 -1.1239 -1.4372 -0.7423
 7443SOL    HW233963   1.852   0.591  10.640  0.6221  2.2706 -0.5234
 7444SOL     OW33964   2.469   0.582   2.099  0.7146 -0.2997  0.0186
 7444SOL    HW133965   2.522   0.509   2.131 -0.1415 -0.6947  0.5391
 7444SOL    HW233966   2.520   0.654   2.136 -1.5682  1.4336 -0.1973
 7445SOL     OW33967   0.639   0.595   5.606 -0.3137  0.6786 -0.2144
 7445SOL    HW133968   0.613   0.673   5.654  0.6146 -0.2390  1.7865
 7445SOL    HW233969   0.698   0.555   5.670  0.3482  2.8940  0.5462
 7446SOL     OW33970   0.441   1.647   5.916  0.4923 -0.0695 -0.3281
 7446SOL    HW133971   0.366   1.674   5.863  0.4774 -0.3556 -0.4508
 7446SOL    HW233972   0.408   1.578   5.973 -1.1134 -0.4584 -1.7296
 7447SOL     OW33973   2.189   1.229   2.450  0.0359 -0.7371  0.3295
 7447SOL    HW133974   2.148   1.264   2.529 -1.5820 -0.0306 -0.8290
 7447SOL    HW233975   2.179   1.135   2.465 -0.2997 -0.9905 -1.4669
 7448SOL     OW33976   2.804   1.860   2.059  0.5483  0.6597 -0.1910
 7448SOL    HW133977   2.773   1.856   1.968 -0.6676 -0.6091  0.2786
 7448SOL    HW233978   2.864   1.785   2.053 -1.1124 -0.5978 -1.0574
 7449SOL     OW33979   1.432   0.758   3.099 -0.2284 -0.2215  0.3448
 7449SOL    HW133980   1.459   0.676   3.057 -0.7083 -0.6517  0.8715
 7449SOL    HW233981   1.351   0.764   3.049  0.7754 -0.6708 -1.3274
 7450SOL     OW33982   2.609   1.246   3.828 -0.3146  0.0806  0.0388
 7450SOL    HW133983   2.659   1.286   3.757  0.4017 -0.9036 -0.0180
 7450SOL    HW233984   2.598   1.156   3.798 -2.1693  0.1208  0.6385
 7451SOL     OW33985   3.155   1.911   5.434 -0.1311 -0.2908 -0.1666
 7451SOL    HW133986   3.084   1.862   5.393  0.8872 -1.8361 -0.0756
 7451SOL    HW233987   3.177   1.976   5.367 -1.2954 -0.3760 -0.6325
 7452SOL     OW33988   2.972   1.226  12.278  0.3523  0.0100  0.2708
 7452SOL    HW133989   2.949   1.282  12.352 -0.8800 -1.6446  1.1200
 7452SOL    HW233990   3.017   1.282  12.214 -0.0930  1.0749  0.8897
 7453SOL     OW33991   4.063   4.199  13.358 -0.4513 -0.3542  0.5303
 7453SOL    HW133992   4.101   4.171  13.441  1.3749 -0.0667 -0.2052
 7453SOL    HW233993   4.045   4.112  13.323  0.6847 -0.4123  0.0854
 7454SOL     OW33994   1.771   2.431   0.951 -0.3049 -0.4846 -0.0842
 7454SOL    HW133995   1.781   2.498   1.019 -0.4282  0.8268 -1.3386
 7454SOL    HW233996   1.702   2.474   0.901  0.0732  1.5406  1.1335
 7455SOL     OW33997   4.420   0.685   7.068  0.0837  0.7117  0.0330
 7455SOL    HW133998   4.505   0.729   7.070 -0.3770  1.4758  3.3310
 7455SOL    HW233999   4.417   0.648   6.980  0.4349  0.3882  0.1550
 7456SOL     OW34000   1.324   3.952  11.572 -0.2015 -0.5324 -0.0591
 7456SOL    HW134001   1.389   3.965  11.503 -0.3872 -1.0297 -0.3323
 7456SOL    HW234002   1.267   4.029  11.568  2.2393  1.3403  1.3561
 7457SOL     OW34003   4.579   1.426   6.891  0.6245 -0.8382 -0.1404
 7457SOL    HW134004   4.509   1.372   6.928 -1.1334  2.0560  0.7973
 7457SOL    HW234005   4.579   1.509   6.938  0.3798 -2.0795  2.0216
 7458SOL     OW34006   4.185   2.073  14.801  0.1481 -0.5633  0.7627
 7458SOL    HW134007   4.124   2.127  14.751  1.4156  0.6441  0.5309
 7458SOL    HW234008   4.254   2.133  14.828  0.7514 -0.8886 -0.0376
 7459SOL     OW34009   2.587   4.496   3.269  0.2159  0.1373  0.1731
 7459SOL    HW134010   2.557   4.412   3.234 -4.1975  1.9314 -0.3988
 7459SOL    HW234011   2.651   4.523   3.203 -0.5827 -2.0309 -1.4858
 7460SOL     OW34012   3.180   2.421   8.930  0.1855 -0.1172  0.6784
 7460SOL    HW134013   3.158   2.514   8.938  2.3289  0.7306 -3.1809
 7460SOL    HW234014   3.177   2.388   9.020 -0.6586  2.5219  1.6242
 7461SOL     OW34015   2.240   0.628   5.856  0.1147  0.8370 -0.0058
 7461SOL    HW134016   2.305   0.566   5.823  0.5467  0.8940  0.7441
 7461SOL    HW234017   2.269   0.715   5.828 -0.6136  0.5156 -1.7621
 7462SOL     OW34018   0.238   2.737  14.815 -0.3964 -0.4320 -0.4834
 7462SOL    HW134019   0.225   2.832  14.808  1.5048 -0.4168 -4.0606
 7462SOL    HW234020   0.227   2.729  14.909  1.3191 -1.3927 -0.3683
 7463SOL     OW34021   4.738   2.112   2.438  0.1680  0.4781 -0.8069
 7463SOL    HW134022   0.082   2.111   2.391  1.8898 -0.8895  2.2714
 7463SOL    HW234023   4.732   2.023   2.474  3.4514  1.1686  1.4222
 7464SOL     OW34024   2.422   4.157   8.433 -0.1639 -0.0834  0.2259
 7464SOL    HW134025   2.411   4.128   8.342  0.9395  1.4339 -0.3826
 7464SOL    HW234026   2.389   4.247   8.430  0.4152  0.0779 -1.3630
 7465SOL     OW34027   4.048   2.332   4.948  0.2344  0.0611 -0.2794
 7465SOL    HW134028   3.957   2.308   4.929  0.0904 -0.5905  1.2629
 7465SOL    HW234029   4.052   2.415   4.900  0.1240 -0.2919 -0.8853
 7466SOL     OW34030   2.022   1.608   5.639 -0.1735 -0.1589 -0.2574
 7466SOL    HW134031   2.093   1.576   5.583  0.0159 -2.4503  1.3009
 7466SOL    HW234032   1.954   1.552   5.600 -0.9383  1.8477 -1.7733
 7467SOL     OW34033   1.465   0.203   8.626 -0.2962 -0.1592  0.1930
 7467SOL    HW134034   1.549   0.218   8.669 -0.4596  0.4682  0.2984
 7467SOL    HW234035   1.405   0.220   8.698 -1.6304  3.2150 -1.6887
 7468SOL     OW34036   0.605   1.608  12.580  0.5074 -0.1101 -0.0123
 7468SOL    HW134037   0.700   1.599  12.582  0.5651  0.1822 -1.2975
 7468SOL    HW234038   0.583   1.576  12.667  0.3313 -2.7208 -1.0129
 7469SOL     OW34039   4.491   4.351   8.214  0.2176  0.3551 -0.3861
 7469SOL    HW134040   4.464   4.442   8.217 -2.2160 -0.3711 -0.0330
 7469SOL    HW234041   4.582   4.365   8.240  0.4905 -1.1555 -0.5010
 7470SOL     OW34042   1.438   0.527   7.087  0.5162 -0.0849 -0.2004
 7470SOL    HW134043   1.523   0.489   7.110  0.7539  0.4354 -0.2136
 7470SOL    HW234044   1.408   0.583   7.159  1.1177 -0.3144  0.2294
 7471SOL     OW34045   2.604   0.717   4.579  0.0370 -0.6560 -0.5504
 7471SOL    HW134046   2.542   0.683   4.515 -1.4396  0.4442  0.2938
 7471SOL    HW234047   2.657   0.637   4.585 -0.3607 -0.8205  0.6361
 7472SOL     OW34048   2.274   1.104   2.982 -0.2404  0.2879 -0.0687
 7472SOL    HW134049   2.353   1.149   2.951  0.3413 -0.6264  0.0608
 7472SOL    HW234050   2.216   1.175   3.009  0.6847  1.5396 -1.3997
 7473SOL     OW34051   2.176   3.713  14.754 -0.6161 -0.0938 -0.0797
 7473SOL    HW134052   2.269   3.715  14.731 -1.2052  3.3693 -2.1989
 7473SOL    HW234053   2.172   3.753  14.841  1.3902  4.0010 -1.9092
 7474SOL     OW34054   1.691   0.999  10.818 -0.3424  0.4498 -0.6390
 7474SOL    HW134055   1.741   1.080  10.828  0.4755  0.0908 -1.7784
 7474SOL    HW234056   1.753   0.946  10.767  0.5236  0.0687  0.8182
 7475SOL     OW34057   2.254   0.170   2.967 -0.4787  0.7545  0.2565
 7475SOL    HW134058   2.272   0.087   3.012  0.9170  0.4535 -0.8613
 7475SOL    HW234059   2.159   0.167   2.975 -0.3795  1.3934  1.6794
 7476SOL     OW34060   2.147   0.807   9.129  0.1205 -0.5925  0.3458
 7476SOL    HW134061   2.086   0.881   9.140  0.7607  0.1960 -1.4470
 7476SOL    HW234062   2.114   0.736   9.184 -0.1230  0.1192  1.1374
 7477SOL     OW34063   1.476   2.507  12.108  0.4406  0.2760  0.5567
 7477SOL    HW134064   1.478   2.415  12.083  0.0586  0.7048 -1.0852
 7477SOL    HW234065   1.539   2.504  12.180 -0.5984  0.7532  1.4869
 7478SOL     OW34066   2.596   3.618   4.978 -0.2197  0.1736  0.5848
 7478SOL    HW134067   2.521   3.626   5.038 -1.9953 -0.2414 -1.5775
 7478SOL    HW234068   2.603   3.705   4.940  1.3094 -1.2557 -2.3898
 7479SOL     OW34069   3.312   4.440   2.973  0.0808 -0.5116 -0.1253
 7479SOL    HW134070   3.282   4.473   3.058  2.5074 -0.5958  0.7623
 7479SOL    HW234071   3.396   4.483   2.960  0.8051 -0.9378  3.0847
 7480SOL     OW34072   2.814   2.609   5.272  0.2167  0.4547 -0.2878
 7480SOL    HW134073   2.748   2.657   5.321 -1.0936 -0.4077 -1.2279
 7480SOL    HW234074   2.864   2.680   5.232  0.6963  0.6138  0.5815
 7481SOL     OW34075   0.594   0.620   4.038  0.2702  0.3804  0.2796
 7481SOL    HW134076   0.646   0.553   3.993 -0.8757  0.9159 -1.8561
 7481SOL    HW234077   0.506   0.582   4.027  0.6769 -1.0909  2.1448
 7482SOL     OW34078   3.426   1.246  16.257 -0.3050  0.0716  0.2780
 7482SOL    HW134079   3.429   1.342  16.265 -1.8834  0.2803 -1.7827
 7482SOL    HW234080   3.365   1.235  16.184  1.4532  1.1476 -1.3443
 7483SOL     OW34081   1.100   2.587  11.402 -0.4010 -0.0186 -0.3547
 7483SOL    HW134082   1.024   2.595  11.459 -0.7091  1.2274 -0.9509
 7483SOL    HW234083   1.129   2.498  11.423 -1.5803 -0.3722 -0.2544
 7484SOL     OW34084   3.388   1.443   4.164  0.3239 -0.0420 -0.2829
 7484SOL    HW134085   3.386   1.356   4.204 -1.2711  0.1247 -0.0010
 7484SOL    HW234086   3.415   1.431   4.073  1.5726  0.4275  0.0359
 7485SOL     OW34087   0.416   4.495   1.388  0.4813  0.2170  0.3778
 7485SOL    HW134088   0.343   4.500   1.451  0.8153  1.1697  0.6999
 7485SOL    HW234089   0.468   4.562   1.433  0.1657  1.5176 -1.1912
 7486SOL     OW34090   1.719   0.887  11.458  0.1260  0.1062 -0.4588
 7486SOL    HW134091   1.802   0.927  11.485 -0.9249  1.1313  1.2239
 7486SOL    HW234092   1.736   0.868  11.366  0.4100  3.6395 -1.1478
 7487SOL     OW34093   1.930   4.023  16.169  0.6610  0.2999  0.1469
 7487SOL    HW134094   1.992   4.060  16.232  1.4332  1.7910 -1.4844
 7487SOL    HW234095   1.848   4.051  16.209  0.4703  1.6918 -1.2470
 7488SOL     OW34096   1.844   4.264   6.908  0.2557 -0.2019 -0.5551
 7488SOL    HW134097   1.795   4.249   6.827 -0.1105 -1.8995 -0.0262
 7488SOL    HW234098   1.781   4.241   6.976 -1.3655 -0.1566 -2.0244
 7489SOL     OW34099   2.939   1.400  12.503  0.0124  0.3010 -0.3222
 7489SOL    HW134100   2.938   1.425  12.595 -1.0536 -0.3148 -0.1647
 7489SOL    HW234101   2.997   1.467  12.466 -0.3230  1.3935  1.1386
 7490SOL     OW34102   4.040   3.249   5.241 -0.6173  0.2319  0.5244
 7490SOL    HW134103   4.084   3.295   5.170  0.6433  1.0663  1.8437
 7490SOL    HW234104   3.952   3.249   5.203 -0.2425  0.0839 -0.3253
 7491SOL     OW34105   2.549   0.831  16.686 -0.0651 -0.3163  0.0347
 7491SOL    HW134106   2.530   0.921  16.662  2.5445  0.6288  1.5316
 7491SOL    HW234107   2.614   0.833  16.757  1.5499  1.0970 -1.4942
 7492SOL     OW34108   3.029   1.321  14.446  0.9156 -0.4431 -0.4160
 7492SOL    HW134109   3.005   1.290  14.359  0.6946  0.8014 -0.7910
 7492SOL    HW234110   3.122   1.301  14.457  1.0496  1.8033  2.5325
 7493SOL     OW34111   0.923   1.095  17.507  0.3466  0.1184  0.2872
 7493SOL    HW134112   0.978   1.054  17.574  1.3099 -0.4767 -0.8723
 7493SOL    HW234113   0.850   1.131  17.557  1.0318  0.2119  1.2191
 7494SOL     OW34114   2.178   0.173   9.109  0.0869  0.0401  0.2063
 7494SOL    HW134115   2.201   0.091   9.065  0.5866  1.2148 -1.7330
 7494SOL    HW234116   2.261   0.196   9.151  1.2474  1.1763 -2.7334
 7495SOL     OW34117   0.632   1.553  17.570  0.3635 -0.3170 -0.5795
 7495SOL    HW134118   0.643   1.491  17.642 -0.6200 -0.0703 -0.2086
 7495SOL    HW234119   0.542   1.583  17.584  0.3792 -0.4306 -0.2393
 7496SOL     OW34120   2.578   0.363   8.642  0.5042 -0.6868 -0.3898
 7496SOL    HW134121   2.491   0.392   8.667  1.1420  0.9360  0.0058
 7496SOL    HW234122   2.591   0.408   8.558 -2.5372 -0.5602 -0.7700
 7497SOL     OW34123   3.745   3.839  12.182  0.4112  0.2989 -0.1603
 7497SOL    HW134124   3.698   3.846  12.266 -0.0457 -0.4801 -0.3401
 7497SOL    HW234125   3.701   3.759  12.151  0.0465 -0.5377  2.4351
 7498SOL     OW34126   0.450   1.173   9.485  0.0060  0.0823 -0.0336
 7498SOL    HW134127   0.496   1.231   9.546 -0.2903 -1.5408  1.6982
 7498SOL    HW234128   0.512   1.101   9.483 -1.6870 -1.3693  0.1808
 7499SOL     OW34129   0.045   1.200   8.463 -0.3228  0.2505  0.2447
 7499SOL    HW134130   0.063   1.189   8.557  3.7576 -0.7640 -0.6584
 7499SOL    HW234131   0.125   1.237   8.427  0.5232 -0.2970  1.5620
 7500SOL     OW34132   2.820   1.503   0.910 -0.3995 -0.3812  0.3027
 7500SOL    HW134133   2.808   1.427   0.854 -2.1677  0.0652  0.0746
 7500SOL    HW234134   2.736   1.519   0.953  0.1253 -0.5463  1.4048
 7501SOL     OW34135   0.814   3.581  13.531 -0.5064  0.3604  0.0567
 7501SOL    HW134136   0.746   3.514  13.531 -0.3409  0.1867 -0.8036
 7501SOL    HW234137   0.786   3.633  13.456 -1.6887 -0.1316  0.1650
 7502SOL     OW34138   2.455   4.500   1.904  0.0861  0.8026 -0.0817
 7502SOL    HW134139   2.464   4.410   1.935 -1.8884  0.1507 -1.3671
 7502SOL    HW234140   2.477   4.547   1.984  2.6818  0.6090 -0.7128
 7503SOL     OW34141   3.905   2.638   5.178 -0.2398  0.6622  0.8123
 7503SOL    HW134142   3.877   2.729   5.178 -2.3766  0.0106  3.0484
 7503SOL    HW234143   3.837   2.597   5.125  0.9907 -0.5212  0.1594
 7504SOL     OW34144   3.488   2.123   4.041 -0.3261 -0.0885  0.6361
 7504SOL    HW134145   3.446   2.037   4.039 -0.5913  0.0248  1.4451
 7504SOL    HW234146   3.432   2.169   4.103 -1.3670 -0.5432  0.0341
 7505SOL     OW34147   2.120   3.708   4.664  0.2585  0.5998 -0.6972
 7505SOL    HW134148   2.142   3.781   4.721  0.2779  0.8534 -1.0263
 7505SOL    HW234149   2.070   3.749   4.593 -1.1706 -2.3611 -1.4012
 7506SOL     OW34150   3.462   3.211  14.134 -0.5202 -0.1355  0.4011
 7506SOL    HW134151   3.406   3.136  14.117  1.0256 -1.4571  1.0793
 7506SOL    HW234152   3.526   3.196  14.063 -1.3424 -0.8916 -0.1755
 7507SOL     OW34153   2.896   2.016   6.217  0.2436  0.2083  0.5253
 7507SOL    HW134154   2.985   2.019   6.182  0.4515  1.3738  1.1709
 7507SOL    HW234155   2.905   1.931   6.260  0.0380  1.3013  2.7685
 7508SOL     OW34156   2.819   1.005  16.657  0.4497 -0.3436 -0.2217
 7508SOL    HW134157   2.817   0.958  16.741 -0.5615 -0.4251 -0.2895
 7508SOL    HW234158   2.728   1.034  16.665  0.2601 -0.5864 -1.6331
 7509SOL     OW34159   0.893   3.480   5.285 -0.1099 -0.2371 -0.3549
 7509SOL    HW134160   0.899   3.502   5.378 -0.2550  1.8432 -0.8386
 7509SOL    HW234161   0.916   3.387   5.279  0.1891 -0.3348  2.1270
 7510SOL     OW34162   3.184   3.403   3.050  0.7260 -0.0443 -0.2818
 7510SOL    HW134163   3.115   3.420   2.987 -1.0254 -0.5846  1.5019
 7510SOL    HW234164   3.130   3.358   3.114 -0.1141  1.6231  0.1706
 7511SOL     OW34165   3.587   0.884   3.229 -0.2672 -0.3637  0.1006
 7511SOL    HW134166   3.656   0.837   3.184 -0.0107  1.8518 -1.8098
 7511SOL    HW234167   3.513   0.872   3.170  0.8896  0.8456 -1.5872
 7512SOL     OW34168   3.841   2.586   6.991 -0.4596  0.0072  0.0836
 7512SOL    HW134169   3.822   2.680   6.993  1.3749  0.3612  0.4495
 7512SOL    HW234170   3.777   2.548   7.051  1.6664  0.1273  2.4218
 7513SOL     OW34171   0.330   2.367  15.915 -0.5708  0.3516 -0.0536
 7513SOL    HW134172   0.359   2.294  15.859 -0.6150 -0.3254  0.8198
 7513SOL    HW234173   0.344   2.327  16.001 -1.0796 -1.0262 -0.6130
 7514SOL     OW34174   1.533   3.924   5.509  0.3204 -0.1548 -0.4310
 7514SOL    HW134175   1.546   3.857   5.443 -2.7973  0.6430 -1.8634
 7514SOL    HW234176   1.599   3.990   5.492  3.0051 -2.2870  1.6748
 7515SOL     OW34177   0.151   0.642   8.593 -0.5809  0.0467 -0.0784
 7515SOL    HW134178   0.065   0.674   8.567 -1.1780  0.2511  2.1428
 7515SOL    HW234179   0.187   0.716   8.642  0.6627 -1.4891  1.2886
 7516SOL     OW34180   4.448   3.425   6.435 -0.0230  0.0730  0.1433
 7516SOL    HW134181   4.416   3.337   6.455 -0.7565  0.7221  1.8117
 7516SOL    HW234182   4.475   3.448   6.524  0.6325  0.0224 -0.0396
 7517SOL     OW34183   2.651   2.482   4.658 -0.0020 -0.0551  0.5638
 7517SOL    HW134184   2.567   2.439   4.642 -0.3506  1.3751 -1.4454
 7517SOL    HW234185   2.651   2.499   4.752  0.7598  2.6346  0.0987
 7518SOL     OW34186   4.339   0.192   1.453  0.3351  0.2102  0.7271
 7518SOL    HW134187   4.282   0.157   1.521 -0.7529  1.8389  0.6462
 7518SOL    HW234188   4.354   0.282   1.483  1.3302  0.1549  0.3981
 7519SOL     OW34189   4.050   3.554   5.542 -0.2450  0.4525  0.5643
 7519SOL    HW134190   3.989   3.574   5.613 -0.2405  0.5048  0.5535
 7519SOL    HW234191   4.128   3.602   5.571  1.0517 -0.1526 -1.9417
 7520SOL     OW34192   2.358   4.449   8.343 -0.1925  0.0170 -0.0420
 7520SOL    HW134193   2.414   4.506   8.395 -0.1526  0.7215 -0.8753
 7520SOL    HW234194   2.398   4.459   8.257  1.3309  0.1996  0.6880
 7521SOL     OW34195   0.398   0.376   8.056  0.4298 -0.2992  0.6589
 7521SOL    HW134196   0.466   0.329   8.104  0.4248 -0.0670  0.8940
 7521SOL    HW234197   0.427   0.462   8.086  0.1554 -0.3396  1.0396
 7522SOL     OW34198   2.499   3.872   3.921  0.2599  0.0653 -0.4495
 7522SOL    HW134199   2.494   3.967   3.936 -0.4259 -0.0179 -0.1599
 7522SOL    HW234200   2.593   3.858   3.931  0.4253  0.4004 -1.5353
 7523SOL     OW34201   3.966   3.699  11.028 -0.7159  0.3125 -0.2680
 7523SOL    HW134202   3.990   3.779  10.981 -0.2017 -1.2669 -2.6513
 7523SOL    HW234203   3.989   3.725  11.118 -1.6529 -1.2115  0.4088
 7524SOL     OW34204   0.732   2.814   9.267  0.1260 -0.1405  0.0763
 7524SOL    HW134205   0.681   2.750   9.218  0.7375  0.7830 -1.7521
 7524SOL    HW234206   0.808   2.756   9.258 -0.5744 -1.2335  1.1971
 7525SOL     OW34207   0.728   2.754  16.344 -0.6858 -0.1530 -0.1229
 7525SOL    HW134208   0.717   2.662  16.370  2.5174 -1.1239 -2.1738
 7525SOL    HW234209   0.823   2.763  16.338 -0.6039 -0.7310  0.2895
 7526SOL     OW34210   1.789   4.231   7.732  0.4789 -0.4687  0.2503
 7526SOL    HW134211   1.727   4.283   7.681  1.6398 -0.4379 -1.1244
 7526SOL    HW234212   1.747   4.232   7.818 -1.5254 -1.0195 -0.7265
 7527SOL     OW34213   3.940   2.523   8.496  0.0829  0.8748 -0.2312
 7527SOL    HW134214   3.991   2.486   8.568 -0.4558 -0.4486 -0.5361
 7527SOL    HW234215   3.975   2.470   8.424  0.2410  0.4774  0.1390
 7528SOL     OW34216   0.024   0.988   2.693 -0.1250 -0.3677 -0.3273
 7528SOL    HW134217   0.058   0.943   2.615 -1.2740 -1.0125 -0.4577
 7528SOL    HW234218   4.700   1.046   2.651 -1.4393 -1.3453  0.2972
 7529SOL     OW34219   1.627   2.641   6.318  0.3640  0.3385  0.0800
 7529SOL    HW134220   1.708   2.646   6.266  0.4943 -2.1623  0.0159
 7529SOL    HW234221   1.665   2.657   6.404  0.1930  0.2441  0.1733
 7530SOL     OW34222   2.430   3.513   5.976 -0.4458 -0.7152  0.1112
 7530SOL    HW134223   2.518   3.520   5.939  0.8444  2.3848  3.8042
 7530SOL    HW234224   2.384   3.507   5.892  0.2755 -1.8412 -0.1998
 7531SOL     OW34225   1.438   1.125   5.587 -0.1117  0.4731  0.1710
 7531SOL    HW134226   1.365   1.153   5.532 -0.7657  1.8058  1.7073
 7531SOL    HW234227   1.481   1.209   5.604  0.3511  0.1275  0.6991
 7532SOL     OW34228   3.765   1.633  10.733 -0.7370  0.1454  0.4270
 7532SOL    HW134229   3.681   1.646  10.688 -1.3920  0.5156  1.7614
 7532SOL    HW234230   3.799   1.722  10.722 -1.5246 -0.1313 -4.1814
 7533SOL     OW34231   0.514   4.674  17.535  0.4290 -0.1683 -0.2806
 7533SOL    HW134232   0.544   4.585  17.558 -0.5918 -1.0410 -2.3516
 7533SOL    HW234233   0.598   4.716  17.519  0.5253  0.7924  2.6524
 7534SOL     OW34234   3.630   0.493  10.559  0.0120  0.7592 -0.0420
 7534SOL    HW134235   3.571   0.561  10.526 -2.4443 -0.8651  0.9731
 7534SOL    HW234236   3.658   0.533  10.641  1.3155  1.1711 -0.7010
 7535SOL     OW34237   4.429   1.192   5.780  0.5635 -0.6162 -0.1328
 7535SOL    HW134238   4.379   1.145   5.847  2.2694  2.6747  3.4644
 7535SOL    HW234239   4.394   1.281   5.790  0.0847 -0.8229  0.0240
 7536SOL     OW34240   1.910   2.906   7.354 -0.4028  0.1428  0.5274
 7536SOL    HW134241   1.966   2.838   7.317 -1.9201 -0.5481 -0.5015
 7536SOL    HW234242   1.946   2.987   7.318 -0.4260  0.6671  1.6870
 7537SOL     OW34243   3.861   4.215   4.609 -0.6395  0.5877  0.0120
 7537SOL    HW134244   3.870   4.260   4.525  0.4816  0.1793 -0.0911
 7537SOL    HW234245   3.768   4.197   4.623 -0.9100 -0.1213 -2.6990
 7538SOL     OW34246   3.853   4.443   2.766 -0.2209  0.3156  0.3187
 7538SOL    HW134247   3.861   4.514   2.830 -2.3551 -0.0804  1.0022
 7538SOL    HW234248   3.943   4.413   2.753 -1.0033 -1.0374 -2.0190
 7539SOL     OW34249   1.011   1.714   6.889  0.4115  0.0038  0.0405
 7539SOL    HW134250   1.017   1.809   6.896 -0.9132  0.1655 -1.1352
 7539SOL    HW234251   1.095   1.700   6.845  0.0454  0.2374 -0.7186
 7540SOL     OW34252   3.920   4.017   8.459  0.0714 -0.5297  0.4038
 7540SOL    HW134253   3.963   4.068   8.390 -0.5019 -0.0923  0.3632
 7540SOL    HW234254   3.889   3.934   8.423  1.9372 -1.5928  1.2432
 7541SOL     OW34255   2.176   3.644   5.867  0.1772 -0.2739 -1.0260
 7541SOL    HW134256   2.144   3.554   5.865 -2.2168  0.6002 -1.7872
 7541SOL    HW234257   2.121   3.689   5.802 -2.8556 -0.8322  1.1908
 7542SOL     OW34258   0.161   0.673  15.010 -0.6723 -0.2992 -0.5573
 7542SOL    HW134259   0.101   0.748  15.007 -0.6113 -0.2478 -0.4984
 7542SOL    HW234260   0.099   0.606  15.041 -0.3822  0.4258  1.6157
 7543SOL     OW34261   2.033   1.557   7.895  0.0843  0.3127  0.2636
 7543SOL    HW134262   1.947   1.583   7.864 -0.9046 -3.2177  0.0249
 7543SOL    HW234263   2.034   1.619   7.968 -0.8129  0.3931  0.2043
 7544SOL     OW34264   3.408   3.914   5.361 -0.9865  0.2975  0.1115
 7544SOL    HW134265   3.347   3.891   5.432 -1.9423  1.8263 -0.2302
 7544SOL    HW234266   3.485   3.923   5.417 -1.7677 -0.5474  1.3437
 7545SOL     OW34267   2.553   2.577   1.090 -0.1928 -0.3720 -0.0733
 7545SOL    HW134268   2.532   2.655   1.141  3.1356 -0.5074  1.4755
 7545SOL    HW234269   2.633   2.603   1.045 -1.1824  0.8766 -1.0866
 7546SOL     OW34270   4.069   1.416   6.071  0.1459  0.1519  0.4514
 7546SOL    HW134271   4.071   1.382   5.982  0.8117  1.9712 -0.2278
 7546SOL    HW234272   4.038   1.505   6.062 -1.9262 -0.6477 -0.2059
 7547SOL     OW34273   4.172   2.074   8.101  0.6414  0.3093  0.5070
 7547SOL    HW134274   4.229   1.998   8.089 -2.1296 -1.4898 -1.4423
 7547SOL    HW234275   4.165   2.082   8.196  1.0033 -0.7874  0.6243
 7548SOL     OW34276   3.511   2.607  11.602  0.6821 -1.0774 -0.3245
 7548SOL    HW134277   3.493   2.527  11.553  0.8360 -1.3634  0.0783
 7548SOL    HW234278   3.574   2.575  11.668  1.4476 -0.8095 -0.9260
 7549SOL     OW34279   1.429   3.606  15.939 -0.4626 -0.2516 -0.2169
 7549SOL    HW134280   1.521   3.593  15.916 -0.4777 -1.6064  0.4944
 7549SOL    HW234281   1.415   3.535  16.002 -1.2205 -0.3541 -0.4950
 7550SOL     OW34282   0.233   2.609   9.700 -0.3477 -0.0243 -0.4925
 7550SOL    HW134283   0.224   2.562   9.617 -3.6410 -0.3539  0.0269
 7550SOL    HW234284   0.208   2.700   9.682 -2.9651 -0.5224  0.5675
 7551SOL     OW34285   1.868   3.127   8.476  0.8347 -0.0042  0.3195
 7551SOL    HW134286   1.939   3.064   8.464  1.6046  1.0729 -0.9568
 7551SOL    HW234287   1.794   3.070   8.496 -0.5646  1.3643 -0.9975
 7552SOL     OW34288   3.859   0.132   3.263  0.0126 -0.1902 -0.3528
 7552SOL    HW134289   3.865   0.168   3.175  0.3656 -0.3892 -0.4093
 7552SOL    HW234290   3.879   0.039   3.257  0.0019 -0.0575 -2.4276
 7553SOL     OW34291   2.260   1.511  16.493 -0.0266 -0.6561 -0.0768
 7553SOL    HW134292   2.183   1.514  16.437 -0.8423 -0.9435  1.0409
 7553SOL    HW234293   2.310   1.589  16.468 -0.2426 -0.1088  1.1642
 7554SOL     OW34294   4.113   4.344   2.736 -0.3707  0.5038  0.1900
 7554SOL    HW134295   4.113   4.307   2.824 -0.5304 -1.4022 -0.6256
 7554SOL    HW234296   4.087   4.263   2.694 -0.5374 -0.2589  1.7668
 7555SOL     OW34297   1.879   2.132   7.266  0.0881  0.2695 -0.5300
 7555SOL    HW134298   1.932   2.210   7.249 -1.0204  1.3918  1.1096
 7555SOL    HW234299   1.808   2.154   7.326 -0.5780 -1.2907 -0.7696
 7556SOL     OW34300   4.205   1.141  15.782  0.2674  0.2866  0.1232
 7556SOL    HW134301   4.274   1.127  15.716  0.1022 -1.2719  0.2795
 7556SOL    HW234302   4.211   1.060  15.833 -0.3360  1.6861  2.3968
 7557SOL     OW34303   3.562   2.398   6.164  0.4596 -0.3945 -0.1125
 7557SOL    HW134304   3.508   2.329   6.200  2.4696 -2.0925 -0.3297
 7557SOL    HW234305   3.548   2.473   6.222 -0.7072  0.6027 -1.7031
 7558SOL     OW34306   0.672   1.358   8.162 -0.1746 -0.3352  0.2316
 7558SOL    HW134307   0.720   1.342   8.081 -0.9419  0.2867 -0.3499
 7558SOL    HW234308   0.612   1.284   8.166 -2.2221  1.3159  0.2152
 7559SOL     OW34309   3.541   4.420  11.669 -0.2897 -0.0734 -0.6416
 7559SOL    HW134310   3.599   4.487  11.634  2.9912 -1.7047  1.5511
 7559SOL    HW234311   3.456   4.437  11.630  0.3550 -0.6469 -2.2882
 7560SOL     OW34312   0.767   4.175   7.400  0.6319 -0.0493  0.3053
 7560SOL    HW134313   0.847   4.223   7.424  0.3620  0.6719 -0.2315
 7560SOL    HW234314   0.800   4.085   7.402  0.4842 -0.0887  0.8984
 7561SOL     OW34315   3.823   3.959   7.539 -0.3130 -0.1382 -0.1891
 7561SOL    HW134316   3.753   4.004   7.491 -0.4173 -0.7452 -0.6040
 7561SOL    HW234317   3.887   4.030   7.547 -1.4599  0.7913  0.7569
 7562SOL     OW34318   0.675   4.416  10.962 -0.0675  0.4869 -0.0628
 7562SOL    HW134319   0.731   4.360  11.016 -1.8131 -1.6854 -0.5064
 7562SOL    HW234320   0.707   4.501  10.993 -2.8372  1.3498  0.4810
 7563SOL     OW34321   1.103   3.010  14.981  0.9736  0.0208  0.2287
 7563SOL    HW134322   1.115   3.104  14.976  0.8003  0.0449  0.2808
 7563SOL    HW234323   1.122   2.993  15.073 -0.4698  1.1532  0.7320
 7564SOL     OW34324   3.897   2.752   3.073  0.4360 -0.2157 -0.3084
 7564SOL    HW134325   3.956   2.741   2.998  0.9582 -0.1985  0.0991
 7564SOL    HW234326   3.955   2.789   3.140 -0.2648  0.0242  0.1609
 7565SOL     OW34327   0.453   3.196   9.825  0.1206 -0.2228 -0.4418
 7565SOL    HW134328   0.365   3.197   9.787 -0.4358  0.8340  0.8982
 7565SOL    HW234329   0.498   3.141   9.761 -0.7411  0.0253 -1.2566
 7566SOL     OW34330   2.248   1.400   2.804 -0.8600  0.0966  0.6158
 7566SOL    HW134331   2.182   1.348   2.759  0.3541 -0.6845 -0.2605
 7566SOL    HW234332   2.273   1.475   2.749  1.0820 -0.8233  0.2216
 7567SOL     OW34333   3.305   4.163  17.550  0.0240  0.1899 -0.1832
 7567SOL    HW134334   3.212   4.172  17.532 -0.1279 -1.6418 -0.3273
 7567SOL    HW234335   3.315   4.068  17.555  1.5893  0.3973  0.9412
 7568SOL     OW34336   2.943   2.521   8.763  0.4313  0.2197 -0.7353
 7568SOL    HW134337   2.935   2.526   8.858 -2.2786  1.5454 -1.0210
 7568SOL    HW234338   3.005   2.449   8.764  1.1220  0.8123 -0.9661
 7569SOL     OW34339   1.393   4.066   9.832  0.2530 -0.1257 -0.7233
 7569SOL    HW134340   1.303   4.100   9.822  0.2056 -0.4326 -1.3403
 7569SOL    HW234341   1.393   4.049   9.926  0.7148  0.0050 -0.7031
 7570SOL     OW34342   1.810   3.457   1.814 -0.2446 -0.1441 -0.2471
 7570SOL    HW134343   1.867   3.383   1.835 -2.0247 -1.4110  0.1369
 7570SOL    HW234344   1.859   3.538   1.828 -1.7047  0.5903  0.6422
 7571SOL     OW34345   3.886   4.046   6.667 -0.4691 -0.4250 -0.2335
 7571SOL    HW134346   3.796   4.042   6.699  0.2332 -1.8376  1.5472
 7571SOL    HW234347   3.891   4.140   6.650 -1.1081 -1.0398 -3.9515
 7572SOL     OW34348   0.648   1.260  10.211 -0.0283  0.3269 -0.0787
 7572SOL    HW134349   0.573   1.315  10.189  0.2589  0.4314 -0.8100
 7572SOL    HW234350   0.722   1.313  10.184 -0.7144  0.6025 -1.4382
 7573SOL     OW34351   0.123   2.021   9.106 -0.2517  0.4306  0.5913
 7573SOL    HW134352   0.051   2.038   9.046 -1.1806 -1.6485  1.1519
 7573SOL    HW234353   0.077   2.026   9.190  1.4448  0.9082  1.5081
 7574SOL     OW34354   4.328   1.154   0.097 -0.2354 -0.3536  0.1508
 7574SOL    HW134355   4.356   1.224   0.038  1.1354 -0.0972  1.0945
 7574SOL    HW234356   4.373   1.176   0.179 -0.4043  1.4630 -0.2451
 7575SOL     OW34357   2.888   2.575   9.021  0.1886 -0.1914 -0.0811
 7575SOL    HW134358   2.803   2.609   9.051  0.9863  0.6225  1.2576
 7575SOL    HW234359   2.879   2.480   9.028  0.1900 -0.2176 -0.4197
 7576SOL     OW34360   3.791   0.902   5.289  0.3444 -0.9614 -0.5389
 7576SOL    HW134361   3.749   0.939   5.367  0.7060  0.9626 -1.2647
 7576SOL    HW234362   3.830   0.823   5.327  1.8058  0.0800  0.1451
 7577SOL     OW34363   2.484   1.799   3.078  0.6773  0.4940  0.4809
 7577SOL    HW134364   2.467   1.795   3.172 -0.4511 -2.1152  0.1493
 7577SOL    HW234365   2.510   1.711   3.052 -1.7797 -0.4625  1.2334
 7578SOL     OW34366   4.398   0.320   4.782  0.1200  0.0045  0.0272
 7578SOL    HW134367   4.429   0.289   4.697  1.2101  0.0612  0.4100
 7578SOL    HW234368   4.308   0.288   4.780 -0.2099  1.0539 -2.2007
 7579SOL     OW34369   2.061   3.417   2.814 -0.1619 -0.2935  0.0912
 7579SOL    HW134370   2.013   3.499   2.799  1.9685  0.4824 -2.5639
 7579SOL    HW234371   2.080   3.420   2.907 -0.5414  0.3019  0.1481
 7580SOL     OW34372   2.411   3.471   7.185  0.0384  0.0868 -0.2094
 7580SOL    HW134373   2.426   3.388   7.230  0.3689  0.2402 -0.0367
 7580SOL    HW234374   2.354   3.521   7.244 -0.0785  0.3101 -0.5109
 7581SOL     OW34375   4.499   4.049   6.530  0.6002 -0.6289  0.0003
 7581SOL    HW134376   4.521   4.135   6.497 -0.0918 -1.0987 -1.6499
 7581SOL    HW234377   4.588   4.013   6.539  1.1975  1.4740  2.4749
 7582SOL     OW34378   0.668   2.239  11.724 -0.1749 -0.1096  0.2156
 7582SOL    HW134379   0.595   2.228  11.662 -1.2965  0.2125  1.4843
 7582SOL    HW234380   0.739   2.218  11.664 -1.2383 -0.2254 -1.0108
 7583SOL     OW34381   3.634   1.066   6.350  0.1840 -0.4362 -0.6078
 7583SOL    HW134382   3.599   1.102   6.432 -1.3601 -2.4863 -0.3525
 7583SOL    HW234383   3.645   1.146   6.299  0.3589 -0.9046 -1.3052
 7584SOL     OW34384   2.378   2.772   9.236  0.2077  0.1882  0.3190
 7584SOL    HW134385   2.305   2.721   9.271  0.3832 -1.3891 -1.6014
 7584SOL    HW234386   2.344   2.797   9.150  0.3514  0.6821  0.4085
 7585SOL     OW34387   3.791   2.954   9.896 -0.2628 -0.0767 -0.1060
 7585SOL    HW134388   3.866   2.986   9.946 -2.7941  1.8255  2.5344
 7585SOL    HW234389   3.820   2.863   9.890 -1.6879 -0.6477  1.6190
 7586SOL     OW34390   2.519   2.810   8.045 -0.0702  0.3088  0.4026
 7586SOL    HW134391   2.455   2.781   7.980  0.6705  0.4780 -0.3944
 7586SOL    HW234392   2.504   2.904   8.048 -0.3105  0.1965  2.7372
 7587SOL     OW34393   1.729   1.924  17.109 -0.4048 -0.2137 -0.4862
 7587SOL    HW134394   1.681   1.947  17.029 -0.6338  2.9795  0.5973
 7587SOL    HW234395   1.660   1.896  17.169  2.6382  1.6523  3.8153
 7588SOL     OW34396   4.704   1.810   8.696  0.0152  0.0278 -0.4551
 7588SOL    HW134397   0.058   1.831   8.690 -0.3550  0.9128 -3.3258
 7588SOL    HW234398   4.702   1.774   8.784 -1.8893  1.1304 -0.0299
 7589SOL     OW34399   4.144   2.812   5.009  0.5324 -0.5238  0.6460
 7589SOL    HW134400   4.147   2.897   4.967 -0.6582 -0.6045  0.3963
 7589SOL    HW234401   4.054   2.794   5.034  0.2095 -0.9801 -0.8805
 7590SOL     OW34402   1.843   3.574  16.291  0.1469  0.4271 -0.0510
 7590SOL    HW134403   1.763   3.612  16.328  0.1748 -0.7139  1.1592
 7590SOL    HW234404   1.836   3.619  16.206  1.9424  0.8104  0.0195
 7591SOL     OW34405   2.205   1.936  14.391 -0.1401 -0.7217  0.4258
 7591SOL    HW134406   2.197   1.972  14.302 -1.1852 -0.1481  0.7475
 7591SOL    HW234407   2.256   2.006  14.432 -1.7525 -0.0591  1.2682
 7592SOL     OW34408   3.049   3.259   7.287  0.2743  0.0078  0.2194
 7592SOL    HW134409   3.112   3.325   7.257 -0.4126  0.2119 -0.7985
 7592SOL    HW234410   3.007   3.311   7.355  0.2823 -0.8309  0.8522
 7593SOL     OW34411   0.719   1.978   0.845 -1.3460  0.7962 -0.2865
 7593SOL    HW134412   0.792   1.934   0.888 -0.8538  2.4565  0.5789
 7593SOL    HW234413   0.761   2.016   0.768 -0.3208  2.5662  1.1414
 7594SOL     OW34414   4.330   3.505   2.281  0.5813 -0.3294 -0.0362
 7594SOL    HW134415   4.351   3.445   2.209  0.2257  0.1486 -0.5390
 7594SOL    HW234416   4.375   3.458   2.351  0.7945 -1.3318 -0.8468
 7595SOL     OW34417   1.637   2.911   7.863  0.4508 -0.1167 -0.0411
 7595SOL    HW134418   1.666   2.819   7.860  0.2296 -0.1926  0.1234
 7595SOL    HW234419   1.571   2.917   7.794  0.5876  0.3292 -0.1279
 7596SOL     OW34420   3.678   4.636   1.264  0.0165 -0.2137  0.6515
 7596SOL    HW134421   3.751   4.691   1.234 -0.7469  0.3910 -0.0913
 7596SOL    HW234422   3.725   4.570   1.316 -1.1618 -0.4865  1.3768
 7597SOL     OW34423   3.343   3.420   7.733  0.6927 -0.0341 -0.1635
 7597SOL    HW134424   3.342   3.503   7.781  0.1972 -0.2613  0.2251
 7597SOL    HW234425   3.255   3.382   7.738  2.4340 -3.9512  0.0920
 7598SOL     OW34426   1.314   3.598   3.072  0.0124 -0.3629 -0.5151
 7598SOL    HW134427   1.299   3.599   3.167 -0.4043  1.5928 -0.6029
 7598SOL    HW234428   1.257   3.524   3.047  1.3503 -1.5838  0.0491
 7599SOL     OW34429   1.638   2.986   8.561  0.1843 -0.1746  0.1870
 7599SOL    HW134430   1.577   2.912   8.564  0.4371 -0.5027 -2.7128
 7599SOL    HW234431   1.601   3.040   8.631  0.6785  0.4058 -0.0007
 7600SOL     OW34432   3.617   2.164  16.916 -0.0435 -0.3192 -0.2780
 7600SOL    HW134433   3.559   2.216  16.861 -1.5260 -1.3210  0.3174
 7600SOL    HW234434   3.550   2.124  16.972  1.0185  0.5745  1.6392
 7601SOL     OW34435   4.171   0.502  13.004  0.3073 -0.3565 -0.1867
 7601SOL    HW134436   4.190   0.429  12.946 -1.5575  0.6467 -2.0369
 7601SOL    HW234437   4.141   0.458  13.083  0.2985  1.6539  0.9425
 7602SOL     OW34438   2.136   0.895  13.875  0.2556 -0.3901 -0.1172
 7602SOL    HW134439   2.154   0.923  13.785  1.1066  0.8196  0.4288
 7602SOL    HW234440   2.194   0.821  13.892  1.1670  0.1751 -0.7415
 7603SOL     OW34441   1.408   0.650  17.012  0.2424 -0.5076 -0.0908
 7603SOL    HW134442   1.413   0.636  16.917  0.0931  1.0113 -0.3304
 7603SOL    HW234443   1.498   0.683  17.021 -0.4359  1.0794  0.8108
 7604SOL     OW34444   0.343   3.914   4.586  0.1805  0.3318 -0.2966
 7604SOL    HW134445   0.251   3.894   4.602  0.9712 -3.7840 -0.9596
 7604SOL    HW234446   0.331   3.970   4.509  0.5546 -1.4122 -1.6218
 7605SOL     OW34447   2.152   2.568   3.646  0.4039  0.0286 -0.4791
 7605SOL    HW134448   2.208   2.584   3.570 -0.1993  1.1573 -0.6832
 7605SOL    HW234449   2.178   2.650   3.689  0.0164 -0.8914  1.5292
 7606SOL     OW34450   0.619   1.284   3.677  0.4767  0.7455 -0.0209
 7606SOL    HW134451   0.578   1.357   3.723 -2.3733 -1.5392  1.0848
 7606SOL    HW234452   0.565   1.212   3.709  1.5578 -0.3656 -0.6659
 7607SOL     OW34453   1.081   3.120   8.924  0.5477  0.0610  0.0792
 7607SOL    HW134454   1.166   3.146   8.959  0.4315 -0.9756  1.1205
 7607SOL    HW234455   1.109   3.108   8.833  1.0512  2.1991 -0.0710
 7608SOL     OW34456   1.390   1.661   8.021  0.0994 -0.6283  0.3313
 7608SOL    HW134457   1.432   1.614   8.094  0.7543  0.3759  0.5948
 7608SOL    HW234458   1.303   1.651   8.060 -1.0757  0.0670 -2.1439
 7609SOL     OW34459   1.995   1.136  12.154 -0.0056 -0.3796  0.4335
 7609SOL    HW134460   2.080   1.177  12.141 -0.9301  1.4555  0.1757
 7609SOL    HW234461   1.953   1.202  12.209  0.9783  2.0303 -1.7089
 7610SOL     OW34462   3.795   1.741  13.206  0.2231  0.7694  0.3158
 7610SOL    HW134463   3.739   1.808  13.166 -0.5922 -0.2629 -0.2679
 7610SOL    HW234464   3.850   1.802  13.255  3.3198  0.0504 -2.2845
 7611SOL     OW34465   2.614   2.486   5.902  0.1734  0.4632  0.4405
 7611SOL    HW134466   2.706   2.460   5.906 -0.0122 -0.5663 -1.8682
 7611SOL    HW234467   2.576   2.398   5.889 -1.3410  1.4383 -1.8873
 7612SOL     OW34468   3.882   0.973   9.132 -0.4286 -0.1547  0.3963
 7612SOL    HW134469   3.897   1.021   9.213  0.2941 -2.5683  1.7045
 7612SOL    HW234470   3.891   1.045   9.070  1.9230  0.1676  1.1406
 7613SOL     OW34471   3.177   2.354   2.139  0.6587 -0.4105 -0.4579
 7613SOL    HW134472   3.139   2.338   2.226  0.5646  0.1937 -0.3847
 7613SOL    HW234473   3.113   2.416   2.104  0.8389  0.2782  0.4348
 7614SOL     OW34474   3.017   0.538  15.440 -0.5332 -0.3575 -0.4486
 7614SOL    HW134475   2.951   0.477  15.472 -1.4432  0.3406 -1.0032
 7614SOL    HW234476   3.068   0.566  15.516  0.2808 -0.6596 -0.8827
 7615SOL     OW34477   1.917   2.111  15.504  0.5201 -0.0398  0.0968
 7615SOL    HW134478   1.886   2.160  15.579  2.3455 -0.2066  0.9564
 7615SOL    HW234479   1.982   2.170  15.466 -0.2294 -0.4543 -1.8657
 7616SOL     OW34480   4.523   4.000   3.420  0.6022 -0.6340  0.0771
 7616SOL    HW134481   4.536   3.946   3.342  1.6783 -1.4125  0.7790
 7616SOL    HW234482   4.434   4.034   3.411  0.0682 -2.3933 -1.2870
 7617SOL     OW34483   2.756   3.163   4.479  0.0067  0.2625  1.4235
 7617SOL    HW134484   2.747   3.098   4.409 -1.9796  1.2912  0.7204
 7617SOL    HW234485   2.671   3.164   4.523  0.3922 -1.5633  2.2263
 7618SOL     OW34486   0.463   4.328   1.781  0.1253  0.2293  0.0860
 7618SOL    HW134487   0.370   4.321   1.758 -0.5035  1.1633  2.2595
 7618SOL    HW234488   0.491   4.239   1.802 -0.0721  0.6811  2.2762
 7619SOL     OW34489   3.455   3.119   7.985 -0.3151 -0.4768 -0.5840
 7619SOL    HW134490   3.434   3.095   7.894  0.1022 -1.3118 -0.4558
 7619SOL    HW234491   3.368   3.136   8.020  0.0178 -0.5047  0.2498
 7620SOL     OW34492   3.140   3.993   7.563 -0.4285  0.2725 -0.0738
 7620SOL    HW134493   3.120   3.900   7.552  1.5268  0.0570 -1.7813
 7620SOL    HW234494   3.172   3.984   7.652 -0.0577 -1.7672 -0.4056
 7621SOL     OW34495   3.149   4.047   6.203  0.3106  0.0211 -0.4524
 7621SOL    HW134496   3.090   3.973   6.192 -1.0595  1.1283 -0.5433
 7621SOL    HW234497   3.086   4.119   6.202  0.2606 -0.0020  0.7601
 7622SOL     OW34498   0.388   4.378   5.067 -0.0477 -0.4635  0.1853
 7622SOL    HW134499   0.455   4.366   5.134 -0.8012 -1.6952  0.7079
 7622SOL    HW234500   0.329   4.303   5.076  1.8187 -2.2042 -2.1462
 7623SOL     OW34501   1.251   2.027  14.022 -0.6724  0.3500  0.4934
 7623SOL    HW134502   1.344   2.049  14.026 -0.2567 -1.0235 -1.4087
 7623SOL    HW234503   1.212   2.095  14.077  1.7558  2.7883 -0.8014
 7624SOL     OW34504   1.151   4.140   4.741 -0.4080 -0.0230 -0.3210
 7624SOL    HW134505   1.141   4.163   4.833  1.7988 -0.9888  0.1592
 7624SOL    HW234506   1.232   4.089   4.737 -0.6440 -0.3882 -0.4328
 7625SOL     OW34507   4.705   4.454   7.154 -0.2101 -0.0266 -0.2527
 7625SOL    HW134508   0.027   4.455   7.080 -0.0067 -0.3028 -0.0872
 7625SOL    HW234509   0.018   4.428   7.230 -2.0134  0.6282  1.2083
 7626SOL     OW34510   0.808   1.089   5.757  0.0197  0.1991 -0.7376
 7626SOL    HW134511   0.743   1.147   5.718  0.7636  2.6673  1.6699
 7626SOL    HW234512   0.766   1.070   5.841 -2.4560 -0.9992 -2.2584
 7627SOL     OW34513   2.684   2.203   1.667 -0.4133 -0.3154  0.3473
 7627SOL    HW134514   2.590   2.215   1.661 -0.3021  0.3652 -0.0606
 7627SOL    HW234515   2.706   2.249   1.748 -1.5010  0.1283  0.3808
 7628SOL     OW34516   0.024   4.570   5.140  0.3613  0.0922 -0.0867
 7628SOL    HW134517   0.058   4.616   5.063  1.0224 -2.3359 -1.2339
 7628SOL    HW234518   0.002   4.486   5.100  0.6265 -0.0967  0.1662
 7629SOL     OW34519   1.984   4.138   3.307 -0.5211  0.0380 -0.5369
 7629SOL    HW134520   2.060   4.155   3.363 -0.4763  0.9460 -0.8738
 7629SOL    HW234521   1.970   4.044   3.313  1.3155 -0.3427 -2.2987
 7630SOL     OW34522   4.678   2.402   6.979 -0.1890  0.7342 -0.0936
 7630SOL    HW134523   4.633   2.467   6.925 -1.2201 -1.0996 -1.4391
 7630SOL    HW234524   4.647   2.321   6.937 -0.9909  1.7123 -1.3809
 7631SOL     OW34525   2.780   1.871   7.246  0.2559 -0.4676  0.9667
 7631SOL    HW134526   2.869   1.842   7.269  0.2847  0.5079  2.0494
 7631SOL    HW234527   2.791   1.856   7.152  2.4268 -2.4133  1.5113
 7632SOL     OW34528   0.897   1.250   3.610  0.5000  0.0475  0.4678
 7632SOL    HW134529   0.929   1.172   3.655 -0.9262  1.3627  3.8569
 7632SOL    HW234530   0.815   1.259   3.659  0.9520  1.3363  1.0015
 7633SOL     OW34531   2.712   2.618   0.638 -0.2154 -0.3983  0.1995
 7633SOL    HW134532   2.734   2.590   0.549 -1.0054 -1.0576  0.2127
 7633SOL    HW234533   2.644   2.683   0.618  1.2055  1.0661  0.1309
 7634SOL     OW34534   0.884   3.856   3.607 -0.0241 -0.0950  0.1008
 7634SOL    HW134535   0.904   3.804   3.685  0.4647 -0.4554 -0.2712
 7634SOL    HW234536   0.960   3.914   3.608  1.2057 -1.7252 -0.0310
 7635SOL     OW34537   1.011   2.770  16.249  0.4842 -0.8193  0.0815
 7635SOL    HW134538   1.048   2.859  16.249 -0.2258 -0.5319  0.7820
 7635SOL    HW234539   0.946   2.786  16.180 -0.1634 -0.6851  0.7256
 7636SOL     OW34540   0.702   2.585   7.461 -0.0663 -0.3653  0.3717
 7636SOL    HW134541   0.661   2.617   7.381  0.2343 -1.3364 -0.1859
 7636SOL    HW234542   0.777   2.539   7.423 -0.3476 -1.8843  1.6390
 7637SOL     OW34543   1.196   3.244  15.308  1.0867 -0.5713 -0.4728
 7637SOL    HW134544   1.222   3.326  15.268 -0.2802 -0.2616 -0.7511
 7637SOL    HW234545   1.228   3.256  15.397  1.5563 -0.7784 -0.6141
 7638SOL     OW34546   3.178   0.773  16.600 -0.0418 -0.8059 -0.0132
 7638SOL    HW134547   3.124   0.816  16.666 -1.0513 -1.1249 -0.6425
 7638SOL    HW234548   3.132   0.804  16.522 -0.1461 -0.3469  0.2308
 7639SOL     OW34549   0.030   3.009   5.505  0.2102  0.3734 -0.0133
 7639SOL    HW134550   4.730   2.940   5.558  3.0118 -1.0440  0.1300
 7639SOL    HW234551   0.012   2.965   5.422 -0.7309 -0.4767  0.6349
 7640SOL     OW34552   0.530   1.333   0.305  0.2352  0.1372  0.1897
 7640SOL    HW134553   0.626   1.336   0.303  0.2171  0.8596  0.2681
 7640SOL    HW234554   0.510   1.259   0.247  1.8420 -0.5571  0.5144
 7641SOL     OW34555   3.492   1.330   7.517 -0.8427  0.3862 -0.0724
 7641SOL    HW134556   3.481   1.265   7.447 -1.0703 -1.1009  1.3450
 7641SOL    HW234557   3.583   1.355   7.503 -1.2371  0.7258 -2.0342
 7642SOL     OW34558   3.808   0.963   8.395 -0.6841  0.7658  0.2456
 7642SOL    HW134559   3.831   0.964   8.302 -1.8261 -0.5230 -0.0569
 7642SOL    HW234560   3.890   0.931   8.435 -1.4749 -1.0998  0.3799
 7643SOL     OW34561   0.490   3.448  15.466  0.0346 -0.0602  0.9042
 7643SOL    HW134562   0.553   3.517  15.444 -0.9206  0.4682 -0.1847
 7643SOL    HW234563   0.553   3.381  15.491 -0.4332 -1.1911 -0.9359
 7644SOL     OW34564   3.973   0.813   7.526 -0.5860  0.0082 -0.6392
 7644SOL    HW134565   4.053   0.764   7.547 -1.3066 -2.0673 -2.6444
 7644SOL    HW234566   3.929   0.756   7.462  3.3829 -2.8343 -0.8315
 7645SOL     OW34567   4.051   3.051   6.570  0.4220  0.4165  0.2275
 7645SOL    HW134568   4.036   3.110   6.644  4.6076  2.0577 -0.2260
 7645SOL    HW234569   4.039   3.111   6.497  1.0413  0.3850  0.0981
 7646SOL     OW34570   0.284   3.633   8.699  0.6929 -0.1191 -0.4990
 7646SOL    HW134571   0.206   3.578   8.702  0.8563 -0.3331 -0.2311
 7646SOL    HW234572   0.245   3.690   8.633  1.1850 -2.1792 -2.5633
 7647SOL     OW34573   2.727   0.014  10.066 -0.1281  0.3187 -0.0533
 7647SOL    HW134574   2.775   0.058   9.996 -1.7759  1.5856 -0.3953
 7647SOL    HW234575   2.792   4.702  10.114 -1.5450 -1.2913  0.1725
 7648SOL     OW34576   4.553   3.023   9.276  0.1745 -0.5796  0.3252
 7648SOL    HW134577   4.474   2.988   9.318  0.3632 -0.9020  0.4102
 7648SOL    HW234578   4.547   2.990   9.186 -0.4805 -2.0365  0.8853
 7649SOL     OW34579   3.318   2.918   6.521 -0.0845  0.0734  0.0733
 7649SOL    HW134580   3.325   3.004   6.562 -0.0239  0.3091 -0.4375
 7649SOL    HW234581   3.325   2.865   6.601 -0.0349  0.4838  0.3381
 7650SOL     OW34582   3.482   3.581  10.111  0.1247  0.4292 -0.0817
 7650SOL    HW134583   3.577   3.578  10.122  0.1330  2.3171  0.3677
 7650SOL    HW234584   3.457   3.619  10.195 -0.9743 -1.1551  0.3144
 7651SOL     OW34585   2.203   4.163  17.741  0.8519  0.3760  0.3031
 7651SOL    HW134586   2.267   4.137  17.674  0.5542 -2.2998  1.0695
 7651SOL    HW234587   2.162   4.234  17.691 -0.2104 -0.2933  0.2105
 7652SOL     OW34588   4.115   1.187  16.635 -0.3914 -0.6307  0.2337
 7652SOL    HW134589   4.161   1.186  16.551 -2.6215  0.6850 -1.0105
 7652SOL    HW234590   4.024   1.184  16.606  0.0066  2.0580 -1.3082
 7653SOL     OW34591   2.471   0.739   6.060 -0.0324 -0.8242  0.6624
 7653SOL    HW134592   2.383   0.775   6.072  1.0136  1.6261  1.0776
 7653SOL    HW234593   2.496   0.765   5.971  0.3350  1.8373  1.5192
 7654SOL     OW34594   4.579   1.880   4.770 -0.4214 -0.2123  0.1341
 7654SOL    HW134595   4.558   1.932   4.847 -1.4151 -0.6884  0.1871
 7654SOL    HW234596   4.630   1.940   4.716  0.3036 -0.5779  0.4154
 7655SOL     OW34597   1.530   1.252  13.427  0.5525  0.5189  0.7821
 7655SOL    HW134598   1.570   1.208  13.352 -0.4908  0.0047  0.5254
 7655SOL    HW234599   1.439   1.223  13.422  0.2422  1.7717 -0.7647
 7656SOL     OW34600   1.298   4.595   5.160  0.8410 -0.0051  0.2620
 7656SOL    HW134601   1.356   4.545   5.101  1.3084  1.0413 -0.1679
 7656SOL    HW234602   1.217   4.547   5.143  1.8562 -1.4252 -0.6556
 7657SOL     OW34603   2.096   0.021   4.597 -0.0816  0.5061 -0.1621
 7657SOL    HW134604   2.110   0.116   4.596 -1.0268  0.6196 -2.8286
 7657SOL    HW234605   2.055   0.007   4.682  0.9493 -2.5191 -0.1463
 7658SOL     OW34606   0.360   1.010   2.580 -0.8593  0.2607 -0.4159
 7658SOL    HW134607   0.415   0.945   2.536 -2.8275 -0.6671 -1.4714
 7658SOL    HW234608   0.282   0.959   2.561 -0.5751 -0.8490  1.4878
 7659SOL     OW34609   1.974   3.160  14.294 -0.2892 -0.3843 -0.5040
 7659SOL    HW134610   2.040   3.163  14.363  0.4064  0.8874 -1.2229
 7659SOL    HW234611   1.962   3.065  14.294 -1.7686 -0.1920 -0.2466
 7660SOL     OW34612   2.439   1.835   0.858 -0.2329  0.0925  0.4689
 7660SOL    HW134613   2.406   1.769   0.796  1.6629 -0.8544  0.4506
 7660SOL    HW234614   2.485   1.896   0.800 -1.5774  0.5756 -0.0949
 7661SOL     OW34615   4.127   1.034   4.215 -0.2566 -0.5682 -0.4699
 7661SOL    HW134616   4.079   1.100   4.165 -0.1954  0.9584  1.4922
 7661SOL    HW234617   4.194   1.090   4.255  0.7691 -1.1163 -1.4161
 7662SOL     OW34618   1.868   0.590  11.519 -0.0153  0.3205 -0.2093
 7662SOL    HW134619   1.880   0.622  11.429  2.4600  1.6382  0.6002
 7662SOL    HW234620   1.922   0.646  11.575  1.2066  1.2383 -2.2890
 7663SOL     OW34621   2.073   1.736  14.505  0.5244 -0.0049 -0.1755
 7663SOL    HW134622   2.125   1.774  14.576  3.0401 -0.6896 -1.6235
 7663SOL    HW234623   2.101   1.800  14.440 -0.0553 -0.0177 -0.4344
 7664SOL     OW34624   2.121   0.735   5.493 -0.2656 -0.1959 -0.1265
 7664SOL    HW134625   2.214   0.714   5.505  0.1830  0.9374 -1.6118
 7664SOL    HW234626   2.096   0.682   5.418  1.1306 -0.3888 -0.4567
 7665SOL     OW34627   0.465   4.498   7.003 -0.1920 -0.0882  0.4636
 7665SOL    HW134628   0.537   4.461   7.054 -0.5766  0.2881  1.2834
 7665SOL    HW234629   0.454   4.425   6.942  1.4949 -0.3212  0.4516
 7666SOL     OW34630   0.810   1.858   5.434 -0.0904 -0.1509  0.0418
 7666SOL    HW134631   0.719   1.847   5.406 -0.0504 -1.1609  0.3051
 7666SOL    HW234632   0.786   1.911   5.510 -0.0287 -1.1326  0.7486
 7667SOL     OW34633   2.429   4.533  10.573 -0.0451  0.4750 -0.7625
 7667SOL    HW134634   2.462   4.622  10.577  2.0748 -0.1888 -3.3744
 7667SOL    HW234635   2.478   4.491  10.503  0.6445  0.1312 -0.0756
 7668SOL     OW34636   4.669   3.542  10.082  0.2383  0.0825  0.3623
 7668SOL    HW134637   4.657   3.558  10.176  1.7204  1.0608  0.3891
 7668SOL    HW234638   0.022   3.514  10.083 -0.2121 -1.6202 -4.6549
 7669SOL     OW34639   4.536   1.326   2.222 -0.2583  0.1896  0.2205
 7669SOL    HW134640   4.520   1.394   2.156 -0.3891  1.2378  1.3263
 7669SOL    HW234641   4.509   1.245   2.178  1.3063  0.5169 -1.3458
 7670SOL     OW34642   4.009   0.848   4.386 -0.0508 -0.4642 -0.0342
 7670SOL    HW134643   3.992   0.904   4.462  0.3376 -0.0481 -0.2514
 7670SOL    HW234644   4.048   0.903   4.319 -0.0820  1.4140  1.4791
 7671SOL     OW34645   4.512   3.550  15.413 -0.6955 -0.4962  0.1584
 7671SOL    HW134646   4.574   3.479  15.431 -2.3025 -1.5667  1.4859
 7671SOL    HW234647   4.430   3.517  15.451 -1.0936 -0.5789 -0.7940
 7672SOL     OW34648   1.387   0.428  15.026 -0.4448 -0.1395  0.1691
 7672SOL    HW134649   1.314   0.372  14.999 -1.1513  1.9499 -2.2738
 7672SOL    HW234650   1.435   0.352  15.059  2.2218  1.3291 -0.3690
 7673SOL     OW34651   0.019   0.421  13.499 -0.0298 -0.0234 -0.3334
 7673SOL    HW134652   4.722   0.503  13.467 -2.5090 -0.0728  2.4039
 7673SOL    HW234653   4.694   0.358  13.465  0.1201 -0.2350 -0.2230
 7674SOL     OW34654   3.976   1.680   4.824 -0.5337  0.5644  0.3098
 7674SOL    HW134655   3.986   1.596   4.779 -0.7054  0.0617  1.1903
 7674SOL    HW234656   4.066   1.702   4.847  0.1450 -2.0465  0.1579
 7675SOL     OW34657   4.323   2.062   7.522 -0.1279  0.2222  0.1187
 7675SOL    HW134658   4.314   2.078   7.616 -3.6211  0.2217 -0.2080
 7675SOL    HW234659   4.416   2.083   7.508 -0.1276 -0.2584 -0.5922
 7676SOL     OW34660   2.285   4.609  16.263 -0.5824 -0.3187  0.2156
 7676SOL    HW134661   2.365   4.646  16.224 -0.9106  0.5679  0.3823
 7676SOL    HW234662   2.281   4.521  16.227 -0.3661 -0.6783  1.0629
 7677SOL     OW34663   3.754   3.560   7.560  0.1140 -0.2076  0.1435
 7677SOL    HW134664   3.787   3.487   7.612  0.7794  0.5955  0.8541
 7677SOL    HW234665   3.822   3.566   7.493 -0.7322 -0.7353 -0.7651
 7678SOL     OW34666   4.699   3.640   6.435 -0.2180 -0.1740  0.0281
 7678SOL    HW134667   4.658   3.632   6.348  0.8568  0.4756 -0.5429
 7678SOL    HW234668   4.629   3.634   6.499 -0.0118 -0.2287  0.2477
 7679SOL     OW34669   4.378   0.322   8.248  0.7095  0.2317  0.6173
 7679SOL    HW134670   4.341   0.332   8.160  2.0889  3.2367  0.4043
 7679SOL    HW234671   4.407   0.410   8.270  1.6915 -0.1656  0.8739
 7680SOL     OW34672   2.369   1.013   7.297  0.3843  0.2893  0.0598
 7680SOL    HW134673   2.377   1.107   7.277  1.8822  0.0733 -0.3546
 7680SOL    HW234674   2.295   1.003   7.357  1.2439  1.8479  1.3741
 7681SOL     OW34675   2.996   4.664  14.559 -0.3691 -0.5383 -0.1071
 7681SOL    HW134676   3.075   4.702  14.520 -0.2897  0.3936  0.9388
 7681SOL    HW234677   2.970   4.594  14.500  1.8580 -0.7638 -0.8238
 7682SOL     OW34678   1.799   0.907   9.143 -0.0924 -0.3460  0.4375
 7682SOL    HW134679   1.810   0.863   9.059  2.7839 -1.4583  1.4093
 7682SOL    HW234680   1.743   0.848   9.194  0.0533 -0.3949  0.5395
 7683SOL     OW34681   2.453   3.420   0.708 -0.2401  0.3382  0.5135
 7683SOL    HW134682   2.536   3.377   0.689 -0.0985  0.7410  0.2077
 7683SOL    HW234683   2.410   3.403   0.624  0.7630 -0.4091  0.1628
 7684SOL     OW34684   1.500   3.371   4.031 -0.6862 -0.1548  0.3794
 7684SOL    HW134685   1.547   3.316   4.094  1.2139  0.6732 -0.3279
 7684SOL    HW234686   1.441   3.426   4.083 -2.1707 -0.2887 -1.1780
 7685SOL     OW34687   2.104   2.732   9.286  0.3828 -0.7214 -0.2730
 7685SOL    HW134688   2.101   2.761   9.194 -0.9303 -0.3057 -0.0957
 7685SOL    HW234689   2.050   2.794   9.335  1.2001  0.6505 -1.1041
 7686SOL     OW34690   3.031   1.623   9.035  0.0072  0.9961 -0.0387
 7686SOL    HW134691   2.997   1.648   9.121  0.2627 -0.1103  0.3773
 7686SOL    HW234692   3.055   1.711   9.007  1.3608  0.9579  1.0445
 7687SOL     OW34693   0.797   3.305   4.705  0.0567 -0.2440 -0.1428
 7687SOL    HW134694   0.802   3.386   4.653  0.2370  0.5168  1.0724
 7687SOL    HW234695   0.710   3.303   4.745  0.6666  0.7755  1.1971
 7688SOL     OW34696   4.134   0.903  11.946  0.4345  0.2615 -0.1490
 7688SOL    HW134697   4.209   0.914  11.887  0.6960  1.0267  0.3377
 7688SOL    HW234698   4.095   0.988  11.930 -0.0351 -0.1433 -1.1411
 7689SOL     OW34699   4.208   4.276   4.160  0.0920  0.1433  0.6849
 7689SOL    HW134700   4.229   4.187   4.188  1.5236  0.0957 -0.5279
 7689SOL    HW234701   4.128   4.271   4.108  1.2130  1.7881 -1.1944
 7690SOL     OW34702   3.027   0.513   4.775 -0.5611  0.1827 -0.3291
 7690SOL    HW134703   3.101   0.545   4.828  0.9088 -2.1544 -0.9840
 7690SOL    HW234704   3.063   0.547   4.693 -0.4807 -1.5499 -1.0143
 7691SOL     OW34705   1.492   0.147  12.430  0.5346  0.0410  0.0541
 7691SOL    HW134706   1.544   0.184  12.502  0.9257  1.4388 -0.9560
 7691SOL    HW234707   1.552   0.161  12.357  0.9388 -1.3881  0.0983
 7692SOL     OW34708   3.903   4.502   6.219  0.3160 -0.6690 -0.5934
 7692SOL    HW134709   3.831   4.441   6.234 -0.4090  0.7104  1.5934
 7692SOL    HW234710   3.857   4.585   6.231  0.7459 -0.6444  0.8971
 7693SOL     OW34711   0.499   2.638   5.216  0.1841 -0.4677  0.3194
 7693SOL    HW134712   0.556   2.702   5.174  1.2965 -0.8595  1.2297
 7693SOL    HW234713   0.542   2.622   5.300 -0.2289 -0.5719  0.5066
 7694SOL     OW34714   2.761   3.371   1.222 -0.5314  0.1092  0.0430
 7694SOL    HW134715   2.802   3.306   1.165  0.7636  1.1341 -0.2028
 7694SOL    HW234716   2.672   3.378   1.190 -0.2228 -0.3850 -0.9203
 7695SOL     OW34717   0.214   3.383  15.694 -0.1071 -0.1191 -0.1139
 7695SOL    HW134718   0.161   3.463  15.697  0.2122  0.1031 -0.3150
 7695SOL    HW234719   0.207   3.336  15.777  1.5847  1.4260  0.9129
 7696SOL     OW34720   4.357   0.562   9.234  0.0629 -0.3043  0.3133
 7696SOL    HW134721   4.263   0.556   9.220  0.4082  0.2555 -2.2302
 7696SOL    HW234722   4.377   0.472   9.210 -1.6173 -0.1647 -1.6011
 7697SOL     OW34723   2.814   3.084   1.379  0.4071 -0.2638  0.0119
 7697SOL    HW134724   2.904   3.068   1.409 -0.0117 -2.5471  0.0435
 7697SOL    HW234725   2.833   3.174   1.352 -0.0365  0.3457  1.7806
 7698SOL     OW34726   1.435   0.299   1.302 -0.0703 -0.6066  0.0506
 7698SOL    HW134727   1.460   0.244   1.227 -0.0792  0.9631 -1.0980
 7698SOL    HW234728   1.454   0.246   1.379  2.1070 -0.1300 -0.1485
 7699SOL     OW34729   1.956   2.019  13.883 -0.9332 -0.1058 -0.3070
 7699SOL    HW134730   2.046   1.991  13.867 -1.3776 -1.3499 -0.6903
 7699SOL    HW234731   1.902   1.945  13.853 -0.3200 -0.8373  0.4021
 7700SOL     OW34732   4.347   1.138   3.591  0.4052  0.3063 -0.0906
 7700SOL    HW134733   4.381   1.223   3.564  2.6862 -0.0776  1.5166
 7700SOL    HW234734   4.372   1.080   3.519  0.4933 -2.5008  2.1821
 7701SOL     OW34735   3.767   0.087   6.753 -0.1676 -0.2214  0.0367
 7701SOL    HW134736   3.714   0.166   6.743  0.1451 -0.3125 -2.4351
 7701SOL    HW234737   3.821   0.104   6.831 -0.2856 -0.5184  0.1805
 7702SOL     OW34738   0.323   1.371  10.448  1.1794  0.2047 -0.2227
 7702SOL    HW134739   0.315   1.309  10.375 -0.1541 -0.6121  0.6057
 7702SOL    HW234740   0.236   1.412  10.443  1.1658 -0.0549 -2.2933
 7703SOL     OW34741   0.052   1.582  13.136 -0.5495  0.0583  0.9464
 7703SOL    HW134742   0.067   1.543  13.050  2.6096  0.0143  1.5098
 7703SOL    HW234743   0.122   1.646  13.122  0.8154 -1.7822 -0.5307
 7704SOL     OW34744   1.864   1.908   1.934 -0.0044  0.1132 -0.0109
 7704SOL    HW134745   1.832   1.822   1.905  1.1574 -0.2993 -0.0971
 7704SOL    HW234746   1.857   1.904   2.030 -0.5091 -3.4744 -0.1852
 7705SOL     OW34747   1.230   2.494   4.902  0.0052  0.1721 -0.0020
 7705SOL    HW134748   1.323   2.512   4.912  0.1017 -1.0189  1.2365
 7705SOL    HW234749   1.217   2.494   4.807  0.6106  2.5093 -0.0792
 7706SOL     OW34750   0.875   4.035  10.502  0.5005  0.6401  0.1178
 7706SOL    HW134751   0.865   4.098  10.430 -4.2466 -1.5144 -1.1551
 7706SOL    HW234752   0.862   3.958  10.447 -1.0259  0.6852  0.4267
 7707SOL     OW34753   4.189   1.191   7.728 -0.0567 -0.2620  0.3980
 7707SOL    HW134754   4.231   1.275   7.746 -0.9522  0.3332 -0.2992
 7707SOL    HW234755   4.105   1.231   7.703  1.5178  1.8539 -1.5069
 7708SOL     OW34756   2.281   3.351   0.956  0.1198  0.5240  0.4657
 7708SOL    HW134757   2.208   3.293   0.932 -0.1704  1.0115  0.1657
 7708SOL    HW234758   2.317   3.374   0.870 -2.4905  2.1879 -0.2160
 7709SOL     OW34759   3.371   1.957   8.056 -0.3181  0.0610 -0.3492
 7709SOL    HW134760   3.416   2.004   7.985 -1.5602  1.6302 -0.0699
 7709SOL    HW234761   3.308   1.907   8.004 -1.1703  0.1382  0.6375
 7710SOL     OW34762   1.935   0.431   1.321 -0.2097  0.1940  0.0729
 7710SOL    HW134763   1.895   0.480   1.249 -0.0670  2.8365  1.7783
 7710SOL    HW234764   1.946   0.342   1.287  0.7323  0.5830 -0.6407
 7711SOL     OW34765   3.089   2.452   7.327  0.4238 -0.0883  0.1973
 7711SOL    HW134766   3.147   2.376   7.313  1.2201  0.6615 -0.5875
 7711SOL    HW234767   3.126   2.481   7.411 -2.2550  0.5438  1.1398
 7712SOL     OW34768   3.161   4.714   6.882  0.0534 -0.2880 -0.7588
 7712SOL    HW134769   3.210   0.049   6.846 -4.3631  2.7218 -0.5803
 7712SOL    HW234770   3.169   4.649   6.812  2.2481 -0.4070 -0.4052
 7713SOL     OW34771   0.669   0.199  13.218  0.3191 -0.6273  0.0829
 7713SOL    HW134772   0.645   0.231  13.131 -0.6447 -0.2054  0.4996
 7713SOL    HW234773   0.610   0.240  13.282 -0.9602  0.3895 -1.7640
 7714SOL     OW34774   2.721   3.224   1.768 -0.0292  0.3212  0.5252
 7714SOL    HW134775   2.769   3.207   1.849 -0.5167  0.8636  0.9270
 7714SOL    HW234776   2.639   3.260   1.802  1.2146  2.4469  1.2087
 7715SOL     OW34777   2.691   0.292   6.170  0.2947 -0.2238  0.1676
 7715SOL    HW134778   2.756   0.310   6.239  0.2635  1.5616 -0.2857
 7715SOL    HW234779   2.742   0.225   6.125 -0.9748  2.1242 -4.7175
 7716SOL     OW34780   0.757   1.716   8.558 -0.2084  0.1738  0.0974
 7716SOL    HW134781   0.710   1.694   8.638  0.0137  1.6111  0.6087
 7716SOL    HW234782   0.845   1.685   8.579  0.2972 -0.3029 -2.7021
 7717SOL     OW34783   1.464   2.215   2.663  0.3267 -0.0345  0.7083
 7717SOL    HW134784   1.378   2.187   2.632  0.4056  2.0179 -1.3231
 7717SOL    HW234785   1.525   2.188   2.595 -1.8992  0.4728 -1.5097
 7718SOL     OW34786   4.097   0.462   1.456  0.4951 -0.2000  0.3108
 7718SOL    HW134787   4.082   0.515   1.535 -0.2350  2.6306 -1.7286
 7718SOL    HW234788   4.040   0.386   1.466 -0.9301  0.5567 -2.0148
 7719SOL     OW34789   0.491   4.133   6.436 -0.2057  0.0037 -0.0806
 7719SOL    HW134790   0.565   4.073   6.443 -0.0202  0.3060  0.6021
 7719SOL    HW234791   0.460   4.137   6.527 -0.1300 -2.5201  0.0615
 7720SOL     OW34792   4.400   1.087   2.827 -0.4925 -0.0739  0.3500
 7720SOL    HW134793   4.452   1.111   2.750 -0.5843  0.2645  0.3917
 7720SOL    HW234794   4.405   1.178   2.857  2.1232 -0.1684  0.1791
 7721SOL     OW34795   1.467   3.638   1.259 -0.4893  0.1748  1.0348
 7721SOL    HW134796   1.389   3.582   1.257  0.4309 -1.1288  1.3633
 7721SOL    HW234797   1.481   3.644   1.354  2.4575 -0.3784  0.6336
 7722SOL     OW34798   2.458   0.491   6.561 -0.0958 -0.4648  0.7256
 7722SOL    HW134799   2.386   0.505   6.500 -1.2504 -1.4954  1.8633
 7722SOL    HW234800   2.454   0.396   6.555  3.2341 -0.5595 -0.3157
 7723SOL     OW34801   0.246   4.411   4.092  0.5915  0.2443  0.3029
 7723SOL    HW134802   0.154   4.439   4.088  1.0413  1.7869  0.5437
 7723SOL    HW234803   0.276   4.432   4.003  1.1569 -5.7097 -0.8774
 7724SOL     OW34804   1.048   3.300  10.851 -0.1775  0.4977  0.0979
 7724SOL    HW134805   1.105   3.364  10.894 -0.0233  0.0554  0.5448
 7724SOL    HW234806   1.107   3.225  10.862 -2.3089 -1.3601 -1.2571
 7725SOL     OW34807   3.698   4.620   2.507  0.2792  0.2939 -0.6227
 7725SOL    HW134808   3.650   4.561   2.449  0.5050 -2.4410  1.9847
 7725SOL    HW234809   3.720   4.566   2.583 -1.9443 -1.4838 -1.2653
 7726SOL     OW34810   4.414   1.063   2.135 -0.5490 -0.0647 -0.4812
 7726SOL    HW134811   4.387   1.073   2.044  2.4619  0.0387 -1.3526
 7726SOL    HW234812   4.486   1.002   2.126  0.0409  0.8948 -2.2245
 7727SOL     OW34813   4.118   3.064  13.585  0.5823 -0.9547  0.3302
 7727SOL    HW134814   4.032   3.029  13.560  0.2732  0.5919 -0.7073
 7727SOL    HW234815   4.154   3.091  13.501 -1.4916  0.1059 -0.2039
 7728SOL     OW34816   1.146   3.267  13.746 -0.4579 -0.6253 -0.3198
 7728SOL    HW134817   1.181   3.217  13.672  0.6752 -0.2838 -0.0096
 7728SOL    HW234818   1.127   3.349  13.700  0.0683  1.0356  2.4384
 7729SOL     OW34819   0.293   4.518   8.295  0.8184 -0.2990  0.4508
 7729SOL    HW134820   0.322   4.487   8.210  0.5008  2.0258 -0.5016
 7729SOL    HW234821   0.343   4.599   8.291  0.3869 -0.0240  0.6518
 7730SOL     OW34822   1.746   0.866  11.097 -0.2101  0.4640  0.0869
 7730SOL    HW134823   1.800   0.941  11.070  2.5097 -1.4494  0.2138
 7730SOL    HW234824   1.671   0.881  11.039 -0.0665 -1.9943 -0.7181
 7731SOL     OW34825   2.723   0.297   5.637  0.4934 -0.3544 -0.2414
 7731SOL    HW134826   2.808   0.294   5.592  0.3867 -1.6858 -0.3588
 7731SOL    HW234827   2.733   0.388   5.666 -1.1263  0.2959 -1.7685
 7732SOL     OW34828   2.558   1.881   4.486  0.6047 -0.0080 -0.3884
 7732SOL    HW134829   2.579   1.964   4.444 -2.1001  1.4728  1.2151
 7732SOL    HW234830   2.546   1.897   4.580 -0.6460  1.4376 -0.8028
 7733SOL     OW34831   2.012   1.770   8.967 -0.0627  0.1053 -0.2656
 7733SOL    HW134832   2.062   1.851   8.962 -2.6727  1.6704 -1.2125
 7733SOL    HW234833   2.067   1.713   9.019 -0.2762  1.2615  1.2325
 7734SOL     OW34834   1.251   0.792   4.128 -0.1149 -0.3250  0.1776
 7734SOL    HW134835   1.202   0.751   4.199  1.7401 -0.6367  1.2554
 7734SOL    HW234836   1.257   0.724   4.061  0.3425  1.6365 -1.7869
 7735SOL     OW34837   1.100   0.489   7.949 -0.3988 -0.0861 -0.2598
 7735SOL    HW134838   1.049   0.551   7.897 -1.1172 -1.6062 -1.3664
 7735SOL    HW234839   1.166   0.542   7.993  1.2634 -0.8701 -1.8112
 7736SOL     OW34840   1.181   4.226   9.725 -0.6054  0.2993 -0.1437
 7736SOL    HW134841   1.245   4.274   9.673  2.3323 -1.7053  1.6007
 7736SOL    HW234842   1.101   4.275   9.704  1.0183  2.7288 -0.6647
 7737SOL     OW34843   0.860   1.330   6.159 -0.0409  0.1421  0.1343
 7737SOL    HW134844   0.802   1.254   6.165 -1.5687  1.5121  2.8731
 7737SOL    HW234845   0.939   1.277   6.151  0.5559  1.2323 -1.3292
 7738SOL     OW34846   2.800   4.134   5.616 -0.0800  0.1549 -0.0576
 7738SOL    HW134847   2.826   4.132   5.708  0.3273 -0.8277 -0.2008
 7738SOL    HW234848   2.753   4.218   5.616 -0.9736 -0.3543 -0.0028
 7739SOL     OW34849   1.092   4.363   2.616 -0.2952  0.2332 -0.4016
 7739SOL    HW134850   1.046   4.318   2.686 -1.3847 -0.3478 -1.4834
 7739SOL    HW234851   1.027   4.426   2.582 -0.5885 -1.1691 -2.4543
 7740SOL     OW34852   2.581   3.679   1.015 -0.2586  0.3206  0.2036
 7740SOL    HW134853   2.653   3.734   1.045  0.0172  0.6114 -1.0006
 7740SOL    HW234854   2.587   3.684   0.919 -0.3991 -0.9889  0.1335
 7741SOL     OW34855   0.389   2.061  15.956  0.1186  0.0386  0.0266
 7741SOL    HW134856   0.483   2.052  15.943  0.1329  1.6196 -0.9322
 7741SOL    HW234857   0.380   2.039  16.049  1.6581 -1.0205 -0.0735
 7742SOL     OW34858   0.780   1.409   0.007  0.4831  0.1787 -0.6334
 7742SOL    HW134859   0.776   1.331  17.706  1.3116  0.4451 -1.0553
 7742SOL    HW234860   0.791   1.376   0.096 -0.9960 -1.1616 -0.9392
 7743SOL     OW34861   3.084   1.081  16.510  0.1566  0.1625 -0.1986
 7743SOL    HW134862   3.011   1.051  16.564 -1.6631  2.4953 -1.3558
 7743SOL    HW234863   3.088   1.015  16.441  0.7954  1.9074 -1.8398
 7744SOL     OW34864   4.439   1.388   4.249 -0.1742  0.4089  0.9981
 7744SOL    HW134865   4.467   1.431   4.168  1.1624  1.2006  1.8988
 7744SOL    HW234866   4.460   1.453   4.315  0.3307  0.5230  0.7236
 7745SOL     OW34867   4.342   1.000   7.824 -0.3404  0.1005 -0.2604
 7745SOL    HW134868   4.378   1.050   7.897 -2.4871 -0.2226  0.9988
 7745SOL    HW234869   4.283   1.065   7.785  0.4688  1.9658  1.6233
 7746SOL     OW34870   0.466   3.694  14.890  0.0590 -0.5435  0.0404
 7746SOL    HW134871   0.436   3.685  14.980  1.0070 -2.4469  0.1562
 7746SOL    HW234872   0.404   3.633  14.852  1.1466 -2.0198  0.6340
 7747SOL     OW34873   4.714   1.407   4.684  0.7345 -0.5044  0.4244
 7747SOL    HW134874   4.722   1.466   4.610  1.5977 -1.1012  0.0478
 7747SOL    HW234875   0.043   1.446   4.739  0.3392  0.5148  0.1882
 7748SOL     OW34876   4.520   1.626  14.058  0.1886  0.2154  0.0433
 7748SOL    HW134877   4.547   1.603  13.969  0.0908  2.0190 -0.4415
 7748SOL    HW234878   4.433   1.588  14.054 -0.3418  1.1812  2.5446
 7749SOL     OW34879   2.701   1.940   4.978 -0.1141 -0.5263  0.1174
 7749SOL    HW134880   2.633   1.888   5.022 -0.0997  2.0147  3.2153
 7749SOL    HW234881   2.776   1.881   4.984  1.1332  0.9768 -0.6626
 7750SOL     OW34882   4.457   3.678  10.438 -0.2059 -0.4823  0.1772
 7750SOL    HW134883   4.522   3.609  10.423  0.1500 -0.2196  0.4962
 7750SOL    HW234884   4.470   3.705  10.529  0.4845 -2.4124  0.6479
 7751SOL     OW34885   2.039   4.681   8.343  0.5376 -0.2155  0.6003
 7751SOL    HW134886   2.023   0.009   8.409 -1.6004 -0.1696  0.0200
 7751SOL    HW234887   2.128   4.704   8.313  0.1872  0.7533  0.2863
 7752SOL     OW34888   3.217   0.093  13.747 -0.7706 -0.2051  0.3147
 7752SOL    HW134889   3.312   0.104  13.759 -0.7707 -2.4728  2.3404
 7752SOL    HW234890   3.194   0.034  13.819 -0.5745  0.8328  1.2257
 7753SOL     OW34891   3.087   3.835  12.208 -0.8267  0.3014 -0.2440
 7753SOL    HW134892   3.170   3.882  12.195  0.6854 -2.3314 -0.0570
 7753SOL    HW234893   3.040   3.895  12.266 -0.5728  1.8638 -1.6679
 7754SOL     OW34894   0.364   1.235   5.154 -0.1324  0.0052  0.4461
 7754SOL    HW134895   0.291   1.177   5.131  0.1971 -0.7480  1.2743
 7754SOL    HW234896   0.401   1.179   5.223 -0.1488 -0.7706 -0.1640
 7755SOL     OW34897   0.903   0.519  17.327  0.4300 -0.1865  0.7441
 7755SOL    HW134898   0.904   0.612  17.352  1.6677 -0.1425  0.5330
 7755SOL    HW234899   0.937   0.507  17.238  1.5737  0.0636  1.1584
 7756SOL     OW34900   1.214   0.378  16.545 -1.0950  0.2843 -0.2641
 7756SOL    HW134901   1.143   0.442  16.537 -0.8617  0.7948  1.7939
 7756SOL    HW234902   1.190   0.311  16.481  0.6674 -1.0237  0.4533
 7757SOL     OW34903   2.412   1.972   2.347  0.4865  0.0761 -0.6387
 7757SOL    HW134904   2.478   1.982   2.415  0.4852  1.0674 -0.7931
 7757SOL    HW234905   2.449   2.037   2.288 -0.4796  0.5724 -0.6992
 7758SOL     OW34906   0.019   3.025   2.264  0.3497 -0.5659  0.0023
 7758SOL    HW134907   4.731   3.117   2.272 -0.1140 -0.8549  1.7083
 7758SOL    HW234908   4.725   3.005   2.177  0.4577  1.4836 -0.5181
 7759SOL     OW34909   1.811   1.726  11.630  0.5103 -0.8442  0.6329
 7759SOL    HW134910   1.798   1.793  11.697 -0.5653  1.0688 -1.4951
 7759SOL    HW234911   1.773   1.760  11.549  1.2017  0.0796  0.7006
 7760SOL     OW34912   0.610   4.045   4.166  0.5767  0.1916 -0.3539
 7760SOL    HW134913   0.563   4.051   4.083 -0.4370 -2.7115  0.0353
 7760SOL    HW234914   0.691   4.076   4.125  1.0648 -1.4890 -0.6249
 7761SOL     OW34915   0.927   1.500   2.419 -0.0878  0.2153 -0.4762
 7761SOL    HW134916   0.866   1.446   2.369  0.4764 -0.6257 -0.2623
 7761SOL    HW234917   0.870   1.529   2.490  0.1706 -2.3461  0.7683
 7762SOL     OW34918   4.299   0.697  13.168 -0.3711 -0.2280 -0.0380
 7762SOL    HW134919   4.315   0.785  13.134 -1.1884  0.0600  0.3402
 7762SOL    HW234920   4.250   0.660  13.094 -0.3143 -2.5059  1.0560
 7763SOL     OW34921   1.691   1.125   3.232  0.5055 -0.6936 -0.2230
 7763SOL    HW134922   1.612   1.107   3.180 -0.0229 -2.1209  1.0388
 7763SOL    HW234923   1.722   1.202   3.186 -1.2193  0.1156 -0.0550
 7764SOL     OW34924   0.227   0.787   6.146  0.0661  0.7997  0.2607
 7764SOL    HW134925   0.186   0.742   6.220 -1.3228  1.6437  0.0071
 7764SOL    HW234926   0.155   0.819   6.091 -1.1413 -1.1916  0.6646
 7765SOL     OW34927   3.436   3.205   7.585 -0.5101  0.5778 -0.6941
 7765SOL    HW134928   3.422   3.288   7.630  0.8187 -0.5895  1.8633
 7765SOL    HW234929   3.523   3.221   7.548 -0.1347  3.0473  1.2353
 7766SOL     OW34930   2.149   3.358   2.564  0.1875  0.1888  0.2524
 7766SOL    HW134931   2.144   3.397   2.651  0.5970 -1.2005  0.9050
 7766SOL    HW234932   2.199   3.276   2.569 -1.3926 -0.9241 -2.2077
 7767SOL     OW34933   3.050   2.763  17.262 -0.5035 -0.8268  0.1863
 7767SOL    HW134934   3.106   2.799  17.332 -0.9726 -2.0670  1.1860
 7767SOL    HW234935   2.974   2.728  17.308 -2.0247 -1.0982 -2.5654
 7768SOL     OW34936   2.240   0.133   2.415  0.3574 -0.0236 -0.0330
 7768SOL    HW134937   2.241   0.116   2.320  2.8484 -0.7079  0.1381
 7768SOL    HW234938   2.197   0.049   2.432  1.9279 -1.0139 -0.9231
 7769SOL     OW34939   2.621   0.825   8.776  0.0898 -0.1728 -0.5305
 7769SOL    HW134940   2.590   0.736   8.789  0.2846 -0.4278 -1.8301
 7769SOL    HW234941   2.603   0.864   8.862 -1.8983 -0.8726 -0.6243
 7770SOL     OW34942   0.522   2.325   5.398 -0.2766 -0.2301  0.2623
 7770SOL    HW134943   0.542   2.399   5.342  0.8518 -0.1064  0.8326
 7770SOL    HW234944   0.502   2.351   5.488  3.2641 -0.9035  1.2360
 7771SOL     OW34945   3.614   4.046   6.503  0.3333  0.1033 -0.7936
 7771SOL    HW134946   3.635   4.119   6.561 -0.1893 -0.9060  0.6629
 7771SOL    HW234947   3.518   4.040   6.501  0.4487 -2.1608  0.8167
 7772SOL     OW34948   4.619   1.661   7.735  0.1647  0.2498 -0.4046
 7772SOL    HW134949   4.703   1.623   7.707 -0.4172 -1.3124 -0.0170
 7772SOL    HW234950   4.551   1.605   7.697 -0.8431  0.6855  0.7605
 7773SOL     OW34951   3.173   3.554  10.463 -0.3476 -0.2571  0.2775
 7773SOL    HW134952   3.120   3.628  10.492 -1.1263 -0.9198  0.5326
 7773SOL    HW234953   3.260   3.575  10.499 -1.3123  0.8177  1.9634
 7774SOL     OW34954   1.515   2.722  15.422  0.4322  0.6426 -0.3154
 7774SOL    HW134955   1.601   2.706  15.383  0.2719  1.6733 -1.0780
 7774SOL    HW234956   1.534   2.686  15.509 -1.2074  1.1157  0.2303
 7775SOL     OW34957   1.788   2.537   3.755  0.4161  0.5530  0.0878
 7775SOL    HW134958   1.761   2.457   3.709 -0.3471 -0.0071  1.5016
 7775SOL    HW234959   1.865   2.563   3.703 -0.3230  0.0262 -1.2820
 7776SOL     OW34960   2.425   4.493   8.072  0.3780  0.4303 -0.2304
 7776SOL    HW134961   2.360   4.440   8.025 -1.0090  2.7611 -0.9421
 7776SOL    HW234962   2.475   4.528   7.998 -1.2445 -0.4337 -1.7343
 7777SOL     OW34963   1.753   1.789  14.457  0.1041  0.0700 -0.3880
 7777SOL    HW134964   1.748   1.702  14.417 -1.6886 -0.3566  0.7612
 7777SOL    HW234965   1.847   1.806  14.451  0.0803 -0.3845 -2.0183
 7778SOL     OW34966   0.306   4.282   6.279 -0.7320 -0.2386  0.0837
 7778SOL    HW134967   0.332   4.307   6.190  0.7045  1.8489  1.0920
 7778SOL    HW234968   0.385   4.241   6.313  0.4955  3.9139  2.1656
 7779SOL     OW34969   0.101   3.409   5.940  0.0168 -0.0365 -1.3963
 7779SOL    HW134970   0.013   3.427   5.974  0.9693  1.0627  0.4683
 7779SOL    HW234971   0.132   3.498   5.952  1.9057 -1.2418  2.8114
 7780SOL     OW34972   1.781   2.063  15.757 -0.0674  0.0270 -0.6141
 7780SOL    HW134973   1.707   2.124  15.762 -0.1542 -0.2757  2.0714
 7780SOL    HW234974   1.732   1.985  15.782  2.2533 -1.4677 -0.7868
 7781SOL     OW34975   0.054   3.752   2.820  0.3599  0.7837 -0.3582
 7781SOL    HW134976   0.097   3.668   2.815 -1.5280 -0.1360 -1.4160
 7781SOL    HW234977   4.704   3.728   2.848  0.3012  2.8139  1.2631
 7782SOL     OW34978   1.008   4.165   6.232  0.3917  0.2839 -0.3419
 7782SOL    HW134979   1.093   4.196   6.265 -0.4258  1.2767  0.8288
 7782SOL    HW234980   0.981   4.126   6.315  1.6082 -1.1361 -0.6086
 7783SOL     OW34981   3.170   2.705   4.038 -0.3295  0.0072 -0.0045
 7783SOL    HW134982   3.078   2.681   4.033 -0.7305  1.4324  0.4021
 7783SOL    HW234983   3.189   2.642   4.107 -1.7552 -1.1310 -0.6648
 7784SOL     OW34984   3.639   1.432   3.995  0.2124  0.3028 -0.4231
 7784SOL    HW134985   3.670   1.400   3.910 -2.4257  0.2856 -1.3855
 7784SOL    HW234986   3.595   1.513   3.966  1.4064  1.2555  0.4264
 7785SOL     OW34987   0.523   3.925   2.336 -0.5036 -0.0883 -0.4372
 7785SOL    HW134988   0.600   3.950   2.389 -0.8608  2.0207 -0.9051
 7785SOL    HW234989   0.542   3.972   2.255 -2.4289 -0.5630 -1.1479
 7786SOL     OW34990   0.334   3.850   2.953  0.5249  0.4019 -0.1579
 7786SOL    HW134991   0.275   3.782   2.920 -0.0569  0.9002 -0.1421
 7786SOL    HW234992   0.365   3.794   3.024 -0.6992  0.6468  0.5790
 7787SOL     OW34993   3.867   1.090   5.572  0.1964  0.1039 -0.0879
 7787SOL    HW134994   3.955   1.076   5.536  0.1416  2.5078 -1.1594
 7787SOL    HW234995   3.864   1.185   5.565 -1.9189  0.0729  0.6289
 7788SOL     OW34996   2.993   2.750   3.660  0.5066 -0.0282  0.1348
 7788SOL    HW134997   2.996   2.824   3.599  2.7358  1.0342  1.5355
 7788SOL    HW234998   2.994   2.804   3.740 -0.4483  0.4810 -0.1940
 7789SOL     OW34999   0.282   3.448  15.317  0.2351 -0.3166 -0.0444
 7789SOL    HW135000   0.336   3.433  15.240 -2.0975  1.1147 -1.9812
 7789SOL    HW235001   0.344   3.455  15.390 -2.7954 -0.9546  2.5958
 7790SOL     OW35002   3.246   1.310   1.905  0.4211  0.5077  0.1685
 7790SOL    HW135003   3.219   1.228   1.864  0.9087 -0.6611  2.1996
 7790SOL    HW235004   3.341   1.319   1.892  0.2962 -0.6497 -1.5396
 7791SOL     OW35005   1.743   3.404  14.176 -0.4037 -0.7508 -0.3154
 7791SOL    HW135006   1.665   3.459  14.163  0.1741  0.2943  0.6193
 7791SOL    HW235007   1.816   3.452  14.138 -0.5728  0.6699  1.1084
 7792SOL     OW35008   1.148   3.480   7.632  0.0078  0.1986  0.2341
 7792SOL    HW135009   1.168   3.539   7.705  0.6296 -0.0289  0.2526
 7792SOL    HW235010   1.055   3.465   7.646  0.0656 -0.9892 -0.6636
 7793SOL     OW35011   3.183   4.446   1.660 -0.0075  0.4432 -0.2750
 7793SOL    HW135012   3.188   4.511   1.589 -0.6739  0.2724 -0.4705
 7793SOL    HW235013   3.255   4.488   1.707  0.0197  0.5616 -0.4190
 7794SOL     OW35014   3.182   2.820   2.554  0.4694 -0.1444 -0.3114
 7794SOL    HW135015   3.197   2.813   2.460  0.9396  2.0877 -0.3960
 7794SOL    HW235016   3.259   2.871   2.581 -0.8602  1.4219  0.5215
 7795SOL     OW35017   3.775   0.235   4.443  0.1115  0.3004 -0.1882
 7795SOL    HW135018   3.842   0.167   4.440 -0.0781  0.0755  0.6294
 7795SOL    HW235019   3.826   0.305   4.483 -0.5229 -0.2365  1.5839
 7796SOL     OW35020   2.825   3.195   6.064  0.2002 -0.4856 -0.1107
 7796SOL    HW135021   2.879   3.244   6.126 -2.5582 -0.8236  2.5685
 7796SOL    HW235022   2.772   3.150   6.130 -3.0829  3.6329  0.0883
 7797SOL     OW35023   2.538   3.097   1.539  0.8812  0.0366 -0.0580
 7797SOL    HW135024   2.535   3.188   1.571  2.8225 -0.0974  0.5160
 7797SOL    HW235025   2.634   3.094   1.540  0.7193 -4.1322  0.1230
 7798SOL     OW35026   0.779   0.922  10.804 -0.1332  0.1367 -0.2471
 7798SOL    HW135027   0.817   0.916  10.716  1.4683  2.3920  0.2862
 7798SOL    HW235028   0.688   0.943  10.782 -0.1000  2.1304  1.5245
 7799SOL     OW35029   1.867   4.586   5.603  0.1928  0.0722 -0.5371
 7799SOL    HW135030   1.828   4.673   5.602  1.3141  0.5676  0.4947
 7799SOL    HW235031   1.820   4.553   5.525 -1.0132  0.2485  0.1069
 7800SOL     OW35032   0.568   2.193   6.364 -0.3259 -0.2849  1.1592
 7800SOL    HW135033   0.638   2.128   6.370 -0.1459 -0.3389 -1.4066
 7800SOL    HW235034   0.584   2.247   6.286 -0.0114 -1.5347  0.3437
 7801SOL     OW35035   1.837   4.351   9.346  0.3615 -0.3014 -0.0478
 7801SOL    HW135036   1.779   4.288   9.389  0.1941 -2.1209 -2.9160
 7801SOL    HW235037   1.782   4.414   9.300 -0.4703  0.0788  1.4855
 7802SOL     OW35038   1.362   1.099  13.782 -0.4272 -0.7501  0.2539
 7802SOL    HW135039   1.354   1.078  13.874 -2.1518 -0.0409  0.2745
 7802SOL    HW235040   1.301   1.172  13.772  0.5934  0.0783  0.0612
 7803SOL     OW35041   2.591   1.689  10.879 -0.1365  0.6802 -0.5059
 7803SOL    HW135042   2.649   1.624  10.839  0.9656 -0.0538  2.2799
 7803SOL    HW235043   2.511   1.681  10.827 -0.7387 -0.2889  0.5651
 7804SOL     OW35044   3.277   3.259   0.663 -0.7656  0.8023  0.7217
 7804SOL    HW135045   3.338   3.329   0.686  0.7735  0.4507 -2.3107
 7804SOL    HW235046   3.199   3.307   0.637 -1.5388 -1.3755 -0.9980
 7805SOL     OW35047   0.676   1.699   3.462  0.2054 -0.1431 -0.6611
 7805SOL    HW135048   0.665   1.604   3.458 -0.0907 -0.0656 -1.9487
 7805SOL    HW235049   0.687   1.706   3.556  2.9014 -0.1610 -0.9791
 7806SOL     OW35050   1.623   4.469   3.213  0.0320  0.0810  0.3315
 7806SOL    HW135051   1.655   4.549   3.255  0.6305  0.3746 -0.6783
 7806SOL    HW235052   1.531   4.471   3.238  0.8014  1.0984  3.1532
 7807SOL     OW35053   4.620   0.524  15.171  0.3094  0.1701  0.2729
 7807SOL    HW135054   4.680   0.450  15.169 -0.9177 -0.7955 -0.8720
 7807SOL    HW235055   4.616   0.541  15.265  2.3992  5.0390 -0.4993
 7808SOL     OW35056   4.692   2.019  16.883 -0.5936 -0.7649 -0.7161
 7808SOL    HW135057   4.699   1.926  16.863  2.7276 -0.6176 -0.2176
 7808SOL    HW235058   4.609   2.024  16.931  0.2137  2.7572  0.2639
 7809SOL     OW35059   3.858   3.071  12.251 -0.5567 -0.0751  0.0285
 7809SOL    HW135060   3.807   3.105  12.325  0.6257 -1.5816  1.5396
 7809SOL    HW235061   3.820   3.117  12.176 -0.3441  1.1019  0.6314
 7810SOL     OW35062   2.467   3.273   7.655 -0.2896  0.2750 -0.6264
 7810SOL    HW135063   2.395   3.299   7.597 -0.2096  0.9555 -0.4209
 7810SOL    HW235064   2.479   3.354   7.705 -0.1030  0.2303 -0.5995
 7811SOL     OW35065   2.638   1.211   5.699  0.0037  0.4692 -0.1564
 7811SOL    HW135066   2.554   1.237   5.738  0.4353 -0.0122  1.0982
 7811SOL    HW235067   2.635   1.244   5.609 -1.8276  2.8285  0.7884
 7812SOL     OW35068   3.171   3.207  11.407 -0.1335  0.0303 -0.2740
 7812SOL    HW135069   3.165   3.294  11.369 -3.6679  0.7702  1.9468
 7812SOL    HW235070   3.095   3.211  11.465 -0.2621  0.3616 -0.4674
 7813SOL     OW35071   4.120   1.499  15.635 -0.1567 -0.4014 -0.1615
 7813SOL    HW135072   4.122   1.436  15.563  1.9569 -0.0980 -0.3762
 7813SOL    HW235073   4.184   1.563  15.603 -0.7840 -0.2014 -1.0267
 7814SOL     OW35074   3.191   4.734   8.066  0.0125  0.3372  0.1883
 7814SOL    HW135075   3.222   0.079   8.033 -1.8677  1.9209  2.4511
 7814SOL    HW235076   3.264   4.683   8.033  0.1393  0.5190  0.1875
 7815SOL     OW35077   1.374   3.442   1.881  0.2130  0.7429  0.1309
 7815SOL    HW135078   1.309   3.448   1.951 -1.2360  1.8174 -1.2890
 7815SOL    HW235079   1.371   3.352   1.849 -1.5989  0.9079 -0.1923
 7816SOL     OW35080   2.822   0.502   4.436 -0.0856 -0.0474 -0.4160
 7816SOL    HW135081   2.808   0.412   4.466  2.3070  0.2322  1.5427
 7816SOL    HW235082   2.877   0.538   4.506  0.2026 -1.6318  0.1614
 7817SOL     OW35083   3.841   4.603   2.019 -0.2980 -0.2516 -0.5285
 7817SOL    HW135084   3.912   4.657   1.985  0.0619 -0.1304  0.4101
 7817SOL    HW235085   3.825   4.662   2.094  1.2361  0.6935 -0.9453
 7818SOL     OW35086   1.235   3.481   8.374  0.1086  1.0940  0.1788
 7818SOL    HW135087   1.159   3.538   8.358 -0.6405  0.2534  0.7377
 7818SOL    HW235088   1.256   3.495   8.466 -2.0940  0.6497  0.7569
 7819SOL     OW35089   4.491   3.015   5.020  0.0288  0.4751 -0.1421
 7819SOL    HW135090   4.406   3.055   5.001  0.4137  0.5970 -1.5366
 7819SOL    HW235091   4.528   3.062   5.094  0.3816 -0.2103  0.1200
 7820SOL     OW35092   4.172   0.462  15.848 -0.4918  0.0671  0.0505
 7820SOL    HW135093   4.105   0.419  15.794 -1.4597 -1.2200  2.3034
 7820SOL    HW235094   4.117   0.505  15.913 -0.0534  1.3997 -0.4670
 7821SOL     OW35095   4.176   0.300   4.067  0.0785  0.1481  0.4075
 7821SOL    HW135096   4.140   0.215   4.092  4.7066 -1.4536  1.6657
 7821SOL    HW235097   4.098   0.349   4.092  0.3442 -0.0788  1.7052
 7822SOL     OW35098   1.718   1.579   5.975 -0.5717  0.3786  0.1928
 7822SOL    HW135099   1.779   1.534   6.034  0.4602 -0.9008 -1.8758
 7822SOL    HW235100   1.778   1.629   5.921  0.7150  1.1118  2.2903
 7823SOL     OW35101   1.044   2.027   6.940  0.4650  0.0696  0.4847
 7823SOL    HW135102   1.102   2.084   6.890  1.3567 -2.4086 -1.3341
 7823SOL    HW235103   0.980   2.094   6.964  1.1318  0.7584  0.3317
 7824SOL     OW35104   0.978   2.779   9.787  0.6402 -0.3570 -0.5040
 7824SOL    HW135105   1.023   2.860   9.762  1.3948 -0.3608  0.8679
 7824SOL    HW235106   0.998   2.729   9.707  0.3636 -0.5435 -0.4570
 7825SOL     OW35107   2.725   4.484   8.160  0.1313 -0.5128  0.1867
 7825SOL    HW135108   2.631   4.500   8.165  0.4194  0.8326  1.0967
 7825SOL    HW235109   2.752   4.562   8.111  0.0248  0.5750  1.8917
 7826SOL     OW35110   1.558   4.038   3.653 -0.6199 -0.3183  0.0508
 7826SOL    HW135111   1.648   4.007   3.639 -0.2856  0.0221  1.4638
 7826SOL    HW235112   1.571   4.087   3.734  2.2273 -1.7652  0.5034
 7827SOL     OW35113   1.917   1.864   6.109  0.1472  0.4305 -0.2972
 7827SOL    HW135114   1.846   1.925   6.090  1.5777  1.9236 -0.8874
 7827SOL    HW235115   1.931   1.819   6.026  0.4633 -0.4374  0.2220
 7828SOL     OW35116   0.954   4.075   4.362  0.3777  0.0825  0.1171
 7828SOL    HW135117   0.872   4.027   4.358 -0.2199  1.0568  0.8179
 7828SOL    HW235118   0.936   4.162   4.398  0.7414  0.0320  0.4228
 7829SOL     OW35119   3.495   4.151   5.854  0.2546 -0.1068 -0.4036
 7829SOL    HW135120   3.411   4.178   5.818  0.2945  0.3896 -0.1196
 7829SOL    HW235121   3.544   4.150   5.772 -0.0241  0.7857 -0.5692
 7830SOL     OW35122   3.126   1.342  12.089  0.1753 -0.0287 -0.4513
 7830SOL    HW135123   3.174   1.413  12.046  1.2458 -2.0220 -2.5517
 7830SOL    HW235124   3.204   1.287  12.096  0.0627 -0.1783 -0.3681
 7831SOL     OW35125   2.432   2.697   4.540  0.0557  0.0389  0.2930
 7831SOL    HW135126   2.388   2.623   4.499  0.3317 -0.4583  0.8990
 7831SOL    HW235127   2.406   2.688   4.632 -1.1396 -0.8072 -0.1296
 7832SOL     OW35128   4.712   0.647   4.301  0.8555 -0.8469  0.1154
 7832SOL    HW135129   4.686   0.661   4.210 -2.1674 -1.7118  0.8367
 7832SOL    HW235130   0.064   0.634   4.276  1.2319 -0.2086  1.1333
 7833SOL     OW35131   1.618   3.519   2.003 -0.0535  0.0443 -0.4858
 7833SOL    HW135132   1.676   3.485   1.935 -0.1483 -0.4491 -0.3242
 7833SOL    HW235133   1.538   3.517   1.950 -0.1963 -1.6139 -0.2026
 7834SOL     OW35134   2.037   1.859   0.293 -0.3247  0.5356 -0.2729
 7834SOL    HW135135   2.104   1.826   0.233  0.2065 -1.9401  1.6913
 7834SOL    HW235136   2.031   1.952   0.272 -3.5563  0.1827 -0.9274
 7835SOL     OW35137   3.574   1.530   8.655 -0.2160 -0.0627 -0.0264
 7835SOL    HW135138   3.615   1.580   8.583 -1.9246 -1.8399 -2.2358
 7835SOL    HW235139   3.485   1.538   8.621 -0.2612  0.8688  0.3066
 7836SOL     OW35140   4.324   2.938   6.423  0.5438  0.0126 -0.5236
 7836SOL    HW135141   4.297   2.947   6.515 -1.6120  0.5799 -1.2289
 7836SOL    HW235142   4.325   3.032   6.402  0.5496  0.0897 -0.1804
 7837SOL     OW35143   4.640   0.366   2.310  0.4644  1.0845 -0.0793
 7837SOL    HW135144   4.600   0.401   2.230  0.0037 -0.2509 -0.4443
 7837SOL    HW235145   4.555   0.351   2.351  0.6900  1.6369  0.5841
 7838SOL     OW35146   0.348   2.049   6.521 -0.2867 -0.1285 -0.6574
 7838SOL    HW135147   0.342   2.131   6.472  1.1030 -0.2652 -1.0481
 7838SOL    HW235148   0.340   1.980   6.456 -0.1077 -0.6140 -0.1685
 7839SOL     OW35149   3.748   3.512   3.287 -0.1847  0.2047 -0.2758
 7839SOL    HW135150   3.698   3.483   3.211  0.1662  4.1249 -2.0106
 7839SOL    HW235151   3.737   3.433   3.340 -2.6564 -1.3428 -3.0696
 7840SOL     OW35152   2.100   4.277  10.771  0.3176 -0.4489 -0.3342
 7840SOL    HW135153   2.058   4.307  10.852  2.6845  2.4265 -0.1827
 7840SOL    HW235154   2.191   4.307  10.762  1.1216 -2.7252  0.0932
 7841SOL     OW35155   0.002   0.584   3.423 -0.4102 -0.0063  0.0966
 7841SOL    HW135156   0.015   0.563   3.331 -1.7322 -0.7518  0.0902
 7841SOL    HW235157   0.096   0.591   3.442 -1.0601  1.9631  2.7198
 7842SOL     OW35158   0.550   1.530  17.300 -0.1761  0.6832  0.6063
 7842SOL    HW135159   0.607   1.568  17.367  0.4849  0.2921  0.2605
 7842SOL    HW235160   0.591   1.445  17.285  1.7175  1.3157  2.2516
 7843SOL     OW35161   2.542   0.961  12.323 -0.5011 -0.0426  0.4350
 7843SOL    HW135162   2.589   0.911  12.390 -1.8813 -1.8144  0.0435
 7843SOL    HW235163   2.479   0.904  12.281 -0.3016 -1.8153  2.5331
 7844SOL     OW35164   1.189   0.700  16.642 -0.4156 -0.1258  0.0814
 7844SOL    HW135165   1.115   0.654  16.602  0.7754 -1.5191 -0.5257
 7844SOL    HW235166   1.153   0.778  16.684 -1.3726 -0.8280  0.5722
 7845SOL     OW35167   4.133   2.738   5.557  0.2761  0.4668 -0.4205
 7845SOL    HW135168   4.204   2.800   5.543  0.9505 -0.3436 -0.5648
 7845SOL    HW235169   4.180   2.663   5.593 -0.2457  0.5017  0.3500
 7846SOL     OW35170   3.132   0.567   3.221 -0.1326  0.3420  0.5655
 7846SOL    HW135171   3.160   0.613   3.300  1.5515  2.9598 -1.5519
 7846SOL    HW235172   3.052   0.521   3.249 -0.6354  1.0109  0.2120
 7847SOL     OW35173   0.247   1.396  11.615  0.0920  0.8177  0.0277
 7847SOL    HW135174   0.270   1.333  11.684 -0.3676  0.9485  0.3000
 7847SOL    HW235175   0.318   1.400  11.551  0.8504 -3.3182  0.6101
 7848SOL     OW35176   0.021   2.937   3.263  0.6643  0.1820 -0.2126
 7848SOL    HW135177   4.712   2.998   3.320 -1.1660 -0.3794 -1.1475
 7848SOL    HW235178   0.006   2.853   3.306  0.5465  0.2308 -0.1592
 7849SOL     OW35179   4.136   2.813  11.215  0.3460  0.2136  0.7211
 7849SOL    HW135180   4.050   2.808  11.258 -1.2992  0.0157 -2.5860
 7849SOL    HW235181   4.140   2.908  11.202 -0.2110  0.0953 -0.2985
 7850SOL     OW35182   3.894   2.717  10.480  0.1063  0.0783  0.4491
 7850SOL    HW135183   3.870   2.625  10.488  0.0241  0.1170  0.6586
 7850SOL    HW235184   3.838   2.743  10.554  0.3699 -0.4219  0.8242
 7851SOL     OW35185   2.517   2.075   3.893 -0.3957  0.1143  0.0533
 7851SOL    HW135186   2.461   2.134   3.843 -1.0941 -0.3004  0.3376
 7851SOL    HW235187   2.457   2.000   3.895 -0.7461  0.3602 -1.0061
 7852SOL     OW35188   2.192   4.542  10.396  0.4559 -0.1690 -0.1508
 7852SOL    HW135189   2.276   4.536  10.442 -0.0128  0.3539  0.7661
 7852SOL    HW235190   2.205   4.517  10.304  0.4329 -1.8925  0.3151
 7853SOL     OW35191   3.658   0.431   5.234  0.3811 -0.2147 -0.1210
 7853SOL    HW135192   3.634   0.519   5.206  4.8690  1.3102  0.8633
 7853SOL    HW235193   3.619   0.389   5.157  0.5731  0.1549 -0.4195
 7854SOL     OW35194   1.527   2.809   5.763 -0.2910 -0.2819  0.2080
 7854SOL    HW135195   1.600   2.868   5.746 -0.8174  0.4789  0.6119
 7854SOL    HW235196   1.468   2.865   5.814  1.5901  0.6928  1.3063
 7855SOL     OW35197   3.393   0.496   3.520 -0.4468  0.0592  0.2738
 7855SOL    HW135198   3.413   0.500   3.426 -0.9973  1.8308  0.2471
 7855SOL    HW235199   3.408   0.404   3.542  0.4628 -0.0420 -0.7785
 7856SOL     OW35200   0.543   2.980  13.420  0.0451 -0.1718  0.5871
 7856SOL    HW135201   0.565   2.890  13.393 -2.9793 -0.9692  0.7695
 7856SOL    HW235202   0.545   2.960  13.514  0.9930 -0.5894  0.4806
 7857SOL     OW35203   0.769   3.738  14.589 -0.0854 -0.5086  0.2741
 7857SOL    HW135204   0.746   3.732  14.496 -1.4581 -2.8049  0.7701
 7857SOL    HW235205   0.732   3.826  14.601 -1.2589 -0.8629 -0.6931
 7858SOL     OW35206   4.628   4.431   6.136 -0.2192 -0.0602 -0.2173
 7858SOL    HW135207   4.640   4.350   6.085  1.2844  0.0632 -0.0573
 7858SOL    HW235208   4.649   4.496   6.069 -0.0932  0.0741 -0.0459
 7859SOL     OW35209   2.202   1.376   4.976  0.5496  0.6167  0.3277
 7859SOL    HW135210   2.185   1.453   5.030  2.4160  3.0038 -2.4899
 7859SOL    HW235211   2.216   1.414   4.889  1.0610  0.8821  0.5259
 7860SOL     OW35212   0.521   2.373  15.597  0.2862 -0.4766  0.2984
 7860SOL    HW135213   0.556   2.419  15.673  0.3677  0.3527 -0.2387
 7860SOL    HW235214   0.596   2.323  15.564 -0.4386 -1.9686  0.9087
 7861SOL     OW35215   2.999   3.136   3.169  0.2677  0.0367  0.0435
 7861SOL    HW135216   2.952   3.160   3.089  1.9798  0.4477 -0.8463
 7861SOL    HW235217   2.926   3.108   3.224 -0.1986 -1.5177 -1.3323
 7862SOL     OW35218   3.905   3.500   2.200 -0.2260  0.0468 -0.5819
 7862SOL    HW135219   3.945   3.491   2.113 -3.5742 -1.2111 -1.9723
 7862SOL    HW235220   3.951   3.437   2.257 -1.5776 -0.7822 -0.4167
 7863SOL     OW35221   2.690   0.104  11.925  0.4524 -0.0788 -0.1409
 7863SOL    HW135222   2.607   0.152  11.927  0.6351  0.2644 -0.5438
 7863SOL    HW235223   2.753   0.165  11.963 -1.5320  1.1162  1.1913
 7864SOL     OW35224   0.658   2.739   2.638 -0.4797 -0.0941  0.2231
 7864SOL    HW135225   0.595   2.672   2.612 -0.1374 -0.0241 -0.7959
 7864SOL    HW235226   0.635   2.809   2.578 -1.1054 -1.8316 -1.5439
 7865SOL     OW35227   1.131   0.754  14.696  0.9568  0.1356 -0.5751
 7865SOL    HW135228   1.224   0.773  14.708  0.9015 -0.9206  1.5299
 7865SOL    HW235229   1.129   0.700  14.617 -2.6072  0.7823 -0.9184
 7866SOL     OW35230   3.734   1.832   3.924  0.1201  0.2365  0.0427
 7866SOL    HW135231   3.762   1.922   3.908  2.4346 -0.0675  2.2819
 7866SOL    HW235232   3.684   1.806   3.846  2.6051  2.0021 -2.1445
 7867SOL     OW35233   2.648   2.717   6.663  0.2229 -0.3762 -0.2636
 7867SOL    HW135234   2.644   2.735   6.757  0.7693  0.1684 -0.3433
 7867SOL    HW235235   2.582   2.648   6.662 -2.3809  2.1414 -1.0671
 7868SOL     OW35236   2.498   0.492   8.066 -0.7060  0.0115  0.1811
 7868SOL    HW135237   2.453   0.524   7.988  1.2401  0.8841 -0.5782
 7868SOL    HW235238   2.480   0.563   8.128  2.3032  0.2262  0.8276
 7869SOL     OW35239   0.763   3.429   2.974  0.3601 -0.6979 -0.7265
 7869SOL    HW135240   0.690   3.374   2.945  0.1150 -1.6796  1.8116
 7869SOL    HW235241   0.730   3.440   3.063 -0.0787  1.8031 -1.1892
 7870SOL     OW35242   3.966   2.116   4.372  0.0118  0.1224 -0.2151
 7870SOL    HW135243   4.022   2.172   4.318  1.8894 -1.2767  0.3249
 7870SOL    HW235244   3.889   2.113   4.315  1.0087  1.0514 -1.6087
 7871SOL     OW35245   3.575   0.537  16.388 -0.2493 -0.1942  0.1307
 7871SOL    HW135246   3.515   0.510  16.318  2.6812  1.0684 -2.8839
 7871SOL    HW235247   3.541   0.480  16.458 -0.8719  0.1418  0.1063
 7872SOL     OW35248   2.231   4.017   0.808 -0.0340 -0.8343 -0.1045
 7872SOL    HW135249   2.322   4.008   0.778  0.8385  0.7504  2.0223
 7872SOL    HW235250   2.198   3.950   0.749 -1.2232 -1.4536  1.2716
 7873SOL     OW35251   3.491   3.622  15.548 -0.0687  0.0307 -0.2900
 7873SOL    HW135252   3.587   3.623  15.554 -0.3205  1.1306  3.1977
 7873SOL    HW235253   3.476   3.694  15.487  0.6395 -0.4788 -1.0849
 7874SOL     OW35254   2.527   3.578   6.782 -0.0374  0.6303  0.2748
 7874SOL    HW135255   2.488   3.649   6.731  0.1687 -0.5627 -1.5961
 7874SOL    HW235256   2.469   3.504   6.763  1.1452 -0.1370 -0.3970
 7875SOL     OW35257   1.803   1.370   3.465  0.4693  0.5167 -0.1284
 7875SOL    HW135258   1.738   1.398   3.530 -0.7061 -0.0440 -1.0541
 7875SOL    HW235259   1.879   1.361   3.522 -0.5074 -0.8030  0.9579
 7876SOL     OW35260   1.071   3.181  14.087  0.0234  0.0702  0.1259
 7876SOL    HW135261   1.129   3.167  14.012 -0.9701  0.5997 -0.7499
 7876SOL    HW235262   1.137   3.191  14.155 -0.3939 -0.1265  0.5561
 7877SOL     OW35263   1.538   3.379  16.849 -0.3372 -0.0826  0.1793
 7877SOL    HW135264   1.515   3.373  16.756 -1.8266 -1.4791  0.6351
 7877SOL    HW235265   1.540   3.474  16.860 -0.0760 -0.1896  1.0094
 7878SOL     OW35266   3.047   2.623   5.669  0.0262  0.3552 -0.6271
 7878SOL    HW135267   3.020   2.540   5.628  0.8888  0.5711 -1.6274
 7878SOL    HW235268   3.067   2.584   5.754 -1.5290  1.8126  0.4257
 7879SOL     OW35269   3.567   3.827   6.973 -0.4951  0.3174  0.4864
 7879SOL    HW135270   3.623   3.781   6.910  1.4865  2.7186  0.5184
 7879SOL    HW235271   3.573   3.917   6.942  0.6786  0.1714  0.3021
 7880SOL     OW35272   2.652   2.033   5.437 -0.5057  0.5258  0.6453
 7880SOL    HW135273   2.625   2.124   5.446  3.3899  1.7478 -0.1251
 7880SOL    HW235274   2.660   2.009   5.529  0.6365 -0.6287  0.2429
 7881SOL     OW35275   1.423   2.960   2.325  0.5099  0.1856  0.1040
 7881SOL    HW135276   1.412   2.873   2.287  3.2930  0.5600 -1.5390
 7881SOL    HW235277   1.333   2.987   2.343  0.5348 -0.5436  1.3024
 7882SOL     OW35278   2.057   4.459  15.092 -0.1244  0.1233 -0.1267
 7882SOL    HW135279   1.998   4.384  15.083  0.3776 -0.4806  1.4773
 7882SOL    HW235280   2.049   4.495  15.004 -0.7878 -0.5493 -0.3434
 7883SOL     OW35281   0.795   3.750   2.399  0.1157  0.3774  0.1140
 7883SOL    HW135282   0.884   3.751   2.436 -0.0697 -3.1176  0.6434
 7883SOL    HW235283   0.779   3.845   2.394 -3.0422 -0.3282 -2.9098
 7884SOL     OW35284   1.425   1.284   4.100 -0.0129  0.1696  0.3498
 7884SOL    HW135285   1.515   1.305   4.124  0.4899 -2.0223  0.4095
 7884SOL    HW235286   1.382   1.298   4.184 -1.5526 -0.9636 -0.2416
 7885SOL     OW35287   2.555   0.716   1.102  0.0511  0.2176 -0.4925
 7885SOL    HW135288   2.554   0.636   1.048 -1.0053  0.0479 -0.2235
 7885SOL    HW235289   2.563   0.675   1.188  1.1486 -0.6885 -1.0341
 7886SOL     OW35290   4.154   1.430  10.607 -0.4840 -0.0603  0.1923
 7886SOL    HW135291   4.088   1.389  10.664 -1.8865 -1.3431 -2.3452
 7886SOL    HW235292   4.188   1.487  10.676 -0.7934  0.7382 -0.3080
 7887SOL     OW35293   3.938   0.946   6.066 -0.4108 -0.8136 -0.7152
 7887SOL    HW135294   3.939   0.957   6.161 -2.8531 -0.4115 -0.7541
 7887SOL    HW235295   3.893   0.863   6.053  2.1998 -2.4634  0.7819
 7888SOL     OW35296   3.790   2.055   8.044  0.1830 -0.5850  0.7224
 7888SOL    HW135297   3.752   1.968   8.053  0.3987 -0.6409  1.0670
 7888SOL    HW235298   3.734   2.085   7.972  0.6403 -2.0361 -0.2386
 7889SOL     OW35299   2.234   2.163   1.425 -0.0630  0.3319 -0.2854
 7889SOL    HW135300   2.175   2.217   1.478 -0.1195 -1.1753  1.1912
 7889SOL    HW235301   2.283   2.117   1.492  0.4987 -0.6681 -1.3785
 7890SOL     OW35302   2.917   1.608   1.978 -0.1245  0.2073  0.0626
 7890SOL    HW135303   2.923   1.612   1.882 -2.7155 -2.0614 -0.1738
 7890SOL    HW235304   2.878   1.522   1.991  1.1904 -0.7296 -2.1801
 7891SOL     OW35305   3.386   3.380   7.295 -0.4836  0.5891  0.2790
 7891SOL    HW135306   3.428   3.364   7.379 -0.1212  2.7009  0.5022
 7891SOL    HW235307   3.427   3.459   7.260  0.3218 -0.4313 -1.0637
 7892SOL     OW35308   2.351   4.444  12.390 -0.0549  0.5103  0.4009
 7892SOL    HW135309   2.422   4.500  12.360  0.1195  0.4830  0.7553
 7892SOL    HW235310   2.356   4.378  12.321 -1.8631 -0.2774  1.0209
 7893SOL     OW35311   1.995   0.350   9.010 -0.8790  0.4939  0.0605
 7893SOL    HW135312   2.057   0.293   9.056 -0.5128 -0.9654 -2.2537
 7893SOL    HW235313   1.912   0.329   9.053 -1.2616 -0.5399 -1.1933
 7894SOL     OW35314   0.467   4.715   1.570  0.5960 -0.1272 -0.2324
 7894SOL    HW135315   0.545   0.027   1.592  0.3322 -0.2115  0.9431
 7894SOL    HW235316   0.427   0.041   1.512  1.5058 -0.9551 -1.7777
 7895SOL     OW35317   4.677   2.845  16.536  0.1556  0.2826  0.7499
 7895SOL    HW135318   4.614   2.796  16.588  1.3106 -1.1805  0.7792
 7895SOL    HW235319   4.667   2.937  16.559  3.4351  1.0789 -1.0476
 7896SOL     OW35320   1.868   2.232   8.039 -0.2717 -0.3347 -0.0950
 7896SOL    HW135321   1.878   2.143   8.071 -1.7162 -0.0557  1.0909
 7896SOL    HW235322   1.774   2.241   8.028 -0.1331  0.6348 -0.5070
 7897SOL     OW35323   4.651   4.196   5.979 -0.0399 -0.3908  0.2414
 7897SOL    HW135324   4.705   4.118   5.965  0.4555  0.1835 -1.0527
 7897SOL    HW235325   4.666   4.237   5.894  1.2232  0.6125  0.9591
 7898SOL     OW35326   1.772   4.611  13.531  0.2734 -0.3929  0.1670
 7898SOL    HW135327   1.849   4.557  13.510  0.7746 -0.8673  3.2404
 7898SOL    HW235328   1.759   4.656  13.448  0.2347 -1.5362 -0.4417
 7899SOL     OW35329   0.311   1.538   5.567  0.6471  0.4540  0.2441
 7899SOL    HW135330   0.285   1.558   5.657  0.8687 -2.8510  1.0632
 7899SOL    HW235331   0.296   1.443   5.572 -0.8433  0.6542 -0.5932
 7900SOL     OW35332   2.870   4.735   7.703  0.3496 -0.4636  0.4151
 7900SOL    HW135333   2.828   4.677   7.640  0.8648  1.7116 -1.9274
 7900SOL    HW235334   2.952   0.004   7.655 -0.9997  3.4684 -1.1837
 7901SOL     OW35335   1.203   3.865   3.258 -0.5429 -0.0987  0.2120
 7901SOL    HW135336   1.129   3.872   3.198  1.5855  1.8815 -2.1952
 7901SOL    HW235337   1.173   3.925   3.326  0.8631  1.7888 -0.8248
 7902SOL     OW35338   0.954   0.317   8.525  0.0873 -0.2491 -0.5557
 7902SOL    HW135339   1.039   0.360   8.520 -0.3398  0.8970  1.6250
 7902SOL    HW235340   0.956   0.265   8.606 -1.4362  0.9536  0.2594
 7903SOL     OW35341   3.586   2.767   0.491 -0.0278  0.0610 -0.2628
 7903SOL    HW135342   3.647   2.796   0.558 -0.4065  1.5411 -0.5542
 7903SOL    HW235343   3.627   2.687   0.456  1.7639  0.9024 -0.0733
 7904SOL     OW35344   2.070   0.391   3.567 -0.1789  0.6699 -0.0067
 7904SOL    HW135345   2.124   0.312   3.562  0.3549  1.0294  0.0586
 7904SOL    HW235346   2.037   0.383   3.657 -0.6228  1.9690 -0.0486
 7905SOL     OW35347   4.171   2.741  10.601  0.4354  0.2272  0.4501
 7905SOL    HW135348   4.173   2.739  10.506  1.1587  1.7326  0.4298
 7905SOL    HW235349   4.079   2.747  10.630 -0.2249  1.0878 -1.8394
 7906SOL     OW35350   2.715   0.411   1.346 -0.2701  0.2879  0.2960
 7906SOL    HW135351   2.677   0.429   1.260 -0.5049 -0.3250  0.2679
 7906SOL    HW235352   2.805   0.389   1.324 -0.0819  1.3869 -0.0406
 7907SOL     OW35353   2.078   1.363   5.859 -0.2064  0.0048  0.3804
 7907SOL    HW135354   2.104   1.442   5.813  1.2008 -0.1746  0.8662
 7907SOL    HW235355   1.994   1.341   5.818 -0.4179  1.5600 -0.0263
 7908SOL     OW35356   3.820   3.343   4.532  0.2603 -0.2628 -0.2000
 7908SOL    HW135357   3.746   3.328   4.475 -1.3316  0.9660  1.5448
 7908SOL    HW235358   3.808   3.279   4.603 -1.6784  0.2278 -0.1091
 7909SOL     OW35359   0.556   2.025  14.547  0.1926  0.5315  0.1843
 7909SOL    HW135360   0.502   1.955  14.511  1.4818  0.1386 -0.9922
 7909SOL    HW235361   0.639   2.016  14.501 -0.8519 -1.0211 -1.3833
 7910SOL     OW35362   2.251   4.214   9.017  0.5211 -0.0787 -0.3752
 7910SOL    HW135363   2.191   4.224   9.091  3.7322 -1.0352  2.3342
 7910SOL    HW235364   2.240   4.297   8.971 -2.1693  0.5635  1.4050
 7911SOL     OW35365   4.441   3.619   9.037  0.0660 -0.2286  0.2340
 7911SOL    HW135366   4.484   3.596   8.954 -1.3564 -0.6905 -0.3763
 7911SOL    HW235367   4.382   3.690   9.011  2.0169  1.2813 -0.0933
 7912SOL     OW35368   2.903   3.959  10.356  0.2334 -0.2430  0.3550
 7912SOL    HW135369   2.924   3.893  10.421  1.1288 -0.3898 -0.0792
 7912SOL    HW235370   2.842   3.905  10.306 -1.0216  0.9646  0.5737
 7913SOL     OW35371   0.741   1.978   8.099  0.4691  0.0639 -0.4357
 7913SOL    HW135372   0.649   1.953   8.099  0.4175  0.2813  0.3419
 7913SOL    HW235373   0.783   1.929   8.170  2.4566 -0.8296 -2.2238
 7914SOL     OW35374   0.535   1.508   3.854 -0.6513 -0.2634  0.4678
 7914SOL    HW135375   0.609   1.498   3.914  0.2396  0.0203 -0.5771
 7914SOL    HW235376   0.474   1.536   3.922 -1.7228  0.1064 -0.6441
 7915SOL     OW35377   1.809   3.734  16.082  0.4337  0.0837  0.0573
 7915SOL    HW135378   1.813   3.825  16.114  1.2529 -0.5060  1.6614
 7915SOL    HW235379   1.793   3.755  15.990  0.3134 -0.0762  0.0416
 7916SOL     OW35380   0.052   3.951   5.917  0.4894 -0.0059 -0.1283
 7916SOL    HW135381   0.061   3.948   5.822  0.6237 -1.6500 -0.0588
 7916SOL    HW235382   4.701   3.916   5.920 -0.4514  2.6289  2.2259
 7917SOL     OW35383   2.960   0.491   8.389 -0.4461 -0.0364  0.2323
 7917SOL    HW135384   2.950   0.547   8.466  1.3032  1.2672 -0.4936
 7917SOL    HW235385   2.904   0.534   8.324  1.2173 -0.0862 -1.2541
 7918SOL     OW35386   2.509   3.591   2.685 -0.1364  0.5575  0.0093
 7918SOL    HW135387   2.490   3.569   2.594 -1.2091  0.2294  0.3130
 7918SOL    HW235388   2.422   3.592   2.726  0.9101 -1.3658  2.2600
 7919SOL     OW35389   4.700   1.928   2.155 -0.3475 -0.2057 -0.6228
 7919SOL    HW135390   4.726   1.986   2.227  1.9097  0.0571 -1.6483
 7919SOL    HW235391   0.046   1.904   2.118 -0.0894  0.8779 -0.7180
 7920SOL     OW35392   2.493   1.448   3.356  0.8164  0.2228  0.1672
 7920SOL    HW135393   2.456   1.362   3.334  1.6255 -0.4306  1.3370
 7920SOL    HW235394   2.542   1.472   3.277  0.2281  0.3968 -0.1413
 7921SOL     OW35395   2.479   3.903   6.406 -0.0286 -0.4011 -0.5322
 7921SOL    HW135396   2.568   3.932   6.384 -0.5277  2.3698  1.0523
 7921SOL    HW235397   2.428   3.907   6.325  1.7866 -3.0005 -1.8097
 7922SOL     OW35398   1.234   4.135   2.877 -0.6097 -0.6683 -0.1416
 7922SOL    HW135399   1.259   4.069   2.941  0.4068  1.4331  1.6487
 7922SOL    HW235400   1.298   4.115   2.809 -0.9291 -0.0161 -0.6373
 7923SOL     OW35401   2.334   1.536   5.941 -0.3044  0.1427 -0.3409
 7923SOL    HW135402   2.313   1.624   5.974 -1.2307  1.0395 -3.3206
 7923SOL    HW235403   2.289   1.477   6.001 -0.9724  0.1025 -0.8842
 7924SOL     OW35404   4.593   0.413   5.490 -0.3117  0.4852  0.1866
 7924SOL    HW135405   4.647   0.471   5.436 -2.3636  1.1578 -1.1238
 7924SOL    HW235406   4.503   0.438   5.469 -0.4795  1.4628  2.0907
 7925SOL     OW35407   3.487   0.078   9.741  0.4373  0.1498 -0.4382
 7925SOL    HW135408   3.545   0.103   9.669  1.3139  0.1015  0.2512
 7925SOL    HW235409   3.416   0.142   9.746  0.3169 -0.0514  0.4813
 7926SOL     OW35410   2.011   4.232   8.507  0.2872  0.2309 -0.2252
 7926SOL    HW135411   2.085   4.175   8.528  1.9945  1.8377 -1.8559
 7926SOL    HW235412   2.032   4.309   8.559  3.4932 -0.6740 -0.1687
 7927SOL     OW35413   3.662   3.931   5.454 -0.0870  0.3689  0.5612
 7927SOL    HW135414   3.642   4.024   5.466  0.8112  0.6368 -0.0318
 7927SOL    HW235415   3.751   3.924   5.489  0.1110 -0.3610 -0.1079
 7928SOL     OW35416   0.620   4.396   8.535 -0.7943  0.2805 -0.3136
 7928SOL    HW135417   0.638   4.417   8.443  1.8332 -0.1760  0.0961
 7928SOL    HW235418   0.539   4.346   8.533 -0.5228 -0.1870  0.4207
 7929SOL     OW35419   0.007   1.542  17.359 -0.6337  0.0979 -0.0228
 7929SOL    HW135420   4.690   1.576  17.289 -1.5845  1.6666  1.4855
 7929SOL    HW235421   0.092   1.555  17.317 -0.1593 -3.1678 -0.0846
 7930SOL     OW35422   2.360   1.102   2.227  0.2420  0.5676  0.1106
 7930SOL    HW135423   2.327   1.189   2.203 -3.3810 -1.4311 -2.0262
 7930SOL    HW235424   2.443   1.133   2.265  0.8106 -1.2792  0.3503
 7931SOL     OW35425   0.415   3.291   1.832  0.0615 -0.1576  0.1734
 7931SOL    HW135426   0.387   3.200   1.838  0.0955 -0.1127  1.0789
 7931SOL    HW235427   0.473   3.303   1.908 -0.4910 -1.6671  0.8299
 7932SOL     OW35428   1.003   2.304   6.385  0.0703 -0.2066  0.2164
 7932SOL    HW135429   1.065   2.376   6.396 -1.5175  1.5326 -2.3493
 7932SOL    HW235430   0.932   2.346   6.336  0.9570  0.2936 -0.6242
 7933SOL     OW35431   1.265   0.716   5.389 -0.2836  0.0358  0.2136
 7933SOL    HW135432   1.216   0.775   5.446 -0.0819  1.1012 -0.7365
 7933SOL    HW235433   1.352   0.737   5.424 -0.2278  2.7774 -1.6414
 7934SOL     OW35434   1.066   0.675   5.693  0.4716 -0.4792  0.2248
 7934SOL    HW135435   1.078   0.664   5.787  0.1068 -0.5861  0.2580
 7934SOL    HW235436   1.001   0.746   5.694  0.6109 -0.3468 -0.1667
 7935SOL     OW35437   3.805   0.697  13.814  0.2180 -0.5985  0.1862
 7935SOL    HW135438   3.864   0.728  13.746 -1.3385  0.6165 -0.6179
 7935SOL    HW235439   3.868   0.703  13.886 -0.8797 -0.8536  1.1839
 7936SOL     OW35440   1.343   1.542   5.379 -0.0057 -0.2575  0.8373
 7936SOL    HW135441   1.268   1.507   5.427  0.5904 -2.4048  0.2226
 7936SOL    HW235442   1.348   1.630   5.416 -0.1906 -0.3943  1.1849
 7937SOL     OW35443   2.115   2.542   2.512  0.4361 -0.3492 -0.2098
 7937SOL    HW135444   2.171   2.569   2.585 -0.3617  0.2252  0.2022
 7937SOL    HW235445   2.089   2.625   2.471 -0.9788 -0.4146  0.5260
 7938SOL     OW35446   2.535   1.165  10.373 -0.3426  0.1802 -0.0260
 7938SOL    HW135447   2.622   1.204  10.384 -0.8841  1.6720 -1.1071
 7938SOL    HW235448   2.555   1.092  10.313 -1.6396  0.3204 -0.6166
 7939SOL     OW35449   3.071   2.721  12.302  0.5575  0.4860 -0.6765
 7939SOL    HW135450   3.145   2.690  12.250  0.7769 -0.5206  0.2391
 7939SOL    HW235451   3.108   2.784  12.365  2.4607 -0.7739 -0.5293
 7940SOL     OW35452   2.179   1.664  11.009  0.1174  0.6372  0.2538
 7940SOL    HW135453   2.193   1.678  10.915 -0.6305  0.3762  0.1012
 7940SOL    HW235454   2.265   1.660  11.050  0.2447 -1.3714 -0.2337
 7941SOL     OW35455   4.186   3.214  16.649 -0.2724 -0.2416 -0.0382
 7941SOL    HW135456   4.144   3.130  16.630  1.9368 -1.2929 -0.3047
 7941SOL    HW235457   4.141   3.274  16.590  1.2529  1.2984  0.3561
 7942SOL     OW35458   3.395   3.647   1.855  0.3416  0.4080 -0.0622
 7942SOL    HW135459   3.419   3.698   1.933 -1.1606 -1.6389  1.7433
 7942SOL    HW235460   3.308   3.686   1.843  0.3548  0.2543 -0.6351
 7943SOL     OW35461   2.975   1.751   6.269  0.1087 -0.1116 -0.1676
 7943SOL    HW135462   3.057   1.714   6.236 -0.3230 -0.1263 -1.2076
 7943SOL    HW235463   2.921   1.712   6.200 -0.6817 -1.4511  1.1980
 7944SOL     OW35464   1.049   1.298   8.510  0.3878  0.1908  0.5250
 7944SOL    HW135465   0.991   1.222   8.514 -0.0130  0.3805 -1.5885
 7944SOL    HW235466   1.124   1.245   8.538  0.7840  0.0712 -0.7914
 7945SOL     OW35467   0.352   0.740  14.827  0.6463  0.1882 -0.0034
 7945SOL    HW135468   0.305   0.747  14.910 -1.0766  1.3390 -1.0862
 7945SOL    HW235469   0.416   0.808  14.847  0.9092 -0.1338  0.2552
 7946SOL     OW35470   1.536   4.088   8.877  0.1969  0.6337  0.2262
 7946SOL    HW135471   1.613   4.034   8.895 -0.7156 -1.2125 -1.4124
 7946SOL    HW235472   1.523   4.102   8.971 -0.5385  2.4279 -0.1358
 7947SOL     OW35473   3.306   0.130  15.424  0.3807 -0.0121  0.5528
 7947SOL    HW135474   3.259   0.142  15.342 -0.8847 -3.3572  0.7571
 7947SOL    HW235475   3.329   0.218  15.454 -1.1765  0.3628  0.6845
 7948SOL     OW35476   1.298   4.253   9.331  0.7936 -0.4758  0.0152
 7948SOL    HW135477   1.229   4.286   9.274  0.3267  0.1842  0.9714
 7948SOL    HW235478   1.322   4.335   9.374  0.1701 -0.4545  0.3247
 7949SOL     OW35479   2.646   2.485  11.092 -0.6191  0.0936 -0.4059
 7949SOL    HW135480   2.574   2.447  11.041 -0.6764 -0.3589  0.0077
 7949SOL    HW235481   2.593   2.555  11.131 -0.1035 -1.2271  2.6619
 7950SOL     OW35482   3.291   0.970   0.058  0.1167 -0.4060 -0.2726
 7950SOL    HW135483   3.235   1.022   0.000 -1.1763 -1.3726  0.1074
 7950SOL    HW235484   3.254   0.883   0.045 -0.3155  0.1098 -2.4238
 7951SOL     OW35485   0.781   3.225  11.157 -0.1502 -0.2337 -0.4438
 7951SOL    HW135486   0.785   3.251  11.065 -1.2436 -1.2172 -0.7781
 7951SOL    HW235487   0.702   3.171  11.153 -0.3028 -0.1275  0.9100
 7952SOL     OW35488   4.623   4.306   6.452 -0.5336 -0.0721  0.5495
 7952SOL    HW135489   4.704   4.258   6.471 -0.0176  0.1883 -1.0156
 7952SOL    HW235490   4.636   4.347   6.367 -1.4775  1.9196  1.3522
 7953SOL     OW35491   3.994   4.326   3.975  0.1169  0.1739  0.3002
 7953SOL    HW135492   4.047   4.335   3.896 -2.5009  2.0576 -1.2355
 7953SOL    HW235493   3.920   4.272   3.947  1.9413 -0.9042 -2.4736
 7954SOL     OW35494   0.523   3.717   9.303 -0.4117 -0.2221  0.0906
 7954SOL    HW135495   0.547   3.719   9.210 -1.7346 -3.4770 -0.2975
 7954SOL    HW235496   0.472   3.636   9.305 -1.6900  0.5880  0.6254
 7955SOL     OW35497   1.211   2.571   4.624  0.0116 -0.2715  0.0599
 7955SOL    HW135498   1.132   2.525   4.598 -0.3042 -0.7086  1.7851
 7955SOL    HW235499   1.248   2.579   4.536 -0.1946  0.8807  0.0747
 7956SOL     OW35500   3.745   1.072   5.107  0.6427  0.7698 -0.2350
 7956SOL    HW135501   3.782   1.014   5.174  0.2205  0.1556 -0.5336
 7956SOL    HW235502   3.798   1.150   5.122  0.6971  0.6376  0.2618
 7957SOL     OW35503   3.676   1.814  13.605 -0.1615  0.1865 -0.8236
 7957SOL    HW135504   3.692   1.723  13.579 -1.0498 -0.7516  1.9859
 7957SOL    HW235505   3.683   1.865  13.524 -1.7553  1.7175 -0.0023
 7958SOL     OW35506   3.025   2.569   2.402 -0.2203 -0.2640  0.2464
 7958SOL    HW135507   3.047   2.656   2.368  4.2564 -1.1551  0.9754
 7958SOL    HW235508   2.939   2.555   2.361 -0.3629  2.3224 -0.3538
 7959SOL     OW35509   4.129   2.514  14.778  0.2034  0.3989  0.5785
 7959SOL    HW135510   4.041   2.553  14.785  0.3283  1.4214 -3.6396
 7959SOL    HW235511   4.101   2.425  14.758  1.7093  0.1170 -0.2116
 7960SOL     OW35512   3.961   2.027  17.552  0.4191  0.5765 -0.1981
 7960SOL    HW135513   3.968   2.119  17.576 -0.8005  0.8933 -1.0756
 7960SOL    HW235514   3.971   2.022  17.457 -1.0476  3.3393 -0.4810
 7961SOL     OW35515   3.724   4.411   8.494  0.2615  0.2551  0.1556
 7961SOL    HW135516   3.688   4.409   8.582 -0.9902  0.7799 -0.3432
 7961SOL    HW235517   3.651   4.412   8.432 -0.0126 -2.9456  0.4363
 7962SOL     OW35518   1.122   0.050   5.387  0.0216  0.0533  0.0724
 7962SOL    HW135519   1.055   0.001   5.339  0.0258 -0.1981  0.3183
 7962SOL    HW235520   1.064   0.076   5.459  0.6465 -1.7284  1.2327
 7963SOL     OW35521   2.988   2.313   6.727 -0.2592  0.0865 -0.5024
 7963SOL    HW135522   2.951   2.373   6.662 -0.1914  0.6036 -0.0647
 7963SOL    HW235523   3.073   2.352   6.750 -1.3680  1.3557  1.4933
 7964SOL     OW35524   1.974   3.444  14.358 -0.4838  0.6073 -0.0516
 7964SOL    HW135525   1.879   3.452  14.371 -0.0624  1.2800  2.5516
 7964SOL    HW235526   1.976   3.356  14.319 -1.9412  0.7140 -0.3857
 7965SOL     OW35527   1.434   0.024   4.338 -0.3362  0.0053 -0.1434
 7965SOL    HW135528   1.362   0.048   4.280 -1.5781  0.1594  1.4469
 7965SOL    HW235529   1.434   0.095   4.403  3.0193 -1.6936  1.6926
 7966SOL     OW35530   0.974   4.077  10.159 -0.4709 -0.5444  0.0216
 7966SOL    HW135531   1.054   4.113  10.196 -1.0825  0.3121  0.5035
 7966SOL    HW235532   0.963   4.134  10.083  0.1292 -0.7741 -0.2362
 7967SOL     OW35533   0.842   2.917   2.193 -0.7149  0.0822  0.2971
 7967SOL    HW135534   0.842   2.998   2.142 -2.1684  0.2903  0.6243
 7967SOL    HW235535   0.873   2.847   2.136 -1.7142 -1.6452  1.8607
 7968SOL     OW35536   0.588   2.800   1.370  0.4699  0.2018  0.8265
 7968SOL    HW135537   0.537   2.775   1.294  0.7015  1.9436  0.0925
 7968SOL    HW235538   0.678   2.785   1.339  0.0334  0.9030 -0.7477
 7969SOL     OW35539   1.110   2.320   8.340  0.2780  0.1101 -0.0564
 7969SOL    HW135540   1.114   2.415   8.344 -1.6458  0.1155  1.8039
 7969SOL    HW235541   1.031   2.300   8.290  0.7916  0.2042 -0.8978
 7970SOL     OW35542   0.814   2.138   2.391 -0.0496  0.3124  0.5226
 7970SOL    HW135543   0.780   2.057   2.356  1.0900 -0.9306  2.2766
 7970SOL    HW235544   0.850   2.168   2.308 -0.4911  1.6779  0.8181
 7971SOL     OW35545   0.074   4.313   4.797 -0.6864 -0.0893  0.2621
 7971SOL    HW135546   0.058   4.400   4.760 -0.2120  0.0395  0.3644
 7971SOL    HW235547   0.024   4.316   4.879  0.2376 -0.3874  0.8365
 7972SOL     OW35548   1.706   4.077   6.329  0.0039  0.3586  0.4623
 7972SOL    HW135549   1.769   4.012   6.362  0.0451  0.1750  0.0300
 7972SOL    HW235550   1.760   4.144   6.287  1.6180 -0.4318  1.2514
 7973SOL     OW35551   1.252   3.818   1.495  0.1491 -0.1381 -0.0786
 7973SOL    HW135552   1.324   3.755   1.508  1.4560  1.1510 -1.0471
 7973SOL    HW235553   1.267   3.858   1.409  0.9227  0.2763  0.2435
 7974SOL     OW35554   4.008   3.467  14.711 -0.3393 -0.3412 -0.0339
 7974SOL    HW135555   3.947   3.527  14.754 -1.1108  0.2019 -1.8853
 7974SOL    HW235556   3.985   3.481  14.619 -4.2549 -2.9644  0.5409
 7975SOL     OW35557   2.166   2.419   4.069 -0.1814 -0.1250 -0.6484
 7975SOL    HW135558   2.080   2.377   4.067 -0.1841 -0.0722 -1.8483
 7975SOL    HW235559   2.214   2.336   4.064  0.1455  0.1059 -1.3975
 7976SOL     OW35560   1.245   3.252   6.855 -0.0068  0.0880  0.0187
 7976SOL    HW135561   1.272   3.275   6.944 -2.8104  0.1973  0.8274
 7976SOL    HW235562   1.194   3.172   6.870 -0.3980  0.4449  0.5881
 7977SOL     OW35563   2.876   3.529  11.603 -0.2173  0.8131 -0.0920
 7977SOL    HW135564   2.786   3.550  11.630  0.5674  2.3686  1.3542
 7977SOL    HW235565   2.880   3.554  11.511 -0.2629 -1.8458 -0.7981
 7978SOL     OW35566   4.061   3.229   8.314  0.1118  0.3158 -0.2517
 7978SOL    HW135567   4.016   3.312   8.326 -2.5131 -1.0637 -0.6230
 7978SOL    HW235568   3.993   3.164   8.333  1.6176 -1.0589  0.4384
 7979SOL     OW35569   2.240   3.400   0.059 -0.3286  0.1728  0.7215
 7979SOL    HW135570   2.174   3.423   0.125 -0.4983  3.2438 -0.5239
 7979SOL    HW235571   2.197   3.337   0.002  2.1337  0.1377 -1.0985
 7980SOL     OW35572   0.027   1.290   6.012  0.0945 -0.0174 -0.0706
 7980SOL    HW135573   0.031   1.198   6.039  0.2154  0.1690  0.5314
 7980SOL    HW235574   0.021   1.292   5.916 -0.7392 -0.7417 -0.0334
 7981SOL     OW35575   0.329   2.619   5.881  0.2393 -0.5643  0.2472
 7981SOL    HW135576   0.265   2.548   5.884 -1.1555  0.6498 -0.3074
 7981SOL    HW235577   0.347   2.636   5.789  0.3051 -2.5986 -0.1191
 7982SOL     OW35578   2.154   2.821   6.316 -0.1242  0.3055  0.4211
 7982SOL    HW135579   2.127   2.912   6.303 -0.6096  0.4274  2.2899
 7982SOL    HW235580   2.233   2.826   6.370  1.1181 -1.3765 -1.2316
 7983SOL     OW35581   3.982   3.820   8.221  0.1729  0.3366 -0.4489
 7983SOL    HW135582   3.944   3.795   8.137  1.5559  0.0902 -0.9973
 7983SOL    HW235583   3.915   3.801   8.287  1.7526  0.1829  1.0862
 7984SOL     OW35584   2.498   1.068   5.979 -0.2479  0.0170 -0.4444
 7984SOL    HW135585   2.426   1.130   5.972  0.7433  1.1972 -0.2120
 7984SOL    HW235586   2.468   0.986   5.939  1.3712 -1.1795  0.7583
 7985SOL     OW35587   4.031   3.078   9.499 -0.3977  0.5738 -0.2576
 7985SOL    HW135588   4.059   3.131   9.573  0.4422 -0.5490  0.2218
 7985SOL    HW235589   4.085   3.000   9.506  1.3519  1.6311 -2.1947
 7986SOL     OW35590   2.131   3.963   5.656  0.1610 -0.6735  0.1688
 7986SOL    HW135591   2.224   3.950   5.636  0.0935  0.9385 -1.1471
 7986SOL    HW235592   2.093   3.932   5.574  2.4303  1.5373 -1.7128
 7987SOL     OW35593   1.126   0.061  17.361  0.2646 -0.1663  0.1253
 7987SOL    HW135594   1.067   0.062  17.286 -0.5536 -1.3728  0.7373
 7987SOL    HW235595   1.163   0.148  17.349 -0.7833  0.1991 -0.4297
 7988SOL     OW35596   1.760   4.280   8.007  0.7273 -0.1922  0.3621
 7988SOL    HW135597   1.760   4.375   7.999  0.1513 -0.0846  1.5266
 7988SOL    HW235598   1.853   4.256   8.013  1.2350  1.3249 -1.4400
 7989SOL     OW35599   4.715   0.511  16.764 -0.4718 -0.3355  0.4625
 7989SOL    HW135600   4.667   0.566  16.826  1.3544  0.0644  1.5215
 7989SOL    HW235601   0.061   0.489  16.801 -1.1277 -1.9741  0.9771
 7990SOL     OW35602   1.266   0.602   2.736  0.4809 -0.3263 -0.3048
 7990SOL    HW135603   1.345   0.562   2.698 -1.3152 -2.8257 -1.3567
 7990SOL    HW235604   1.289   0.592   2.828  1.5716  1.3909 -0.3802
 7991SOL     OW35605   3.645   0.689   8.691 -0.1813  0.0148 -0.0051
 7991SOL    HW135606   3.647   0.687   8.787  1.4493 -0.0228 -0.0373
 7991SOL    HW235607   3.588   0.617   8.664  0.6037  0.0397 -1.7181
 7992SOL     OW35608   3.663   3.677  12.652  0.2617  0.1672  0.8316
 7992SOL    HW135609   3.634   3.714  12.569 -0.6143 -0.8602  0.6820
 7992SOL    HW235610   3.748   3.719  12.663  0.8008 -0.1280 -2.2837
 7993SOL     OW35611   0.153   0.099  17.230  0.5861 -0.0630  0.5988
 7993SOL    HW135612   0.077   0.040  17.232  0.8888 -0.5042 -0.4797
 7993SOL    HW235613   0.214   0.038  17.271 -0.0360 -0.1330  1.4252
 7994SOL     OW35614   0.739   3.756   1.374  0.4239  0.0722  0.2992
 7994SOL    HW135615   0.813   3.794   1.325  1.1784 -1.0571  0.5607
 7994SOL    HW235616   0.707   3.833   1.422  0.6975  0.8042 -0.6879
 7995SOL     OW35617   0.712   3.937   9.947  0.5177 -0.3417 -0.2048
 7995SOL    HW135618   0.803   3.958   9.968  1.2256 -2.2455 -1.4675
 7995SOL    HW235619   0.706   3.842   9.959  0.8025 -0.4410 -0.8554
 7996SOL     OW35620   2.989   4.354   3.331 -0.2938  0.3673  0.3888
 7996SOL    HW135621   2.946   4.322   3.411  1.1298  0.1017  1.0506
 7996SOL    HW235622   3.057   4.411   3.365 -2.1851  2.1007  1.2690
 7997SOL     OW35623   0.510   3.535   5.593 -0.5498  0.8450  0.0584
 7997SOL    HW135624   0.540   3.569   5.677  0.5273 -2.4989  1.0509
 7997SOL    HW235625   0.580   3.474   5.570 -2.2609 -0.6813 -1.0942
 7998SOL     OW35626   2.556   1.488   8.702  0.0468  0.2287  0.2332
 7998SOL    HW135627   2.580   1.562   8.758  0.9485  0.2199 -0.1413
 7998SOL    HW235628   2.567   1.543   8.625 -0.7667  1.1833  0.7977
 7999SOL     OW35629   4.183   3.203   1.504  0.0233 -0.0451  0.0075
 7999SOL    HW135630   4.136   3.137   1.554 -0.6393 -0.8229 -1.6349
 7999SOL    HW235631   4.241   3.146   1.455  1.4838  0.4591  1.1380
 8000SOL     OW35632   2.967   1.212   8.439 -0.8360  0.4077  0.2580
 8000SOL    HW135633   2.984   1.246   8.351  1.1628 -1.3978 -0.0402
 8000SOL    HW235634   2.907   1.275   8.479  1.5225  3.6435 -1.2812
 8001SOL     OW35635   1.212   0.031  16.469 -0.2245 -0.5483  0.5143
 8001SOL    HW135636   1.124   4.734  16.485 -0.3165  0.4695  2.2709
 8001SOL    HW235637   1.197   0.100  16.405 -2.1100 -1.4830 -0.0526
 8002SOL     OW35638   3.583   2.610   2.972  0.3628 -0.3068  0.4645
 8002SOL    HW135639   3.659   2.614   2.914 -0.9784 -1.6851 -1.3856
 8002SOL    HW235640   3.623   2.572   3.051  0.9966 -1.6774 -0.5181
 8003SOL     OW35641   3.930   2.557   2.267  0.2270 -0.2178 -0.7845
 8003SOL    HW135642   4.004   2.521   2.316  0.2859  0.7886 -0.1277
 8003SOL    HW235643   3.856   2.498   2.283  1.2052 -1.6782 -1.7445
 8004SOL     OW35644   2.637   0.351   2.099 -0.1670  0.0152 -0.1932
 8004SOL    HW135645   2.628   0.305   2.182  4.1102 -1.3748 -0.5013
 8004SOL    HW235646   2.592   0.299   2.032 -1.4307 -0.0851  0.7292
 8005SOL     OW35647   4.055   1.696   2.978  0.2424  0.6686  0.5220
 8005SOL    HW135648   4.136   1.747   2.969  1.1814 -0.5400  2.1905
 8005SOL    HW235649   4.060   1.642   2.899  0.1535 -0.3809  1.2497
 8006SOL     OW35650   4.322   1.398   3.506  0.1190  0.1870  0.6485
 8006SOL    HW135651   4.231   1.416   3.481 -0.0505  0.9310  1.7758
 8006SOL    HW235652   4.332   1.419   3.599 -1.2354  0.7216  0.6748
 8007SOL     OW35653   4.268   3.646   1.879 -0.0523  0.1852  0.6318
 8007SOL    HW135654   4.328   3.646   1.805  1.2059  0.2454  1.6501
 8007SOL    HW235655   4.219   3.728   1.874  0.3887  0.5525  2.2151
 8008SOL     OW35656   0.527   4.540   5.406 -0.2137 -0.0142  0.0637
 8008SOL    HW135657   0.597   4.520   5.468 -0.6675  0.1911  0.6415
 8008SOL    HW235658   0.482   4.596   5.469  0.5526  1.3092 -0.5752
 8009SOL     OW35659   0.188   2.382  13.994 -0.0359  0.3185 -0.3602
 8009SOL    HW135660   0.202   2.458  14.050 -0.7214  1.4232 -1.7229
 8009SOL    HW235661   0.194   2.425  13.909 -2.2170  0.3268 -0.5109
 8010SOL     OW35662   4.148   3.071  12.205  0.1510  0.3325 -0.6501
 8010SOL    HW135663   4.059   3.097  12.226 -0.3917 -0.0653 -2.3728
 8010SOL    HW235664   4.134   2.979  12.180 -2.2107  0.7800 -0.9427
 8011SOL     OW35665   0.814   1.051   1.816  0.3541  0.0522 -0.3823
 8011SOL    HW135666   0.885   1.116   1.817 -0.5485  1.0493 -1.2349
 8011SOL    HW235667   0.769   1.056   1.900  1.3839  0.3712  0.1514
 8012SOL     OW35668   4.676   0.500   5.911 -0.2562  0.7231 -0.3942
 8012SOL    HW135669   4.648   0.440   5.842 -0.0252 -1.4815  1.4358
 8012SOL    HW235670   4.716   0.438   5.971 -0.4163  1.9593  1.0051
 8013SOL     OW35671   2.001   0.120   1.967 -1.0389  0.0908 -0.1777
 8013SOL    HW135672   1.965   0.043   1.921  0.7356 -1.6948  1.4427
 8013SOL    HW235673   1.942   0.124   2.042 -1.3843 -1.5592 -0.3417
 8014SOL     OW35674   3.617   0.803   6.564  0.6621  0.2244  0.0934
 8014SOL    HW135675   3.694   0.848   6.528  0.7997 -1.5482 -1.8794
 8014SOL    HW235676   3.560   0.870   6.599 -0.5036  1.0503 -3.3456
 8015SOL     OW35677   3.770   1.916  10.765 -0.1811 -0.7879  0.0672
 8015SOL    HW135678   3.832   1.875  10.824 -0.3554  1.4264  1.8105
 8015SOL    HW235679   3.802   2.001  10.733  0.6855 -0.9539  0.4988
 8016SOL     OW35680   1.383   4.723  12.796 -0.0497 -0.7137  0.1637
 8016SOL    HW135681   1.392   0.067  12.749 -2.4547 -1.2136 -1.1926
 8016SOL    HW235682   1.298   4.731  12.839  0.6196 -0.4984  1.4511
 8017SOL     OW35683   2.493   1.629   4.424  0.3948  0.0202 -0.1919
 8017SOL    HW135684   2.506   1.723   4.409 -2.0416  0.6950  1.9265
 8017SOL    HW235685   2.465   1.591   4.341 -1.0454  0.8577 -0.0931
 8018SOL     OW35686   2.811   1.022   2.413  0.5944 -0.0500 -0.2584
 8018SOL    HW135687   2.832   1.115   2.421 -1.5172 -0.0004  4.7714
 8018SOL    HW235688   2.894   1.000   2.456  0.8083  0.1817 -0.5554
 8019SOL     OW35689   4.204   3.577   8.288  0.1639  0.6549  0.0694
 8019SOL    HW135690   4.138   3.636   8.253  0.0401  2.3075  3.0964
 8019SOL    HW235691   4.165   3.571   8.376  1.2907  1.9912  0.6686
 8020SOL     OW35692   1.389   2.644  14.750  0.0019  0.7372  0.3292
 8020SOL    HW135693   1.422   2.629  14.839 -1.2924 -0.9517  0.5273
 8020SOL    HW235694   1.407   2.737  14.740  2.6472  0.3363  1.1822
 8021SOL     OW35695   1.691   3.331   7.768 -0.1652 -0.5814 -0.1441
 8021SOL    HW135696   1.641   3.252   7.753  2.0131 -1.7929 -1.0429
 8021SOL    HW235697   1.684   3.326   7.863 -1.3883 -1.1466 -0.2699
 8022SOL     OW35698   1.129   3.471   3.647  0.0920 -0.3867  0.3483
 8022SOL    HW135699   1.087   3.415   3.582 -1.5447 -0.0751  1.1330
 8022SOL    HW235700   1.164   3.403   3.704  0.6659  1.4398  2.1767
 8023SOL     OW35701   1.821   2.152   9.401  0.1392  0.3743 -0.2802
 8023SOL    HW135702   1.784   2.231   9.360  2.0911  1.2977 -0.2446
 8023SOL    HW235703   1.886   2.192   9.458  0.2861 -1.5950  0.9193
 8024SOL     OW35704   1.916   0.045   8.847 -0.3838 -0.1992  0.2434
 8024SOL    HW135705   1.957   4.725   8.910  1.2086 -0.4651 -1.0313
 8024SOL    HW235706   1.990   0.067   8.789  0.4154 -0.9118  0.9940
 8025SOL     OW35707   3.531   2.240   5.033 -0.7852  0.7514 -0.3013
 8025SOL    HW135708   3.518   2.326   4.993 -0.3541  0.7412 -0.4621
 8025SOL    HW235709   3.595   2.262   5.101 -0.5585  3.3093 -1.3349
 8026SOL     OW35710   4.169   3.068   4.966  0.6395  0.0165  0.1331
 8026SOL    HW135711   4.209   3.070   4.879  0.8606 -0.0149  0.2322
 8026SOL    HW235712   4.115   3.147   4.963  2.0455  1.0675  2.6729
 8027SOL     OW35713   0.612   1.182   3.057  0.1992  0.4625 -0.1885
 8027SOL    HW135714   0.611   1.264   3.106 -0.8062  1.8942 -2.6079
 8027SOL    HW235715   0.562   1.208   2.980 -0.2888 -0.9935 -0.3755
 8028SOL     OW35716   2.621   2.229   3.650 -0.4465  0.7562 -0.0322
 8028SOL    HW135717   2.575   2.218   3.733 -2.5878  1.1741 -1.1893
 8028SOL    HW235718   2.581   2.166   3.590 -0.0831  0.1016  0.4034
 8029SOL     OW35719   1.828   3.710   6.049 -0.1242  0.0506  0.4128
 8029SOL    HW135720   1.896   3.773   6.028 -1.3796  0.4634 -2.3745
 8029SOL    HW235721   1.874   3.631   6.079  0.5948  0.1765 -0.3691
 8030SOL     OW35722   4.182   0.783   8.327 -0.2419 -0.0884  0.2060
 8030SOL    HW135723   4.227   0.699   8.326 -1.6967 -0.8866  1.0080
 8030SOL    HW235724   4.261   0.834   8.347  1.0384 -1.1648 -2.2329
 8031SOL     OW35725   2.039   0.805  10.995  0.2889 -0.0744  0.7493
 8031SOL    HW135726   1.965   0.783  10.938  1.4438  0.3102 -0.8998
 8031SOL    HW235727   2.020   0.897  11.017 -0.4158 -0.3068  1.1198
 8032SOL     OW35728   2.406   4.112   7.273  0.5042 -0.1268  0.2176
 8032SOL    HW135729   2.366   4.025   7.264 -0.9644  0.2998  2.6474
 8032SOL    HW235730   2.474   4.102   7.339  2.1271  0.2687 -1.4101
 8033SOL     OW35731   3.807   3.070   4.370 -0.3930 -0.1016 -0.2313
 8033SOL    HW135732   3.782   3.108   4.454  0.8299  2.2316 -0.9187
 8033SOL    HW235733   3.898   3.099   4.370 -0.2639 -0.4905  0.9504
 8034SOL     OW35734   1.753   0.765  14.716 -0.6100 -1.3892  0.5368
 8034SOL    HW135735   1.765   0.845  14.666 -1.2155 -0.9875  1.0244
 8034SOL    HW235736   1.783   0.788  14.804  2.6603  0.5524 -1.0994
 8035SOL     OW35737   0.530   3.492  10.517 -0.1451  0.3318 -0.0775
 8035SOL    HW135738   0.523   3.499  10.422 -0.6711 -0.5805 -0.1105
 8035SOL    HW235739   0.571   3.577  10.531 -0.8284  0.7435 -0.6047
 8036SOL     OW35740   1.724   1.989   5.390  0.1140  0.1172  0.4114
 8036SOL    HW135741   1.635   1.976   5.358 -0.7320  1.9802  1.9747
 8036SOL    HW235742   1.730   2.083   5.411 -0.1227 -0.1107  1.4813
 8037SOL     OW35743   0.137   3.949  17.233 -0.1346 -0.0775 -0.0121
 8037SOL    HW135744   0.101   3.997  17.307  0.2375  2.5299 -1.5027
 8037SOL    HW235745   0.075   3.959  17.160  0.3603  1.5480 -0.2000
 8038SOL     OW35746   1.789   4.280   8.312 -0.0795 -0.3812  0.0319
 8038SOL    HW135747   1.884   4.286   8.320 -0.1535  1.2852 -0.3674
 8038SOL    HW235748   1.781   4.281   8.217  1.4434  0.5938 -0.0839
 8039SOL     OW35749   2.207   2.814   8.002  0.1109 -0.3287  0.2887
 8039SOL    HW135750   2.208   2.819   8.098 -1.2336  1.4982  0.2106
 8039SOL    HW235751   2.119   2.785   7.982 -0.2435 -0.0892  1.4888
 8040SOL     OW35752   3.717   3.049  16.426 -0.5146 -0.0170 -0.1217
 8040SOL    HW135753   3.663   3.037  16.348 -0.8946  0.1869  0.1089
 8040SOL    HW235754   3.698   3.141  16.443 -0.0077 -0.2945  1.9449
 8041SOL     OW35755   0.452   2.125   4.157 -0.6976  0.1090 -0.4570
 8041SOL    HW135756   0.510   2.059   4.118  1.2788  0.7369  1.4493
 8041SOL    HW235757   0.455   2.200   4.097  2.5269  0.0735 -0.2879
 8042SOL     OW35758   2.536   2.179  14.756  0.0270 -0.0503  0.0997
 8042SOL    HW135759   2.631   2.177  14.743 -0.2244 -1.0272 -1.6809
 8042SOL    HW235760   2.495   2.129  14.685  1.9107 -1.8285  0.2816
 8043SOL     OW35761   0.568   3.828   1.713  0.2548  0.4903  0.2906
 8043SOL    HW135762   0.641   3.771   1.737  0.3039  1.3735  2.2600
 8043SOL    HW235763   0.606   3.871   1.637  0.1324 -1.0506 -0.6355
 8044SOL     OW35764   4.443   4.227   7.486  0.2061 -0.3743  0.3656
 8044SOL    HW135765   4.363   4.214   7.436 -0.5987  0.3836  1.4681
 8044SOL    HW235766   4.414   4.290   7.552 -0.3798  0.7137 -0.9314
 8045SOL     OW35767   0.455   3.727  15.933 -0.5358 -0.2072 -0.2704
 8045SOL    HW135768   0.469   3.677  15.852  0.0304  3.0523 -2.1619
 8045SOL    HW235769   0.369   3.765  15.917 -1.8070 -2.4427  1.2765
 8046SOL     OW35770   2.655   3.029  11.233 -0.1658 -0.0954 -0.0380
 8046SOL    HW135771   2.736   2.996  11.272  0.6671 -1.3520 -2.8197
 8046SOL    HW235772   2.689   3.088  11.166  4.0239  0.5463  2.5857
 8047SOL     OW35773   0.869   2.350   8.654 -0.1254  0.3183 -0.5019
 8047SOL    HW135774   0.846   2.342   8.562  0.9042  0.8716 -0.8031
 8047SOL    HW235775   0.949   2.297   8.663  0.5300  1.3728 -0.0887
 8048SOL     OW35776   3.401   4.171   8.719 -0.4822 -0.1398 -0.2098
 8048SOL    HW135777   3.413   4.097   8.778  2.0574  0.7138  0.3529
 8048SOL    HW235778   3.467   4.150   8.653 -0.9428  0.1152 -0.7468
 8049SOL     OW35779   2.999   2.338   4.267  0.3966 -0.6812 -0.4533
 8049SOL    HW135780   2.969   2.304   4.352  1.5071 -1.6526 -0.4523
 8049SOL    HW235781   2.941   2.407   4.236  3.0146  2.3547  1.3809
 8050SOL     OW35782   0.617   1.470   2.377  0.2509 -0.2307  0.1744
 8050SOL    HW135783   0.554   1.534   2.410  0.4763  0.3357 -0.5097
 8050SOL    HW235784   0.578   1.391   2.415 -0.2628 -0.1372 -0.1633
 8051SOL     OW35785   2.124   3.439   7.720 -0.2651 -0.3800 -0.1540
 8051SOL    HW135786   2.094   3.387   7.794  2.0281  0.3204  1.2692
 8051SOL    HW235787   2.042   3.461   7.677 -0.4216 -1.4518 -0.3940
 8052SOL     OW35788   2.443   1.789   4.206  1.2066  0.1347 -0.0643
 8052SOL    HW135789   2.531   1.762   4.232  1.7619  1.0237 -1.0475
 8052SOL    HW235790   2.413   1.710   4.161  3.1413 -0.2123 -0.7341
 8053SOL     OW35791   0.075   4.332   7.374  0.0408 -0.0457 -0.1722
 8053SOL    HW135792   0.149   4.281   7.343  0.6678  2.6513 -3.0844
 8053SOL    HW235793   0.119   4.376   7.447  0.5446 -0.4253 -0.2483
 8054SOL     OW35794   3.262   0.856  17.287 -0.4361 -0.2698  0.2482
 8054SOL    HW135795   3.285   0.801  17.362  2.6136 -0.0313 -0.5489
 8054SOL    HW235796   3.180   0.895  17.318  0.0010 -0.2294  1.3713
 8055SOL     OW35797   1.310   4.725  16.708  0.3722  0.3812 -0.3299
 8055SOL    HW135798   1.404   4.710  16.705  0.6787  1.8546  1.7124
 8055SOL    HW235799   1.292   4.739  16.615 -1.5677  0.7743  0.1056
 8056SOL     OW35800   4.519   3.309  13.457  0.4187 -0.1417 -0.1132
 8056SOL    HW135801   4.534   3.402  13.438 -1.6395  0.5999  1.9030
 8056SOL    HW235802   4.583   3.295  13.527  1.0605  2.7654 -0.0856
 8057SOL     OW35803   3.524   0.493   2.129 -0.1864  0.2446  0.8053
 8057SOL    HW135804   3.551   0.444   2.206  2.7001  2.1136  0.9692
 8057SOL    HW235805   3.545   0.431   2.059  3.0414  3.3079 -0.9405
 8058SOL     OW35806   3.595   2.248   5.926 -0.1555  0.1419  0.0882
 8058SOL    HW135807   3.608   2.313   5.996  0.7089  0.6868 -0.5776
 8058SOL    HW235808   3.674   2.247   5.872  0.0002  1.8121  0.2752
 8059SOL     OW35809   1.770   1.021   5.429  0.0573 -0.4694  0.2792
 8059SOL    HW135810   1.803   0.936   5.460 -2.8310 -2.2272 -1.5268
 8059SOL    HW235811   1.843   1.049   5.373 -0.0259 -0.7552  0.0267
 8060SOL     OW35812   1.726   3.394   8.462  0.0997  0.1379  0.3554
 8060SOL    HW135813   1.722   3.387   8.367 -1.0557  0.4538  0.3893
 8060SOL    HW235814   1.792   3.326   8.478  1.2169  0.7742 -1.4925
 8061SOL     OW35815   1.094   4.349   4.218  0.0425 -0.2814 -0.0513
 8061SOL    HW135816   1.011   4.394   4.233 -0.0174 -1.2980  2.7350
 8061SOL    HW235817   1.158   4.420   4.206 -1.3271  0.9676  0.0413
 8062SOL     OW35818   2.151   4.576   5.550 -0.3704  0.5861 -0.2645
 8062SOL    HW135819   2.065   4.555   5.587 -1.0625  1.2689 -1.4721
 8062SOL    HW235820   2.139   4.554   5.457  1.8701  0.3906 -0.5072
 8063SOL     OW35821   1.713   4.377   9.981  0.7773  0.1236 -0.1214
 8063SOL    HW135822   1.710   4.469  10.006  1.9299  0.7864 -2.4726
 8063SOL    HW235823   1.676   4.328  10.055  0.7407  0.3663  0.0210
 8064SOL     OW35824   0.395   0.247  16.197 -1.0886  0.7271  0.4861
 8064SOL    HW135825   0.373   0.320  16.255 -0.3770  0.3514  1.2264
 8064SOL    HW235826   0.304   0.224  16.179 -1.3193  2.0903 -0.1297
 8065SOL     OW35827   4.505   3.642   6.946 -0.0931  0.1169  0.5328
 8065SOL    HW135828   4.409   3.637   6.940 -0.0942  0.8244 -0.0970
 8065SOL    HW235829   4.519   3.634   7.040 -2.2010  0.8435  0.9185
 8066SOL     OW35830   4.294   3.567  14.725 -0.6196  0.0544 -0.4948
 8066SOL    HW135831   4.311   3.577  14.818 -0.1697 -0.7580 -0.4874
 8066SOL    HW235832   4.200   3.582  14.721 -0.8365 -0.7116  1.8305
 8067SOL     OW35833   3.356   3.156  17.455 -0.2962 -0.4577  0.0501
 8067SOL    HW135834   3.407   3.154  17.374 -0.9310 -0.5815 -0.3482
 8067SOL    HW235835   3.343   3.251  17.446  1.2624 -0.0091  2.5514
 8068SOL     OW35836   3.896   2.720  12.601 -0.2220  0.2382 -0.1375
 8068SOL    HW135837   3.808   2.739  12.566 -1.0260 -0.2913  1.6229
 8068SOL    HW235838   3.949   2.720  12.521 -2.0092 -2.3184 -1.3454
 8069SOL     OW35839   3.310   2.311   1.706 -0.1636  0.6064  0.1881
 8069SOL    HW135840   3.323   2.379   1.772  2.5161  0.2979  0.0012
 8069SOL    HW235841   3.218   2.313   1.682 -0.3595  2.8065  1.1673
 8070SOL     OW35842   4.397   3.616   7.442  0.1780  0.1729  0.4688
 8070SOL    HW135843   4.336   3.611   7.516  1.7111  1.1983  1.8188
 8070SOL    HW235844   4.416   3.710   7.443 -0.0469  0.2350 -1.2010
 8071SOL     OW35845   1.361   2.492   2.050  0.6802 -0.2604 -0.3371
 8071SOL    HW135846   1.355   2.552   2.124 -1.7534  0.4945 -1.1404
 8071SOL    HW235847   1.456   2.488   2.039  0.4383 -1.4781 -2.0141
 8072SOL     OW35848   0.128   3.570   5.686 -0.5212  0.1964  0.1508
 8072SOL    HW135849   0.082   3.512   5.746  1.0046  0.7814  1.8983
 8072SOL    HW235850   0.144   3.508   5.615 -0.7402 -0.1129  0.3727
 8073SOL     OW35851   2.842   2.894   9.368 -0.6053 -0.8629 -0.2813
 8073SOL    HW135852   2.791   2.861   9.294 -0.7129  1.0938 -1.0715
 8073SOL    HW235853   2.789   2.868   9.443  0.4555 -0.1932  0.7048
 8074SOL     OW35854   3.292   3.358   4.541  0.4797 -0.2131  0.0912
 8074SOL    HW135855   3.277   3.393   4.452  1.0023 -3.2729 -1.1832
 8074SOL    HW235856   3.383   3.329   4.545  0.3366 -0.4621  1.4503
 8075SOL     OW35857   2.165   4.672  11.988 -0.3358 -0.2284 -0.7563
 8075SOL    HW135858   2.085   4.714  12.020 -0.5992 -1.5874  0.3595
 8075SOL    HW235859   2.227   4.719  12.044  1.4154 -3.0469 -0.3581
 8076SOL     OW35860   0.781   2.902  12.319 -0.1566  0.0482  0.2138
 8076SOL    HW135861   0.779   2.994  12.346 -2.4623 -0.4447  1.6888
 8076SOL    HW235862   0.875   2.886  12.328 -0.5531 -1.5204  1.5784
 8077SOL     OW35863   3.048   0.354   7.890  0.1698 -0.9049  0.3350
 8077SOL    HW135864   2.973   0.305   7.925  0.0358 -0.1557  1.0816
 8077SOL    HW235865   3.070   0.416   7.959  2.5733  0.2406 -1.4864
 8078SOL     OW35866   2.171   4.676   3.706 -0.0989 -0.9859 -0.7452
 8078SOL    HW135867   2.115   4.607   3.671  1.0898 -1.8699 -0.9112
 8078SOL    HW235868   2.254   4.631   3.719 -0.8072 -1.4578  2.1638
 8079SOL     OW35869   1.485   2.467   9.183 -0.0242  0.3232 -0.5580
 8079SOL    HW135870   1.566   2.433   9.222 -0.2809  2.0879  1.5209
 8079SOL    HW235871   1.507   2.554   9.152 -0.3582  0.7032  0.2645
 8080SOL     OW35872   2.443   3.917   1.769 -0.4670 -0.3379  0.4369
 8080SOL    HW135873   2.465   3.825   1.774  0.4342 -0.0337  1.9691
 8080SOL    HW235874   2.404   3.918   1.857 -0.9532  1.3724  0.2022
 8081SOL     OW35875   0.588   3.041   8.991 -0.3256 -0.5306 -0.4691
 8081SOL    HW135876   0.663   2.991   9.022 -1.1308  0.0200  2.3565
 8081SOL    HW235877   0.604   3.052   8.897  0.2069 -3.5522 -0.7474
 8082SOL     OW35878   3.848   2.597   7.595  0.0400 -0.4084  0.1310
 8082SOL    HW135879   3.906   2.534   7.638  0.8507  0.3817  0.1911
 8082SOL    HW235880   3.763   2.554   7.589  0.3006 -0.9492  0.3593
 8083SOL     OW35881   4.002   3.148   2.152 -0.1487 -0.0647 -0.1147
 8083SOL    HW135882   3.995   3.181   2.062 -0.0442  1.5993  0.4880
 8083SOL    HW235883   3.908   3.143   2.167 -0.2535  0.7064 -0.5385
 8084SOL     OW35884   4.220   2.709  14.068  0.2061  0.1946 -0.5988
 8084SOL    HW135885   4.240   2.621  14.037 -2.1521  0.2854 -2.4132
 8084SOL    HW235886   4.222   2.701  14.163  1.4396  0.6043 -0.5921
 8085SOL     OW35887   0.503   0.557   2.713 -0.2410 -0.1217 -0.2270
 8085SOL    HW135888   0.416   0.590   2.691 -0.2650 -0.1058 -0.1098
 8085SOL    HW235889   0.533   0.522   2.629 -0.9020  0.6501 -0.7842
 8086SOL     OW35890   0.956   3.079   4.689 -0.1029 -0.3855  0.5418
 8086SOL    HW135891   0.914   2.993   4.692 -0.9991  0.0706  1.2568
 8086SOL    HW235892   0.884   3.141   4.700 -1.4192 -1.9795  0.9067
 8087SOL     OW35893   3.001   1.571   7.095  0.4287  0.0839 -0.1701
 8087SOL    HW135894   2.997   1.664   7.075  0.4749  0.2913  0.8062
 8087SOL    HW235895   2.942   1.562   7.169  2.3893 -1.8777  1.1904
 8088SOL     OW35896   0.470   2.881  13.656 -0.1941  0.2050  0.0072
 8088SOL    HW135897   0.456   2.806  13.713 -2.4716  0.8767  0.3318
 8088SOL    HW235898   0.500   2.942  13.724 -3.6585 -0.3326  1.9895
 8089SOL     OW35899   1.483   1.477   8.217  0.0483  0.0613 -0.1942
 8089SOL    HW135900   1.391   1.449   8.216  0.2577 -0.6293 -0.2391
 8089SOL    HW235901   1.524   1.400   8.176  0.2703 -0.1641  0.4625
 8090SOL     OW35902   0.985   4.710   8.612  0.0012 -0.5027 -0.8771
 8090SOL    HW135903   0.956   0.049   8.659  2.3976 -1.6411  2.5090
 8090SOL    HW235904   1.078   4.719   8.631 -0.0692 -1.5238 -0.0458
 8091SOL     OW35905   2.612   4.480   3.869 -0.4125  0.2160 -0.1925
 8091SOL    HW135906   2.684   4.501   3.809 -0.8943 -0.7667 -1.1138
 8091SOL    HW235907   2.549   4.550   3.856  0.9062  1.4901  0.2689
 8092SOL     OW35908   4.074   2.862  11.819 -0.5056  0.7942 -0.2623
 8092SOL    HW135909   4.111   2.778  11.793 -1.9886 -0.2054  0.8541
 8092SOL    HW235910   4.028   2.849  11.902  0.9296 -3.6427 -0.1922
 8093SOL     OW35911   3.684   1.548  10.475  0.0650  0.5075 -0.5918
 8093SOL    HW135912   3.739   1.495  10.533 -2.4797 -2.9435 -1.3558
 8093SOL    HW235913   3.725   1.533  10.389 -0.8650  1.7647 -1.2692
 8094SOL     OW35914   2.528   3.511   5.484 -0.3116 -0.2013 -0.1247
 8094SOL    HW135915   2.545   3.438   5.424 -2.7017 -0.4271 -0.5051
 8094SOL    HW235916   2.544   3.579   5.418  0.8979 -2.4539 -2.1378
 8095SOL     OW35917   2.639   4.507  16.431  0.4934 -0.5286 -0.0801
 8095SOL    HW135918   2.653   4.412  16.436 -1.8487 -0.7711  2.2429
 8095SOL    HW235919   2.635   4.529  16.338 -1.3449 -4.7437 -1.0037
 8096SOL     OW35920   4.080   1.889   7.138  0.3736 -0.0704  0.1578
 8096SOL    HW135921   4.010   1.945   7.170 -0.1651 -0.6916  0.0841
 8096SOL    HW235922   4.120   1.953   7.080  0.9418 -1.4077 -0.9359
 8097SOL     OW35923   0.970   3.420   4.006  0.6489  0.5511 -0.3392
 8097SOL    HW135924   1.006   3.508   4.012  1.9642  0.0751 -1.3061
 8097SOL    HW235925   0.890   3.444   3.959 -0.2373 -0.6035  0.5503
 8098SOL     OW35926   4.554   1.939   8.314 -0.0566  0.2429 -0.3164
 8098SOL    HW135927   4.615   1.865   8.311 -0.1686  0.2084 -1.5361
 8098SOL    HW235928   4.548   1.946   8.410  0.1647 -1.1217 -0.2001
 8099SOL     OW35929   4.708   3.201   6.476 -0.2178  0.6344  0.2148
 8099SOL    HW135930   4.650   3.222   6.403  2.1469  0.0902 -1.8322
 8099SOL    HW235931   4.668   3.130   6.526  0.8380 -1.0145 -1.2676
 8100SOL     OW35932   0.639   1.603   5.730 -0.1657 -0.6479  0.5992
 8100SOL    HW135933   0.691   1.549   5.790 -0.1786  1.6293  2.6578
 8100SOL    HW235934   0.569   1.626   5.791 -0.5613  1.7314 -0.7767
 8101SOL     OW35935   4.218   0.973   4.702 -0.3353 -0.2242 -0.2428
 8101SOL    HW135936   4.214   1.029   4.779  0.8182 -2.6731  1.6084
 8101SOL    HW235937   4.293   1.008   4.655  0.4282  0.6559  1.6242
 8102SOL     OW35938   4.465   0.970   9.295  0.5779  0.0419 -0.1871
 8102SOL    HW135939   4.481   1.064   9.301  2.6508 -0.2812 -0.7038
 8102SOL    HW235940   4.370   0.971   9.291  0.5591  0.8662  0.4324
 8103SOL     OW35941   3.670   4.473   3.932  0.1816  0.9016 -0.2266
 8103SOL    HW135942   3.641   4.420   3.857  0.1235 -0.3428  0.6763
 8103SOL    HW235943   3.605   4.542   3.921 -1.2735 -0.4576 -0.0841
 8104SOL     OW35944   2.847   3.084   5.048  0.9498 -0.1321  0.4678
 8104SOL    HW135945   2.792   3.144   4.997  0.9761 -1.1468 -0.7643
 8104SOL    HW235946   2.911   3.144   5.086 -1.0561  0.6028  2.7210
 8105SOL     OW35947   3.354   2.007   7.614  0.3124  0.1902  0.4266
 8105SOL    HW135948   3.333   1.930   7.561  1.7639  1.4769 -1.9941
 8105SOL    HW235949   3.262   2.034   7.612 -0.0895 -1.3202 -1.2856
 8106SOL     OW35950   3.270   0.592   2.109 -0.1894 -0.1849 -0.0173
 8106SOL    HW135951   3.256   0.602   2.015  2.8522 -3.0579 -0.7868
 8106SOL    HW235952   3.351   0.543   2.123 -0.3630 -0.5477 -0.2956
 8107SOL     OW35953   2.551   1.838   8.663  0.7496  0.2426 -0.4323
 8107SOL    HW135954   2.470   1.817   8.708  0.5346 -0.3708 -1.1098
 8107SOL    HW235955   2.622   1.814   8.724  0.5388 -0.1209 -0.3294
 8108SOL     OW35956   1.584   2.902   0.162  0.6671  0.3178 -0.2412
 8108SOL    HW135957   1.604   2.871   0.073 -0.9699  2.5833 -1.4135
 8108SOL    HW235958   1.639   2.835   0.201 -0.8213 -0.4057  0.5934
 8109SOL     OW35959   3.025   3.619  13.097 -0.6382 -0.2284 -0.1004
 8109SOL    HW135960   3.083   3.616  13.173 -1.7947 -0.3717  0.7763
 8109SOL    HW235961   2.940   3.607  13.137  0.5781  0.8806  2.7893
 8110SOL     OW35962   4.388   1.096   6.133  0.0910 -0.5786 -0.0818
 8110SOL    HW135963   4.422   1.184   6.143  0.5380 -1.0249  2.4184
 8110SOL    HW235964   4.315   1.115   6.074  1.6498  2.3195 -1.0502
 8111SOL     OW35965   3.713   3.933   5.185  0.7548 -0.0416  0.5914
 8111SOL    HW135966   3.754   3.849   5.167  3.6728  1.5851 -0.4193
 8111SOL    HW235967   3.690   3.924   5.277  0.1351  1.3014  0.5766
 8112SOL     OW35968   3.835   1.701   7.331 -0.3377  0.1831  0.2170
 8112SOL    HW135969   3.742   1.694   7.309 -0.0837 -1.1747 -0.4187
 8112SOL    HW235970   3.870   1.720   7.244  2.0372  0.2236  1.1884
 8113SOL     OW35971   3.428   3.978   3.900 -0.0151 -0.5409  0.5259
 8113SOL    HW135972   3.512   3.935   3.880 -0.6624 -1.2761 -0.6048
 8113SOL    HW235973   3.421   4.049   3.837 -0.4156 -2.0772 -1.1877
 8114SOL     OW35974   0.062   3.385   9.841 -0.1478 -0.6705 -0.2365
 8114SOL    HW135975   0.101   3.423   9.920 -0.7957  3.5793 -1.9735
 8114SOL    HW235976   0.033   3.462   9.793  1.8761 -0.3998 -1.0112
 8115SOL     OW35977   3.719   3.389   3.755 -0.4528  0.4554  0.0563
 8115SOL    HW135978   3.644   3.336   3.781 -1.4136  1.4947 -0.5987
 8115SOL    HW235979   3.722   3.368   3.662 -2.7681  0.3057  0.0080
 8116SOL     OW35980   3.356   1.337   3.650 -0.0510 -0.9273 -0.8586
 8116SOL    HW135981   3.432   1.320   3.593  1.0249 -2.0495  0.9109
 8116SOL    HW235982   3.287   1.281   3.613 -0.6497 -1.7361  1.4771
 8117SOL     OW35983   1.784   1.026   4.124  0.0639  0.2489  0.3053
 8117SOL    HW135984   1.877   1.004   4.132 -0.4134 -2.0547 -0.3903
 8117SOL    HW235985   1.758   0.982   4.044 -0.8141  0.3378  0.5359
 8118SOL     OW35986   3.034   1.459   4.407 -0.1733 -0.1329  0.2082
 8118SOL    HW135987   3.023   1.542   4.359  0.8977  1.5657  2.8971
 8118SOL    HW235988   3.121   1.476   4.444 -1.0026 -0.7189  2.3861
 8119SOL     OW35989   3.447   1.454  12.790 -0.0212  0.5036  0.4301
 8119SOL    HW135990   3.448   1.484  12.699  0.6265  0.6346  0.4862
 8119SOL    HW235991   3.519   1.391  12.791 -1.3538 -0.9562  4.2813
 8120SOL     OW35992   3.095   1.105   6.813  0.2856 -0.3968 -0.1139
 8120SOL    HW135993   3.113   1.187   6.767  0.8584 -0.6755 -0.3807
 8120SOL    HW235994   3.047   1.064   6.741 -0.1638  0.3196 -0.2221
 8121SOL     OW35995   0.201   3.674   9.792 -0.1208 -0.6907  0.3458
 8121SOL    HW135996   0.247   3.594   9.817 -0.6003 -0.7263  1.1217
 8121SOL    HW235997   0.235   3.689   9.704  1.3291  1.5343  1.2714
 8122SOL     OW35998   1.070   1.556   7.096  0.0781 -0.0310  0.3617
 8122SOL    HW135999   1.139   1.605   7.140 -0.7397 -0.5421  2.2164
 8122SOL    HW236000   1.062   1.604   7.013 -0.9885  0.0612  0.5227
 8123SOL     OW36001   1.173   4.087  14.155 -0.4561  0.1978 -0.1163
 8123SOL    HW136002   1.198   4.029  14.083 -1.8928 -1.1488  0.4864
 8123SOL    HW236003   1.244   4.151  14.151  0.4731 -0.8613 -0.5326
 8124SOL     OW36004   4.719   0.365   1.031  0.2584  0.7786  0.2558
 8124SOL    HW136005   4.699   0.276   1.003  0.5362  0.0946  2.2398
 8124SOL    HW236006   4.659   0.410   0.971  0.1422  1.7001  1.0787
 8125SOL     OW36007   3.769   4.421   8.200  0.1989  0.6100  0.2223
 8125SOL    HW136008   3.713   4.416   8.277  1.0666  1.1527  0.8886
 8125SOL    HW236009   3.795   4.513   8.193 -0.6706  0.7109 -1.6446
 8126SOL     OW36010   2.623   3.559   7.058 -0.3778  0.5814  0.2805
 8126SOL    HW136011   2.579   3.552   6.974  1.5262 -0.6223 -0.6267
 8126SOL    HW236012   2.548   3.545   7.115  0.6174 -1.4349  1.1213
 8127SOL     OW36013   1.689   4.706   6.254  0.2014 -0.0315 -0.1702
 8127SOL    HW136014   1.728   0.006   6.176 -0.3972 -1.1446 -1.0265
 8127SOL    HW236015   1.769   4.721   6.305  0.6114  2.3715 -1.5110
 8128SOL     OW36016   3.881   2.235   2.716  0.5443 -0.8135  0.1500
 8128SOL    HW136017   3.890   2.166   2.781  0.7973  0.3948  1.4025
 8128SOL    HW236018   3.866   2.317   2.763 -0.5768 -0.5361 -0.6950
 8129SOL     OW36019   1.943   3.818  14.622 -0.2848 -0.7592 -1.0993
 8129SOL    HW136020   1.926   3.908  14.649  3.4888 -0.8303  1.4704
 8129SOL    HW236021   2.026   3.799  14.665 -0.0034 -1.0805 -1.7907
 8130SOL     OW36022   0.436   2.095   8.717  0.1074 -0.0325 -0.0505
 8130SOL    HW136023   0.440   2.186   8.688  1.3312  1.1230  3.7500
 8130SOL    HW236024   0.413   2.107   8.809 -0.3334  1.6036 -0.3669
 8131SOL     OW36025   4.263   1.427   1.684 -0.1267 -0.0395  0.0508
 8131SOL    HW136026   4.318   1.349   1.679  1.4258  0.9561  1.2190
 8131SOL    HW236027   4.314   1.492   1.635  1.1431  1.2252  3.0412
 8132SOL     OW36028   0.451   2.420   2.883 -0.9148  0.4613 -0.0532
 8132SOL    HW136029   0.416   2.499   2.924 -2.1833 -0.8086  1.3007
 8132SOL    HW236030   0.475   2.457   2.798 -1.5382  1.2940  0.1314
 8133SOL     OW36031   1.148   2.433   5.539 -0.2351 -0.0367  0.0042
 8133SOL    HW136032   1.077   2.374   5.563  0.6226 -0.1136  2.3273
 8133SOL    HW236033   1.173   2.399   5.453  3.1920  1.6772  0.3082
 8134SOL     OW36034   0.164   2.240   7.875  0.1178 -0.3343  0.1858
 8134SOL    HW136035   0.127   2.315   7.921  1.1404  0.9134 -1.0275
 8134SOL    HW236036   0.168   2.276   7.786  0.6256  0.2595  0.4517
 8135SOL     OW36037   0.148   2.601  10.113  0.2307 -0.0723 -0.0936
 8135SOL    HW136038   0.179   2.689  10.091 -2.3024  1.5534  2.8423
 8135SOL    HW236039   0.094   2.628  10.187  0.2979  1.9623 -0.7914
 8136SOL     OW36040   0.139   2.016   8.422 -0.0702 -0.2797 -0.1566
 8136SOL    HW136041   0.095   2.096   8.450  0.1732  0.0988 -0.8633
 8136SOL    HW236042   0.134   2.041   8.330  1.0269 -2.3689 -0.7832
 8137SOL     OW36043   0.329   3.652   2.303  0.2639  0.8030  0.1425
 8137SOL    HW136044   0.296   3.742   2.295  1.7623  1.3964  0.4683
 8137SOL    HW236045   0.310   3.630   2.212  2.5278  0.6399 -0.2823
 8138SOL     OW36046   0.930   4.494   4.893 -0.4696  0.4922 -0.4504
 8138SOL    HW136047   0.871   4.427   4.928 -1.6411  1.7884  0.0214
 8138SOL    HW236048   0.978   4.518   4.972 -1.4690 -3.0622  1.2430
 8139SOL     OW36049   1.782   3.985  12.261 -0.2135 -0.5345  0.1919
 8139SOL    HW136050   1.766   4.039  12.339 -0.0081  1.2045 -0.9862
 8139SOL    HW236051   1.703   4.007  12.212  0.4748 -0.2913 -0.7902
 8140SOL     OW36052   1.481   1.683   4.247 -0.4951  0.2778  0.0924
 8140SOL    HW136053   1.557   1.694   4.304  0.4229  1.0560 -1.2494
 8140SOL    HW236054   1.465   1.590   4.264 -1.2741  0.6321  1.2608
 8141SOL     OW36055   2.878   4.220  12.338 -0.1418  0.3775 -0.3829
 8141SOL    HW136056   2.916   4.138  12.372 -2.2253 -0.6065 -0.4313
 8141SOL    HW236057   2.888   4.198  12.246 -2.7596 -1.0884 -0.3072
 8142SOL     OW36058   4.289   1.435   4.747 -0.1962  0.6420 -1.0094
 8142SOL    HW136059   4.256   1.417   4.835  1.6383  1.8485 -0.0774
 8142SOL    HW236060   4.379   1.406   4.762 -0.0898  0.0910 -2.7567
 8143SOL     OW36061   3.349   2.268   8.102 -0.0194  0.6124  0.0590
 8143SOL    HW136062   3.403   2.226   8.035 -2.2499  0.3017 -1.5615
 8143SOL    HW236063   3.257   2.243   8.091  0.4196 -0.6618 -0.6213
 8144SOL     OW36064   3.257   1.389   9.133 -0.0799 -0.3823  0.4879
 8144SOL    HW136065   3.183   1.448   9.145  0.0290  0.0518 -1.0257
 8144SOL    HW236066   3.311   1.406   9.056  2.0557 -0.7290  1.8839
 8145SOL     OW36067   4.369   4.352  16.945 -0.0594  0.1734  0.2282
 8145SOL    HW136068   4.291   4.361  17.000 -0.4618 -1.5845 -0.0649
 8145SOL    HW236069   4.338   4.406  16.873 -0.1814  0.8531  0.7846
 8146SOL     OW36070   0.143   4.582   8.583 -0.1735  0.7331  0.0168
 8146SOL    HW136071   0.160   4.560   8.674  0.4563  3.7416  0.5990
 8146SOL    HW236072   0.223   4.630   8.561 -0.3407  0.2640 -1.6588
 8147SOL     OW36073   3.728   2.495   3.176 -0.9277  0.0613  0.3797
 8147SOL    HW136074   3.800   2.534   3.127 -0.6841  1.0459  1.5095
 8147SOL    HW236075   3.764   2.487   3.264 -0.2827 -1.9912 -0.0928
 8148SOL     OW36076   0.168   2.291   3.205  0.3944 -0.1235 -0.1455
 8148SOL    HW136077   0.263   2.301   3.205  0.2026  1.6381 -0.6515
 8148SOL    HW236078   0.126   2.364   3.160  2.2642  0.2889 -1.1969
 8149SOL     OW36079   0.637   2.113  12.630 -0.0161 -0.1968 -0.1988
 8149SOL    HW136080   0.560   2.168  12.614  0.7363  0.9729  0.1465
 8149SOL    HW236081   0.606   2.089  12.717  1.7265 -0.1461  0.4396
 8150SOL     OW36082   0.458   4.738   8.119  0.2678  0.1758 -0.5824
 8150SOL    HW136083   0.499   4.695   8.044  1.5251 -0.6210  0.5557
 8150SOL    HW236084   0.507   4.700   8.192 -3.1594 -0.3275  1.4342
 8151SOL     OW36085   4.024   0.211  10.665  0.5007 -0.3341 -0.2093
 8151SOL    HW136086   4.032   0.116  10.666 -1.4453 -0.4830  0.7146
 8151SOL    HW236087   3.976   0.216  10.582 -0.7457  2.9981  0.7227
 8152SOL     OW36088   1.793   1.224   7.359 -0.3414  0.6797 -0.1297
 8152SOL    HW136089   1.858   1.283   7.320  0.4317  0.5683  0.9986
 8152SOL    HW236090   1.748   1.276   7.426 -0.1349 -0.6996  1.0704
 8153SOL     OW36091   1.543   2.999   3.483 -0.1609 -0.0222  0.5772
 8153SOL    HW136092   1.451   3.002   3.510  0.2069  0.4247  1.7300
 8153SOL    HW236093   1.531   2.928   3.419  2.1717 -2.6260  3.0719
 8154SOL     OW36094   0.561   0.064  15.390  0.1044  0.0746  0.5152
 8154SOL    HW136095   0.589   0.122  15.320  0.3168 -0.0748  0.4774
 8154SOL    HW236096   0.493   0.119  15.428 -1.1375 -0.4606 -0.9279
 8155SOL     OW36097   0.944   1.481  13.771 -0.0377  0.0098  0.2107
 8155SOL    HW136098   0.897   1.472  13.854 -2.2377 -1.2403 -1.1773
 8155SOL    HW236099   0.999   1.560  13.775 -1.2581  0.9793 -1.8209
 8156SOL     OW36100   3.239   4.684  11.754 -0.5822  0.0929  0.0723
 8156SOL    HW136101   3.217   4.595  11.783 -1.7494  0.5026  0.4378
 8156SOL    HW236102   3.233   4.674  11.659 -1.2406  0.6056  0.0574
 8157SOL     OW36103   1.248   0.153  12.602 -0.2113 -0.0316  0.2191
 8157SOL    HW136104   1.315   0.160  12.534  1.0156 -1.5373  1.2795
 8157SOL    HW236105   1.253   0.244  12.629 -1.0753  0.0225  0.1954
 8158SOL     OW36106   4.554   1.021   4.645 -0.2627 -0.1971 -0.2509
 8158SOL    HW136107   4.549   0.942   4.698 -1.1752  0.7660  1.1021
 8158SOL    HW236108   4.602   0.994   4.567  1.0770 -0.1508  0.5643
 8159SOL     OW36109   2.135   0.616   5.210 -0.1488  0.0844  0.8290
 8159SOL    HW136110   2.111   0.535   5.165  0.6532 -1.1995  2.7083
 8159SOL    HW236111   2.218   0.644   5.173 -0.9937 -0.0547 -1.1944
 8160SOL     OW36112   0.611   3.426   8.434 -0.1298  0.3677 -0.0500
 8160SOL    HW136113   0.603   3.500   8.493  2.4280 -0.2933  1.0987
 8160SOL    HW236114   0.702   3.398   8.446 -0.7615 -2.2771 -1.2920
 8161SOL     OW36115   0.549   1.638   6.780 -1.1741 -0.4025 -0.3410
 8161SOL    HW136116   0.477   1.600   6.728 -5.7127  1.0387  4.9325
 8161SOL    HW236117   0.545   1.725   6.741  0.3370  0.0218  0.4883
 8162SOL     OW36118   2.367   1.492   4.175  0.3629 -0.1320  0.5764
 8162SOL    HW136119   2.413   1.422   4.130  2.1283  0.3610  1.5986
 8162SOL    HW236120   2.301   1.510   4.108  0.8660 -0.7733 -0.0829
 8163SOL     OW36121   4.094   4.055   2.197  0.0846 -0.4706 -0.4950
 8163SOL    HW136122   4.021   4.108   2.228  2.2138  2.4069 -0.3601
 8163SOL    HW236123   4.063   3.965   2.198  0.3422 -0.5576 -0.2360
 8164SOL     OW36124   2.415   2.812   8.807  0.2709  0.1553 -0.0775
 8164SOL    HW136125   2.450   2.726   8.828  1.7065  1.3843  2.6566
 8164SOL    HW236126   2.482   2.872   8.841  1.5494 -1.0699 -0.4767
 8165SOL     OW36127   4.335   0.456   5.425  0.8222  0.6367 -0.0207
 8165SOL    HW136128   4.289   0.534   5.458 -1.2591 -1.7336  2.7341
 8165SOL    HW236129   4.258   0.404   5.402  2.2204 -0.8285 -1.3259
 8166SOL     OW36130   2.905   3.499  13.486  0.2224  0.4183 -0.2905
 8166SOL    HW136131   2.956   3.547  13.422 -0.2718  1.4673  0.1111
 8166SOL    HW236132   2.829   3.463  13.440  0.3003 -0.7542  0.4829
 8167SOL     OW36133   1.432   1.605   1.113 -0.1203  0.4012  0.2342
 8167SOL    HW136134   1.464   1.544   1.179 -1.1961 -0.2957  0.1192
 8167SOL    HW236135   1.355   1.554   1.087 -0.0088 -0.7387  2.1584
 8168SOL     OW36136   2.865   4.696   3.437 -0.4579 -0.1021 -0.0438
 8168SOL    HW136137   2.815   4.622   3.403 -0.4613  0.1330 -0.5464
 8168SOL    HW236138   2.921   4.723   3.365  0.4752 -1.8589  0.0288
 8169SOL     OW36139   0.816   2.313  12.548 -0.0313  0.1184  0.2785
 8169SOL    HW136140   0.910   2.305  12.564  0.1460  1.1820 -0.1699
 8169SOL    HW236141   0.772   2.275  12.624 -1.6560  1.4419  0.0043
 8170SOL     OW36142   0.615   3.024   9.395  0.1617  0.6886 -0.4771
 8170SOL    HW136143   0.684   2.959   9.382  1.2275  1.5470  0.7689
 8170SOL    HW236144   0.629   3.044   9.488 -0.1637 -2.4709  0.2400
 8171SOL     OW36145   4.176   2.049   8.808 -0.2801  0.1383 -0.2331
 8171SOL    HW136146   4.139   1.971   8.850  1.9195 -2.1900 -2.6649
 8171SOL    HW236147   4.270   2.034   8.811 -0.3349 -0.3022 -0.9409
 8172SOL     OW36148   1.336   1.471   7.812 -0.2078 -0.4484  0.6026
 8172SOL    HW136149   1.340   1.556   7.855 -1.4989  0.6058 -1.3572
 8172SOL    HW236150   1.415   1.469   7.757 -0.5481  0.0092  0.0961
 8173SOL     OW36151   3.734   1.321   3.512 -0.5015 -0.0785  0.1147
 8173SOL    HW136152   3.805   1.271   3.471 -0.3539  0.0793  0.1729
 8173SOL    HW236153   3.722   1.266   3.590 -2.6922 -1.4150 -1.1879
 8174SOL     OW36154   2.364   1.888   2.812  1.2966 -0.2647 -0.3191
 8174SOL    HW136155   2.425   1.862   2.880  0.7948  0.7142  0.5043
 8174SOL    HW236156   2.389   1.978   2.791 -3.6168  1.4068  0.9860
 8175SOL     OW36157   0.571   3.324   2.060  0.1407 -0.6253 -0.2082
 8175SOL    HW136158   0.659   3.292   2.081  0.2459 -0.0619  0.2087
 8175SOL    HW236159   0.583   3.415   2.087 -1.2243 -1.2517  2.5187
 8176SOL     OW36160   2.917   1.663   1.304 -0.1149  0.1331  0.0063
 8176SOL    HW136161   2.884   1.611   1.377  1.1236 -0.3523  0.2096
 8176SOL    HW236162   2.865   1.743   1.314  0.8045  0.9178 -1.4561
 8177SOL     OW36163   4.066   1.961   6.730 -0.3016 -0.3132  0.2294
 8177SOL    HW136164   3.976   1.932   6.742 -0.7130  0.3362 -1.3534
 8177SOL    HW236165   4.068   1.996   6.819 -0.0012  0.2792 -0.0040
 8178SOL     OW36166   1.609   0.789   2.399  0.6618  0.1193 -0.0900
 8178SOL    HW136167   1.530   0.838   2.423  1.1721  2.3650 -2.9940
 8178SOL    HW236168   1.644   0.833   2.322  0.3864 -1.1545 -0.9493
 8179SOL     OW36169   2.125   1.598   3.794  0.1494 -0.7368 -0.0962
 8179SOL    HW136170   2.139   1.692   3.788  2.7136 -1.0626  0.8681
 8179SOL    HW236171   2.160   1.567   3.711 -0.5098  2.8774 -1.6782
 8180SOL     OW36172   2.015   2.071   6.538  0.3184  0.2748  0.2409
 8180SOL    HW136173   2.070   2.080   6.615  0.2066  0.7315  0.2689
 8180SOL    HW236174   2.070   2.086   6.461 -0.5697  2.4968  0.0484
 8181SOL     OW36175   2.693   4.210   6.308 -0.4371  0.4121 -0.2482
 8181SOL    HW136176   2.713   4.129   6.356 -1.3849 -0.0686 -0.6620
 8181SOL    HW236177   2.638   4.255   6.372 -0.6514  0.6055 -0.5675
 8182SOL     OW36178   3.815   2.511   1.137 -0.6692  0.1561  0.2167
 8182SOL    HW136179   3.904   2.517   1.104 -0.4687  2.2578  1.1278
 8182SOL    HW236180   3.779   2.483   1.053  5.0376  2.0721 -2.8304
 8183SOL     OW36181   3.363   2.183   2.070 -0.3810 -0.5255 -0.0978
 8183SOL    HW136182   3.291   2.244   2.086  0.4841  0.4511 -0.0018
 8183SOL    HW236183   3.434   2.242   2.046 -0.3934  0.4208  2.2797
 8184SOL     OW36184   1.662   2.548   1.997  0.6615 -0.1531 -0.3407
 8184SOL    HW136185   1.699   2.528   1.911  1.0364  0.9054 -0.4271
 8184SOL    HW236186   1.661   2.643   1.983  1.9842 -0.0126  0.4554
 8185SOL     OW36187   2.062   3.038   2.871  0.1275 -0.2446  0.2577
 8185SOL    HW136188   2.053   2.947   2.844 -0.2950 -0.5815  1.5556
 8185SOL    HW236189   1.982   3.077   2.835 -0.1609 -0.3180  0.8260
 8186SOL     OW36190   3.030   1.718   8.731  0.2526 -0.1908  0.4058
 8186SOL    HW136191   3.028   1.789   8.795  1.2951 -0.2755  0.5445
 8186SOL    HW236192   3.081   1.767   8.667  0.6256 -0.7571  0.2632
 8187SOL     OW36193   1.018   3.320   9.534 -0.4702  0.0885  0.5063
 8187SOL    HW136194   0.935   3.367   9.531  0.1872  1.1397 -0.8129
 8187SOL    HW236195   1.035   3.334   9.627 -0.5557  1.0964  0.3727
 8188SOL     OW36196   0.300   3.467  11.883  0.1759  0.3055  0.9830
 8188SOL    HW136197   0.373   3.528  11.893 -0.0969  0.8913 -0.6249
 8188SOL    HW236198   0.253   3.470  11.966 -1.7638  1.0153 -0.1410
 8189SOL     OW36199   1.589   1.787   3.797  0.5830  0.4952  0.3523
 8189SOL    HW136200   1.501   1.749   3.796  0.9208 -0.2657  0.1194
 8189SOL    HW236201   1.621   1.773   3.709 -0.3415 -0.4896  0.1721
 8190SOL     OW36202   3.676   4.270   6.650 -0.0404 -0.0311 -0.3150
 8190SOL    HW136203   3.584   4.285   6.674 -0.1740 -0.2878 -0.6561
 8190SOL    HW236204   3.696   4.361   6.626  0.1049 -0.7017 -2.7072
 8191SOL     OW36205   0.858   0.891   3.528  1.0125  0.2004 -0.1462
 8191SOL    HW136206   0.773   0.847   3.523  0.4091  1.3804 -0.2240
 8191SOL    HW236207   0.871   0.929   3.615  2.7742 -2.7041  0.8387
 8192SOL     OW36208   0.352   3.332   5.881 -0.1281  0.5945 -0.3111
 8192SOL    HW136209   0.259   3.339   5.904 -0.1206  0.6444 -0.2955
 8192SOL    HW236210   0.367   3.268   5.950  0.2217  1.6998  0.6490
 8193SOL     OW36211   2.652   2.313   7.370  0.0965  1.0459 -0.1297
 8193SOL    HW136212   2.701   2.370   7.430 -1.4256  0.7855  1.3614
 8193SOL    HW236213   2.723   2.265   7.327 -0.1707 -0.0060  0.5778
 8194SOL     OW36214   4.407   2.212   8.585  0.9047 -0.0865 -0.9325
 8194SOL    HW136215   4.483   2.262   8.558  2.3400 -1.6906  0.1340
 8194SOL    HW236216   4.429   2.172   8.669 -0.0260  1.3366 -0.0189
 8195SOL     OW36217   1.859   3.209   2.803 -0.3925 -0.2334 -0.1057
 8195SOL    HW136218   1.918   3.284   2.804  0.2793 -0.7577 -0.5557
 8195SOL    HW236219   1.774   3.246   2.779 -0.9589 -0.7248  1.1334
 8196SOL     OW36220   1.473   4.485   4.971  0.6608 -0.5829  0.1247
 8196SOL    HW136221   1.540   4.423   4.999 -0.2703 -2.0788 -0.9679
 8196SOL    HW236222   1.441   4.450   4.888  1.8106  0.8986 -0.9447
 8197SOL     OW36223   3.682   0.120   7.424 -0.4181 -0.5027  0.1749
 8197SOL    HW136224   3.625   0.141   7.498 -1.2321 -1.6525 -0.1252
 8197SOL    HW236225   3.674   0.191   7.360 -2.5043  0.2971  1.3378
 8198SOL     OW36226   3.913   1.765   5.461  0.1828  0.2169  0.4417
 8198SOL    HW136227   3.873   1.724   5.384 -1.3783  0.2811  1.2049
 8198SOL    HW236228   3.921   1.858   5.443  2.4081 -0.3006 -1.2695
 8199SOL     OW36229   4.679   0.232  15.143 -0.2618 -0.2804  0.3591
 8199SOL    HW136230   4.639   0.201  15.225 -1.5920 -0.0626 -0.2173
 8199SOL    HW236231   4.640   0.172  15.080 -0.7079 -1.1645  1.4639
 8200SOL     OW36232   0.311   3.335   5.574 -0.1087 -0.3174 -0.6039
 8200SOL    HW136233   0.325   3.312   5.666 -0.7580  2.6741  0.2276
 8200SOL    HW236234   0.363   3.415   5.562 -1.0594 -0.1140 -3.5048
 8201SOL     OW36235   2.641   0.986   6.212 -0.3748 -0.5920  0.1882
 8201SOL    HW136236   2.725   0.952   6.179 -0.2738  1.5261 -1.7867
 8201SOL    HW236237   2.593   1.013   6.134 -0.9094 -1.3652  0.2453
 8202SOL     OW36238   0.398   4.081   6.709 -0.1101 -0.0810  0.4463
 8202SOL    HW136239   0.320   4.032   6.683 -0.7778  0.8422  0.6947
 8202SOL    HW236240   0.443   4.007   6.749  1.1829 -2.0651 -4.6223
 8203SOL     OW36241   3.093   3.573   8.188  0.8577 -0.3929  0.1386
 8203SOL    HW136242   3.066   3.661   8.162  0.3099 -0.5842  0.0576
 8203SOL    HW236243   3.031   3.552   8.258  0.5910  2.2426  0.6932
 8204SOL     OW36244   1.910   1.614   0.810 -0.0072 -0.3584 -0.2211
 8204SOL    HW136245   1.825   1.571   0.808  0.5493 -1.5919  2.0394
 8204SOL    HW236246   1.908   1.641   0.902  0.8944 -0.9328 -0.0329
 8205SOL     OW36247   3.382   2.622   9.648 -0.7012  0.2873  0.1465
 8205SOL    HW136248   3.426   2.700   9.682 -0.3507  0.9589 -1.8450
 8205SOL    HW236249   3.318   2.591   9.713  1.6874 -0.1200  2.2822
 8206SOL     OW36250   2.492   3.236   7.329 -0.8244 -0.3737 -0.5692
 8206SOL    HW136251   2.577   3.201   7.300 -0.3284  1.1793 -1.0250
 8206SOL    HW236252   2.450   3.153   7.351 -0.0780  0.6175  4.6711
 8207SOL     OW36253   2.492   0.155   2.290  0.1145 -0.5611  0.3495
 8207SOL    HW136254   2.565   0.152   2.352  0.9906  0.6678 -0.6250
 8207SOL    HW236255   2.419   0.166   2.350  0.3072 -2.5255  0.9418
 8208SOL     OW36256   3.935   1.556  16.180 -0.4273 -0.0579  0.1376
 8208SOL    HW136257   4.009   1.497  16.174 -0.0898 -0.0158  3.8009
 8208SOL    HW236258   3.859   1.503  16.158  0.1951 -0.9407  0.1230
 8209SOL     OW36259   1.616   3.813  13.438 -0.3190  0.5498  0.1067
 8209SOL    HW136260   1.632   3.745  13.504  1.3272  0.4957 -0.3408
 8209SOL    HW236261   1.644   3.898  13.470  0.5810  0.3198 -0.0643
 8210SOL     OW36262   1.476   3.222   5.469 -0.1065 -0.5986 -0.1208
 8210SOL    HW136263   1.537   3.148   5.467  0.6626  0.0103  1.1519
 8210SOL    HW236264   1.392   3.176   5.463 -0.9882  1.2453 -1.6465
 8211SOL     OW36265   1.217   4.460   4.827 -0.4673 -0.8260  0.3989
 8211SOL    HW136266   1.133   4.498   4.852  0.1073 -0.8602  2.3826
 8211SOL    HW236267   1.216   4.379   4.878 -1.5278 -0.1279  1.4890
 8212SOL     OW36268   0.718   2.970   2.784 -0.4903 -0.4590  0.0070
 8212SOL    HW136269   0.684   2.953   2.871 -2.7440 -0.7925 -0.9237
 8212SOL    HW236270   0.716   2.882   2.745  2.0632 -1.0664  1.2874
 8213SOL     OW36271   0.365   2.684   6.949  0.0071 -0.5841  0.3536
 8213SOL    HW136272   0.364   2.769   6.905  1.2552 -1.2462 -0.9615
 8213SOL    HW236273   0.374   2.718   7.038 -1.8250  1.1678 -0.1306
 8214SOL     OW36274   2.776   2.557   2.302  0.4378 -0.6461  0.2354
 8214SOL    HW136275   2.696   2.520   2.339 -0.0290 -1.6079 -1.7701
 8214SOL    HW236276   2.769   2.559   2.207 -3.2229  0.6013  0.5240
 8215SOL     OW36277   0.207   2.291   4.894  0.3259 -0.3113  0.4022
 8215SOL    HW136278   0.126   2.330   4.862  0.7774  0.7674  0.5794
 8215SOL    HW236279   0.258   2.371   4.907 -2.6294  1.1654  2.8566
 8216SOL     OW36280   2.242   4.646  15.174 -0.0963  0.1675  0.3800
 8216SOL    HW136281   2.168   4.586  15.177  1.5387 -1.7129  2.6367
 8216SOL    HW236282   2.276   4.633  15.086 -1.0951 -1.8333  0.2924
 8217SOL     OW36283   3.011   0.061   4.949  0.1487  0.2356 -0.7506
 8217SOL    HW136284   3.092   0.072   4.998 -1.0544 -2.2547  1.7357
 8217SOL    HW236285   2.945   0.064   5.017 -0.6197 -1.2180 -1.4226
 8218SOL     OW36286   3.525   1.798   4.393 -0.1678  0.8715 -0.7396
 8218SOL    HW136287   3.598   1.776   4.336  1.9772  0.7509  2.0802
 8218SOL    HW236288   3.443   1.785   4.345  0.3462  1.1196 -1.6758
 8219SOL     OW36289   4.617   1.262   8.271 -0.2251 -0.0334 -0.0483
 8219SOL    HW136290   4.689   1.252   8.209 -0.2463 -2.3165  0.2994
 8219SOL    HW236291   4.666   1.236   8.349 -1.9877 -0.2886  0.9894
 8220SOL     OW36292   2.352   3.390   6.744  0.6255  0.5404 -0.0106
 8220SOL    HW136293   2.377   3.343   6.664 -0.9893  1.8636 -1.2950
 8220SOL    HW236294   2.322   3.319   6.800 -4.0748  1.7708 -1.0016
 8221SOL     OW36295   1.598   3.043   2.563  0.3673 -0.0073 -0.1337
 8221SOL    HW136296   1.647   2.983   2.620  1.7177  0.9339 -0.3019
 8221SOL    HW236297   1.568   2.988   2.491 -0.8798  0.5380 -0.0190
 8222SOL     OW36298   2.816   2.259   5.178 -0.1859 -0.1765  0.2213
 8222SOL    HW136299   2.882   2.190   5.168  1.5116  1.5934 -0.9151
 8222SOL    HW236300   2.813   2.277   5.272 -0.2666 -0.5860  0.2948
 8223SOL     OW36301   2.235   2.108  15.813  0.9416 -0.1483  0.1740
 8223SOL    HW136302   2.250   2.170  15.884 -0.8641 -0.6143  0.9813
 8223SOL    HW236303   2.168   2.155  15.764  0.8172  0.0141  0.4945
 8224SOL     OW36304   4.065   3.171   4.411 -0.2820 -0.1165 -0.4159
 8224SOL    HW136305   4.067   3.188   4.505  0.3492  0.8092 -0.6006
 8224SOL    HW236306   4.141   3.115   4.396 -0.4373  0.2529 -2.6132
 8225SOL     OW36307   0.826   0.741   4.773 -0.5896 -0.1328 -0.5537
 8225SOL    HW136308   0.870   0.813   4.819 -0.1086 -1.4686  1.0497
 8225SOL    HW236309   0.852   0.667   4.827 -0.0874  0.7274  0.3892
 8226SOL     OW36310   1.117   1.204   4.422  0.1203 -0.0020  0.1345
 8226SOL    HW136311   1.166   1.138   4.373  0.1631 -1.6100  2.3429
 8226SOL    HW236312   1.140   1.185   4.513  1.0411 -2.3725 -0.5988
 8227SOL     OW36313   2.791   3.966   6.387 -0.5054 -0.1530 -0.5591
 8227SOL    HW136314   2.823   3.919   6.463 -0.4027  0.7495 -0.0487
 8227SOL    HW236315   2.871   3.973   6.336 -2.2076  0.9743 -3.0820
 8228SOL     OW36316   1.191   3.538   7.928  0.3466 -0.3953 -0.0001
 8228SOL    HW136317   1.124   3.601   7.953  0.5482  0.5239 -1.7529
 8228SOL    HW236318   1.133   3.461   7.928  0.0835 -0.1971  0.2371
 8229SOL     OW36319   3.503   4.372   9.853 -0.0110 -0.6010  0.0555
 8229SOL    HW136320   3.480   4.301   9.794 -2.1208 -0.2698  0.4746
 8229SOL    HW236321   3.597   4.356   9.852  0.1586  0.3279  1.1724
 8230SOL     OW36322   3.667   1.799   0.695 -0.2489  0.7502  0.1226
 8230SOL    HW136323   3.733   1.738   0.728 -0.7502  0.5981  0.8439
 8230SOL    HW236324   3.593   1.741   0.681  1.4771 -1.4910  0.2533
 8231SOL     OW36325   2.432   4.331  12.137  0.3595  0.1240  0.1040
 8231SOL    HW136326   2.370   4.261  12.115 -0.8016  1.7895 -1.8619
 8231SOL    HW236327   2.495   4.331  12.066  1.0163 -0.7681  0.6739
 8232SOL     OW36328   2.971   3.654   2.505  0.1198 -0.1199 -0.2508
 8232SOL    HW136329   2.971   3.671   2.600  0.2770  0.2297 -0.3146
 8232SOL    HW236330   3.046   3.594   2.506  0.1523 -0.0465  1.7346
 8233SOL     OW36331   3.462   1.873   1.437  0.1784 -0.0246  0.1892
 8233SOL    HW136332   3.399   1.820   1.485 -0.5901  0.2488 -0.5192
 8233SOL    HW236333   3.506   1.809   1.380  2.3546 -0.8773  2.8112
 8234SOL     OW36334   3.173   1.009   4.821  0.3959  0.3531  0.2815
 8234SOL    HW136335   3.237   1.078   4.836  0.2609  0.8024 -1.1582
 8234SOL    HW236336   3.141   0.998   4.910  0.1078  0.1878  0.1575
 8235SOL     OW36337   2.871   2.781   1.265  0.3289  0.1331  0.0790
 8235SOL    HW136338   2.963   2.779   1.242  0.4267  1.9729  0.2815
 8235SOL    HW236339   2.842   2.858   1.216  1.5476  1.0776  0.8191
 8236SOL     OW36340   0.891   2.762   0.903  0.7825  0.4684  0.1500
 8236SOL    HW136341   0.891   2.731   0.812  0.5849 -1.2827  0.7316
 8236SOL    HW236342   0.883   2.683   0.957  1.6461  0.1693 -0.1591
 8237SOL     OW36343   2.599   3.769   8.543 -0.5122 -0.0353 -0.1600
 8237SOL    HW136344   2.584   3.817   8.461 -0.7650 -0.6153 -0.4564
 8237SOL    HW236345   2.678   3.718   8.525 -0.7027  0.2824 -1.9288
 8238SOL     OW36346   2.961   4.177   1.763 -0.0842 -0.0499  0.3529
 8238SOL    HW136347   2.917   4.262   1.759  0.4152  0.3667  3.6713
 8238SOL    HW236348   2.920   4.130   1.691  0.4131 -0.7799  0.5515
 8239SOL     OW36349   0.825   3.275   8.492  0.0739 -0.5808 -0.5577
 8239SOL    HW136350   0.914   3.284   8.458  0.6556  2.1495  1.7518
 8239SOL    HW236351   0.830   3.326   8.573  1.4263 -1.0433 -0.3509
 8240SOL     OW36352   3.551   3.012  16.204  0.0690  0.3642 -0.3012
 8240SOL    HW136353   3.460   3.031  16.229 -0.2866  0.4273 -1.6720
 8240SOL    HW236354   3.566   3.100  16.168 -0.6842 -0.7141 -3.2032
 8241SOL     OW36355   3.809   1.901   6.773 -0.1268  0.2425  0.1628
 8241SOL    HW136356   3.797   1.889   6.678  1.1743  1.4295 -0.1447
 8241SOL    HW236357   3.733   1.956   6.794  0.5652  0.5466  1.8580
 8242SOL     OW36358   1.605   1.865   2.543 -0.0441 -0.2742 -0.0162
 8242SOL    HW136359   1.571   1.941   2.496 -1.2458  0.4807  2.0736
 8242SOL    HW236360   1.669   1.902   2.603 -1.5512  1.8204  0.2918
 8243SOL     OW36361   4.307   3.046  17.571 -0.3188 -0.3228  0.4054
 8243SOL    HW136362   4.353   2.977  17.523  0.0915 -0.9911  1.7299
 8243SOL    HW236363   4.277   3.100  17.498 -0.2606 -0.9199 -0.0581
 8244SOL     OW36364   1.602   2.222   6.639 -0.0443  0.0420  0.1252
 8244SOL    HW136365   1.634   2.146   6.686 -0.9328  0.3667  1.2591
 8244SOL    HW236366   1.575   2.192   6.552  0.7576  1.4968 -0.6322
 8245SOL     OW36367   1.268   2.114   9.166  0.3417  0.5812  0.2834
 8245SOL    HW136368   1.179   2.134   9.138 -0.1614 -1.0722  0.7331
 8245SOL    HW236369   1.321   2.143   9.091  1.7780 -1.2594  0.5753
 8246SOL     OW36370   3.672   0.656   8.966 -0.0680 -0.1251 -0.4505
 8246SOL    HW136371   3.677   0.694   9.054 -1.6949 -2.3172  0.5795
 8246SOL    HW236372   3.739   0.589   8.980  1.0512  1.4670  1.8509
 8247SOL     OW36373   2.012   3.418  13.470 -0.1940 -0.4161  0.1282
 8247SOL    HW136374   1.957   3.356  13.519  1.8847 -1.8340  0.6962
 8247SOL    HW236375   2.040   3.474  13.542 -0.3674 -0.7744  0.4758
 8248SOL     OW36376   1.869   4.042  15.144 -0.3138  0.3335  0.4344
 8248SOL    HW136377   1.803   4.104  15.175  1.9262  1.7599  2.3868
 8248SOL    HW236378   1.904   4.090  15.069 -0.9126 -1.3135 -0.9081
 8249SOL     OW36379   4.650   1.849  14.538 -0.3186  0.4127  0.0216
 8249SOL    HW136380   4.619   1.798  14.464 -0.6607 -0.0267  0.4663
 8249SOL    HW236381   0.007   1.847  14.537 -0.3315 -0.9660  1.5440
 8250SOL     OW36382   2.026   3.344   4.827 -0.5378  0.1539 -0.0213
 8250SOL    HW136383   2.109   3.368   4.788 -0.1849  1.6768  1.6436
 8250SOL    HW236384   1.959   3.377   4.767 -0.1675 -0.2563 -0.6535
 8251SOL     OW36385   1.416   0.052   3.849 -0.0262 -0.6936  0.0743
 8251SOL    HW136386   1.489   0.077   3.905 -1.0727  1.2514  0.5548
 8251SOL    HW236387   1.364   4.736   3.907 -0.7391 -0.2878 -0.1775
 8252SOL     OW36388   2.410   3.923   4.981 -0.6260 -0.4882  0.5680
 8252SOL    HW136389   2.498   3.917   4.946 -0.8993 -0.3916 -0.1332
 8252SOL    HW236390   2.435   3.984   5.051  1.0033 -0.8271  0.2555
 8253SOL     OW36391   2.308   3.214   2.804  0.5106 -0.3350  0.2361
 8253SOL    HW136392   2.260   3.295   2.826  1.3575  0.1948  0.1265
 8253SOL    HW236393   2.231   3.157   2.813 -0.1879  0.8033  1.4866
 8254SOL     OW36394   3.788   0.586  10.826 -0.0533  0.6425 -0.1567
 8254SOL    HW136395   3.754   0.637  10.900  0.6045 -0.9845  1.2659
 8254SOL    HW236396   3.799   0.501  10.868 -1.4842 -0.5523 -2.2345
 8255SOL     OW36397   1.974   3.191   3.258 -0.5839 -0.1193 -0.1235
 8255SOL    HW136398   1.888   3.194   3.217  1.1478  0.5129 -3.7054
 8255SOL    HW236399   1.951   3.193   3.351 -0.3364 -0.0918 -0.0630
 8256SOL     OW36400   3.966   2.222   6.594 -0.2101 -0.5708 -0.0181
 8256SOL    HW136401   4.054   2.192   6.619  0.8054  3.4822  1.3619
 8256SOL    HW236402   3.913   2.216   6.673 -2.2567  0.7094 -1.2881
 8257SOL     OW36403   2.229   1.759  17.556 -1.2552  0.1231 -0.1354
 8257SOL    HW136404   2.184   1.686  17.514 -1.3982  0.9398 -1.4021
 8257SOL    HW236405   2.209   1.826  17.490  1.1695 -0.7430 -1.7564
 8258SOL     OW36406   4.127   1.855   2.063  0.6907  0.4123 -0.4872
 8258SOL    HW136407   4.159   1.781   2.114  1.2911 -0.1047 -1.5994
 8258SOL    HW236408   4.185   1.869   1.988  0.3081 -2.6172 -1.3310
 8259SOL     OW36409   1.794   4.181   3.879 -1.2008 -0.1723  0.0716
 8259SOL    HW136410   1.808   4.233   3.800 -1.0207 -0.4411 -0.0732
 8259SOL    HW236411   1.786   4.243   3.952 -1.6356 -1.2071  0.8997
 8260SOL     OW36412   2.716   0.368   9.572  0.1052 -0.3307 -0.2794
 8260SOL    HW136413   2.758   0.304   9.629 -0.9603 -0.3262  0.5002
 8260SOL    HW236414   2.678   0.312   9.504 -0.3401 -1.2511  0.7360
 8261SOL     OW36415   1.543   4.155   2.396 -0.9709 -0.5412 -0.4625
 8261SOL    HW136416   1.577   4.202   2.472  1.5734 -0.9263 -1.3432
 8261SOL    HW236417   1.460   4.201   2.383 -0.5087  0.4837  0.1715
 8262SOL     OW36418   3.934   2.789   1.746  0.1404 -0.1012  0.3838
 8262SOL    HW136419   3.933   2.727   1.818 -0.5207  0.0566  0.5119
 8262SOL    HW236420   3.942   2.872   1.793  1.7876  1.3049 -2.4135
 8263SOL     OW36421   1.407   1.767  16.885  0.2760  0.1142 -0.4832
 8263SOL    HW136422   1.355   1.847  16.897  0.1527  0.2628 -1.9885
 8263SOL    HW236423   1.407   1.727  16.972 -0.4446 -0.7879 -0.9045
 8264SOL     OW36424   2.985   4.438   1.256  0.0839  0.7184 -0.1009
 8264SOL    HW136425   2.974   4.360   1.310 -1.1578  0.3580 -0.8685
 8264SOL    HW236426   2.893   4.458   1.241  0.3133  1.2663 -0.8215
 8265SOL     OW36427   3.060   0.377   3.585  0.8105 -0.0480 -0.0356
 8265SOL    HW136428   3.096   0.453   3.632 -2.7104  0.6089  1.6365
 8265SOL    HW236429   3.129   0.371   3.519  1.2246 -1.8711  0.5802
 8266SOL     OW36430   3.836   2.438   4.143  0.1867  0.3638 -0.2779
 8266SOL    HW136431   3.887   2.453   4.063  0.1526  0.7531 -0.2246
 8266SOL    HW236432   3.813   2.345   4.135 -0.6028  0.2911  2.9935
 8267SOL     OW36433   2.553   3.896   8.308 -0.1247 -0.0337 -0.2920
 8267SOL    HW136434   2.586   3.855   8.228  2.5760  0.3395  0.6593
 8267SOL    HW236435   2.473   3.938   8.276  0.4610 -0.0119 -1.7269
 8268SOL     OW36436   4.660   2.982  16.111  0.1446 -0.2153 -0.2376
 8268SOL    HW136437   4.718   2.953  16.181  1.2836 -0.2450 -1.1865
 8268SOL    HW236438   4.593   2.915  16.107  2.1245 -2.2524  0.9961
 8269SOL     OW36439   0.223   0.565  15.372 -0.7545  0.1996  0.4482
 8269SOL    HW136440   0.309   0.525  15.382 -0.1866  1.9250  2.3977
 8269SOL    HW236441   0.204   0.534  15.284  0.7879  0.7140 -0.0579
 8270SOL     OW36442   3.411   0.812   8.982 -0.0682 -0.3185  0.1625
 8270SOL    HW136443   3.466   0.736   8.998  0.0956 -0.2033  0.1472
 8270SOL    HW236444   3.399   0.799   8.888 -1.6639  1.9064  0.0389
 8271SOL     OW36445   0.205   3.350   9.491 -0.3032 -0.3535  0.0333
 8271SOL    HW136446   0.175   3.291   9.422 -0.5172 -1.8087  1.3644
 8271SOL    HW236447   0.278   3.393   9.446  0.3778  0.0914  1.5792
 8272SOL     OW36448   0.609   2.506  15.202 -0.3478  0.1914  0.0585
 8272SOL    HW136449   0.648   2.422  15.224 -0.0148  0.7869  1.7627
 8272SOL    HW236450   0.660   2.529  15.124  0.9243  0.8631  1.0727
 8273SOL     OW36451   1.019   0.467  11.852 -0.2829 -0.0781  0.5040
 8273SOL    HW136452   1.098   0.418  11.877  0.2054  0.1350 -0.6347
 8273SOL    HW236453   1.023   0.482  11.758 -0.4346  0.2690  0.5526
 8274SOL     OW36454   2.080   2.908  12.793 -0.6624  0.2753  0.4098
 8274SOL    HW136455   2.022   2.912  12.869 -0.7953 -1.6171  0.3924
 8274SOL    HW236456   2.113   2.819  12.796  1.7922  1.2502  2.3038
 8275SOL     OW36457   2.940   2.718  17.637  0.2240 -0.0558 -0.5582
 8275SOL    HW136458   2.974   2.686  17.720 -0.2860 -0.1476 -0.3812
 8275SOL    HW236459   2.937   2.635  17.591 -0.1156 -0.1594 -0.3553
 8276SOL     OW36460   0.631   0.854   8.549 -0.0257 -0.4878  0.5510
 8276SOL    HW136461   0.634   0.940   8.507 -1.6068 -0.4819  0.4337
 8276SOL    HW236462   0.537   0.836   8.556  0.1552 -0.9704  1.7095
 8277SOL     OW36463   0.862   1.990   3.882 -0.0358 -0.0608 -0.1758
 8277SOL    HW136464   0.863   1.930   3.957  1.3895 -0.8566 -0.8302
 8277SOL    HW236465   0.881   2.073   3.926  0.4264 -0.1290 -0.2472
 8278SOL     OW36466   3.804   1.361   5.549 -0.1420  0.4506  0.8042
 8278SOL    HW136467   3.845   1.446   5.564 -1.0081  1.6749 -3.6862
 8278SOL    HW236468   3.719   1.370   5.505 -0.0549  1.9961  0.9482
 8279SOL     OW36469   0.694   4.538  10.571  0.7442  0.2238  0.1673
 8279SOL    HW136470   0.684   4.443  10.577 -0.3309  0.4453  2.1040
 8279SOL    HW236471   0.762   4.551  10.637 -0.2651 -0.4353  1.3512
 8280SOL     OW36472   0.546   4.681   7.442 -0.1139  0.2820  0.5822
 8280SOL    HW136473   0.484   4.616   7.475  0.1650 -0.5289 -0.4905
 8280SOL    HW236474   0.578   4.723   7.523 -0.0438 -1.6906  1.5681
 8281SOL     OW36475   0.705   2.941   2.430  0.4218 -0.8135  0.2459
 8281SOL    HW136476   0.776   2.944   2.365 -0.4192  0.7155 -0.5817
 8281SOL    HW236477   0.757   2.954   2.509  0.0313 -1.1813  0.5602
 8282SOL     OW36478   3.375   4.137   3.667  0.0379  0.4877  0.1705
 8282SOL    HW136479   3.400   4.099   3.583  0.5473 -0.3418  0.7001
 8282SOL    HW236480   3.280   4.127   3.669  0.2091 -0.8862  1.9925
 8283SOL     OW36481   0.645   1.011   4.474 -0.1315  1.2604 -0.4120
 8283SOL    HW136482   0.680   1.096   4.447 -0.6103  1.4857 -0.3154
 8283SOL    HW236483   0.664   1.015   4.567  0.6738 -1.0585 -0.4693
 8284SOL     OW36484   3.154   1.093  16.100 -0.2810  0.2906  0.0113
 8284SOL    HW136485   3.220   1.131  16.043  0.6227 -0.5399  0.5035
 8284SOL    HW236486   3.114   1.168  16.144  0.2419  0.2048  0.6390
 8285SOL     OW36487   4.389   0.690   2.335 -0.4765 -0.5611 -0.2183
 8285SOL    HW136488   4.383   0.595   2.339  1.3201 -0.6203  1.1066
 8285SOL    HW236489   4.303   0.694   2.293 -1.0300 -2.4493  0.7468
 8286SOL     OW36490   1.709   0.330   5.408 -0.1653  0.6379 -0.5862
 8286SOL    HW136491   1.716   0.255   5.466  1.3985  1.6377  0.5227
 8286SOL    HW236492   1.614   0.336   5.405 -0.1667  0.5510 -0.7582
 8287SOL     OW36493   3.095   0.869   8.247  0.0788  0.0073 -0.1784
 8287SOL    HW136494   3.085   0.882   8.341  1.7168 -2.4266  0.3261
 8287SOL    HW236495   3.022   0.909   8.200  1.1757  1.2286 -0.8508
 8288SOL     OW36496   0.740   4.261  15.672 -0.5890  0.6688  0.9582
 8288SOL    HW136497   0.822   4.216  15.691 -1.3301 -0.5430  1.3522
 8288SOL    HW236498   0.680   4.197  15.711 -0.8613  0.0801 -0.4517
 8289SOL     OW36499   2.546   3.165   3.277 -0.2521  0.5337  0.3409
 8289SOL    HW136500   2.500   3.102   3.332 -2.4882  1.9866  0.1316
 8289SOL    HW236501   2.495   3.243   3.301 -0.6003 -0.4503  2.7413
 8290SOL     OW36502   4.033   0.467   8.775  0.1924 -0.0165 -0.0063
 8290SOL    HW136503   4.095   0.461   8.847  0.2320 -3.3525 -0.3021
 8290SOL    HW236504   4.082   0.454   8.694  0.3414  2.9894 -0.4139
 8291SOL     OW36505   0.598   3.078   1.694 -0.0934 -0.0749 -0.5793
 8291SOL    HW136506   0.546   3.141   1.644  3.1135  4.4848  1.8618
 8291SOL    HW236507   0.671   3.053   1.637  0.1323  0.9134 -0.7245
 8292SOL     OW36508   1.688   4.276  16.479  0.2503 -0.6575 -0.1813
 8292SOL    HW136509   1.694   4.226  16.399  1.9572  1.3930 -1.3488
 8292SOL    HW236510   1.629   4.341  16.441  0.2068 -0.6666 -0.1299
 8293SOL     OW36511   0.008   0.889   8.433 -0.1443 -0.0722 -0.1021
 8293SOL    HW136512   4.722   0.898   8.525 -0.7718  0.6846 -0.3455
 8293SOL    HW236513   0.015   0.982   8.409  0.8524 -0.8409 -2.8093
 8294SOL     OW36514   1.086   4.128  10.856 -0.0860  0.0133  0.2303
 8294SOL    HW136515   1.051   4.040  10.837  0.7314 -0.6857  1.9604
 8294SOL    HW236516   1.145   4.114  10.930  1.5352  2.8639 -0.5317
 8295SOL     OW36517   3.552   0.601   3.974 -0.2493 -0.8462 -0.4407
 8295SOL    HW136518   3.460   0.590   3.950 -0.0331  0.5216 -1.8842
 8295SOL    HW236519   3.587   0.645   3.896 -0.2228 -0.3203 -0.1342
 8296SOL     OW36520   0.446   2.625   5.625  0.3681  0.2928  0.8629
 8296SOL    HW136521   0.492   2.696   5.580 -0.8717  1.4835  1.4811
 8296SOL    HW236522   0.524   2.594   5.671 -0.1324 -1.8808  0.2778
 8297SOL     OW36523   3.554   1.682   5.305 -0.2699  0.5220  1.2192
 8297SOL    HW136524   3.557   1.706   5.213 -0.9007 -0.0846  1.0396
 8297SOL    HW236525   3.505   1.758   5.336 -1.6216  0.3613 -0.5305
 8298SOL     OW36526   2.520   1.190   2.872  0.2353  0.1242 -0.2978
 8298SOL    HW136527   2.604   1.146   2.885 -0.1040 -0.3832  0.1809
 8298SOL    HW236528   2.540   1.275   2.832 -1.4770  1.0779  0.8738
 8299SOL     OW36529   1.332   3.730   7.667  0.3067 -0.4394  0.1749
 8299SOL    HW136530   1.408   3.685   7.631 -1.5373 -3.4611  0.0776
 8299SOL    HW236531   1.376   3.763   7.745 -2.7183  1.2115  1.1808
 8300SOL     OW36532   3.841   0.452   9.033 -0.5683 -0.4695  0.2006
 8300SOL    HW136533   3.827   0.411   9.119 -0.0863 -1.7851 -0.3572
 8300SOL    HW236534   3.834   0.376   8.976 -3.2005 -0.6400  0.7525
 8301SOL     OW36535   4.323   2.267   2.939 -0.1185  0.0130  0.6579
 8301SOL    HW136536   4.347   2.224   2.857 -0.2006  2.8002 -0.8334
 8301SOL    HW236537   4.407   2.310   2.955 -0.7755  1.1406  1.0325
 8302SOL     OW36538   2.947   1.817   4.977  0.2978 -0.6177  0.0164
 8302SOL    HW136539   2.986   1.739   5.016 -0.6720 -0.2746  1.6641
 8302SOL    HW236540   2.980   1.812   4.887 -0.1243 -2.7545 -0.0141
 8303SOL     OW36541   2.002   3.226  12.023  0.2718 -0.0754  0.1031
 8303SOL    HW136542   1.968   3.305  11.981 -2.3340 -1.6046 -0.6988
 8303SOL    HW236543   2.035   3.257  12.108 -0.8059  0.0083  0.4953
 8304SOL     OW36544   2.045   0.753   1.501  0.4648  0.0567  0.5594
 8304SOL    HW136545   2.115   0.690   1.515 -1.1804 -2.3355 -1.9106
 8304SOL    HW236546   1.978   0.690   1.474 -0.3033  2.3553 -2.7476
 8305SOL     OW36547   4.039   4.348   1.865  0.1428  0.2832  0.3083
 8305SOL    HW136548   3.964   4.320   1.814  0.2878  0.1651  0.1605
 8305SOL    HW236549   4.015   4.314   1.951  0.2129 -0.6689 -0.0510
 8306SOL     OW36550   4.060   0.218   3.451 -0.2595 -0.0913  0.6550
 8306SOL    HW136551   4.001   0.165   3.397 -0.4277  1.1312 -0.3682
 8306SOL    HW236552   4.136   0.219   3.392 -0.8058 -0.4062 -0.0616
 8307SOL     OW36553   2.311   4.450  10.155 -0.0181  0.7084 -0.2233
 8307SOL    HW136554   2.322   4.412  10.068  1.9377  1.7617 -0.4414
 8307SOL    HW236555   2.396   4.494  10.153  0.8329 -1.0637 -3.1704
 8308SOL     OW36556   0.887   2.220   2.140 -0.0169 -0.3700 -0.1973
 8308SOL    HW136557   0.879   2.180   2.054  0.6612  0.8431 -0.8151
 8308SOL    HW236558   0.975   2.257   2.128  0.1893 -0.5486  0.7313
 8309SOL     OW36559   2.073   1.335   7.593  0.1697 -0.3420  0.2741
 8309SOL    HW136560   2.050   1.427   7.606 -3.8588 -1.1962 -0.5846
 8309SOL    HW236561   1.987   1.304   7.623 -0.4726  0.3470 -0.8152
 8310SOL     OW36562   1.062   4.095   7.916 -0.2383  0.0460  0.6882
 8310SOL    HW136563   1.141   4.041   7.919 -0.2963 -0.2002 -1.9369
 8310SOL    HW236564   1.079   4.163   7.981 -0.7191  0.1896  0.6598
 8311SOL     OW36565   1.186   3.850   8.742 -0.0477 -0.3059  0.1130
 8311SOL    HW136566   1.161   3.882   8.829  1.3924 -1.1463  0.8225
 8311SOL    HW236567   1.267   3.804   8.762 -0.2450 -0.7999 -0.2462
 8312SOL     OW36568   4.364   1.724   4.653  0.2879 -0.1706 -0.8143
 8312SOL    HW136569   4.432   1.784   4.683 -0.5484  0.5473 -0.3603
 8312SOL    HW236570   4.347   1.677   4.735 -1.6395  1.6337 -0.1644
 8313SOL     OW36571   3.817   1.254   8.082  0.4809 -0.2846  0.3248
 8313SOL    HW136572   3.853   1.266   8.170  0.7205  2.2072 -0.1283
 8313SOL    HW236573   3.781   1.167   8.102 -3.8320  1.3385 -0.4580
 8314SOL     OW36574   2.048   2.110   0.234 -0.0902 -0.2310 -0.3539
 8314SOL    HW136575   2.064   2.192   0.281  1.9261 -0.2412 -1.0542
 8314SOL    HW236576   1.955   2.129   0.220  0.1289 -1.3671 -3.2327
 8315SOL     OW36577   3.522   3.193   3.748  0.1784 -0.4836  0.2538
 8315SOL    HW136578   3.547   3.173   3.838 -0.0235 -1.4007  0.1062
 8315SOL    HW236579   3.505   3.104   3.719 -1.5427 -0.0159 -0.1822
 8316SOL     OW36580   4.406   1.416  13.096  0.2397 -0.6327  0.0961
 8316SOL    HW136581   4.375   1.503  13.121  0.4407 -0.2797 -0.8810
 8316SOL    HW236582   4.334   1.370  13.138 -0.0514  0.1823  0.4814
 8317SOL     OW36583   3.232   1.578   1.801  0.0950  0.0687  0.8038
 8317SOL    HW136584   3.263   1.633   1.873 -0.1527  1.4505 -0.1317
 8317SOL    HW236585   3.236   1.486   1.829  1.9450 -0.0588  0.0510
 8318SOL     OW36586   0.011   4.309   5.742  0.5381  0.7673 -0.2696
 8318SOL    HW136587   4.699   4.384   5.711 -0.2862  0.3723  0.1148
 8318SOL    HW236588   0.025   4.265   5.659 -0.9794 -1.2623  0.5425
 8319SOL     OW36589   1.116   4.262   5.289 -0.3213  0.0381  0.2268
 8319SOL    HW136590   1.086   4.313   5.364 -0.3397  0.1661  0.1327
 8319SOL    HW236591   1.178   4.204   5.333  2.3599  1.0539 -2.2428
 8320SOL     OW36592   3.666   4.060   8.603  0.0447 -0.6215  0.2083
 8320SOL    HW136593   3.698   4.063   8.693  1.9659 -1.2446 -0.4509
 8320SOL    HW236594   3.747   4.052   8.553 -0.4161 -1.6023 -0.3942
 8321SOL     OW36595   2.180   1.605   5.162  0.0146 -0.1465 -0.1424
 8321SOL    HW136596   2.272   1.619   5.186 -0.0725  0.6432 -0.2655
 8321SOL    HW236597   2.153   1.695   5.178 -1.6853 -0.8103  0.7133
 8322SOL     OW36598   3.818   4.251  10.321  0.0590  0.3316  0.0633
 8322SOL    HW136599   3.894   4.270  10.376 -1.6841  0.0205  2.5618
 8322SOL    HW236600   3.842   4.264  10.229 -0.8741 -0.2874 -0.2742
 8323SOL     OW36601   0.572   0.223   1.719 -0.0554  0.4651 -0.1223
 8323SOL    HW136602   0.509   0.284   1.682  0.6790  1.0159 -0.4684
 8323SOL    HW236603   0.520   0.171   1.781  0.7052 -1.8173 -1.3852
 8324SOL     OW36604   3.393   2.022   4.585  0.0601 -0.0543 -0.3137
 8324SOL    HW136605   3.467   1.984   4.538 -0.4022 -1.7127  0.3016
 8324SOL    HW236606   3.324   2.000   4.522 -0.2645  4.3260 -1.4592
 8325SOL     OW36607   4.181   2.445   1.156 -0.2253 -0.7921 -0.6869
 8325SOL    HW136608   4.168   2.396   1.237 -1.1696 -1.0482 -0.9986
 8325SOL    HW236609   4.128   2.404   1.087 -0.6729  1.9851 -1.9998
 8326SOL     OW36610   2.755   3.404   2.728 -0.0733  0.4985 -0.8939
 8326SOL    HW136611   2.737   3.312   2.708  1.5659 -0.1532  0.6956
 8326SOL    HW236612   2.669   3.446   2.721  1.2566  3.1479 -1.2498
 8327SOL     OW36613   3.566   2.167   6.975  0.4432  0.5516  0.2618
 8327SOL    HW136614   3.487   2.214   6.998 -0.3346 -0.2935 -0.6695
 8327SOL    HW236615   3.586   2.127   7.060 -1.8348  0.1427  0.5844
 8328SOL     OW36616   4.665   3.771   1.215 -0.1207 -0.0088 -0.2393
 8328SOL    HW136617   4.639   3.829   1.143 -1.2613  0.6499  0.7053
 8328SOL    HW236618   4.583   3.726   1.237  0.7766 -1.7251 -0.3886
 8329SOL     OW36619   1.179   0.295   2.964 -0.2095 -0.6272 -0.5219
 8329SOL    HW136620   1.246   0.364   2.957 -2.0166  1.0741 -0.9159
 8329SOL    HW236621   1.216   0.225   3.019  0.6803 -1.0348 -1.6413
 8330SOL     OW36622   3.973   4.413   2.214  0.4914  0.1502  0.4393
 8330SOL    HW136623   3.941   4.499   2.242 -0.5258 -0.8344  2.2602
 8330SOL    HW236624   4.061   4.408   2.251  0.3584 -0.5603  0.6541
 8331SOL     OW36625   2.671   3.762   7.366 -0.1979 -0.5112  0.7230
 8331SOL    HW136626   2.629   3.686   7.325 -1.3426  0.5935 -0.1556
 8331SOL    HW236627   2.749   3.773   7.311 -0.8698 -1.4056 -0.4141
 8332SOL     OW36628   3.829   4.587   1.643  0.2403 -0.3846 -0.2101
 8332SOL    HW136629   3.754   4.528   1.639 -0.3944  0.4200 -0.0679
 8332SOL    HW236630   3.874   4.570   1.560  1.7651 -1.7198  0.8642
 8333SOL     OW36631   2.473   2.865  11.508  0.4153 -0.4598  0.1956
 8333SOL    HW136632   2.436   2.916  11.580  1.1882  1.6065 -0.8439
 8333SOL    HW236633   2.400   2.811  11.479 -0.2507  0.7304 -0.3516
 8334SOL     OW36634   3.013   3.107   6.386  0.6251 -0.7490  0.1325
 8334SOL    HW136635   3.012   3.066   6.473  0.1475  1.3531  1.1245
 8334SOL    HW236636   3.042   3.035   6.331 -1.3771 -1.3183 -0.1774
 8335SOL     OW36637   3.795   1.406  15.878 -0.0739 -0.0492 -0.0314
 8335SOL    HW136638   3.772   1.421  15.970 -3.4279  2.4248 -1.2616
 8335SOL    HW236639   3.887   1.381  15.875 -0.3214 -1.0991  1.2678
 8336SOL     OW36640   2.216   4.287   7.385  0.2723 -0.5257  0.1389
 8336SOL    HW136641   2.130   4.258   7.354 -0.8208  2.5860  0.2465
 8336SOL    HW236642   2.278   4.245   7.324  1.2113  0.6018  0.3271
 8337SOL     OW36643   0.022   3.164   5.724  0.2334 -0.9999 -0.0551
 8337SOL    HW136644   0.099   3.151   5.780  0.6737 -1.4165 -0.7588
 8337SOL    HW236645   0.034   3.097   5.657  0.9323 -0.7972 -0.1373
 8338SOL     OW36646   0.634   3.126   8.392  0.7153 -0.2480 -0.7021
 8338SOL    HW136647   0.718   3.140   8.437  0.0145  1.7285 -0.0003
 8338SOL    HW236648   0.612   3.219   8.384 -1.3035 -0.5988  0.7329
 8339SOL     OW36649   3.987   2.298   5.503 -0.0075 -0.1539 -0.7915
 8339SOL    HW136650   3.977   2.386   5.467  1.3134  0.4407  0.3090
 8339SOL    HW236651   4.079   2.307   5.527 -0.7873  0.5762  1.9428
 8340SOL     OW36652   4.396   1.637   7.269  0.1899  0.4088  0.3000
 8340SOL    HW136653   4.489   1.616   7.263 -0.0982 -1.3138  1.8635
 8340SOL    HW236654   4.396   1.679   7.355  1.0010  0.5741  0.2210
 8341SOL     OW36655   4.426   2.768   2.090 -0.9716  0.0249 -0.2895
 8341SOL    HW136656   4.377   2.718   2.156  1.6837 -0.8095  1.0712
 8341SOL    HW236657   4.405   2.707   2.019  1.2268 -0.0994 -0.8275
 8342SOL     OW36658   2.575   1.447   2.715  0.0721  0.2493  0.1136
 8342SOL    HW136659   2.505   1.506   2.686 -0.6574 -1.8907 -2.4505
 8342SOL    HW236660   2.563   1.376   2.653  1.7951  0.0358  0.0286
 8343SOL     OW36661   4.077   4.258   8.841  0.0362 -0.0059 -0.2113
 8343SOL    HW136662   4.170   4.259   8.819 -0.1428  3.0161 -0.8117
 8343SOL    HW236663   4.057   4.181   8.788  2.9316  0.1297 -1.4936
 8344SOL     OW36664   0.929   1.564   8.340  0.7258 -0.4707 -0.1561
 8344SOL    HW136665   0.945   1.567   8.434  0.6015 -1.4421 -0.1031
 8344SOL    HW236666   0.916   1.469   8.339 -0.0945 -0.3745  1.0738
 8345SOL     OW36667   0.324   2.799   4.326 -0.3932  0.8649 -0.0488
 8345SOL    HW136668   0.404   2.757   4.358 -0.7027 -0.0484 -0.4824
 8345SOL    HW236669   0.347   2.887   4.296  0.3897 -0.1125 -2.3262
 8346SOL     OW36670   1.341   1.975   4.264  0.0425  0.6687  0.2861
 8346SOL    HW136671   1.315   1.955   4.174 -0.6672  0.4238  0.5470
 8346SOL    HW236672   1.355   1.890   4.308 -0.6473 -0.0757 -0.9400
 8347SOL     OW36673   0.469   3.474  10.251 -0.0696  0.7158  0.1930
 8347SOL    HW136674   0.441   3.399  10.198 -0.2155  1.2887 -0.5413
 8347SOL    HW236675   0.464   3.546  10.188 -3.0473 -0.6299 -1.1144
 8348SOL     OW36676   2.082   4.654   2.418 -0.2365 -0.4179  0.6062
 8348SOL    HW136677   2.040   4.590   2.360  2.4358 -0.6662 -1.0110
 8348SOL    HW236678   2.060   4.604   2.498 -0.5020 -1.6528 -0.2281
 8349SOL     OW36679   1.635   2.710   8.070 -0.6485  0.1680 -0.6940
 8349SOL    HW136680   1.587   2.641   8.023  0.1962  0.9631 -2.7158
 8349SOL    HW236681   1.592   2.787   8.033 -1.4316  1.3844  2.8022
 8350SOL     OW36682   2.978   3.089   8.387  0.3127 -0.5945 -0.6823
 8350SOL    HW136683   2.932   3.081   8.471  0.4479 -1.3228 -0.6787
 8350SOL    HW236684   3.011   3.179   8.392  1.8274 -1.2239  0.9073
 8351SOL     OW36685   1.952   1.180  17.165 -0.6631  0.0913  0.0657
 8351SOL    HW136686   1.860   1.182  17.141 -0.0468  0.1847 -2.3146
 8351SOL    HW236687   1.989   1.245  17.105 -0.3731  1.1333  1.3798
 8352SOL     OW36688   0.689   3.261   5.296 -0.2842 -0.1611  0.5068
 8352SOL    HW136689   0.630   3.325   5.256  0.0712  0.8755  1.6374
 8352SOL    HW236690   0.675   3.290   5.386 -1.5436  1.3185 -0.1576
 8353SOL     OW36691   3.301   3.150   6.638  0.0522  0.5099 -0.0053
 8353SOL    HW136692   3.381   3.174   6.685 -1.6405  0.3204  2.9542
 8353SOL    HW236693   3.260   3.232   6.609 -0.1132  0.5680  0.4014
 8354SOL     OW36694   4.407   0.184   8.465  0.0976 -0.4328  0.3081
 8354SOL    HW136695   4.432   0.226   8.383 -1.3825  0.6934  0.4319
 8354SOL    HW236696   4.318   0.154   8.448  0.2784 -0.4706 -0.5488
 8355SOL     OW36697   1.972   1.954  13.342 -0.5045  0.4623  0.4266
 8355SOL    HW136698   1.957   2.014  13.414  0.5283 -0.9801  1.8450
 8355SOL    HW236699   1.882   1.922  13.329 -0.4978  0.7461 -0.3438
 8356SOL     OW36700   0.642   4.298   1.040  0.6610 -0.0806 -0.2187
 8356SOL    HW136701   0.701   4.300   1.116  0.4601 -0.6471 -0.0509
 8356SOL    HW236702   0.677   4.220   0.998 -1.5096  0.0637 -2.2704
 8357SOL     OW36703   4.432   2.798   1.114 -0.2874  0.1015  0.4223
 8357SOL    HW136704   4.423   2.738   1.188 -0.3958 -1.6252 -0.9840
 8357SOL    HW236705   4.501   2.748   1.070 -1.2186 -0.0837 -0.8232
 8358SOL     OW36706   2.319   2.715   0.802 -0.6090  0.0355  0.1025
 8358SOL    HW136707   2.312   2.634   0.752  2.5920 -0.3200  0.2233
 8358SOL    HW236708   2.350   2.776   0.735 -2.5392 -0.7157 -1.4718
 8359SOL     OW36709   0.040   2.154   5.848 -0.1832 -0.3834 -0.4511
 8359SOL    HW136710   4.721   2.117   5.782  0.4078  0.1877 -1.2924
 8359SOL    HW236711   0.113   2.171   5.788  0.8811  0.7293  1.1514
 8360SOL     OW36712   0.872   1.596   4.487 -0.3640  0.1216 -0.7762
 8360SOL    HW136713   0.795   1.540   4.483 -0.0679 -0.2730 -0.9692
 8360SOL    HW236714   0.937   1.531   4.512 -0.8166 -0.5353 -1.3098
 8361SOL     OW36715   1.923   1.319   4.383  0.1784  0.2959 -0.2008
 8361SOL    HW136716   1.974   1.307   4.303 -1.2063 -0.4225 -0.9748
 8361SOL    HW236717   1.994   1.337   4.444  0.4461  2.1239 -1.0476
 8362SOL     OW36718   2.561   4.730   2.065  0.5333  0.1329 -0.5000
 8362SOL    HW136719   2.607   0.057   2.014  1.2014 -1.1026 -1.4746
 8362SOL    HW236720   2.560   0.038   2.148 -1.3506 -1.7009  0.5275
 8363SOL     OW36721   0.102   2.516   4.745 -0.0341 -0.9021  0.2563
 8363SOL    HW136722   0.051   2.579   4.795  1.2808  0.1383  0.3104
 8363SOL    HW236723   0.155   2.575   4.690 -0.3415 -0.1068  0.8137
 8364SOL     OW36724   4.694   0.338   4.218 -0.1001  0.2884  0.1819
 8364SOL    HW136725   0.029   0.278   4.214  0.5745  1.0855  0.7126
 8364SOL    HW236726   4.704   0.399   4.145  0.8173 -1.3338 -1.0370
 8365SOL     OW36727   2.555   4.675  12.379  0.0736 -0.2903  0.2243
 8365SOL    HW136728   2.554   0.024  12.418  1.4473 -0.2873  0.2658
 8365SOL    HW236729   2.604   4.627  12.446  4.5010  2.2234 -1.2064
 8366SOL     OW36730   3.393   3.280   1.468 -0.2169 -0.3984  0.4105
 8366SOL    HW136731   3.414   3.373   1.475 -2.2844  0.0894 -0.0033
 8366SOL    HW236732   3.474   3.239   1.498  1.1740  2.9488  1.2574
 8367SOL     OW36733   3.802   2.075   3.464 -0.0327  0.3034 -0.0585
 8367SOL    HW136734   3.828   1.997   3.415  1.4800 -0.9259  2.7186
 8367SOL    HW236735   3.762   2.130   3.397 -1.4309 -0.0104  0.5275
 8368SOL     OW36736   0.874   4.590   7.660  0.1345 -0.7518 -0.1461
 8368SOL    HW136737   0.815   4.536   7.712  0.9340  0.3032  1.8126
 8368SOL    HW236738   0.876   4.673   7.707  5.2510 -0.8445 -0.2775
 8369SOL     OW36739   4.307   2.974   9.360 -0.2991  0.0350  0.3697
 8369SOL    HW136740   4.312   3.019   9.444 -1.0892  2.0734 -0.6724
 8369SOL    HW236741   4.275   2.888   9.387 -1.4287  0.9204  1.8007
 8370SOL     OW36742   3.898   4.235   4.347 -0.0969 -0.4708 -0.2319
 8370SOL    HW136743   3.859   4.155   4.313 -0.7005  0.0724 -0.8041
 8370SOL    HW236744   3.986   4.219   4.315 -1.2992 -2.1754 -2.6015
 8371SOL     OW36745   0.783   1.618  13.467 -0.4595  0.6434 -0.5814
 8371SOL    HW136746   0.783   1.531  13.505 -0.6360  0.3158 -1.3232
 8371SOL    HW236747   0.710   1.656  13.517 -2.5139 -2.9362 -0.8722
 8372SOL     OW36748   4.179   4.671   5.515  0.8490  0.2016 -0.4349
 8372SOL    HW136749   4.158   4.579   5.534  1.2787 -0.1034 -1.4382
 8372SOL    HW236750   4.094   4.699   5.481 -0.1667 -2.3726 -0.0522
 8373SOL     OW36751   0.096   2.634   8.188 -0.2078  0.4174  0.8409
 8373SOL    HW136752   0.127   2.721   8.213 -0.2988  1.4483 -2.7377
 8373SOL    HW236753   0.004   2.649   8.164  0.3165 -0.8486 -1.9456
 8374SOL     OW36754   1.869   4.546   5.028 -0.1314  0.3184 -0.4646
 8374SOL    HW136755   1.822   4.467   5.002  0.3970  0.2143 -1.0900
 8374SOL    HW236756   1.811   4.590   5.091  0.2436 -1.0077  0.7953
 8375SOL     OW36757   3.730   1.431   6.691 -0.6120 -0.1122  0.0676
 8375SOL    HW136758   3.807   1.465   6.737 -0.7666  2.3655 -1.5366
 8375SOL    HW236759   3.749   1.338   6.705  0.5204  0.0580 -0.3083
 8376SOL     OW36760   3.333   1.067  15.153 -0.0127 -0.0178 -0.1783
 8376SOL    HW136761   3.323   0.974  15.169 -2.1925  0.3068  0.3985
 8376SOL    HW236762   3.386   1.092  15.229  0.5237  0.5015 -0.7188
 8377SOL     OW36763   3.790   0.342   9.271  0.1752 -0.5732  0.1949
 8377SOL    HW136764   3.737   0.382   9.340  0.2180  1.2489 -0.8042
 8377SOL    HW236765   3.779   0.248   9.280  2.6671 -0.8512  0.2250
 8378SOL     OW36766   2.599   2.755   1.333  0.1829  0.6828 -0.3980
 8378SOL    HW136767   2.601   2.846   1.302  0.1344  0.6528 -0.4897
 8378SOL    HW236768   2.693   2.735   1.335  0.3079  1.5184  1.5468
 8379SOL     OW36769   1.694   3.358   9.788  0.0264 -0.2796 -0.2594
 8379SOL    HW136770   1.701   3.451   9.767  0.9712  0.0946  1.6850
 8379SOL    HW236771   1.606   3.351   9.823 -0.5008  0.3566 -1.4517
 8380SOL     OW36772   2.252   2.515   5.739  0.2119 -0.0673 -0.2334
 8380SOL    HW136773   2.216   2.587   5.791 -0.0939  0.1347 -0.7358
 8380SOL    HW236774   2.168   2.475   5.720 -0.3868  0.7705  0.6518
 8381SOL     OW36775   3.995   2.220   7.926 -0.3238 -0.9429 -0.8073
 8381SOL    HW136776   3.921   2.163   7.947  0.4572 -0.9693  1.9430
 8381SOL    HW236777   4.055   2.208   8.000  0.7871 -1.0196 -1.7264
 8382SOL     OW36778   0.476   0.069   7.050  0.1001 -0.0306 -0.3040
 8382SOL    HW136779   0.391   0.104   7.075  1.8058  2.5925  1.7891
 8382SOL    HW236780   0.465   4.716   7.074  0.8633 -0.0997 -0.2241
 8383SOL     OW36781   4.580   3.543   2.868 -0.5674  0.2485 -0.2047
 8383SOL    HW136782   4.634   3.465   2.882  0.3022  0.6760 -1.2291
 8383SOL    HW236783   4.566   3.546   2.774  4.4813 -1.8440 -1.0250
 8384SOL     OW36784   4.679   1.504   1.829 -0.1537 -0.1725 -0.9150
 8384SOL    HW136785   4.635   1.433   1.782  1.6625 -1.9839  0.0820
 8384SOL    HW236786   4.629   1.500   1.910  0.7007  1.7809 -0.2800
 8385SOL     OW36787   4.463   0.842   3.118  0.3732  0.1812  0.4853
 8385SOL    HW136788   4.510   0.819   3.038 -2.4110 -2.4159 -0.4303
 8385SOL    HW236789   4.391   0.778   3.114 -0.0761  0.8032 -1.4576
 8386SOL     OW36790   4.164   0.791   2.203  0.0078 -0.1011 -0.4255
 8386SOL    HW136791   4.133   0.769   2.115 -1.4715  0.5725 -0.0745
 8386SOL    HW236792   4.118   0.874   2.218 -0.4181 -0.5361  0.6480
 8387SOL     OW36793   4.263   4.092   1.940 -0.1182 -0.2480  1.2837
 8387SOL    HW136794   4.241   4.146   1.864  0.0794 -0.1324  1.3082
 8387SOL    HW236795   4.198   4.101   2.010  0.3480  1.9660  1.4162
 8388SOL     OW36796   3.115   1.331   6.189  0.4548  0.3767  0.2689
 8388SOL    HW136797   3.084   1.290   6.108  1.1222 -0.6716  0.5444
 8388SOL    HW236798   3.140   1.251   6.235 -0.0787  0.6835  1.0890
 8389SOL     OW36799   3.112   1.477   5.836 -0.1425  0.6414 -0.2061
 8389SOL    HW136800   3.039   1.538   5.849 -0.0249  1.0101 -1.2938
 8389SOL    HW236801   3.080   1.403   5.784 -2.7796  0.5947  1.4514
 8390SOL     OW36802   1.123   2.051  10.853 -0.3125 -0.4529 -0.5482
 8390SOL    HW136803   1.188   2.114  10.883  1.1752 -2.8399  1.2861
 8390SOL    HW236804   1.037   2.092  10.865 -0.3140 -0.6918  0.2996
 8391SOL     OW36805   1.872   3.649   9.268 -0.7072  0.0395  0.3414
 8391SOL    HW136806   1.943   3.695   9.312 -0.0815  0.1763 -0.7911
 8391SOL    HW236807   1.793   3.698   9.291 -0.4143  1.5121 -1.7766
 8392SOL     OW36808   2.643   1.521   3.137 -0.0762  0.5358 -0.1188
 8392SOL    HW136809   2.595   1.530   3.054 -0.4611 -0.5931 -0.0160
 8392SOL    HW236810   2.728   1.560   3.117  0.2907  0.0147  0.4535
 8393SOL     OW36811   4.133   0.119   8.423 -0.2454 -0.9362 -0.2637
 8393SOL    HW136812   4.129   0.213   8.438 -1.1418 -0.9356 -0.5057
 8393SOL    HW236813   4.061   0.087   8.478  0.7595 -1.5366  0.7067
 8394SOL     OW36814   0.296   1.162  11.432 -0.1583 -0.1234 -0.6075
 8394SOL    HW136815   0.339   1.239  11.396  1.1248 -0.2725  0.5819
 8394SOL    HW236816   0.372   1.112  11.461 -0.3931 -0.5190 -0.6787
 8395SOL     OW36817   0.855   4.692   5.218  0.0464  0.3385  0.3887
 8395SOL    HW136818   0.805   0.016   5.167  1.9395  0.6965 -1.0028
 8395SOL    HW236819   0.815   4.692   5.305  2.6163  1.3505  1.5866
 8396SOL     OW36820   2.440   2.283   8.929 -0.4601  0.3785  0.3398
 8396SOL    HW136821   2.395   2.230   8.863  0.8533 -0.7491  0.3309
 8396SOL    HW236822   2.525   2.299   8.888 -1.6745  2.3120 -1.3703
 8397SOL     OW36823   3.091   1.894   8.952 -0.0088  0.3131 -0.4414
 8397SOL    HW136824   3.185   1.910   8.958 -0.2776  1.3320  0.9446
 8397SOL    HW236825   3.055   1.946   9.025 -0.9267 -3.3663  1.7266
 8398SOL     OW36826   4.638   4.598   3.365  0.1390 -0.3307 -0.3493
 8398SOL    HW136827   4.726   4.614   3.399  0.8227 -1.9291 -1.3496
 8398SOL    HW236828   4.574   4.610   3.435  0.9575 -0.6023  0.4466
 8399SOL     OW36829   1.977   2.133  11.938  0.4599  0.1772  0.2571
 8399SOL    HW136830   2.032   2.177  11.874  0.3007  1.3757  0.9554
 8399SOL    HW236831   2.024   2.131  12.021 -2.0706 -2.7359  1.6270
 8400SOL     OW36832   3.922   0.049   4.870 -0.4202 -0.0581  0.0013
 8400SOL    HW136833   3.828   0.039   4.855 -0.6448  1.6981  0.3187
 8400SOL    HW236834   3.955   4.701   4.893  0.6504  0.0518 -1.1304
 8401SOL     OW36835   1.388   4.460   3.914 -0.4535 -1.1812  0.2121
 8401SOL    HW136836   1.325   4.453   3.843  0.4732 -0.9645 -0.6436
 8401SOL    HW236837   1.457   4.512   3.873 -1.6078  0.3857  0.2692
 8402SOL     OW36838   0.585   0.621   7.747  0.3237  0.1165 -0.2342
 8402SOL    HW136839   0.628   0.657   7.670  0.1518 -0.7628 -0.7419
 8402SOL    HW236840   0.492   0.624   7.727 -0.1549  1.1511  2.1041
 8403SOL     OW36841   4.716   4.088   3.595  0.0020 -0.5856  0.2119
 8403SOL    HW136842   4.734   4.144   3.519  0.7269 -2.8987 -1.3220
 8403SOL    HW236843   4.642   4.036   3.563 -1.5992  0.6141  1.9406
 8404SOL     OW36844   3.465   4.179   6.116 -0.0693 -0.7564 -0.7723
 8404SOL    HW136845   3.497   4.171   6.026 -0.9302 -1.2299 -1.0301
 8404SOL    HW236846   3.424   4.093   6.122 -1.0265 -0.1464  1.2453
 8405SOL     OW36847   1.517   2.574   0.833 -0.8655 -0.1795 -0.3873
 8405SOL    HW136848   1.538   2.511   0.764  1.5264 -1.6312  1.6794
 8405SOL    HW236849   1.516   2.653   0.779 -0.3853 -0.6358 -1.0482
 8406SOL     OW36850   0.028   0.140   8.406 -0.1384  0.3567 -0.0659
 8406SOL    HW136851   4.721   0.114   8.326 -0.2458 -0.0691  0.1342
 8406SOL    HW236852   0.111   0.178   8.377 -2.5944  4.3174 -1.8875
 8407SOL     OW36853   2.266   1.403   9.177  0.1806  0.0210 -0.1040
 8407SOL    HW136854   2.276   1.308   9.168  0.1949 -0.1769  2.0303
 8407SOL    HW236855   2.182   1.423   9.135  0.4408  1.0107 -0.1437
 8408SOL     OW36856   0.114   1.483   7.333  0.2609 -0.3033  0.3625
 8408SOL    HW136857   0.071   1.404   7.364 -1.4731  0.2713 -0.5839
 8408SOL    HW236858   0.207   1.463   7.350  0.5633  0.6244 -0.1866
 8409SOL     OW36859   3.838   2.186   4.630  0.5143 -0.2419 -0.1363
 8409SOL    HW136860   3.859   2.175   4.537  0.1758 -2.6615  0.0618
 8409SOL    HW236861   3.841   2.093   4.652  0.4513 -0.4583 -1.0479
 8410SOL     OW36862   0.115   4.631   2.175  0.3366  0.1151 -0.2539
 8410SOL    HW136863   0.185   4.635   2.241  0.0562 -2.7802  0.2313
 8410SOL    HW236864   0.140   4.547   2.136 -1.7531  0.2332 -1.8110
 8411SOL     OW36865   4.520   1.761   7.973  0.0950 -0.2199 -0.0751
 8411SOL    HW136866   4.547   1.749   7.882 -0.6654  0.7631 -0.4247
 8411SOL    HW236867   4.601   1.761   8.025  0.2472  1.4205 -0.3126
 8412SOL     OW36868   1.323   0.413  12.632 -0.0845 -0.3493  0.2637
 8412SOL    HW136869   1.393   0.475  12.650 -1.0590  0.8625 -0.1502
 8412SOL    HW236870   1.263   0.424  12.705  0.0265 -0.2016  0.3326
 8413SOL     OW36871   4.558   1.674   4.356 -0.0177  0.4527  0.5887
 8413SOL    HW136872   4.568   1.767   4.377 -2.7302  1.3375 -2.1265
 8413SOL    HW236873   4.467   1.661   4.382  0.5307 -2.1950  1.2109
 8414SOL     OW36874   0.062   2.111  11.665  0.3784  0.5868  0.5972
 8414SOL    HW136875   0.018   2.100  11.581  1.6520 -0.8657  0.1357
 8414SOL    HW236876   4.734   2.097  11.732 -0.8774  0.6671 -0.6433
 8415SOL     OW36877   1.034   1.094   6.569  0.0212  0.0485 -0.3079
 8415SOL    HW136878   1.069   1.079   6.481 -0.0749  1.0156 -0.5141
 8415SOL    HW236879   0.961   1.033   6.560  0.2352 -0.1372 -0.7914
 8416SOL     OW36880   1.635   1.272   2.787 -0.1175  0.5445  0.8482
 8416SOL    HW136881   1.610   1.363   2.799  0.5009  0.8626 -0.2155
 8416SOL    HW236882   1.546   1.236   2.792  0.2845 -0.5507  0.0984
 8417SOL     OW36883   1.621   3.161   0.641  0.8726 -0.3111  0.5367
 8417SOL    HW136884   1.701   3.198   0.679  0.0789  1.8439  0.0816
 8417SOL    HW236885   1.561   3.163   0.715  0.9652 -0.0204  0.6039
 8418SOL     OW36886   2.700   1.982   9.379  0.5457  0.3785  0.2392
 8418SOL    HW136887   2.743   1.897   9.376 -1.0598 -0.4536  0.5198
 8418SOL    HW236888   2.618   1.960   9.425  1.0408  0.3227  1.0950
 8419SOL     OW36889   1.047   0.489   5.075  0.2141 -0.0965  0.4764
 8419SOL    HW136890   0.958   0.463   5.096 -0.1395 -0.2222 -1.1917
 8419SOL    HW236891   1.042   0.584   5.081  0.3544  0.0405 -1.8052
 8420SOL     OW36892   0.966   4.252   5.625 -0.0612 -0.2094 -0.0708
 8420SOL    HW136893   0.965   4.184   5.557  0.1026 -1.3559  1.0571
 8420SOL    HW236894   0.874   4.247   5.650  0.0308  2.1883  0.6801
 8421SOL     OW36895   1.660   4.067   4.952  0.7596  0.7834  0.4549
 8421SOL    HW136896   1.744   4.030   4.925 -1.7225 -2.6709 -2.5099
 8421SOL    HW236897   1.636   4.014   5.028 -0.5161  0.3801 -0.2336
 8422SOL     OW36898   4.201   0.596   7.479  0.0170 -0.0032 -0.2798
 8422SOL    HW136899   4.265   0.552   7.423  0.1143 -0.9296  0.5580
 8422SOL    HW236900   4.187   0.532   7.548 -0.3750 -1.4196 -1.6791
 8423SOL     OW36901   4.071   2.793  17.542 -0.3732 -0.4299 -0.3387
 8423SOL    HW136902   4.031   2.860  17.487 -0.3729  2.0416  2.6838
 8423SOL    HW236903   4.108   2.733  17.476  0.9595  1.3629 -1.2264
 8424SOL     OW36904   0.404   1.145  10.971 -0.0756  0.2670 -0.2173
 8424SOL    HW136905   0.350   1.069  10.990  0.6516 -0.3425 -0.5751
 8424SOL    HW236906   0.348   1.218  10.998  0.5825  1.1724 -1.2596
 8425SOL     OW36907   2.014   1.933   4.238  0.6601 -0.6970  0.4575
 8425SOL    HW136908   2.060   1.937   4.155  0.2382  0.9673  0.3127
 8425SOL    HW236909   1.960   1.861   4.205  1.1944 -1.4595  1.2347
 8426SOL     OW36910   0.073   2.312  17.235 -0.0158  0.3158  0.2735
 8426SOL    HW136911   4.720   2.285  17.243 -0.5192  2.2396  0.9181
 8426SOL    HW236912   0.104   2.227  17.203  1.0240  0.7684  0.0594
 8427SOL     OW36913   3.299   4.015  14.529  0.3034  0.6638 -0.4686
 8427SOL    HW136914   3.382   4.062  14.534 -0.1204  1.3837 -0.2218
 8427SOL    HW236915   3.267   4.025  14.619 -0.4387 -1.2043 -0.5254
 8428SOL     OW36916   1.547   0.227  10.418 -0.0407 -0.0215 -0.1986
 8428SOL    HW136917   1.544   0.259  10.508  2.8845  0.0099 -0.1025
 8428SOL    HW236918   1.641   0.209  10.408 -0.3922 -1.0293 -1.6805
 8429SOL     OW36919   2.325   1.256   4.033 -0.0336 -0.0871  0.4868
 8429SOL    HW136920   2.293   1.221   3.949  0.4354  0.3983  0.1082
 8429SOL    HW236921   2.417   1.269   4.011 -0.2920  2.7638  1.2086
 8430SOL     OW36922   0.173   2.206   3.905 -0.2232 -0.4638 -0.0044
 8430SOL    HW136923   0.261   2.196   3.869 -0.6456  1.3118 -1.5408
 8430SOL    HW236924   0.127   2.136   3.859 -1.6916  0.4867  0.0149
 8431SOL     OW36925   0.929   0.314  15.879  0.4342 -0.3091  0.1442
 8431SOL    HW136926   0.942   0.375  15.806 -0.1707 -0.8377 -0.4090
 8431SOL    HW236927   0.852   0.264  15.853 -0.5157  2.1843 -1.8958
 8432SOL     OW36928   3.867   3.075  10.325  0.0799  0.2995 -0.1308
 8432SOL    HW136929   3.782   3.088  10.366 -1.1705 -0.3018 -2.5702
 8432SOL    HW236930   3.907   3.154  10.362 -1.0514 -0.0728  1.8781
 8433SOL     OW36931   2.135   2.459   6.553  0.3361 -0.2079 -0.1933
 8433SOL    HW136932   2.190   2.407   6.611  0.5309 -0.2146 -0.3844
 8433SOL    HW236933   2.072   2.496   6.615 -0.4002 -0.4273 -0.8077
 8434SOL     OW36934   0.842   4.195   7.816 -0.2093 -0.5210 -0.3248
 8434SOL    HW136935   0.785   4.140   7.869  0.1976  0.2237  0.8771
 8434SOL    HW236936   0.927   4.166   7.849 -0.8512 -0.5101  1.3097
 8435SOL     OW36937   1.858   3.683   7.975  0.0234  0.3078  0.3890
 8435SOL    HW136938   1.893   3.712   7.890  0.1219 -2.5884 -0.5600
 8435SOL    HW236939   1.818   3.766   8.000  0.0431  0.3447  0.2990
 8436SOL     OW36940   1.850   1.547   3.892  0.2001  0.4905  0.2033
 8436SOL    HW136941   1.939   1.563   3.859  0.4773  1.4941  1.3970
 8436SOL    HW236942   1.859   1.457   3.921 -0.5699  0.1462 -0.6482
 8437SOL     OW36943   0.034   3.548   5.372  0.0630 -0.2249 -0.1144
 8437SOL    HW136944   0.119   3.545   5.329 -0.2814 -2.2775 -0.6991
 8437SOL    HW236945   0.012   3.458   5.399 -0.6327  0.7635  2.6091
 8438SOL     OW36946   0.583   3.930  14.809  0.2604 -0.0156  0.8663
 8438SOL    HW136947   0.541   3.844  14.820 -0.8093  0.0086 -2.9126
 8438SOL    HW236948   0.675   3.906  14.802  0.5348  1.0747  0.7302
 8439SOL     OW36949   4.487   0.161   3.186 -0.7858  0.6031 -0.4677
 8439SOL    HW136950   4.502   0.093   3.251 -0.5840  0.5486 -0.5729
 8439SOL    HW236951   4.570   0.203   3.206 -0.3452 -0.7252  0.5204
 8440SOL     OW36952   2.653   4.305   7.415 -0.0816  0.2034  0.1892
 8440SOL    HW136953   2.708   4.312   7.493  0.0350  2.1029 -0.0724
 8440SOL    HW236954   2.611   4.225   7.448 -0.2580  0.6416  1.0092
 8441SOL     OW36955   2.011   0.178   3.371 -0.9405  0.4423  0.6091
 8441SOL    HW136956   2.056   0.182   3.455  0.3592  0.4585 -0.0849
 8441SOL    HW236957   2.080   0.213   3.315 -0.6059 -0.8910  0.1986
 8442SOL     OW36958   1.855   2.344   6.592 -0.6513  0.9617 -0.5255
 8442SOL    HW136959   1.902   2.262   6.589 -0.1684  1.3129 -2.2589
 8442SOL    HW236960   1.766   2.319   6.617  0.4514  0.2156  2.6330
 8443SOL     OW36961   4.030   3.628   5.250 -0.5035 -0.0085  0.2337
 8443SOL    HW136962   4.067   3.584   5.327 -1.0167  0.2478  0.6263
 8443SOL    HW236963   4.103   3.678   5.212  0.4504 -1.7615 -0.2600
 8444SOL     OW36964   3.876   2.415   6.120 -0.3183  0.3140 -0.0977
 8444SOL    HW136965   3.787   2.421   6.155 -1.7593 -3.9695 -3.0076
 8444SOL    HW236966   3.863   2.457   6.035 -0.7062 -0.4914 -0.4382
 8445SOL     OW36967   3.235   3.623  14.211 -0.1627  0.1418 -0.5766
 8445SOL    HW136968   3.267   3.710  14.237  1.5222 -0.5238 -0.4402
 8445SOL    HW236969   3.317   3.583  14.182  0.4865  2.3042 -1.7167
 8446SOL     OW36970   0.350   1.024  17.160  0.0467 -0.1012  0.1439
 8446SOL    HW136971   0.432   1.031  17.111  0.5605  1.8207  1.2987
 8446SOL    HW236972   0.338   0.929  17.153 -1.2119  0.0894 -0.2725
 8447SOL     OW36973   2.226   2.253   4.447  0.0642 -0.6482 -0.2824
 8447SOL    HW136974   2.245   2.195   4.373  1.6361  2.0361 -1.9657
 8447SOL    HW236975   2.132   2.242   4.463 -0.0781 -1.3822 -1.5763
 8448SOL     OW36976   1.268   2.253   8.545  0.1800 -0.5438 -0.0093
 8448SOL    HW136977   1.220   2.265   8.463  1.2684 -1.7657 -0.8194
 8448SOL    HW236978   1.228   2.177   8.586 -0.3708  0.3754  1.1553
 8449SOL     OW36979   4.604   3.363  17.583 -0.6333 -0.5539  0.3641
 8449SOL    HW136980   4.608   3.268  17.595 -2.8170 -0.2796  3.1006
 8449SOL    HW236981   4.549   3.387  17.657 -0.7382  0.1321  0.0663
 8450SOL     OW36982   1.134   2.346   2.040  0.4507 -0.3519  0.0814
 8450SOL    HW136983   1.216   2.385   2.010  0.1681 -0.1894 -0.4830
 8450SOL    HW236984   1.088   2.429   2.030  0.7091  0.0645  2.3811
 8451SOL     OW36985   3.746   0.128   5.533  0.1761 -0.3490 -0.6320
 8451SOL    HW136986   3.800   0.167   5.464 -0.8648  0.2188 -1.1315
 8451SOL    HW236987   3.701   0.201   5.575 -0.3662 -1.3210  0.4797
 8452SOL     OW36988   3.040   4.009   5.461  1.0529 -0.1977  0.0213
 8452SOL    HW136989   2.968   4.039   5.516  1.5897 -1.9337  1.6764
 8452SOL    HW236990   3.048   4.078   5.395 -1.0067 -1.7295 -1.8430
 8453SOL     OW36991   0.753   1.006  10.283  0.0236 -0.5361 -0.1768
 8453SOL    HW136992   0.716   0.981  10.198  1.1992  0.0391 -0.8560
 8453SOL    HW236993   0.701   1.085  10.297  0.6385  0.1467 -1.8039
 8454SOL     OW36994   3.703   0.584   7.478 -0.5664  0.2263 -0.3925
 8454SOL    HW136995   3.657   0.622   7.553  2.6561 -1.2105  2.3167
 8454SOL    HW236996   3.771   0.541   7.529 -1.9659 -1.5560 -0.0265
 8455SOL     OW36997   2.380   2.905   7.616 -0.4530  0.3041  0.0819
 8455SOL    HW136998   2.398   2.825   7.666  2.2328  1.0677  0.3427
 8455SOL    HW236999   2.306   2.939   7.665  0.3259  0.8941  0.8347
 8456SOL     OW37000   2.576   2.953  10.868 -0.7215  0.6374 -0.0782
 8456SOL    HW137001   2.656   3.006  10.873  2.1544 -3.3874 -2.5997
 8456SOL    HW237002   2.557   2.924  10.956  3.1189 -2.0853 -0.1384
 8457SOL     OW37003   2.523   3.668   1.824 -0.0696  0.0730 -0.1389
 8457SOL    HW137004   2.612   3.633   1.831  1.1423  3.2676  0.6339
 8457SOL    HW237005   2.491   3.632   1.907 -1.2607  1.0312 -0.1939
 8458SOL     OW37006   2.503   1.968   1.443  0.3925  0.3675 -0.6729
 8458SOL    HW137007   2.474   1.882   1.474 -1.4769  1.8619  1.6465
 8458SOL    HW237008   2.485   2.026   1.516 -1.5553 -3.6423  2.0661
 8459SOL     OW37009   2.896   2.433   7.125 -0.0900 -0.4342  0.7590
 8459SOL    HW137010   2.894   2.338   7.136  1.2315 -0.3989  1.3006
 8459SOL    HW237011   2.962   2.450   7.192 -0.5499 -3.7460  2.0722
 8460SOL     OW37012   2.612   2.602   8.772  0.0364 -0.3458  0.5317
 8460SOL    HW137013   2.684   2.662   8.789  0.3400 -0.5782  0.0603
 8460SOL    HW237014   2.602   2.614   8.677  0.0250 -0.3863  0.5278
 8461SOL     OW37015   0.700   0.137  17.658 -0.1823  0.1238  0.6213
 8461SOL    HW137016   0.714   0.187  17.577 -1.9859 -0.7247 -0.2027
 8461SOL    HW237017   0.792   0.120  17.681 -0.0305  0.8315  0.5381
 8462SOL     OW37018   3.846   2.548   8.804  0.3598 -0.0644 -0.3022
 8462SOL    HW137019   3.843   2.454   8.824  1.3147 -0.0823 -0.2356
 8462SOL    HW237020   3.779   2.553   8.736  1.5159  2.4134 -1.2574
 8463SOL     OW37021   1.617   3.273   4.271  0.1389 -0.2622  0.3175
 8463SOL    HW137022   1.704   3.253   4.236 -0.2184 -1.4773  0.1157
 8463SOL    HW237023   1.620   3.229   4.356 -2.3695  0.3811  0.7498
 8464SOL     OW37024   4.272   1.914   5.068 -0.4085 -0.5779 -0.0713
 8464SOL    HW137025   4.195   1.879   5.112  0.3114 -3.0449 -0.7508
 8464SOL    HW237026   4.225   1.966   5.003 -1.3325  0.3703  1.3721
 8465SOL     OW37027   1.672   2.072   1.419 -0.1450  0.2205  0.5252
 8465SOL    HW137028   1.647   2.152   1.373  1.2190  1.2938  1.6152
 8465SOL    HW237029   1.619   2.081   1.499  0.8305  3.0572  0.8452
 8466SOL     OW37030   3.650   3.312   8.841 -0.0365  0.1645  0.7953
 8466SOL    HW137031   3.636   3.275   8.754 -1.4758 -1.9028  1.8815
 8466SOL    HW237032   3.658   3.233   8.896 -0.4550 -1.1425 -1.0473
 8467SOL     OW37033   0.508   0.985   7.706 -0.4059 -0.1504 -0.0707
 8467SOL    HW137034   0.447   1.017   7.773 -0.2294  0.4395 -0.1902
 8467SOL    HW237035   0.446   0.936   7.652  0.0261 -1.0010  0.1931
 8468SOL     OW37036   0.333   2.098  15.484  0.4468  0.2224  0.3694
 8468SOL    HW137037   0.403   2.033  15.485 -1.2126 -1.6066 -1.7554
 8468SOL    HW237038   0.273   2.051  15.427 -0.1985  0.2388  1.0316
 8469SOL     OW37039   3.841   2.834   4.209 -0.0258  0.3846  0.2583
 8469SOL    HW137040   3.765   2.776   4.212 -0.4845  0.9197 -1.1234
 8469SOL    HW237041   3.823   2.893   4.283  0.4751  0.6062  0.2063
 8470SOL     OW37042   4.693   3.588   2.025 -0.7200 -0.6904  0.4909
 8470SOL    HW137043   4.603   3.619   2.018 -0.3173  0.0337 -1.6496
 8470SOL    HW237044   4.732   3.674   2.043 -2.6678  0.2272  0.2827
 8471SOL     OW37045   1.283   2.554   2.806 -0.5321  0.2655 -0.0455
 8471SOL    HW137046   1.232   2.551   2.887 -0.6216  1.7599 -0.0365
 8471SOL    HW237047   1.236   2.492   2.750 -0.7072 -0.6753  1.1319
 8472SOL     OW37048   0.535   0.957   8.147  0.1676 -0.0073 -0.1980
 8472SOL    HW137049   0.565   0.971   8.237  0.1244 -3.2705  0.3281
 8472SOL    HW237050   0.616   0.961   8.096  1.0406  2.2076  1.3204
 8473SOL     OW37051   1.956   3.049   9.948 -0.6819 -0.3839 -0.1360
 8473SOL    HW137052   1.979   3.026  10.038  1.9514  0.3302 -0.6362
 8473SOL    HW237053   1.861   3.042   9.953 -0.6152 -0.4227  1.0022
 8474SOL     OW37054   1.372   2.176   7.839  0.4286  0.6639  0.3854
 8474SOL    HW137055   1.324   2.162   7.921 -0.5834  4.2138  0.4233
 8474SOL    HW237056   1.354   2.096   7.790  1.4870 -0.6995  2.2441
 8475SOL     OW37057   4.534   1.925   5.460 -0.0274 -0.2003  0.5569
 8475SOL    HW137058   4.453   1.961   5.427 -0.5212 -2.0176 -0.1793
 8475SOL    HW237059   4.600   1.963   5.402 -2.1491  0.5063 -1.3457
 8476SOL     OW37060   0.693   3.921   8.886  0.3573  0.4109  0.4785
 8476SOL    HW137061   0.737   3.993   8.841  0.5924 -0.0224  0.0093
 8476SOL    HW237062   0.770   3.865   8.895 -0.8193 -1.0183  1.5135
 8477SOL     OW37063   3.780   2.775   2.439  0.1023  0.7213 -0.4420
 8477SOL    HW137064   3.817   2.806   2.356 -3.0038  0.8408 -1.7880
 8477SOL    HW237065   3.690   2.753   2.416  0.6472 -0.4522 -1.4487
 8478SOL     OW37066   1.690   3.554  15.851  0.1045 -0.2721  0.0912
 8478SOL    HW137067   1.760   3.494  15.825 -0.1592 -2.0038  3.4598
 8478SOL    HW237068   1.727   3.640  15.832 -2.0390  0.5746 -0.2433
 8479SOL     OW37069   1.437   4.193   5.090 -0.1888 -0.5311  0.4260
 8479SOL    HW137070   1.470   4.246   5.163 -1.1766  1.2922 -0.4633
 8479SOL    HW237071   1.458   4.105   5.122  1.6865 -0.3278 -0.2254
 8480SOL     OW37072   0.862   0.063  12.824  0.3783 -0.3169  0.3269
 8480SOL    HW137073   0.793   0.084  12.761  0.2167  0.1808  0.6763
 8480SOL    HW237074   0.840   4.711  12.844 -0.1588 -0.6454 -1.6757
 8481SOL     OW37075   3.748   2.548  17.376 -0.3203 -0.1613 -0.0113
 8481SOL    HW137076   3.742   2.636  17.340 -1.0987  0.2547  1.1469
 8481SOL    HW237077   3.786   2.556  17.464 -0.6375  0.6890  0.0451
 8482SOL     OW37078   2.879   4.001   2.895  0.2254  0.1283  0.0509
 8482SOL    HW137079   2.856   4.029   2.984  2.5180 -0.3173  0.7979
 8482SOL    HW237080   2.882   4.082   2.845  0.4089 -1.0099 -1.7825
 8483SOL     OW37081   2.591   3.602   5.733 -0.4372  0.2224  0.0216
 8483SOL    HW137082   2.634   3.684   5.708  0.0245  0.0081  0.0990
 8483SOL    HW237083   2.579   3.575   5.642  0.2946  0.2434 -0.0877
 8484SOL     OW37084   3.621   1.261   4.844 -0.0199  0.1876  0.2636
 8484SOL    HW137085   3.528   1.237   4.840 -0.3969  1.6654  0.3083
 8484SOL    HW237086   3.661   1.177   4.820 -0.0469 -0.4878  2.5500
 8485SOL     OW37087   4.380   0.777   7.327  0.3922  0.3696  0.1875
 8485SOL    HW137088   4.373   0.751   7.236  0.7193 -0.6977  0.4656
 8485SOL    HW237089   4.304   0.835   7.338  2.2304  2.1800  3.5146
 8486SOL     OW37090   1.156   2.586   6.782 -0.5481  0.1661 -0.6519
 8486SOL    HW137091   1.153   2.635   6.864 -0.6961 -1.0595  0.0566
 8486SOL    HW237092   1.103   2.648   6.730  1.1716  1.0857 -1.2981
 8487SOL     OW37093   2.739   4.635  12.106 -0.1777 -0.9901  0.0847
 8487SOL    HW137094   2.726   4.708  12.046 -1.9517 -0.6192  0.9178
 8487SOL    HW237095   2.718   4.683  12.186 -2.0364  1.8073 -2.0987
 8488SOL     OW37096   1.615   1.052   2.585  0.6160  0.3212  0.5923
 8488SOL    HW137097   1.561   1.123   2.621 -1.3202 -0.7596 -0.1561
 8488SOL    HW237098   1.578   1.060   2.497 -5.7606 -0.9445  3.1182
 8489SOL     OW37099   1.117   2.675   7.031  0.2231  0.2186 -0.0368
 8489SOL    HW137100   1.026   2.647   7.033 -0.1800  1.2805 -2.7973
 8489SOL    HW237101   1.172   2.606   7.067 -0.9101 -2.5756 -3.6620
 8490SOL     OW37102   1.988   1.931   8.354  0.1354 -0.1921 -0.5361
 8490SOL    HW137103   1.910   1.938   8.299  0.4837 -0.8904 -1.1155
 8490SOL    HW237104   1.985   2.011   8.407 -3.2295 -1.4088  1.0636
 8491SOL     OW37105   2.493   4.272   5.520 -0.1251 -0.3576  0.0362
 8491SOL    HW137106   2.439   4.273   5.599 -0.4094 -0.7150 -0.1573
 8491SOL    HW237107   2.576   4.284   5.567 -0.1738 -0.9319  0.2638
 8492SOL     OW37108   2.218   2.302   5.410 -0.6519  0.4101  0.2749
 8492SOL    HW137109   2.241   2.383   5.364  0.0863  0.4701  0.7559
 8492SOL    HW237110   2.291   2.294   5.471 -0.3916 -1.0196 -0.2261
 8493SOL     OW37111   3.446   2.920  12.319  0.0602 -0.8746  0.4094
 8493SOL    HW137112   3.451   2.954  12.230 -0.2894  1.9741  1.4414
 8493SOL    HW237113   3.485   2.838  12.291 -0.8713 -1.3471  0.5106
 8494SOL     OW37114   0.187   0.833   3.149  0.4231  0.2776  0.3072
 8494SOL    HW137115   0.231   0.775   3.211 -0.6092  0.6234  1.3702
 8494SOL    HW237116   0.140   0.773   3.091  0.7952 -1.0367  1.3581
 8495SOL     OW37117   2.264   1.786  10.774  0.1766  0.8895  0.6345
 8495SOL    HW137118   2.272   1.816  10.683 -2.1562  1.8147  0.7469
 8495SOL    HW237119   2.331   1.840  10.816  1.5459  0.5244 -1.0370
 8496SOL     OW37120   3.385   1.740   5.659  0.4821 -0.2441 -0.2327
 8496SOL    HW137121   3.379   1.787   5.576  1.8997  1.0220  0.3690
 8496SOL    HW237122   3.462   1.683   5.654 -0.2652 -1.3248  0.5715
 8497SOL     OW37123   0.840   1.601   6.225  0.2810  1.0974  0.9665
 8497SOL    HW137124   0.793   1.605   6.309  1.6173  2.8963  1.6412
 8497SOL    HW237125   0.832   1.508   6.206 -3.2185  1.7197 -0.5250
 8498SOL     OW37126   2.794   2.326   9.140  0.8437 -0.2983 -0.7252
 8498SOL    HW137127   2.784   2.385   9.215  2.3001  0.5791 -1.2188
 8498SOL    HW237128   2.742   2.246   9.152  0.3450  0.3933  1.6998
 8499SOL     OW37129   2.122   3.453  12.150 -0.2165 -0.2260  0.3368
 8499SOL    HW137130   2.065   3.479  12.222 -0.4670 -0.4676  0.2242
 8499SOL    HW237131   2.179   3.530  12.145 -3.5580  2.3455  2.3406
 8500SOL     OW37132   1.641   0.795   6.431  0.3248  0.5203 -0.3303
 8500SOL    HW137133   1.711   0.846   6.472 -0.7366  0.2389  1.8298
 8500SOL    HW237134   1.609   0.729   6.493 -0.2650  0.6104 -0.5349
 8501SOL     OW37135   2.418   4.504   1.631  0.2333 -0.3737  0.2948
 8501SOL    HW137136   2.433   4.507   1.725 -1.1378  0.5431  0.4757
 8501SOL    HW237137   2.477   4.437   1.595  1.3711  0.4618  0.5777
 8502SOL     OW37138   3.294   0.321   4.452 -0.3636  0.2357  0.8654
 8502SOL    HW137139   3.205   0.352   4.434 -0.1066 -0.2931 -1.2059
 8502SOL    HW237140   3.340   0.390   4.405 -1.3995  0.5650  0.3436
 8503SOL     OW37141   3.568   4.092   6.918 -0.1676 -0.3315  0.1626
 8503SOL    HW137142   3.584   4.183   6.895  0.7162 -0.3593  0.6551
 8503SOL    HW237143   3.634   4.077   6.986  0.6948  0.9968 -0.3769
 8504SOL     OW37144   1.652   0.187  11.070 -0.0128 -0.0964  0.1617
 8504SOL    HW137145   1.561   0.169  11.046  0.3176 -0.9528 -0.4421
 8504SOL    HW237146   1.695   0.180  10.984  1.0328  1.2913  0.5594
 8505SOL     OW37147   4.420   3.706   8.436 -0.4526 -0.0376  0.0543
 8505SOL    HW137148   4.386   3.632   8.487  0.7583  0.5473  1.7405
 8505SOL    HW237149   4.362   3.695   8.361 -0.0022  1.8675 -0.5777
 8506SOL     OW37150   4.728   2.966   4.858 -0.5188  0.3104  0.2465
 8506SOL    HW137151   4.640   2.963   4.896 -1.0319  3.5895 -0.6931
 8506SOL    HW237152   0.026   2.881   4.880  0.3671  0.8331  0.7978
 8507SOL     OW37153   4.680   4.245  11.293 -0.0058 -0.4223 -0.0812
 8507SOL    HW137154   0.033   4.225  11.274 -0.0876 -1.0238  0.1566
 8507SOL    HW237155   4.635   4.163  11.271  0.8711 -0.9740  0.1659
 8508SOL     OW37156   1.922   0.634   4.565  0.1068  0.6116  0.1066
 8508SOL    HW137157   1.842   0.589   4.591  1.0116 -1.6479 -1.0050
 8508SOL    HW237158   1.983   0.608   4.633  0.1709 -0.6384 -0.4235
 8509SOL     OW37159   0.917   1.884   2.568 -0.2356 -0.1998 -0.5553
 8509SOL    HW137160   0.931   1.859   2.477 -2.6645 -1.6425 -0.5270
 8509SOL    HW237161   0.984   1.824   2.601  0.6318 -0.5310 -2.9219
 8510SOL     OW37162   0.712   1.738  11.077 -0.2827  0.0353 -0.3854
 8510SOL    HW137163   0.758   1.670  11.125 -0.0220  0.4163 -0.0920
 8510SOL    HW237164   0.708   1.803  11.148 -2.8583  1.0890 -1.4778
 8511SOL     OW37165   0.944   0.206   4.288  0.7088  0.1801  0.3530
 8511SOL    HW137166   0.870   0.167   4.335  0.4750 -0.3513 -0.4611
 8511SOL    HW237167   0.895   0.241   4.213  1.1779 -1.3757 -0.6681
 8512SOL     OW37168   0.915   2.855   6.061  0.1426 -0.0384 -0.5468
 8512SOL    HW137169   0.871   2.899   6.134 -0.0166  0.0087 -0.6719
 8512SOL    HW237170   0.975   2.921   6.025  2.1609 -1.3859  0.3370
 8513SOL     OW37171   0.096   1.768   7.409  0.4107  0.7684  0.3984
 8513SOL    HW137172   0.128   1.688   7.452  2.1509  0.0517 -2.2035
 8513SOL    HW237173   0.177   1.796   7.366  0.7316  0.7249  0.9665
 8514SOL     OW37174   1.455   2.946   7.661  0.2642 -0.2299 -0.0185
 8514SOL    HW137175   1.366   2.975   7.684  0.6102  0.9334 -0.1853
 8514SOL    HW237176   1.468   2.999   7.583 -0.8587  1.3813  0.8812
 8515SOL     OW37177   3.548   3.339   8.107 -0.0990 -0.0907 -0.3743
 8515SOL    HW137178   3.464   3.383   8.104  0.7029  1.4559  0.0010
 8515SOL    HW237179   3.529   3.259   8.058 -0.9872 -1.9432  2.9986
 8516SOL     OW37180   4.486   3.271   2.341 -0.6222 -0.0587  0.3679
 8516SOL    HW137181   4.421   3.202   2.342  1.3574 -1.9439 -1.0099
 8516SOL    HW237182   4.531   3.274   2.256 -0.1888  0.8858  0.6253
 8517SOL     OW37183   3.701   0.506   2.761  0.6037  0.0823 -0.7775
 8517SOL    HW137184   3.736   0.425   2.797  1.4461  1.9399  2.5348
 8517SOL    HW237185   3.712   0.494   2.666  0.4231  0.7746 -0.8842
 8518SOL     OW37186   4.333   3.166  13.751 -0.0881  0.0454  0.3652
 8518SOL    HW137187   4.363   3.076  13.760 -2.0929 -0.6585  0.0180
 8518SOL    HW237188   4.265   3.147  13.686 -0.6048 -1.0849  1.2381
 8519SOL     OW37189   0.618   2.977   1.956 -0.2928  0.2380 -0.3252
 8519SOL    HW137190   0.656   3.050   2.004 -3.3088  1.9458 -0.5674
 8519SOL    HW237191   0.592   3.021   1.876 -0.7590  1.8148  0.7095
 8520SOL     OW37192   3.924   2.682   1.997 -0.0806 -0.0212 -0.2633
 8520SOL    HW137193   3.965   2.665   2.081  0.6849  1.3521 -0.3639
 8520SOL    HW237194   3.858   2.745   2.027 -0.2103  0.2733 -1.1471
 8521SOL     OW37195   0.344   0.058   0.676 -0.4829  0.1461  0.1861
 8521SOL    HW137196   0.390   4.738   0.736 -0.6893  1.6633  1.8291
 8521SOL    HW237197   0.263   0.058   0.727  0.9980  0.3533  2.5292
 8522SOL     OW37198   3.843   0.056   8.124  0.0537  0.6907 -0.1709
 8522SOL    HW137199   3.803   0.078   8.209 -1.2537 -0.2488 -0.5349
 8522SOL    HW237200   3.776   4.738   8.087 -0.7308  0.6740  1.2509
 8523SOL     OW37201   3.654   2.121   2.583  0.0828  0.0821  0.5260
 8523SOL    HW137202   3.685   2.071   2.508 -0.1754  0.6523  0.0356
 8523SOL    HW237203   3.739   2.146   2.618  0.0360 -0.8548  1.3021
 8524SOL     OW37204   3.246   0.519   6.514 -0.1731  0.0791 -0.1242
 8524SOL    HW137205   3.229   0.542   6.422 -2.0595 -0.7735  0.0247
 8524SOL    HW237206   3.188   0.576   6.564  0.7492 -0.4176  1.5016
 8525SOL     OW37207   2.103   0.384   5.721  0.0077  0.5655  0.3969
 8525SOL    HW137208   2.055   0.412   5.643  0.2477 -0.7904 -0.2398
 8525SOL    HW237209   2.193   0.402   5.695  0.1351 -0.2870  0.2453
 8526SOL     OW37210   3.602   1.753   4.649  0.3457 -0.4719  0.1443
 8526SOL    HW137211   3.608   1.790   4.561 -0.0746  0.9103  0.7044
 8526SOL    HW237212   3.630   1.663   4.633 -0.5336 -0.6984 -0.1014
 8527SOL     OW37213   4.720   2.802   2.438  0.3593 -0.4821  0.0451
 8527SOL    HW137214   0.004   2.843   2.355 -1.1541  0.1182 -0.0712
 8527SOL    HW237215   4.660   2.871   2.468 -0.8922 -2.1332  1.3273
 8528SOL     OW37216   2.548   3.745   9.458 -0.5730 -0.2191 -0.1826
 8528SOL    HW137217   2.592   3.724   9.541 -0.8966 -0.9181 -0.1902
 8528SOL    HW237218   2.492   3.667   9.453 -2.2518  1.0794 -1.5221
 8529SOL     OW37219   1.665   4.675   8.821 -0.4132 -0.2398 -0.0264
 8529SOL    HW137220   1.759   4.687   8.835 -0.2793  2.0409 -2.7586
 8529SOL    HW237221   1.652   4.597   8.876 -0.9492 -1.3313 -1.6906
 8530SOL     OW37222   2.364   0.882   5.774 -0.1281  0.3598  0.3947
 8530SOL    HW137223   2.280   0.912   5.739  0.7823  0.9093 -1.3230
 8530SOL    HW237224   2.420   0.916   5.704 -0.1261  1.5727  0.9672
 8531SOL     OW37225   3.926   0.754  13.394  0.1423  0.4989 -0.4408
 8531SOL    HW137226   4.011   0.710  13.386 -0.6774 -1.2160  0.0883
 8531SOL    HW237227   3.947   0.812  13.321  1.0590 -1.9787 -2.1599
 8532SOL     OW37228   3.931   0.457   3.340  0.5934 -0.4302  0.0988
 8532SOL    HW137229   3.979   0.386   3.383  0.6339 -0.3426  0.1958
 8532SOL    HW237230   3.995   0.498   3.283  1.3193  0.3003  1.4516
 8533SOL     OW37231   0.937   0.534   9.141  0.4179 -0.3351 -0.6674
 8533SOL    HW137232   0.924   0.445   9.175 -0.8245 -0.6610 -2.0013
 8533SOL    HW237233   1.024   0.561   9.170  0.6540  0.2776 -1.9998
 8534SOL     OW37234   0.187   2.853   2.838 -0.1570  0.9716  0.1897
 8534SOL    HW137235   0.153   2.907   2.767 -0.7190  0.9604  0.4483
 8534SOL    HW237236   0.119   2.874   2.902 -0.8808 -2.7709  0.7020
 8535SOL     OW37237   4.250   1.817  14.729 -0.1789  0.5293  0.7261
 8535SOL    HW137238   4.219   1.908  14.736  0.0190  0.4968  2.0336
 8535SOL    HW237239   4.254   1.789  14.820 -0.6064 -1.0979  0.2565
 8536SOL     OW37240   1.747   3.875   7.190  0.0685  0.0552  0.2943
 8536SOL    HW137241   1.728   3.959   7.148  0.2741 -0.3057 -0.5146
 8536SOL    HW237242   1.727   3.895   7.282  0.1448  1.3803  0.0310
 8537SOL     OW37243   2.135   3.786   7.818 -0.1752 -0.1980  0.0771
 8537SOL    HW137244   2.208   3.766   7.878 -0.2728  0.0304  0.2750
 8537SOL    HW237245   2.078   3.843   7.870 -0.8483 -0.6309 -0.1995
 8538SOL     OW37246   0.448   0.813  12.117 -0.0557  0.1188 -0.3818
 8538SOL    HW137247   0.470   0.869  12.191 -0.0324 -1.1915  0.6013
 8538SOL    HW237248   0.490   0.859  12.045 -1.4452  1.2422 -0.4751
 8539SOL     OW37249   4.118   1.391   1.414 -0.1953 -0.2252  0.7696
 8539SOL    HW137250   4.195   1.342   1.385 -1.2104 -1.4684  0.2025
 8539SOL    HW237251   4.058   1.329   1.454 -0.5662 -0.6841 -0.4938
 8540SOL     OW37252   3.399   3.907   4.172 -0.8660 -0.0544 -0.2256
 8540SOL    HW137253   3.308   3.876   4.180 -0.1917 -2.3566 -1.3654
 8540SOL    HW237254   3.394   3.929   4.079  2.5422 -1.8055 -0.8372
 8541SOL     OW37255   2.560   2.896   4.915  0.0043  0.2669 -0.2121
 8541SOL    HW137256   2.541   2.965   4.851 -0.9635  1.0726  0.9517
 8541SOL    HW237257   2.527   2.937   4.995 -1.6164 -1.2567 -0.1073
 8542SOL     OW37258   2.847   1.618   0.629  0.4428  0.0053 -0.0015
 8542SOL    HW137259   2.941   1.624   0.617  0.3437  1.0806 -0.2587
 8542SOL    HW237260   2.817   1.680   0.695  2.1693  2.2643 -1.3406
 8543SOL     OW37261   1.275   2.937   5.455 -0.4992 -0.3329  0.1438
 8543SOL    HW137262   1.268   2.974   5.543  1.5322 -1.9815  1.0038
 8543SOL    HW237263   1.353   2.882   5.461 -0.3664  0.0491  1.9086
 8544SOL     OW37264   0.233   1.224   3.730  0.1812  0.3147  0.4926
 8544SOL    HW137265   0.160   1.196   3.786 -1.1170  1.0733 -0.8248
 8544SOL    HW237266   0.240   1.318   3.745  1.0653  0.2490  0.5157
 8545SOL     OW37267   2.728   3.786   5.321  0.2178 -0.0336  0.3010
 8545SOL    HW137268   2.795   3.847   5.288  0.8596 -0.2596  1.1977
 8545SOL    HW237269   2.775   3.703   5.316 -0.5200 -0.3057 -2.2538
 8546SOL     OW37270   0.289   1.539   9.358  0.2206  0.1853  0.1667
 8546SOL    HW137271   0.274   1.599   9.431  0.1806 -0.4781  0.6979
 8546SOL    HW237272   0.269   1.451   9.389 -1.0015  0.0640 -0.9405
 8547SOL     OW37273   1.684   3.746   1.114  0.0077 -0.7097  0.3931
 8547SOL    HW137274   1.712   3.779   1.200  2.3765  0.4787 -0.8366
 8547SOL    HW237275   1.598   3.711   1.136  0.9697 -2.1904  1.8090
 8548SOL     OW37276   2.245   3.099   2.514  0.4001  0.0242  0.5437
 8548SOL    HW137277   2.334   3.106   2.548  0.1938 -1.9829  1.4843
 8548SOL    HW237278   2.260   3.079   2.422  0.6687  0.0572  0.5817
 8549SOL     OW37279   0.223   1.290   9.376 -0.4141 -0.0871  0.5226
 8549SOL    HW137280   0.155   1.223   9.377  0.0009 -0.5180 -0.1344
 8549SOL    HW237281   0.296   1.240   9.413  0.9504  0.6833 -1.1181
 8550SOL     OW37282   0.216   1.813   2.062  0.3682 -0.1246 -0.7545
 8550SOL    HW137283   0.279   1.741   2.057 -0.4614 -0.8924 -0.1308
 8550SOL    HW237284   0.260   1.883   2.014 -4.1562  2.2780 -1.3756
 8551SOL     OW37285   1.661   3.085   6.884  0.1640 -0.1364  0.3333
 8551SOL    HW137286   1.578   3.092   6.931  0.4262 -1.4555  0.9922
 8551SOL    HW237287   1.717   3.142   6.937  1.5093 -1.6423  0.5462
 8552SOL     OW37288   1.554   0.275   2.449  0.1070  0.0596 -0.9110
 8552SOL    HW137289   1.553   0.364   2.413 -0.0602 -0.2580 -1.6898
 8552SOL    HW237290   1.642   0.278   2.487  0.1472 -0.5855 -0.9487
 8553SOL     OW37291   0.844   0.971  10.541 -0.0608  0.0644 -0.8772
 8553SOL    HW137292   0.819   0.943  10.453 -1.1775 -0.4205 -0.4040
 8553SOL    HW237293   0.813   1.061  10.543 -1.1218 -0.2972 -1.3764
 8554SOL     OW37294   3.210   0.249   3.386  0.2774  0.2570 -0.0437
 8554SOL    HW137295   3.210   0.255   3.290 -2.3839 -1.3771 -0.1770
 8554SOL    HW237296   3.283   0.188   3.394 -0.3775 -0.5591 -0.2014
 8555SOL     OW37297   3.957   1.822   4.316  0.1689 -0.1482  0.5245
 8555SOL    HW137298   3.942   1.911   4.350 -0.6698 -0.3007  0.5493
 8555SOL    HW237299   4.010   1.777   4.381  0.6646  1.4752  1.2640
 8556SOL     OW37300   4.446   4.224   2.702 -0.9353  0.5578 -0.0004
 8556SOL    HW137301   4.409   4.168   2.771 -1.1150  1.6927  0.8249
 8556SOL    HW237302   4.394   4.190   2.629 -1.1240  2.0773 -0.5619
 8557SOL     OW37303   0.358   0.118   8.780  0.3696  0.0366  0.0248
 8557SOL    HW137304   0.297   0.137   8.851 -0.0962  0.1122 -0.3939
 8557SOL    HW237305   0.441   0.103   8.825  0.7087 -1.1708 -0.9927
 8558SOL     OW37306   2.026   0.160   9.918  0.3072 -0.2854 -0.0788
 8558SOL    HW137307   2.077   0.241   9.910  0.4679 -0.4242 -0.4655
 8558SOL    HW237308   2.092   0.090   9.916 -2.9341 -3.2220 -2.8259
 8559SOL     OW37309   0.764   4.106   0.547 -0.0187  0.6255 -0.6290
 8559SOL    HW137310   0.703   4.121   0.474 -2.0648 -0.4307  0.8424
 8559SOL    HW237311   0.846   4.110   0.498 -0.0401 -1.3610 -0.8527
 8560SOL     OW37312   4.528   1.406   4.885 -0.6278  0.3690 -0.1490
 8560SOL    HW137313   4.576   1.411   4.968 -1.6595  1.3876  0.3822
 8560SOL    HW237314   4.600   1.420   4.823 -0.0008  0.8201  0.6778
 8561SOL     OW37315   4.727   3.291  11.869  0.4944 -0.4779  0.3227
 8561SOL    HW137316   0.003   3.358  11.935  2.1215  0.2474 -0.7674
 8561SOL    HW237317   0.066   3.237  11.877  0.0184 -1.0851  0.8812
 8562SOL     OW37318   2.085   1.121   1.841  0.2445 -0.4285 -0.6355
 8562SOL    HW137319   2.160   1.062   1.836  0.9198  0.3484  0.2483
 8562SOL    HW237320   2.009   1.072   1.810  1.1597 -0.0557 -3.5063
 8563SOL     OW37321   2.552   3.873   7.732 -0.0840  0.5455  0.6056
 8563SOL    HW137322   2.541   3.899   7.640  0.4374  1.4867  0.8044
 8563SOL    HW237323   2.611   3.797   7.729 -1.2794 -0.2784 -1.6202
 8564SOL     OW37324   4.104   2.739  13.789  0.4846 -0.2418 -0.1865
 8564SOL    HW137325   4.156   2.733  13.869 -0.1859 -1.0247  0.1817
 8564SOL    HW237326   4.087   2.832  13.774 -2.2672 -0.6222  0.6339
 8565SOL     OW37327   0.037   3.843   2.103 -0.7710  0.3647  0.5263
 8565SOL    HW137328   0.116   3.891   2.125  0.4856 -2.2821  1.7052
 8565SOL    HW237329   4.700   3.899   2.123  0.0388  0.5891  2.9472
 8566SOL     OW37330   2.690   1.036   1.459 -0.5201 -0.5594 -0.6483
 8566SOL    HW137331   2.718   1.047   1.368  1.3274 -1.5096 -0.2037
 8566SOL    HW237332   2.736   0.958   1.490  0.2961 -0.9079 -2.8040
 8567SOL     OW37333   0.414   1.773   8.998  0.9874  0.3982 -0.0299
 8567SOL    HW137334   0.372   1.843   9.048 -2.8403 -1.5924 -0.4801
 8567SOL    HW237335   0.341   1.712   9.008  2.5700 -1.3840  0.5413
 8568SOL     OW37336   2.760   1.286  10.430  0.2106  0.0615  0.6982
 8568SOL    HW137337   2.784   1.234  10.507  2.2143  0.9610  0.6756
 8568SOL    HW237338   2.842   1.307  10.385 -0.2250  0.4218  0.0671
 8569SOL     OW37339   2.781   0.879  14.568  1.0795 -0.1532  0.3187
 8569SOL    HW137340   2.825   0.831  14.638  1.7966  0.3922  0.2402
 8569SOL    HW237341   2.856   0.934  14.547  1.1376 -1.4321 -2.7831
 8570SOL     OW37342   1.123   4.640   2.104  0.2770  0.3740  0.2238
 8570SOL    HW137343   1.177   4.703   2.151  0.0303  0.0326  0.9657
 8570SOL    HW237344   1.195   4.588   2.070 -0.5717  1.7297 -3.6553
 8571SOL     OW37345   1.187   4.082   8.980  0.1730 -0.0148  0.3995
 8571SOL    HW137346   1.269   4.128   8.962 -0.0225  0.5211  0.8669
 8571SOL    HW237347   1.130   4.143   8.934  0.3030 -0.6319 -0.5888
 8572SOL     OW37348   1.295   2.481   8.682  0.1918  0.1007  0.1217
 8572SOL    HW137349   1.287   2.404   8.626 -0.7703 -0.6420  1.2869
 8572SOL    HW237350   1.214   2.528   8.662 -0.3551 -1.1579 -0.6372
 8573SOL     OW37351   1.246   1.435   3.973  0.1672  0.3917  0.0770
 8573SOL    HW137352   1.323   1.389   4.004 -1.0454 -1.9739 -0.4479
 8573SOL    HW237353   1.178   1.368   3.968 -0.5595  1.1807 -0.9385
 8574SOL     OW37354   2.503   4.167   8.968  0.0209  0.4543 -0.3885
 8574SOL    HW137355   2.508   4.072   8.957 -1.1860  0.2995  0.4274
 8574SOL    HW237356   2.410   4.188   8.971  0.5030  2.9008 -2.0498
 8575SOL     OW37357   1.123   1.598   6.619  0.1717 -0.3167 -0.4614
 8575SOL    HW137358   1.093   1.508   6.632  0.9620 -0.8228 -2.2951
 8575SOL    HW237359   1.173   1.595   6.538 -0.5275 -0.4025 -0.8875
 8576SOL     OW37360   4.021   4.232   6.129 -0.0182 -0.0839 -0.0469
 8576SOL    HW137361   3.932   4.234   6.165 -0.3218  3.1493 -0.9642
 8576SOL    HW237362   4.052   4.322   6.139  0.4687 -0.2019 -0.4674
 8577SOL     OW37363   0.710   1.883   5.739 -0.1992 -0.0752  0.1960
 8577SOL    HW137364   0.635   1.912   5.792  1.6710  0.3160  2.6072
 8577SOL    HW237365   0.710   1.789   5.754  0.8127 -0.1689 -0.3815
 8578SOL     OW37366   3.557   3.665   6.519  0.0473 -0.3755 -0.2496
 8578SOL    HW137367   3.507   3.619   6.450 -1.1910 -0.2290  0.5499
 8578SOL    HW237368   3.641   3.682   6.476  0.1158 -0.9674 -0.3593
 8579SOL     OW37369   3.723   0.475   8.418  0.7198 -0.5851 -0.4460
 8579SOL    HW137370   3.816   0.480   8.395  0.8909 -2.3479 -0.0934
 8579SOL    HW237371   3.677   0.536   8.360 -2.3788 -3.5574 -1.0767
 8580SOL     OW37372   2.027   4.004   0.415 -0.4232 -0.0625  0.0851
 8580SOL    HW137373   2.052   3.980   0.325  0.8274 -0.6541  0.5913
 8580SOL    HW237374   2.062   4.092   0.426  0.3199 -0.2721 -0.6097
 8581SOL     OW37375   3.615   3.703   2.370  0.3410  0.5474 -0.2287
 8581SOL    HW137376   3.652   3.792   2.368  0.7637  0.4419  2.2372
 8581SOL    HW237377   3.539   3.713   2.427  0.7655 -1.7098  0.7114
 8582SOL     OW37378   2.286   1.251  11.181 -0.4148 -0.2911 -0.3633
 8582SOL    HW137379   2.272   1.179  11.243  1.4029 -0.3748 -0.0575
 8582SOL    HW237380   2.202   1.295  11.190  0.3186  1.2164 -0.9591
 8583SOL     OW37381   3.011   0.966  11.882  0.3301  0.5256 -0.2895
 8583SOL    HW137382   3.047   1.010  11.805  0.6628 -0.8386 -0.9344
 8583SOL    HW237383   3.037   1.021  11.956  0.0522  1.3538 -0.8134
 8584SOL     OW37384   1.009   2.071   6.618  0.0016 -0.2550  0.0096
 8584SOL    HW137385   0.977   2.006   6.555 -1.1396  0.0095  0.3167
 8584SOL    HW237386   1.011   2.019   6.698  0.5636  0.9537  0.7856
 8585SOL     OW37387   4.409   2.185   1.717 -0.3886 -0.0260 -0.0202
 8585SOL    HW137388   4.465   2.262   1.729  0.7978 -0.4701 -2.6703
 8585SOL    HW237389   4.443   2.122   1.781 -0.4472  1.2443  1.2801
 8586SOL     OW37390   0.589   3.019   4.061 -0.0564  0.4498  0.1918
 8586SOL    HW137391   0.527   3.034   3.990  0.5769 -0.9770 -0.6784
 8586SOL    HW237392   0.643   2.950   4.021 -1.5819 -1.3649  1.2445
 8587SOL     OW37393   0.703   2.086   9.025  0.7796  0.5428 -0.3051
 8587SOL    HW137394   0.610   2.099   9.005  0.8513  1.2594 -0.1566
 8587SOL    HW237395   0.733   2.174   9.002 -0.8478  2.1720  3.9569
 8588SOL     OW37396   0.478   4.091   8.764  0.2668 -0.0434 -0.5176
 8588SOL    HW137397   0.388   4.119   8.747  0.8273  1.1702 -1.5616
 8588SOL    HW237398   0.471   4.077   8.858  0.0842  1.7719 -0.2736
 8589SOL     OW37399   0.405   3.959   4.990 -0.8494  0.4969 -0.1063
 8589SOL    HW137400   0.483   3.983   4.941 -0.6508 -2.4558 -1.2481
 8589SOL    HW237401   0.439   3.881   5.035 -0.8297  1.1320  0.9909
 8590SOL     OW37402   2.149   4.061   1.062  0.1349 -0.2415 -0.0909
 8590SOL    HW137403   2.119   3.970   1.066 -0.2789 -0.1000  0.0588
 8590SOL    HW237404   2.196   4.060   0.979 -1.0084 -0.2170 -0.7469
 8591SOL     OW37405   2.107   3.890   4.442  0.2465  0.3962 -0.0947
 8591SOL    HW137406   2.184   3.891   4.384 -2.7402 -0.2699 -4.0349
 8591SOL    HW237407   2.124   3.957   4.508  1.2827 -0.6994  0.7800
 8592SOL     OW37408   3.784   1.409   8.354  0.0491  0.3203  0.7496
 8592SOL    HW137409   3.862   1.357   8.335  0.7709  1.8655 -0.5389
 8592SOL    HW237410   3.823   1.453   8.429  2.4106  0.4355 -0.5485
 8593SOL     OW37411   2.534   1.852  17.446  0.0132  0.3378 -0.5448
 8593SOL    HW137412   2.624   1.885  17.443 -1.1456  3.6007  1.0282
 8593SOL    HW237413   2.517   1.876  17.537 -0.4635  0.6902 -0.7287
 8594SOL     OW37414   0.943   2.652   9.238  0.1552 -0.3370  0.2389
 8594SOL    HW137415   1.023   2.600   9.248  1.2430  1.1264 -0.9993
 8594SOL    HW237416   0.956   2.678   9.147  0.0703  0.2209  0.3871
 8595SOL     OW37417   1.943   0.351   6.620 -1.0122  0.0577  0.3320
 8595SOL    HW137418   1.950   0.267   6.575 -2.1817  0.0076  0.2473
 8595SOL    HW237419   1.877   0.326   6.685 -1.0158  1.1139  0.7294
 8596SOL     OW37420   0.670   1.061   8.381 -0.2680 -0.5515  0.6364
 8596SOL    HW137421   0.751   1.044   8.334 -1.0176  0.1295 -0.8965
 8596SOL    HW237422   0.674   1.155   8.402 -0.5862 -0.5441  0.6645
 8597SOL     OW37423   2.591   1.700   8.223 -0.5245  0.5935 -0.1074
 8597SOL    HW137424   2.604   1.674   8.132  1.8615  0.4605  0.2707
 8597SOL    HW237425   2.501   1.729   8.210 -0.5167  0.4187 -0.5706
 8598SOL     OW37426   1.547   0.715   9.075  0.1164  0.6585  0.1718
 8598SOL    HW137427   1.541   0.712   9.171 -0.5596  0.6150  0.1273
 8598SOL    HW237428   1.492   0.793   9.063  2.2210  1.9728 -1.0313
 8599SOL     OW37429   4.541   3.013   8.973 -0.2437  0.8442  0.0646
 8599SOL    HW137430   4.593   2.980   8.900 -1.6198  0.4662 -0.7410
 8599SOL    HW237431   4.459   3.030   8.926  0.2118  0.6845 -0.7896
 8600SOL     OW37432   0.434   0.738   0.201  0.2122 -0.3120  0.0580
 8600SOL    HW137433   0.393   0.802   0.258 -1.8297  0.0244 -1.7833
 8600SOL    HW237434   0.526   0.761   0.214 -0.2939  1.8904 -0.2638
 8601SOL     OW37435   3.558   2.701   7.840  0.7868 -0.4914 -0.2830
 8601SOL    HW137436   3.470   2.711   7.804  0.5190  0.3366  0.5937
 8601SOL    HW237437   3.594   2.786   7.815  4.2202 -2.0862 -0.7350
 8602SOL     OW37438   4.389   4.566   3.706  0.1202 -0.1411  0.4050
 8602SOL    HW137439   4.353   4.639   3.756  0.1701  0.3570 -0.2815
 8602SOL    HW237440   4.363   4.595   3.618 -1.0358 -0.1064  0.7682
 8603SOL     OW37441   2.880   0.793   3.371  0.5872 -0.1527 -0.5849
 8603SOL    HW137442   2.899   0.703   3.347  2.6264  0.2248 -0.3382
 8603SOL    HW237443   2.965   0.837   3.367 -1.5917  4.1623  0.0882
 8604SOL     OW37444   3.144   0.320   9.436  0.1401  0.0254 -0.4431
 8604SOL    HW137445   3.081   0.387   9.465  0.0218 -1.6361  3.1348
 8604SOL    HW237446   3.085   0.250   9.409 -1.5102  1.6804 -1.1522
 8605SOL     OW37447   0.874   1.767   0.958  0.1182  0.3741 -0.5893
 8605SOL    HW137448   0.876   1.753   1.052 -1.7038 -0.1009 -0.6220
 8605SOL    HW237449   0.967   1.758   0.936 -0.2122  1.9488 -2.6947
 8606SOL     OW37450   1.424   3.952   1.280 -0.1263 -0.3141  0.1035
 8606SOL    HW137451   1.500   3.966   1.336 -0.5677  0.0327  0.6153
 8606SOL    HW237452   1.457   3.894   1.211 -1.3462 -1.1693  0.2312
 8607SOL     OW37453   0.599   3.622   2.024 -0.5628 -0.0532  0.0409
 8607SOL    HW137454   0.654   3.675   2.081  0.3408  0.7718 -1.5978
 8607SOL    HW237455   0.657   3.581   1.960 -1.0539  0.8992 -1.0153
 8608SOL     OW37456   4.215   0.020   2.231 -0.4097  0.1756 -0.1295
 8608SOL    HW137457   4.124   0.048   2.223  0.3172  2.0487 -2.0316
 8608SOL    HW237458   4.225   4.707   2.152  1.9077  1.8815 -0.9619
 8609SOL     OW37459   1.679   0.506  14.623 -0.4308 -0.2017 -0.0481
 8609SOL    HW137460   1.690   0.598  14.646 -0.4276 -0.1853 -0.1156
 8609SOL    HW237461   1.746   0.499  14.556  2.8893  1.1358  3.1079
 8610SOL     OW37462   2.160   3.083  12.615 -0.0497 -0.1452  0.1529
 8610SOL    HW137463   2.111   3.024  12.672  1.4133 -2.9072 -1.4586
 8610SOL    HW237464   2.121   3.169  12.632 -1.0035 -0.2423 -1.4834
 8611SOL     OW37465   1.139   1.701   8.919 -1.0443  0.1948 -0.4355
 8611SOL    HW137466   1.218   1.735   8.960  0.2481 -3.7636  0.3619
 8611SOL    HW237467   1.105   1.782   8.881 -0.2596  1.5079  1.6792
 8612SOL     OW37468   3.726   0.151   7.130  0.1039 -0.5149 -0.2389
 8612SOL    HW137469   3.819   0.165   7.115 -0.1918  2.0214  0.2959
 8612SOL    HW237470   3.720   0.059   7.105 -1.3556 -0.4633 -0.0751
 8613SOL     OW37471   4.579   4.613   2.786  0.3054  0.0338  0.8364
 8613SOL    HW137472   4.553   4.562   2.863  0.4450 -1.4642 -0.1152
 8613SOL    HW237473   4.594   4.543   2.722  0.1577 -0.5761  1.4657
 8614SOL     OW37474   4.414   2.000   7.049  0.3632 -0.2540 -0.1528
 8614SOL    HW137475   4.348   1.937   7.019  0.2487 -0.6748  0.9882
 8614SOL    HW237476   4.467   1.936   7.096 -2.0845 -2.4659 -0.3811
 8615SOL     OW37477   1.940   0.033   4.841 -0.0535 -0.0538  0.5567
 8615SOL    HW137478   1.869   0.096   4.852 -0.5972 -0.8423  1.6344
 8615SOL    HW237479   1.898   4.697   4.883 -1.6501  0.8023  0.4694
 8616SOL     OW37480   4.498   3.675   5.407 -0.5308  0.2751 -0.0430
 8616SOL    HW137481   4.433   3.745   5.412 -0.0044  0.6206  1.7091
 8616SOL    HW237482   4.541   3.683   5.492  0.6142 -0.1234 -0.5908
 8617SOL     OW37483   2.261   2.229  15.456 -0.2272  0.2742 -0.2526
 8617SOL    HW137484   2.219   2.278  15.384  0.9914 -1.5242 -2.1806
 8617SOL    HW237485   2.213   2.260  15.533 -1.8635 -3.8171  0.3340
 8618SOL     OW37486   2.907   1.744   8.236  0.1849  0.3720  0.2242
 8618SOL    HW137487   2.886   1.785   8.320 -1.5279 -0.4570  0.1999
 8618SOL    HW237488   2.817   1.749   8.203  1.8245  1.9874 -4.0647
 8619SOL     OW37489   0.281   3.212  15.463 -0.2182 -0.0118  0.8817
 8619SOL    HW137490   0.261   3.283  15.402  1.2869 -0.9675 -0.7160
 8619SOL    HW237491   0.282   3.267  15.541 -0.8207  1.1507  0.0735
 8620SOL     OW37492   1.938   0.888   7.478  0.3774  0.5321 -1.2484
 8620SOL    HW137493   1.936   0.821   7.546  0.0919 -0.3807 -2.1565
 8620SOL    HW237494   1.845   0.905   7.463  0.3847  0.3694 -1.4680
 8621SOL     OW37495   3.762   3.744   6.787 -0.8513 -0.2770 -0.8231
 8621SOL    HW137496   3.760   3.723   6.694 -0.8052 -2.9093 -0.2193
 8621SOL    HW237497   3.854   3.728   6.805 -1.1443  1.2990  2.1537
 8622SOL     OW37498   0.470   0.732   7.049  0.2843  0.3016  1.2437
 8622SOL    HW137499   0.486   0.711   6.957  0.9198 -2.0881  1.8993
 8622SOL    HW237500   0.547   0.782   7.076  0.6483 -0.0853  0.9301
 8623SOL     OW37501   2.319   2.221   3.748  0.1544 -0.1257  0.0356
 8623SOL    HW137502   2.225   2.206   3.735 -0.0836  1.4431 -0.0222
 8623SOL    HW237503   2.339   2.262   3.663 -3.0798  3.5646  1.0856
 8624SOL     OW37504   1.664   2.811   1.955  0.7088  0.3690 -0.2939
 8624SOL    HW137505   1.737   2.854   1.909  0.8022 -0.5048 -0.9519
 8624SOL    HW237506   1.604   2.885   1.944  0.3043  0.0713 -0.0809
 8625SOL     OW37507   4.718   3.661  13.539 -0.5351  0.0172 -0.2558
 8625SOL    HW137508   4.676   3.648  13.454 -1.7729 -0.0778  0.3807
 8625SOL    HW237509   4.666   3.602  13.593 -1.4978  2.6695  1.7105
 8626SOL     OW37510   4.616   1.546   5.624 -0.1703 -0.4970  0.4925
 8626SOL    HW137511   4.647   1.617   5.680 -0.2480  0.0328 -0.1436
 8626SOL    HW237512   4.536   1.584   5.590  0.1179  0.7071  1.1531
 8627SOL     OW37513   1.842   1.301   7.728 -0.2025  0.2010  0.3981
 8627SOL    HW137514   1.815   1.209   7.718  3.9798 -0.9736  0.2330
 8627SOL    HW237515   1.802   1.313   7.814 -0.0984  1.9361  0.2140
 8628SOL     OW37516   2.431   4.288   2.040  0.3571  0.1939  0.3132
 8628SOL    HW137517   2.487   4.251   2.108  0.2910  0.5403  0.5537
 8628SOL    HW237518   2.411   4.213   1.983 -0.6023  0.1484  0.7142
 8629SOL     OW37519   0.833   3.180   2.078 -0.1857  0.1930  0.6925
 8629SOL    HW137520   0.890   3.211   2.148  1.1985 -0.4891 -0.1232
 8629SOL    HW237521   0.861   3.215   1.993 -0.3912 -0.9864  0.1405
 8630SOL     OW37522   3.133   4.258   2.560  0.1382  1.1186  1.0399
 8630SOL    HW137523   3.183   4.287   2.636  0.6975 -1.0547  1.4888
 8630SOL    HW237524   3.200   4.225   2.501 -0.6973  1.6572 -0.2355
 8631SOL     OW37525   3.512   0.543  12.463 -0.0955 -0.2558  0.0365
 8631SOL    HW137526   3.591   0.598  12.464 -1.2692  1.4036  2.1735
 8631SOL    HW237527   3.533   0.479  12.395  0.4648  0.1482 -0.1784
 8632SOL     OW37528   4.464   1.906   8.564  0.1974 -0.1086 -0.2073
 8632SOL    HW137529   4.538   1.850   8.590  0.7240  0.9830  0.6090
 8632SOL    HW237530   4.465   1.967   8.637 -2.4063  0.9936 -1.1039
 8633SOL     OW37531   2.656   4.242  16.422 -0.0947  0.7256 -0.0690
 8633SOL    HW137532   2.689   4.211  16.338 -0.1504 -0.3918  0.3165
 8633SOL    HW237533   2.691   4.180  16.487  2.1724  2.7492  0.6311
 8634SOL     OW37534   1.684   2.778   7.389 -0.1591  0.1050 -0.6913
 8634SOL    HW137535   1.635   2.836   7.331  2.5525  1.6346 -1.4478
 8634SOL    HW237536   1.770   2.821   7.397 -0.2491  0.1810 -0.1154
 8635SOL     OW37537   4.373   3.085  16.444  0.0681  0.3667  0.1006
 8635SOL    HW137538   4.348   3.153  16.507  0.7796 -1.4130  2.3168
 8635SOL    HW237539   4.361   3.013  16.507 -0.3229 -0.9313 -1.4633
 8636SOL     OW37540   0.946   2.031   4.693  0.0006 -0.4552 -0.4974
 8636SOL    HW137541   1.005   2.085   4.640  0.2639 -1.0913 -0.8428
 8636SOL    HW237542   1.010   2.004   4.759 -0.7247  1.4622  0.9990
 8637SOL     OW37543   0.144   2.959   3.773  0.0007  0.1008  0.1989
 8637SOL    HW137544   0.067   3.012   3.753  0.9626  1.1975 -0.6266
 8637SOL    HW237545   0.182   3.003   3.849  3.6865 -1.1350 -0.8867
 8638SOL     OW37546   1.159   1.045   7.637 -0.5205 -0.4148 -0.2147
 8638SOL    HW137547   1.147   1.014   7.547  0.1271 -2.2725  0.3417
 8638SOL    HW237548   1.150   1.139   7.625  2.5689 -0.1725 -0.5302
 8639SOL     OW37549   2.147   1.534   1.321 -0.2126  0.7306 -0.3985
 8639SOL    HW137550   2.144   1.537   1.416  0.1814  1.7564 -0.4228
 8639SOL    HW237551   2.114   1.446   1.304 -0.7475  1.2030 -1.8148
 8640SOL     OW37552   4.240   0.827   2.541  0.3083 -0.1945  0.3488
 8640SOL    HW137553   4.268   0.900   2.486  0.2773 -1.9548 -1.9741
 8640SOL    HW237554   4.271   0.755   2.487  0.4403 -0.7161  1.1265
 8641SOL     OW37555   3.870   4.690  11.917  0.2067 -0.2282  0.2862
 8641SOL    HW137556   3.960   4.723  11.904  0.4873 -1.3514 -0.5584
 8641SOL    HW237557   3.870   4.626  11.846  0.4417 -1.1154  1.0882
 8642SOL     OW37558   4.648   1.940  11.894  0.2492  0.2354  0.1482
 8642SOL    HW137559   4.612   1.866  11.943  0.2194 -0.1332 -0.4299
 8642SOL    HW237560   4.706   1.983  11.956  1.1290 -0.8500  0.0783
 8643SOL     OW37561   2.681   2.514   3.255  0.5606 -0.6044  0.4487
 8643SOL    HW137562   2.764   2.531   3.299 -1.2226  1.4145  3.0219
 8643SOL    HW237563   2.720   2.492   3.171  0.1128 -1.4769  0.4653
 8644SOL     OW37564   3.104   4.131   3.717 -0.2481  0.1403 -0.5192
 8644SOL    HW137565   3.056   4.161   3.794  2.1208 -0.8212  1.3304
 8644SOL    HW237566   3.048   4.175   3.653 -1.6221  0.8044  1.1335
 8645SOL     OW37567   2.036   1.738   3.349  0.3958  0.1278 -0.4400
 8645SOL    HW137568   1.944   1.761   3.364  1.1343  2.4286  0.5392
 8645SOL    HW237569   2.040   1.644   3.334  0.7354 -0.0125  0.5808
 8646SOL     OW37570   3.867   1.815   3.336  0.7989  0.3934 -0.1706
 8646SOL    HW137571   3.833   1.757   3.267  0.2923 -0.3896  0.7316
 8646SOL    HW237572   3.961   1.814   3.321  0.6387  1.6778 -1.2632
 8647SOL     OW37573   0.226   2.861   6.016 -1.2777  0.6932  0.0399
 8647SOL    HW137574   0.308   2.878   6.063  0.1209  0.7919 -2.4179
 8647SOL    HW237575   0.237   2.792   5.950 -0.4838  1.3445 -0.5082
 8648SOL     OW37576   0.971   3.854  13.210  0.1270 -0.3528 -0.2129
 8648SOL    HW137577   1.010   3.821  13.129  0.2200 -0.1681 -0.2441
 8648SOL    HW237578   0.979   3.948  13.197  1.1940 -0.3562  0.3925
 8649SOL     OW37579   2.222   0.895   0.094  0.2465 -0.7234  0.9043
 8649SOL    HW137580   2.191   0.932   0.012  1.1478 -0.5998  0.6224
 8649SOL    HW237581   2.163   0.819   0.097 -0.4843 -0.2707 -2.3343
 8650SOL     OW37582   4.148   2.685   9.076 -0.2037  0.1756 -0.2137
 8650SOL    HW137583   4.108   2.686   9.163 -0.2321  0.9386 -0.2366
 8650SOL    HW237584   4.238   2.664   9.100 -0.6117 -0.6012  0.6254
 8651SOL     OW37585   3.860   0.941   3.768  1.1198  0.7725 -0.0650
 8651SOL    HW137586   3.798   0.881   3.725 -0.6150  1.0000  2.1303
 8651SOL    HW237587   3.801   0.957   3.842 -1.5939 -3.9084 -1.1548
 8652SOL     OW37588   0.927   0.329   2.579 -0.3207  0.0714 -0.3631
 8652SOL    HW137589   0.983   0.255   2.602  0.9743  1.2311  0.2406
 8652SOL    HW237590   0.851   0.288   2.538  0.4100 -0.2063 -1.4643
 8653SOL     OW37591   2.940   2.991   6.643 -0.0231 -0.4202 -0.1775
 8653SOL    HW137592   2.864   3.024   6.691 -0.2152 -1.0682 -0.0470
 8653SOL    HW237593   3.007   2.985   6.712  0.5582  0.5223 -0.6611
 8654SOL     OW37594   2.356   4.247   9.555  0.4014 -0.1716 -0.0389
 8654SOL    HW137595   2.394   4.161   9.536 -2.3760 -1.3632 -0.2079
 8654SOL    HW237596   2.322   4.236   9.644 -1.4175  0.1092 -0.7024
 8655SOL     OW37597   3.329   4.269  11.434  0.0262 -0.1070  0.5370
 8655SOL    HW137598   3.261   4.308  11.379  0.9782  1.1697  0.2758
 8655SOL    HW237599   3.405   4.282  11.377 -1.8709  1.5556 -1.5957
 8656SOL     OW37600   1.998   3.010  14.652  0.3707 -0.0596  0.1099
 8656SOL    HW137601   1.914   3.054  14.665  0.9521  0.8085  0.8660
 8656SOL    HW237602   1.999   2.951  14.727 -1.2417 -0.2111  0.0160
 8657SOL     OW37603   4.398   2.833   5.832  0.1727  0.2136  0.5924
 8657SOL    HW137604   4.427   2.743   5.849 -1.1795 -0.1148  1.1628
 8657SOL    HW237605   4.311   2.845   5.795  1.0292  1.0644 -1.1756
 8658SOL     OW37606   1.621   1.093   9.041  0.3628 -0.0420 -0.2211
 8658SOL    HW137607   1.669   1.031   9.096  1.5778  1.3227  0.2648
 8658SOL    HW237608   1.568   1.032   8.990  0.2185 -1.0921  1.2104
 8659SOL     OW37609   0.875   2.999  14.851  0.6569 -0.5259  0.0164
 8659SOL    HW137610   0.825   2.962  14.923  1.5330  1.6302  1.7244
 8659SOL    HW237611   0.962   3.001  14.888  1.5440  1.6847 -2.1852
 8660SOL     OW37612   2.050   3.045   6.875  0.2472  0.4879 -0.0509
 8660SOL    HW137613   2.110   3.114   6.903  0.3660  0.9452 -1.4690
 8660SOL    HW237614   2.072   3.055   6.783  0.5972 -0.0362 -0.0203
 8661SOL     OW37615   0.484   3.669  11.418 -0.0683 -0.3521 -0.4639
 8661SOL    HW137616   0.520   3.757  11.432 -0.3333 -0.5065  1.1951
 8661SOL    HW237617   0.419   3.667  11.489 -0.1119  1.6365 -0.4521
 8662SOL     OW37618   4.132   1.485   8.464 -0.6289  0.4546  0.4313
 8662SOL    HW137619   4.075   1.408   8.461 -0.8701  0.6066  0.9576
 8662SOL    HW237620   4.180   1.479   8.382 -2.8463 -0.3381 -0.7968
 8663SOL     OW37621   1.016   1.979   8.942 -0.0299  0.1280 -0.4710
 8663SOL    HW137622   0.973   1.914   8.886 -0.6517  1.4396 -1.5112
 8663SOL    HW237623   1.039   2.050   8.882 -1.2020  0.1165 -0.9217
 8664SOL     OW37624   2.567   4.211   8.702 -0.2311  0.5177  0.1591
 8664SOL    HW137625   2.596   4.120   8.699  2.4912  1.3888  0.4320
 8664SOL    HW237626   2.539   4.219   8.793  1.9351 -1.0219  0.9645
 8665SOL     OW37627   3.533   3.331   4.160 -0.4749  0.7640  0.2371
 8665SOL    HW137628   3.497   3.403   4.109 -0.8972  0.9942  0.8605
 8665SOL    HW237629   3.568   3.270   4.095 -0.1484  0.0364  1.0872
 8666SOL     OW37630   2.246   3.201   1.964 -0.0610 -0.7640 -0.4068
 8666SOL    HW137631   2.177   3.159   2.015 -1.7440  0.4021 -1.7324
 8666SOL    HW237632   2.236   3.162   1.877 -0.2725  1.5299 -1.4186
 8667SOL     OW37633   3.707   2.523  11.784 -0.0019  0.1259  0.2875
 8667SOL    HW137634   3.705   2.608  11.829 -1.9323  1.0422 -1.5191
 8667SOL    HW237635   3.756   2.470  11.847  1.9327  1.8622  0.2247
 8668SOL     OW37636   3.173   3.812   1.819  0.2466 -0.0548  0.5737
 8668SOL    HW137637   3.168   3.906   1.835  1.4250 -0.0813  1.1284
 8668SOL    HW237638   3.107   3.792   1.885  0.1507  0.4154  0.6155
 8669SOL     OW37639   0.513   0.844   5.299  0.3958 -0.4263 -0.0286
 8669SOL    HW137640   0.482   0.901   5.369  0.5966  1.5645 -1.5657
 8669SOL    HW237641   0.478   0.756   5.311  1.4147 -1.1972 -2.6510
 8670SOL     OW37642   1.444   3.885  10.870 -0.1228  0.1204  0.3167
 8670SOL    HW137643   1.386   3.873  10.795 -1.2673 -1.3677  1.4304
 8670SOL    HW237644   1.504   3.814  10.849  0.8241  0.2256  2.6765
 8671SOL     OW37645   2.545   3.899   6.943  0.2543 -0.4577 -0.0471
 8671SOL    HW137646   2.476   3.890   7.009  1.7494  0.2320  1.6454
 8671SOL    HW237647   2.492   3.878   6.867 -0.6524 -1.9494  0.9862
 8672SOL     OW37648   3.685   0.458  17.023  0.1241 -0.5148  0.4452
 8672SOL    HW137649   3.752   0.501  17.077  0.4106 -1.2450  0.6758
 8672SOL    HW237650   3.651   0.397  17.089  0.1652 -2.1733 -1.0789
 8673SOL     OW37651   2.654   4.561  16.167  0.0535  0.4532 -0.0181
 8673SOL    HW137652   2.735   4.521  16.134 -2.3392 -1.2791 -3.7469
 8673SOL    HW237653   2.592   4.526  16.103  1.4400  2.9678 -2.7353
 8674SOL     OW37654   4.153   4.409  12.692  0.3051  0.2198 -0.0420
 8674SOL    HW137655   4.139   4.403  12.597  0.8278 -0.1942 -0.0893
 8674SOL    HW237656   4.061   4.422  12.718  0.2406  0.2702 -0.2906
 8675SOL     OW37657   4.147   0.432   4.406  0.0125 -0.1812 -0.3766
 8675SOL    HW137658   4.063   0.473   4.426 -0.0909 -1.3059  1.4380
 8675SOL    HW237659   4.205   0.507   4.420 -0.1061 -0.5136  1.8066
 8676SOL     OW37660   1.484   4.545  13.263  0.5352 -0.2558 -0.6272
 8676SOL    HW137661   1.492   4.482  13.192 -1.3632  0.3227 -1.3581
 8676SOL    HW237662   1.453   4.481  13.328 -2.4654  1.0971 -0.7049
 8677SOL     OW37663   0.724   3.640  16.762  0.0639 -0.2552  0.4984
 8677SOL    HW137664   0.758   3.725  16.789 -0.1198  0.2880 -0.9810
 8677SOL    HW237665   0.638   3.661  16.726  0.5027  0.4818 -0.1207
 8678SOL     OW37666   0.557   2.992   5.838  0.6336 -0.3931  0.1663
 8678SOL    HW137667   0.554   2.940   5.918 -1.9578  0.9608  0.9530
 8678SOL    HW237668   0.469   3.027   5.826  0.3952 -1.4542 -1.0506
 8679SOL     OW37669   3.101   2.680  15.352  0.7492 -0.6902 -0.1757
 8679SOL    HW137670   3.156   2.756  15.334 -0.0548 -0.2831 -0.8936
 8679SOL    HW237671   3.082   2.650  15.263 -2.8633 -1.7033  0.9311
 8680SOL     OW37672   1.919   0.004   8.105  0.0199  0.3539  0.3338
 8680SOL    HW137673   1.995   0.052   8.072 -1.0543  1.4087 -0.5718
 8680SOL    HW237674   1.956   4.723   8.191  0.9140  0.1722 -0.0918
 8681SOL     OW37675   2.093   2.588   5.060  0.5249 -0.5323 -0.7756
 8681SOL    HW137676   2.027   2.555   5.122 -1.6347  1.0746 -2.2162
 8681SOL    HW237677   2.123   2.507   5.020  2.6492 -0.2001  0.1503
 8682SOL     OW37678   0.647   2.702   7.696 -0.0200  0.5651 -0.3429
 8682SOL    HW137679   0.664   2.612   7.723 -0.3003  1.2154  2.0102
 8682SOL    HW237680   0.630   2.683   7.604  1.5690 -3.0539  0.0990
 8683SOL     OW37681   0.000   1.665   0.575  0.1294 -0.1317 -0.6951
 8683SOL    HW137682   0.032   1.631   0.659 -0.5799 -1.5263 -0.9839
 8683SOL    HW237683   0.031   1.594   0.517  1.3416  0.8442 -1.2420
 8684SOL     OW37684   0.401   2.810   4.973  0.0193 -0.1284 -0.0042
 8684SOL    HW137685   0.484   2.777   5.008  0.1256  0.6105  0.4458
 8684SOL    HW237686   0.372   2.860   5.050  0.0323 -0.0818 -0.0295
 8685SOL     OW37687   3.509   1.174   6.571  0.2441 -0.0446  0.2098
 8685SOL    HW137688   3.498   1.261   6.532 -0.9721 -0.5019 -0.4661
 8685SOL    HW237689   3.496   1.202   6.662 -1.4576 -1.3770  0.3709
 8686SOL     OW37690   3.132   2.757   1.174  0.5243 -0.6131 -0.1987
 8686SOL    HW137691   3.178   2.772   1.092  3.4215  0.1666  1.5354
 8686SOL    HW237692   3.199   2.769   1.243 -1.5272  2.5342  1.2539
 8687SOL     OW37693   1.012   2.478   9.688 -0.1820 -0.1744  0.4818
 8687SOL    HW137694   0.998   2.445   9.600  0.4098 -0.2922  0.4316
 8687SOL    HW237695   1.037   2.569   9.671 -0.6110 -0.0957  0.2770
 8688SOL     OW37696   0.201   0.541  12.119  0.2300  0.1308 -0.1485
 8688SOL    HW137697   0.205   0.465  12.060 -1.4200  0.9983 -1.4067
 8688SOL    HW237698   0.282   0.536  12.170  0.4406  0.6070 -0.4378
 8689SOL     OW37699   3.917   3.069   1.905  0.2140  0.7330 -0.4438
 8689SOL    HW137700   4.011   3.051   1.906 -0.3203 -2.0449 -0.6053
 8689SOL    HW237701   3.912   3.094   1.812 -1.2092  0.5856 -0.4080
 8690SOL     OW37702   2.748   4.628   5.322 -0.4666 -0.9616 -0.2024
 8690SOL    HW137703   2.729   4.534   5.311 -1.1904 -0.8271 -0.1390
 8690SOL    HW237704   2.825   4.631   5.378 -0.8004 -0.0987  0.2096
 8691SOL     OW37705   1.543   0.914   4.680  0.0603  1.0143  0.4815
 8691SOL    HW137706   1.638   0.924   4.685  0.2994 -1.7583  1.0701
 8691SOL    HW237707   1.532   0.852   4.752  2.3413  0.5860  0.4400
 8692SOL     OW37708   0.675   0.865  13.394 -0.4990  0.3469  0.5299
 8692SOL    HW137709   0.715   0.824  13.470 -1.9117  1.3269  1.8057
 8692SOL    HW237710   0.713   0.824  13.316  2.0226  0.9478  1.4571
 8693SOL     OW37711   1.131   2.185   1.377  0.3064 -0.3659  0.1567
 8693SOL    HW137712   1.064   2.197   1.444 -0.0451 -1.1846 -0.0576
 8693SOL    HW237713   1.155   2.274   1.348 -0.4760 -0.7834 -1.7960
 8694SOL     OW37714   3.046   2.180   0.286  0.2427  0.6276  0.0793
 8694SOL    HW137715   2.965   2.224   0.312  1.1599  0.7448  2.7565
 8694SOL    HW237716   3.070   2.157   0.376 -0.5599 -0.2382  0.0666
 8695SOL     OW37717   2.922   2.730   1.520 -0.1656 -0.1617 -0.6376
 8695SOL    HW137718   2.929   2.637   1.502  0.2003 -0.2158 -0.2295
 8695SOL    HW237719   2.907   2.759   1.430  0.8416  1.2734 -0.3416
 8696SOL     OW37720   2.449   1.219   7.928  0.3805 -0.4323  0.0837
 8696SOL    HW137721   2.367   1.211   7.879  0.5506 -0.5080 -0.1848
 8696SOL    HW237722   2.409   1.212   8.015  0.2693 -1.6287 -0.0705
 8697SOL     OW37723   3.276   1.763   9.361  0.0685 -0.0535  0.4029
 8697SOL    HW137724   3.332   1.686   9.351  1.3019  0.8195  0.6340
 8697SOL    HW237725   3.292   1.810   9.443  0.9738  0.0208  0.1830
 8698SOL     OW37726   2.892   4.183   0.005  0.3249  0.1875  0.0609
 8698SOL    HW137727   2.800   4.198  17.736 -0.4270  0.2009  3.1144
 8698SOL    HW237728   2.884   4.117   0.074  0.8074 -0.2632 -0.3118
 8699SOL     OW37729   3.957   0.308   7.027 -0.4709  0.6613 -0.3423
 8699SOL    HW137730   4.001   0.342   7.105  1.4832 -1.2600 -0.6245
 8699SOL    HW237731   3.882   0.368   7.031 -0.3800  0.6246  1.8805
 8700SOL     OW37732   1.561   1.772  17.252 -0.2374 -0.4008 -0.3872
 8700SOL    HW137733   1.609   1.755  17.333  1.4936 -0.8129 -1.5031
 8700SOL    HW237734   1.555   1.685  17.213 -1.5549 -0.1179 -0.8399
 8701SOL     OW37735   3.293   2.247  12.033  0.1517  0.0821 -0.4686
 8701SOL    HW137736   3.222   2.192  12.001 -0.8852  2.6349 -2.6089
 8701SOL    HW237737   3.352   2.182  12.070 -0.9150 -0.6862 -0.1416
 8702SOL     OW37738   3.326   1.863  15.427 -0.0802 -0.4094 -0.4495
 8702SOL    HW137739   3.275   1.817  15.360  1.8225 -0.9519 -1.5051
 8702SOL    HW237740   3.262   1.907  15.483  0.3149 -0.7359  0.2676
 8703SOL     OW37741   1.920   4.455  10.303  0.4339 -1.2642  0.0504
 8703SOL    HW137742   2.010   4.459  10.335  0.1069 -0.2465  0.8511
 8703SOL    HW237743   1.890   4.540  10.335  1.5833 -0.9870  0.4080
 8704SOL     OW37744   3.954   2.722   3.735  0.2432  0.6577 -0.0876
 8704SOL    HW137745   3.919   2.803   3.773 -0.1598 -0.1016  1.1329
 8704SOL    HW237746   3.979   2.675   3.814 -0.2686 -0.6170 -0.6792
 8705SOL     OW37747   0.203   2.138   1.944  0.4538 -0.9938 -0.4987
 8705SOL    HW137748   0.252   2.197   1.887 -1.6648  2.0091  0.7838
 8705SOL    HW237749   0.150   2.091   1.880 -0.3395 -2.5032  1.2682
 8706SOL     OW37750   4.003   1.775  10.847 -0.1529 -0.2024 -0.1695
 8706SOL    HW137751   4.049   1.807  10.769  0.4135 -0.3238  0.1089
 8706SOL    HW237752   4.073   1.745  10.906 -2.5317 -2.8287  1.3619
 8707SOL     OW37753   0.429   2.571  16.890 -1.0107  0.5393  0.6674
 8707SOL    HW137754   0.406   2.488  16.848 -0.6793  1.5445 -1.4880
 8707SOL    HW237755   0.394   2.560  16.979  0.9605  1.1481  1.5094
 8708SOL     OW37756   4.382   2.324  17.185  0.4005  0.6764  0.0632
 8708SOL    HW137757   4.313   2.369  17.135  0.9379  0.6245 -0.7202
 8708SOL    HW237758   4.332   2.280  17.253 -1.8797  2.0060 -0.7414
 8709SOL     OW37759   4.138   2.838  12.090  0.2783 -0.0874 -0.0649
 8709SOL    HW137760   4.183   2.798  12.016  0.4415 -0.1470  0.0657
 8709SOL    HW237761   4.200   2.819  12.160  0.1457 -2.4315 -0.6008
 8710SOL     OW37762   3.051   2.494   5.907  0.0445  0.1626  0.4263
 8710SOL    HW137763   3.116   2.431   5.936 -1.1854 -1.7125 -0.9184
 8710SOL    HW237764   3.033   2.523   5.997 -1.3757  5.0311 -1.4335
 8711SOL     OW37765   1.789   0.606   4.993 -0.0843 -0.0349 -0.0498
 8711SOL    HW137766   1.754   0.683   4.948  0.4005  1.2575  1.7784
 8711SOL    HW237767   1.719   0.593   5.057 -2.1872  0.5138 -2.2675
 8712SOL     OW37768   3.355   0.876   4.051 -0.0168  0.4631  0.3495
 8712SOL    HW137769   3.316   0.811   3.993 -0.1528 -1.2087  2.2886
 8712SOL    HW237770   3.282   0.918   4.097 -0.4248  0.4871 -0.3325
 8713SOL     OW37771   0.290   4.028  16.855  0.0627  0.2760  0.0484
 8713SOL    HW137772   0.354   4.098  16.851  1.7666 -1.3328 -1.0690
 8713SOL    HW237773   0.363   3.966  16.852 -2.2376 -2.4417  0.0886
 8714SOL     OW37774   3.981   3.790   1.888  0.4404 -0.3838  0.5901
 8714SOL    HW137775   3.916   3.861   1.891  0.1441 -0.5890 -1.1949
 8714SOL    HW237776   3.922   3.722   1.918  0.4276 -1.1848 -1.2278
 8715SOL     OW37777   4.312   0.571   3.928  0.2099  0.3999 -0.1343
 8715SOL    HW137778   4.368   0.648   3.915  0.8820 -0.4405 -2.0785
 8715SOL    HW237779   4.226   0.613   3.939  0.7133  0.5444  3.3867
 8716SOL     OW37780   1.130   2.843   2.277 -0.4280 -0.1067 -0.7662
 8716SOL    HW137781   1.134   2.926   2.324  0.8921 -0.6244  0.0463
 8716SOL    HW237782   1.037   2.823   2.262 -0.8313  2.1523 -1.2110
 8717SOL     OW37783   1.070   3.596   2.687  0.2343 -0.6890  0.1388
 8717SOL    HW137784   1.028   3.652   2.752  0.9540 -0.8643  0.7512
 8717SOL    HW237785   1.032   3.512   2.710  1.1324 -0.8817  0.9411
 8718SOL     OW37786   3.460   0.333   3.091  0.0171 -0.1885  0.0175
 8718SOL    HW137787   3.486   0.241   3.091  2.0735  0.4073  1.8648
 8718SOL    HW237788   3.379   0.336   3.039  0.5424 -0.4305 -0.8201
 8719SOL     OW37789   2.493   1.999   6.634  0.4971 -0.7240 -0.5069
 8719SOL    HW137790   2.512   1.948   6.555 -0.8912 -2.0964  0.0593
 8719SOL    HW237791   2.568   1.967   6.684  1.2435 -1.8606 -2.3575
 8720SOL     OW37792   2.859   1.484  11.498 -0.2574  0.9985  0.8670
 8720SOL    HW137793   2.895   1.560  11.452  2.0718  0.3226  1.5320
 8720SOL    HW237794   2.861   1.422  11.424 -1.3373  2.0339 -0.0214
 8721SOL     OW37795   1.009   1.688   5.209 -0.7532  0.6737  0.0064
 8721SOL    HW137796   0.984   1.625   5.276 -0.0713 -0.8516 -1.1684
 8721SOL    HW237797   0.923   1.712   5.174 -1.7658 -2.9945 -0.0232
 8722SOL     OW37798   2.874   0.362   6.384  0.7814 -0.4189  0.0776
 8722SOL    HW137799   2.927   0.327   6.456 -0.6361 -0.4879  1.0986
 8722SOL    HW237800   2.927   0.434   6.351  0.0618 -0.1543 -0.4818
 8723SOL     OW37801   2.634   1.013  14.767 -0.2163 -0.5427 -0.0350
 8723SOL    HW137802   2.584   0.934  14.787 -1.4591  0.8241  2.3054
 8723SOL    HW237803   2.707   0.979  14.714 -0.4425 -1.1786  0.0575
 8724SOL     OW37804   3.580   3.370   1.962  0.0613  0.2803 -0.6533
 8724SOL    HW137805   3.611   3.410   2.044 -1.7242  1.6441 -0.6506
 8724SOL    HW237806   3.545   3.283   1.978 -0.9671  1.0809  1.3607
 8725SOL     OW37807   1.682   0.525   8.937 -0.4171 -0.3135  0.2725
 8725SOL    HW137808   1.726   0.464   8.996 -1.1680  0.6679  1.8458
 8725SOL    HW237809   1.644   0.582   9.004  0.5135 -1.1325  1.5031
 8726SOL     OW37810   4.537   2.353   8.280  0.0519  0.6322  0.2445
 8726SOL    HW137811   4.482   2.425   8.311 -1.3665 -0.2640 -0.2029
 8726SOL    HW237812   4.475   2.300   8.230  0.1567  1.7025 -0.9987
 8727SOL     OW37813   1.980   1.146  11.290 -1.0642  0.0571  0.2842
 8727SOL    HW137814   1.909   1.210  11.293 -1.0016  0.1700 -0.4596
 8727SOL    HW237815   1.956   1.086  11.360  0.3761 -1.7422 -0.7459
 8728SOL     OW37816   4.653   0.244   5.069 -0.6884 -0.1988 -0.1135
 8728SOL    HW137817   4.564   0.276   5.050  0.7572  3.5303 -0.4114
 8728SOL    HW237818   4.644   0.217   5.160 -2.4027 -0.3002 -0.3085
 8729SOL     OW37819   2.335   3.762   3.279 -0.0366  0.0347 -0.9640
 8729SOL    HW137820   2.365   3.718   3.359 -0.7854 -0.0553 -0.7282
 8729SOL    HW237821   2.362   3.705   3.207  2.5859 -1.4485  1.1691
 8730SOL     OW37822   2.750   1.235   5.969 -0.2950  0.3529  0.1051
 8730SOL    HW137823   2.727   1.193   5.886  0.5992  0.0036  0.0388
 8730SOL    HW237824   2.688   1.195   6.030 -0.8134 -3.3926 -2.8838
 8731SOL     OW37825   4.613   4.644   8.493 -0.6867  0.5269 -0.5119
 8731SOL    HW137826   4.648   4.728   8.466 -0.7523  0.8645  0.4292
 8731SOL    HW237827   4.695   4.619   8.535 -1.7256 -1.4992  0.3376
 8732SOL     OW37828   2.340   3.819  13.559  0.2244 -0.1725 -0.3257
 8732SOL    HW137829   2.283   3.856  13.491  0.3029 -1.7506 -1.2435
 8732SOL    HW237830   2.423   3.843  13.518  0.3712 -2.3096 -1.2937
 8733SOL     OW37831   3.559   3.032   9.230 -0.1791  0.4643 -0.1771
 8733SOL    HW137832   3.507   3.029   9.311 -0.1048 -3.1937 -0.2277
 8733SOL    HW237833   3.626   3.096   9.250 -2.4820  3.0780 -0.8906
 8734SOL     OW37834   1.787   4.181   4.164  0.1138 -0.0692  0.6347
 8734SOL    HW137835   1.787   4.109   4.227  1.5854 -0.0181  0.6908
 8734SOL    HW237836   1.866   4.167   4.112 -0.7581 -0.5617 -0.5577
 8735SOL     OW37837   0.905   0.160   0.374  0.0071 -0.5117 -0.1317
 8735SOL    HW137838   0.961   0.084   0.357  2.1686  1.1180 -0.2886
 8735SOL    HW237839   0.823   0.123   0.342 -0.6469  0.6814  0.1629
 8736SOL     OW37840   0.353   4.146   8.355  0.8268 -0.1315 -0.2045
 8736SOL    HW137841   0.286   4.149   8.286 -3.0456 -0.1451  3.5784
 8736SOL    HW237842   0.359   4.053   8.377  1.4749  0.0480  0.3748
 8737SOL     OW37843   3.619   0.101   5.074  0.0076  0.1917  0.4937
 8737SOL    HW137844   3.613   0.101   4.978  1.0043  2.9915  0.4302
 8737SOL    HW237845   3.588   0.189   5.095 -0.3501  0.1805  0.0243
 8738SOL     OW37846   0.600   4.684   8.352 -0.6051 -0.0804 -0.7381
 8738SOL    HW137847   0.696   4.675   8.356 -0.1454  4.4478 -1.2676
 8738SOL    HW237848   0.581   0.027   8.398  0.7499 -0.4967  0.5808
 8739SOL     OW37849   1.247   1.307   6.333 -0.6407  0.0968 -0.4060
 8739SOL    HW137850   1.310   1.379   6.341  0.3645 -0.9567  1.2359
 8739SOL    HW237851   1.212   1.312   6.422 -1.1812 -0.2621 -0.6026
 8740SOL     OW37852   4.084   0.090   2.757  0.4505  0.6298  0.2639
 8740SOL    HW137853   4.125   0.006   2.739 -0.1075 -0.0462  2.1672
 8740SOL    HW237854   4.148   0.160   2.746 -0.3700  1.1293 -1.2982
 8741SOL     OW37855   4.323   2.063   7.801  0.1561 -0.6696  0.1472
 8741SOL    HW137856   4.406   2.097   7.833  0.5732 -0.1302 -1.5061
 8741SOL    HW237857   4.292   1.998   7.865 -1.2080  1.4690  1.6480
 8742SOL     OW37858   0.301   0.658   3.346  0.1341  0.2629 -0.1543
 8742SOL    HW137859   0.341   0.734   3.390  0.0063 -0.7218  1.6486
 8742SOL    HW237860   0.371   0.605   3.308  0.5724  0.8407 -0.1660
 8743SOL     OW37861   2.004   2.984   0.447  0.1220 -0.9381  0.1331
 8743SOL    HW137862   1.965   3.069   0.428  0.9871 -0.3176  1.1361
 8743SOL    HW237863   2.096   3.004   0.468 -0.1953  1.2221 -0.5236
 8744SOL     OW37864   3.733   1.720   6.962  0.7484 -0.2408 -0.3516
 8744SOL    HW137865   3.748   1.784   6.892 -2.5654 -0.1802 -0.9971
 8744SOL    HW237866   3.793   1.647   6.944  2.7028  1.1745  0.3938
 8745SOL     OW37867   1.128   4.424   2.314  0.3776 -0.2617  0.2529
 8745SOL    HW137868   1.099   4.513   2.291  0.4499 -0.9204 -2.3471
 8745SOL    HW237869   1.044   4.383   2.334  0.0563  0.2945  0.0362
 8746SOL     OW37870   1.005   0.342   1.549 -0.1281 -0.1519 -0.0099
 8746SOL    HW137871   1.002   0.306   1.460  0.4021 -0.6865  0.1924
 8746SOL    HW237872   0.952   0.276   1.594  0.0128 -0.8324 -0.8455
 8747SOL     OW37873   3.027   3.264   5.146  0.2387  0.1032 -1.0669
 8747SOL    HW137874   3.102   3.205   5.148  0.9273  0.9947 -0.9902
 8747SOL    HW237875   3.062   3.350   5.126  1.0286  0.0261 -0.0095
 8748SOL     OW37876   1.746   4.103   9.772 -0.1656  0.0205  0.3432
 8748SOL    HW137877   1.800   4.175   9.804  0.7109 -0.7501  0.5861
 8748SOL    HW237878   1.674   4.114   9.834 -0.1475  1.7240  0.0601
 8749SOL     OW37879   1.342   0.571   4.677  0.8432  0.3908 -0.0560
 8749SOL    HW137880   1.256   0.549   4.641  1.1740 -1.1241  0.0775
 8749SOL    HW237881   1.323   0.630   4.750 -0.1293 -0.8075  0.6739
 8750SOL     OW37882   1.660   0.118  11.794 -0.0980 -0.1484  0.1145
 8750SOL    HW137883   1.732   0.172  11.761  0.2536 -1.5684 -1.4773
 8750SOL    HW237884   1.585   0.178  11.793  0.7106  0.8646  0.3310
 8751SOL     OW37885   3.712   1.739   1.840  0.3796  0.0041  0.2268
 8751SOL    HW137886   3.741   1.806   1.902  1.3653  0.1118 -0.3516
 8751SOL    HW237887   3.648   1.785   1.786  1.3989 -0.3366 -1.2639
 8752SOL     OW37888   1.195   1.820  12.977  0.3387  0.2385 -0.5340
 8752SOL    HW137889   1.241   1.868  13.046 -0.5595  0.8489 -0.3571
 8752SOL    HW237890   1.149   1.754  13.029  2.2270 -0.2494  0.5241
 8753SOL     OW37891   1.739   4.442  16.663 -0.1606  0.0726 -0.3025
 8753SOL    HW137892   1.725   4.369  16.602 -0.5263  2.0753 -2.6117
 8753SOL    HW237893   1.821   4.483  16.634  0.1195 -0.7179 -0.6213
 8754SOL     OW37894   0.509   3.504  11.204  0.4072 -0.6921 -0.0820
 8754SOL    HW137895   0.604   3.511  11.212  0.0286  1.2968  2.5599
 8754SOL    HW237896   0.483   3.554  11.282  2.6542 -1.2939  1.0290
 8755SOL     OW37897   0.512   2.780  16.596  0.4372 -0.3324 -0.1305
 8755SOL    HW137898   0.578   2.756  16.660 -0.8572 -0.2237  1.2280
 8755SOL    HW237899   0.570   2.798  16.522 -0.1489  0.8719 -0.3049
 8756SOL     OW37900   3.710   1.267   3.030 -0.0596 -0.1764 -0.6312
 8756SOL    HW137901   3.649   1.278   3.103  0.5613  0.8869 -0.2683
 8756SOL    HW237902   3.757   1.186   3.052 -1.6085 -0.5040  1.5302
 8757SOL     OW37903   3.593   1.425  15.564  0.1742  0.4144  0.6603
 8757SOL    HW137904   3.666   1.473  15.524  1.2239 -1.7936 -0.0341
 8757SOL    HW237905   3.542   1.417  15.483  0.3196  2.3368  0.3812
 8758SOL     OW37906   3.343   2.061   1.816 -0.4543  0.0571  0.5420
 8758SOL    HW137907   3.351   2.135   1.756 -1.0219  0.3175  0.7812
 8758SOL    HW237908   3.397   2.099   1.886 -0.1848 -1.2813  1.0550
 8759SOL     OW37909   0.425   1.213   2.859  0.3923  0.8533 -0.1339
 8759SOL    HW137910   0.417   1.119   2.847  1.2369  0.5236  1.8488
 8759SOL    HW237911   0.339   1.251   2.876  1.1877  2.0462  1.2424
 8760SOL     OW37912   1.343   0.868   0.090  0.0223  0.6338 -0.2354
 8760SOL    HW137913   1.389   0.801   0.141  1.2627  1.9011  0.3275
 8760SOL    HW237914   1.406   0.879   0.018  0.2466  1.9033  0.1442
 8761SOL     OW37915   1.475   3.359  14.458 -0.4885 -0.2822 -0.3381
 8761SOL    HW137916   1.393   3.354  14.410 -1.1189 -0.7665  0.7977
 8761SOL    HW237917   1.491   3.453  14.456  1.6793 -0.6943 -3.2375
 8762SOL     OW37918   3.117   3.692  14.720 -0.2142 -0.3430  0.0348
 8762SOL    HW137919   3.132   3.689  14.625 -0.7896 -1.3611 -0.0160
 8762SOL    HW237920   3.109   3.598  14.735  4.2217 -1.0738 -2.0323
 8763SOL     OW37921   4.563   4.666   4.014 -0.1175 -0.4097  0.3997
 8763SOL    HW137922   4.485   4.613   4.034 -0.6740  0.2706  0.0163
 8763SOL    HW237923   4.631   4.599   4.022  2.3625  1.8173 -2.1539
 8764SOL     OW37924   1.538   3.414   5.650 -0.0479  0.7026  0.3346
 8764SOL    HW137925   1.614   3.371   5.688  0.2627 -0.3562 -1.4649
 8764SOL    HW237926   1.501   3.357   5.582 -0.8292  1.0464  0.4662
 8765SOL     OW37927   3.584   0.223   4.659  0.2924  0.2540  0.5056
 8765SOL    HW137928   3.642   0.233   4.584  0.0886 -0.7108  0.2235
 8765SOL    HW237929   3.639   0.251   4.733  2.8598  0.6972 -1.5925
 8766SOL     OW37930   1.201   3.087  10.900 -0.7024 -0.3991  0.0385
 8766SOL    HW137931   1.143   3.012  10.883 -1.1378 -0.6982  2.8344
 8766SOL    HW237932   1.245   3.085  10.815  0.0415 -1.0818  0.4425
 8767SOL     OW37933   3.407   4.316   6.722 -0.2352  0.0663 -0.7886
 8767SOL    HW137934   3.347   4.253   6.763 -0.4393 -0.9751 -2.6787
 8767SOL    HW237935   3.363   4.399   6.706 -0.4884 -0.0392 -0.6420
 8768SOL     OW37936   0.054   0.167   9.504 -0.5354 -0.2015 -0.4178
 8768SOL    HW137937   0.060   0.243   9.563 -1.0824 -0.1497 -0.4351
 8768SOL    HW237938   0.110   0.098   9.539 -1.8269 -0.2661  1.5070
 8769SOL     OW37939   4.498   0.106   2.915 -0.3792 -0.3793 -0.0651
 8769SOL    HW137940   4.512   0.102   3.010 -2.3254 -0.2182  0.2440
 8769SOL    HW237941   4.529   0.022   2.882  0.9565 -0.2756  0.8971
 8770SOL     OW37942   2.321   1.716   3.640 -0.2419 -0.4510  0.1155
 8770SOL    HW137943   2.282   1.633   3.614 -0.8818 -0.2096  0.3131
 8770SOL    HW237944   2.279   1.772   3.576 -0.4000  1.3222  1.7606
 8771SOL     OW37945   2.120   2.773   7.060 -0.8287 -0.1134 -0.0354
 8771SOL    HW137946   2.209   2.797   7.036 -1.5962  0.9481 -1.8563
 8771SOL    HW237947   2.118   2.799   7.152  0.7504  1.6870 -0.5226
 8772SOL     OW37948   3.967   1.370   9.116  0.6089  0.8683 -0.0230
 8772SOL    HW137949   3.950   1.312   9.041 -1.5207  1.5619 -0.0891
 8772SOL    HW237950   3.902   1.346   9.182  0.2868  1.3711 -0.1565
 8773SOL     OW37951   3.651   2.655   4.153  0.0283  0.1546 -0.3543
 8773SOL    HW137952   3.578   2.646   4.092 -0.0479 -0.8419 -0.1057
 8773SOL    HW237953   3.715   2.589   4.125 -0.2429  0.7384 -2.3249
 8774SOL     OW37954   1.658   0.524  12.400  0.3299  0.1452 -0.2054
 8774SOL    HW137955   1.654   0.483  12.313  0.7090 -1.4470  0.5371
 8774SOL    HW237956   1.731   0.476  12.437 -0.7355 -1.0907  0.2825
 8775SOL     OW37957   2.842   2.587   0.985 -0.0139 -0.1053 -0.4228
 8775SOL    HW137958   2.852   2.680   1.008  1.6992 -1.0614  2.6684
 8775SOL    HW237959   2.917   2.584   0.925 -1.4072  1.3770 -2.2645
 8776SOL     OW37960   3.284   4.336   4.521  0.0800  0.2441 -0.3076
 8776SOL    HW137961   3.233   4.266   4.562 -0.4138  0.7446 -0.0568
 8776SOL    HW237962   3.327   4.299   4.444  0.2343 -2.1883  0.9510
 8777SOL     OW37963   2.427   0.635   4.811  0.6102  0.6316  0.3492
 8777SOL    HW137964   2.445   0.670   4.724  1.6512  1.4330  0.8945
 8777SOL    HW237965   2.437   0.541   4.798  1.6935  0.7031  0.6626
 8778SOL     OW37966   2.977   1.660   1.696 -0.2838  0.1912 -0.3029
 8778SOL    HW137967   3.003   1.742   1.654 -1.5822  0.3095 -0.8856
 8778SOL    HW237968   3.066   1.632   1.716 -0.8944 -1.3071  0.3685
 8779SOL     OW37969   2.366   1.975  15.617  0.4309  0.1385 -0.2070
 8779SOL    HW137970   2.433   2.036  15.587  0.7940 -0.8902 -1.5010
 8779SOL    HW237971   2.337   2.012  15.701 -2.2447 -1.4716 -0.4085
 8780SOL     OW37972   0.198   3.965   3.504  0.0344 -0.1707 -0.1340
 8780SOL    HW137973   0.173   4.042   3.451 -3.2799 -0.1677  1.4144
 8780SOL    HW237974   0.141   3.988   3.578 -0.7075 -0.8014 -0.5086
 8781SOL     OW37975   2.524   0.486   3.987 -0.0408  0.2692  0.0625
 8781SOL    HW137976   2.592   0.500   3.920 -2.2082  0.8053 -2.0037
 8781SOL    HW237977   2.564   0.518   4.068 -2.3715 -2.4710  2.2849
 8782SOL     OW37978   1.873   3.588   2.916 -0.2633  0.0559  0.2734
 8782SOL    HW137979   1.857   3.543   2.998  0.6027  0.8945  0.9072
 8782SOL    HW237980   1.814   3.539   2.859  0.6275 -1.0633  0.3134
 8783SOL     OW37981   2.264   2.080   5.699 -0.0264  0.3833  0.0332
 8783SOL    HW137982   2.256   2.002   5.754  0.9915 -0.9328 -1.7008
 8783SOL    HW237983   2.334   2.123   5.747  0.4006 -3.2978  2.7359
 8784SOL     OW37984   1.523   1.142   7.879 -0.4664 -0.0878 -0.2417
 8784SOL    HW137985   1.537   1.048   7.882 -1.7548 -0.3739 -2.8310
 8784SOL    HW237986   1.501   1.142   7.786  0.6480  3.1919 -0.5086
 8785SOL     OW37987   2.393   3.025   5.612 -0.0697  0.1585 -0.4427
 8785SOL    HW137988   2.413   3.097   5.672 -0.6702  0.4038 -0.5436
 8785SOL    HW237989   2.346   3.071   5.544  0.9901  1.4408 -0.3103
 8786SOL     OW37990   0.961   0.894  17.324  0.3546  0.3453  0.4824
 8786SOL    HW137991   1.010   0.851  17.394  1.5892 -2.0875 -1.8706
 8786SOL    HW237992   0.952   0.981  17.364 -2.3018  0.0972  0.4181
 8787SOL     OW37993   0.984   4.150   7.579 -0.0437 -0.2103 -0.0045
 8787SOL    HW137994   0.924   4.173   7.650 -0.4337  0.5759 -0.5958
 8787SOL    HW237995   1.027   4.073   7.616 -1.2501  0.0527  1.9263
 8788SOL     OW37996   3.957   2.529   9.802 -0.2174  0.1308  0.0492
 8788SOL    HW137997   4.041   2.509   9.843 -0.1747  2.4137  1.0902
 8788SOL    HW237998   3.916   2.587   9.866  2.3376 -0.4669  2.2387
 8789SOL     OW37999   2.917   4.239   6.159  0.9931  0.1154  0.1526
 8789SOL    HW138000   2.920   4.332   6.183  0.3612 -0.4294  2.3485
 8789SOL    HW238001   2.835   4.214   6.200  1.2019 -1.2857 -0.3024
 8790SOL     OW38002   2.379   3.712   4.582  0.0451  0.1625  0.5045
 8790SOL    HW138003   2.314   3.672   4.639  1.4991 -1.2364  1.1928
 8790SOL    HW238004   2.395   3.794   4.630 -4.0770  1.8127 -0.9410
 8791SOL     OW38005   2.813   0.897   4.152 -0.2286 -0.2599  0.0438
 8791SOL    HW138006   2.727   0.911   4.111 -0.5914 -1.0698  0.5382
 8791SOL    HW238007   2.804   0.897   4.247 -1.4086 -1.3433 -0.0572
 8792SOL     OW38008   4.363   3.613   6.266  0.5714  0.2420 -0.4830
 8792SOL    HW138009   4.362   3.692   6.320 -1.3430  0.7599 -1.2759
 8792SOL    HW238010   4.388   3.554   6.336 -0.8321  1.2480  0.8813
 8793SOL     OW38011   4.011   1.255   1.189 -0.0323  0.0705 -0.5705
 8793SOL    HW138012   3.948   1.324   1.206  0.0344  0.0774 -0.3516
 8793SOL    HW238013   4.090   1.294   1.227 -1.0962  1.0734  0.6146
 8794SOL     OW38014   2.932   2.084   6.496  0.3204  0.1412  0.0765
 8794SOL    HW138015   3.017   2.128   6.500  1.3814 -1.8036 -0.9989
 8794SOL    HW238016   2.917   2.060   6.404  1.5156 -1.3004  0.2676
 8795SOL     OW38017   0.157   2.909  17.346 -0.2617  0.1413  0.3860
 8795SOL    HW138018   0.110   2.959  17.280  0.4789  0.7376  0.3063
 8795SOL    HW238019   0.208   2.855  17.286  0.1165  0.5063  0.3783
 8796SOL     OW38020   0.673   1.223   6.441 -0.0048  0.2840  0.7479
 8796SOL    HW138021   0.685   1.165   6.366 -1.1655  0.8382  0.1202
 8796SOL    HW238022   0.681   1.169   6.519 -2.0050 -0.4457  0.4656
 8797SOL     OW38023   2.755   0.555   7.152 -0.2548  0.2105  0.3334
 8797SOL    HW138024   2.774   0.520   7.065  2.4860 -2.0986  1.8840
 8797SOL    HW238025   2.841   0.594   7.166  0.5843 -0.8566 -1.8925
 8798SOL     OW38026   2.021   2.425   5.605  0.2908 -0.4909  0.1539
 8798SOL    HW138027   1.933   2.423   5.642 -0.2122  1.9836 -0.9387
 8798SOL    HW238028   2.023   2.346   5.550 -2.5375  1.0017 -2.1186
 8799SOL     OW38029   4.028   2.920   6.925 -0.5579 -0.0191 -0.1289
 8799SOL    HW138030   3.966   2.949   6.858 -3.1164  1.5410  2.8984
 8799SOL    HW238031   4.036   2.827   6.905 -0.8952  0.3413 -1.8901
 8800SOL     OW38032   3.306   4.511  13.022  0.2207 -0.0567 -0.0014
 8800SOL    HW138033   3.341   4.496  12.934 -1.0186  2.5517 -0.9235
 8800SOL    HW238034   3.345   4.598  13.026  0.4687 -0.1925  0.4971
 8801SOL     OW38035   2.668   4.588   4.970 -0.1000  0.0127  0.2418
 8801SOL    HW138036   2.708   4.656   4.915 -0.0976  0.6486  1.0425
 8801SOL    HW238037   2.691   4.629   5.053  0.3048 -1.4261  0.8432
 8802SOL     OW38038   1.553   4.344   8.753 -0.0752  0.0348  0.1200
 8802SOL    HW138039   1.529   4.256   8.782  1.6297 -0.2794  0.5683
 8802SOL    HW238040   1.644   4.330   8.727 -0.1418  2.3831 -1.3927
 8803SOL     OW38041   0.354   2.923   1.455  0.0696 -0.2400 -0.9165
 8803SOL    HW138042   0.378   3.013   1.477 -0.9260 -0.3792  0.7919
 8803SOL    HW238043   0.440   2.882   1.451  0.1532 -0.2685  1.0646
 8804SOL     OW38044   2.231   3.074   1.747  0.7649 -0.0222  0.2525
 8804SOL    HW138045   2.220   3.114   1.661 -0.3748  0.4663  0.6334
 8804SOL    HW238046   2.303   3.011   1.746  1.5384  0.9510 -3.0151
 8805SOL     OW38047   3.943   2.879   1.400 -0.3057 -0.2461 -0.2026
 8805SOL    HW138048   3.894   2.799   1.415 -1.8446  0.3143 -2.1428
 8805SOL    HW238049   3.931   2.893   1.306  1.9383  2.1868 -0.1433
 8806SOL     OW38050   0.488   0.121   3.409  0.0944 -0.2159  0.5075
 8806SOL    HW138051   0.581   0.115   3.431  0.6054 -1.0236 -1.8541
 8806SOL    HW238052   0.477   0.026   3.399 -1.1112 -0.3049  2.6066
 8807SOL     OW38053   3.350   3.687   7.818 -0.0454  0.2812  0.3777
 8807SOL    HW138054   3.300   3.769   7.817  0.7892  0.7960  1.2439
 8807SOL    HW238055   3.441   3.714   7.806 -0.3638  0.7039 -1.1313
 8808SOL     OW38056   4.063   2.110   5.849 -0.0865  0.4238  0.2496
 8808SOL    HW138057   3.978   2.097   5.806 -0.6684  0.2244  1.4831
 8808SOL    HW238058   4.056   2.053   5.925 -0.4982  0.1569  0.0164
 8809SOL     OW38059   0.512   4.536   6.490 -0.3766  0.1425  0.2461
 8809SOL    HW138060   0.543   4.519   6.579  1.0570  2.3273  0.1650
 8809SOL    HW238061   0.524   4.629   6.475 -2.5486  0.1436 -1.3266
 8810SOL     OW38062   2.013   0.546  17.014  0.0441  0.4071  0.1071
 8810SOL    HW138063   1.940   0.505  17.061  0.6929 -0.8065  0.0731
 8810SOL    HW238064   1.959   0.606  16.963 -0.4218  0.1897  0.3464
 8811SOL     OW38065   2.755   2.334   1.148  0.2186  0.0989  0.5013
 8811SOL    HW138066   2.705   2.291   1.218  0.2360  0.3964  0.6959
 8811SOL    HW238067   2.699   2.403   1.114  2.8787  1.5711 -0.8804
 8812SOL     OW38068   2.053   0.113   5.750 -0.7666 -0.1670 -0.0149
 8812SOL    HW138069   2.094   0.199   5.765  0.1536 -0.5365 -0.4524
 8812SOL    HW238070   2.122   0.051   5.729 -0.1040  0.2727  0.8983
 8813SOL     OW38071   0.269   1.339  17.695 -0.3154  0.0479  0.2255
 8813SOL    HW138072   0.277   1.415  17.752 -0.8459  1.1199 -1.1420
 8813SOL    HW238073   0.270   1.373  17.606 -0.2629 -0.6171 -0.0294
 8814SOL     OW38074   2.774   2.027  10.934  0.0355  0.0652  0.0505
 8814SOL    HW138075   2.820   2.106  10.962 -2.1319  0.4151  2.7304
 8814SOL    HW238076   2.687   2.067  10.933  0.3450  0.7416  0.1669
 8815SOL     OW38077   2.834   4.567   4.101  0.5198 -0.2509 -0.3498
 8815SOL    HW138078   2.811   4.499   4.037 -1.9634 -1.1041  1.4610
 8815SOL    HW238079   2.764   4.562   4.165 -0.6605 -0.2940 -1.6467
 8816SOL     OW38080   3.797   1.575  16.828 -0.0671  0.3090 -0.0445
 8816SOL    HW138081   3.842   1.558  16.745 -1.1563  1.4676 -0.8743
 8816SOL    HW238082   3.709   1.549  16.803  0.8670 -1.1024 -1.8432
 8817SOL     OW38083   3.793   1.497   2.195  0.5531  0.2257  0.1877
 8817SOL    HW138084   3.827   1.513   2.107 -1.6797  2.8278 -0.2222
 8817SOL    HW238085   3.759   1.584   2.220  0.5153  0.2086  0.1966
 8818SOL     OW38086   1.339   1.582  13.068  0.4100 -0.4582 -0.2833
 8818SOL    HW138087   1.307   1.597  13.157  2.2758  2.8736 -0.1665
 8818SOL    HW238088   1.403   1.514  13.091 -1.7057 -1.8053  1.6966
 8819SOL     OW38089   3.078   0.985   5.071  0.4137  0.3740 -0.0496
 8819SOL    HW138090   3.082   0.905   5.123 -2.4952  0.0127 -0.3664
 8819SOL    HW238091   3.087   1.053   5.137  0.3999 -1.3995  1.7551
 8820SOL     OW38092   0.819   3.843  10.269 -0.1851  0.6556  0.2976
 8820SOL    HW138093   0.799   3.782  10.199 -0.7629  0.5523  0.5499
 8820SOL    HW238094   0.861   3.912  10.218  0.5448 -0.5493 -0.7122
 8821SOL     OW38095   0.010   0.725   4.027 -0.1111 -0.3894  0.2653
 8821SOL    HW138096   0.067   0.769   3.964 -2.5357  0.0131 -1.6062
 8821SOL    HW238097   4.697   0.799   4.058 -0.8017  0.2908 -2.5933
 8822SOL     OW38098   0.427   0.621   8.157  0.1497  0.3872 -0.6323
 8822SOL    HW138099   0.511   0.651   8.191  0.1244 -0.9088  0.5202
 8822SOL    HW238100   0.371   0.638   8.233  1.7828 -1.5120  0.9717
 8823SOL     OW38101   2.847   1.788  11.586 -0.2609  0.3887 -0.0953
 8823SOL    HW138102   2.868   1.741  11.505 -1.1761 -0.2495  0.0322
 8823SOL    HW238103   2.761   1.747  11.600 -0.5447  0.9900 -0.0982
 8824SOL     OW38104   4.588   1.698   6.957 -0.0993 -0.4493  0.5859
 8824SOL    HW138105   4.681   1.690   6.935 -0.6778 -1.8641 -1.4086
 8824SOL    HW238106   4.595   1.700   7.052 -0.3305 -1.4464  0.6233
 8825SOL     OW38107   1.475   0.525   6.406  0.2922  0.2195 -0.0432
 8825SOL    HW138108   1.390   0.494   6.375  1.1093 -0.6258 -1.4323
 8825SOL    HW238109   1.527   0.541   6.328 -0.9414  2.4828 -0.3952
 8826SOL     OW38110   4.013   2.555   4.783 -0.2313  0.2940  0.0639
 8826SOL    HW138111   3.963   2.632   4.811 -1.9528 -1.9712  3.2466
 8826SOL    HW238112   3.943   2.511   4.736 -1.3727  0.1797  1.8895
 8827SOL     OW38113   1.541   0.949   5.768  0.6879 -0.4594 -0.1299
 8827SOL    HW138114   1.524   0.997   5.687  0.1249  0.6843  0.6646
 8827SOL    HW238115   1.501   1.011   5.830  0.1869  0.2192 -1.1440
 8828SOL     OW38116   3.532   0.457   8.602 -0.9872  0.0631 -0.0301
 8828SOL    HW138117   3.575   0.382   8.643  0.5724  0.6023 -0.7041
 8828SOL    HW238118   3.591   0.468   8.528  1.9074  0.8834  2.4155
 8829SOL     OW38119   0.145   1.930  16.366  0.1233  0.2576  0.2356
 8829SOL    HW138120   0.091   2.008  16.380  0.6648  0.8923 -1.2637
 8829SOL    HW238121   0.074   1.869  16.343  1.0101 -0.6858 -0.0168
 8830SOL     OW38122   3.390   2.449   4.407  0.6990 -0.3464  0.1995
 8830SOL    HW138123   3.458   2.511   4.433 -1.2698  0.8865  2.4349
 8830SOL    HW238124   3.382   2.399   4.488  0.6106  1.1987  1.1355
 8831SOL     OW38125   4.099   3.386   2.367  0.0335  0.6002 -0.1918
 8831SOL    HW138126   4.142   3.323   2.424 -1.3140 -0.8369 -0.7444
 8831SOL    HW238127   4.173   3.427   2.322 -0.4775  0.6509 -0.9806
 8832SOL     OW38128   4.068   3.840   7.331  0.1231  0.3776 -0.3341
 8832SOL    HW138129   3.975   3.862   7.340  0.1823  0.2916  0.4473
 8832SOL    HW238130   4.092   3.813   7.419  2.9355  2.5035 -0.4491
 8833SOL     OW38131   1.123   0.742   9.005 -0.5427 -0.4633  0.0065
 8833SOL    HW138132   1.099   0.833   9.017  1.1255  0.0143 -0.2403
 8833SOL    HW238133   1.127   0.741   8.910 -1.5812  1.8421 -0.0420
 8834SOL     OW38134   1.052   2.151  13.177  0.4775 -0.1062 -0.6205
 8834SOL    HW138135   1.140   2.173  13.146 -0.0288  1.8101 -0.6606
 8834SOL    HW238136   1.037   2.065  13.137  1.1227 -1.2193  1.5536
 8835SOL     OW38137   0.171   3.324  16.290  0.0965 -0.0819 -0.2577
 8835SOL    HW138138   0.194   3.232  16.304 -0.5296  0.0525  1.7220
 8835SOL    HW238139   0.258   3.362  16.278  0.6371 -1.0314  0.6008
 8836SOL     OW38140   4.216   2.536   5.734  0.0035  0.2483 -0.3283
 8836SOL    HW138141   4.246   2.465   5.676 -2.1064 -1.2142  0.4050
 8836SOL    HW238142   4.180   2.487   5.807  1.0890 -0.3078 -0.1629
 8837SOL     OW38143   3.410   2.429   8.800  0.1586 -0.3044  0.2328
 8837SOL    HW138144   3.336   2.448   8.858  0.6248  0.6062  0.5120
 8837SOL    HW238145   3.371   2.437   8.713  0.1493  0.4320  0.3078
 8838SOL     OW38146   4.691   1.718   5.191  0.1613  0.0542 -0.1693
 8838SOL    HW138147   0.028   1.699   5.246  0.5005  0.1318 -0.6112
 8838SOL    HW238148   4.662   1.800   5.232 -1.9965 -0.9259  0.2519
 8839SOL     OW38149   4.474   0.440   3.294 -0.4739 -0.4558 -0.4142
 8839SOL    HW138150   4.407   0.494   3.336  1.7252  1.0932  1.1026
 8839SOL    HW238151   4.553   0.451   3.346 -1.9678  1.6937  1.3635
 8840SOL     OW38152   2.804   3.886   3.405  0.1055  0.1448 -0.3831
 8840SOL    HW138153   2.891   3.858   3.435  0.6720  0.4198 -1.7507
 8840SOL    HW238154   2.774   3.950   3.470 -0.9722 -0.3368 -0.4064
 8841SOL     OW38155   4.618   3.936  13.511 -0.2047 -0.2885 -0.2849
 8841SOL    HW138156   4.658   3.864  13.559  0.6809  2.1015  2.4960
 8841SOL    HW238157   4.596   3.892  13.428 -1.7248  0.2012 -0.1422
 8842SOL     OW38158   2.425   2.754   2.448 -0.0852  0.4183 -0.0828
 8842SOL    HW138159   2.423   2.742   2.543  0.6178 -2.5819 -0.4435
 8842SOL    HW238160   2.332   2.752   2.427 -0.0772  0.8873 -0.1739
 8843SOL     OW38161   1.192   1.827   8.444 -0.1362  1.1294 -0.2317
 8843SOL    HW138162   1.177   1.791   8.357  1.4175  1.8324 -0.7821
 8843SOL    HW238163   1.207   1.748   8.496 -0.5581  1.6039  0.6142
 8844SOL     OW38164   2.541   3.240   3.636 -0.1564 -0.0520  0.0691
 8844SOL    HW138165   2.496   3.159   3.614  3.5327 -1.3566 -2.5078
 8844SOL    HW238166   2.525   3.244   3.730  0.0251  1.3012  0.0491
 8845SOL     OW38167   3.972   3.332  16.517 -0.2135 -0.0665 -0.0729
 8845SOL    HW138168   3.979   3.404  16.579  1.8008 -2.1274  2.1121
 8845SOL    HW238169   3.878   3.312  16.514 -1.0032  3.4524  2.4640
 8846SOL     OW38170   1.710   3.784   0.517 -0.0855 -0.0461  0.2848
 8846SOL    HW138171   1.651   3.815   0.587  0.2285  0.2193  0.4342
 8846SOL    HW238172   1.726   3.874   0.489  0.5116 -0.0161  0.7340
 8847SOL     OW38173   4.543   2.944   7.700  0.4609  0.0241 -0.1922
 8847SOL    HW138174   4.498   2.932   7.783  0.1734 -1.9459 -0.6325
 8847SOL    HW238175   4.516   3.031   7.670  1.1982  0.6762  1.0361
 8848SOL     OW38176   2.457   2.295   8.542 -0.7645  0.1199 -0.2371
 8848SOL    HW138177   2.496   2.248   8.468  0.0363 -1.9732  1.5194
 8848SOL    HW238178   2.530   2.321   8.598 -0.0684  0.0052 -1.0872
 8849SOL     OW38179   0.239   2.146   6.275  0.0627 -0.2400  0.0893
 8849SOL    HW138180   0.203   2.211   6.215 -0.9445 -0.5453  0.3612
 8849SOL    HW238181   0.223   2.070   6.218  2.3386  0.3909 -1.4045
 8850SOL     OW38182   1.392   3.178   8.088  0.5032  0.2093 -0.2382
 8850SOL    HW138183   1.460   3.146   8.148 -1.6658 -0.9826  1.5824
 8850SOL    HW238184   1.344   3.098   8.068  0.7675  0.1874 -0.8012
 8851SOL     OW38185   4.674   3.794   8.116 -0.3974 -1.1551 -0.5983
 8851SOL    HW138186   4.697   3.723   8.055 -0.2263 -0.2713 -1.5678
 8851SOL    HW238187   4.580   3.802   8.100 -0.5312 -2.0616 -0.2603
 8852SOL     OW38188   2.100   3.286   9.859  0.0703  0.2413  0.0640
 8852SOL    HW138189   2.055   3.213   9.902 -0.6519  1.0019  0.5878
 8852SOL    HW238190   2.107   3.341   9.937  0.5285  0.1113  0.1091
 8853SOL     OW38191   3.973   0.138  16.756 -0.1612 -0.3172 -0.3894
 8853SOL    HW138192   3.955   0.229  16.780  1.3815 -0.8217  2.5962
 8853SOL    HW238193   3.913   0.098  16.819 -1.7729 -0.0268 -1.7172
 8854SOL     OW38194   2.970   1.484   7.790 -0.3542  0.5305  0.2670
 8854SOL    HW138195   2.912   1.560   7.784 -0.1103  0.5877 -1.2742
 8854SOL    HW238196   3.031   1.505   7.720  1.4157 -2.7550  0.8047
 8855SOL     OW38197   0.852   3.603   9.713  0.6158 -0.3392  0.3299
 8855SOL    HW138198   0.919   3.657   9.671  0.7838 -0.7421  0.0795
 8855SOL    HW238199   0.903   3.528   9.743  0.0640 -0.6469  0.5107
 8856SOL     OW38200   0.730   0.290   2.848  0.1745 -0.3944 -0.5846
 8856SOL    HW138201   0.751   0.203   2.882  0.7923 -0.7420 -1.8750
 8856SOL    HW238202   0.816   0.326   2.829  0.5435  0.5143  2.8453
 8857SOL     OW38203   3.802   1.095  13.025  0.3346  0.0541  0.1213
 8857SOL    HW138204   3.839   1.156  12.963 -0.3452  1.2530  0.8971
 8857SOL    HW238205   3.734   1.148  13.067 -0.4371  0.8799 -2.1837
 8858SOL     OW38206   3.958   2.995   2.512  0.0651 -0.7014  0.2372
 8858SOL    HW138207   3.891   2.927   2.521  0.0725 -0.9092 -1.4153
 8858SOL    HW238208   3.999   2.986   2.598 -1.6358 -0.9556  1.0328
 8859SOL     OW38209   3.004   3.272   7.569 -0.0490  0.3091 -0.8333
 8859SOL    HW138210   2.951   3.231   7.637  0.3204 -1.3909 -1.5592
 8859SOL    HW238211   3.007   3.198   7.507 -0.3458 -1.0937  0.8285
 8860SOL     OW38212   3.873   0.937   2.829 -0.3929 -0.4857 -0.5440
 8860SOL    HW138213   3.917   0.864   2.872 -1.6423  0.0540  1.6685
 8860SOL    HW238214   3.941   0.976   2.774 -1.5811  2.5235  0.0663
 8861SOL     OW38215   1.840   3.487   1.072 -0.1587  0.5116 -0.0716
 8861SOL    HW138216   1.890   3.537   1.007 -0.9862  0.5333 -0.6935
 8861SOL    HW238217   1.819   3.561   1.128  1.3303  1.0366 -0.1983
 8862SOL     OW38218   3.699   1.503   4.281  0.0418 -0.3561  0.4344
 8862SOL    HW138219   3.713   1.453   4.200  0.1196  0.3028  0.0445
 8862SOL    HW238220   3.692   1.593   4.250  0.0617 -0.5067 -0.0127
 8863SOL     OW38221   3.367   2.331   4.654 -0.5350  0.1953  0.4339
 8863SOL    HW138222   3.348   2.238   4.666 -0.6808  0.2869  0.9364
 8863SOL    HW238223   3.279   2.361   4.629  0.5781  2.0405 -1.2791
 8864SOL     OW38224   2.348   4.240   0.247 -0.2012 -0.6339  0.1476
 8864SOL    HW138225   2.308   4.216   0.163 -2.8386 -1.3522  1.6084
 8864SOL    HW238226   2.440   4.212   0.245  0.7381  2.5705 -1.3817
 8865SOL     OW38227   0.065   1.261  13.958  0.0977  0.0464  0.0378
 8865SOL    HW138228   4.724   1.212  13.974  0.9797 -1.9324 -1.7230
 8865SOL    HW238229   0.039   1.331  13.898 -0.5475 -0.9590 -0.8306
 8866SOL     OW38230   2.264   0.392   8.395  0.1806  0.3017 -0.0275
 8866SOL    HW138231   2.281   0.447   8.318  1.1056  1.1462  0.7836
 8866SOL    HW238232   2.311   0.445   8.459  0.3220 -0.6713  0.6656
 8867SOL     OW38233   1.148   4.388  10.812  0.2984  0.1492 -0.5270
 8867SOL    HW138234   1.203   4.406  10.888 -0.4362 -1.5006  0.3989
 8867SOL    HW238235   1.142   4.293  10.823  1.5663  0.2668  1.0936
 8868SOL     OW38236   1.060   0.819  11.764  0.4471 -0.3580  0.3168
 8868SOL    HW138237   1.060   0.826  11.669 -0.1852  0.3035  0.3608
 8868SOL    HW238238   1.120   0.893  11.775  0.1163 -0.1150  0.5076
 8869SOL     OW38239   0.772   4.736  15.527 -0.0776 -0.0179  0.1819
 8869SOL    HW138240   0.690   0.004  15.479  0.4757 -2.0952 -1.0595
 8869SOL    HW238241   0.826   4.684  15.469  0.6818  1.7133 -0.6522
 8870SOL     OW38242   0.403   3.159   3.846  0.6979  0.2642  0.7541
 8870SOL    HW138243   0.472   3.222   3.866  1.0416  0.1106  0.0519
 8870SOL    HW238244   0.365   3.136   3.932  1.9247 -1.2668  0.8724
 8871SOL     OW38245   3.240   2.794   5.548 -0.1437  0.5541  0.3231
 8871SOL    HW138246   3.308   2.784   5.614  1.0973  0.8097 -0.9262
 8871SOL    HW238247   3.177   2.729   5.579  0.3917  0.3833  1.0235
 8872SOL     OW38248   4.734   0.726   5.756 -0.1892 -0.1161 -0.1097
 8872SOL    HW138249   0.085   0.728   5.788  0.5371 -0.9361 -2.1298
 8872SOL    HW238250   4.700   0.646   5.796  0.5815 -0.0349  0.7243
 8873SOL     OW38251   1.165   1.137   2.081  0.2951  0.4284  0.5508
 8873SOL    HW138252   1.201   1.140   1.992  1.9711  0.3505  1.2316
 8873SOL    HW238253   1.138   1.046   2.094  1.1819 -0.0833 -1.1710
 8874SOL     OW38254   2.554   3.417   6.192 -0.0943  0.2987  0.3344
 8874SOL    HW138255   2.627   3.419   6.131 -2.1277  1.2393 -2.0543
 8874SOL    HW238256   2.490   3.450   6.129 -0.1819  0.7198  0.6442
 8875SOL     OW38257   3.847   2.907  15.926 -0.0070 -0.4074  0.5923
 8875SOL    HW138258   3.805   2.888  16.010  1.5411  0.2103  1.5091
 8875SOL    HW238259   3.774   2.917  15.866  1.3404 -0.1571 -0.9951
 8876SOL     OW38260   4.158   3.074   3.635 -0.0195 -0.2534  0.0674
 8876SOL    HW138261   4.151   3.102   3.727  0.7541  0.7136 -0.1627
 8876SOL    HW238262   4.193   2.985   3.648  0.1606 -0.1929 -0.0028
 8877SOL     OW38263   3.215   2.769  12.028  0.5184  0.6941  0.3871
 8877SOL    HW138264   3.124   2.756  11.999  0.2967 -1.4117  1.9289
 8877SOL    HW238265   3.233   2.860  12.008  0.1879  0.7337  0.2638
 8878SOL     OW38266   2.358   1.610  12.377  0.5341  0.1588 -0.4826
 8878SOL    HW138267   2.399   1.606  12.463  1.6924 -1.0162 -1.0957
 8878SOL    HW238268   2.436   1.619  12.322  1.1862  1.7246  0.7022
 8879SOL     OW38269   1.869   0.696  11.256  0.5708  0.3631 -0.4278
 8879SOL    HW138270   1.844   0.610  11.221 -0.1578  0.7187 -0.7775
 8879SOL    HW238271   1.811   0.747  11.199  0.4926  0.9499  0.1769
 8880SOL     OW38272   4.674   3.568   7.964  0.2250 -0.6050 -0.0249
 8880SOL    HW138273   0.021   3.551   8.003  0.8525 -1.8121 -1.9853
 8880SOL    HW238274   4.629   3.489   7.993 -0.1429 -0.2992  0.2306
 8881SOL     OW38275   4.621   3.829   8.846  0.3628 -0.2539  0.1381
 8881SOL    HW138276   4.596   3.747   8.803 -0.2346  0.1172 -0.2325
 8881SOL    HW238277   4.563   3.882   8.791 -1.4848 -1.8207  0.5550
 8882SOL     OW38278   3.153   1.121   5.704  0.1571 -0.2104  0.2060
 8882SOL    HW138279   3.117   1.192   5.651 -3.1255 -1.5568  0.6046
 8882SOL    HW238280   3.245   1.146   5.707  0.3316 -0.6747 -2.0365
 8883SOL     OW38281   3.754   3.462  14.026 -0.3315  0.4688  0.3450
 8883SOL    HW138282   3.688   3.477  13.958  0.1380  4.3341  0.7379
 8883SOL    HW238283   3.832   3.438  13.976 -1.5427 -2.4283 -0.1508
 8884SOL     OW38284   4.266   3.951   8.803 -0.4648  0.2806 -0.2330
 8884SOL    HW138285   4.343   3.904   8.772 -2.2104 -3.0861  0.6039
 8884SOL    HW238286   4.251   3.924   8.893 -0.4241 -0.8541 -0.5629
 8885SOL     OW38287   0.861   3.746   2.056  0.3729 -0.5545  0.8948
 8885SOL    HW138288   0.865   3.768   1.962 -1.1436 -1.4238  0.6177
 8885SOL    HW238289   0.921   3.818   2.078 -0.5031  0.7757 -1.0180
 8886SOL     OW38290   4.064   1.216  10.993  0.1803  0.1796 -0.2405
 8886SOL    HW138291   4.076   1.305  10.960  0.2305  0.2587 -0.0080
 8886SOL    HW238292   4.057   1.154  10.920 -1.7322 -0.6995  0.6890
 8887SOL     OW38293   0.922   4.302  12.360 -0.3171  0.1768  0.2034
 8887SOL    HW138294   0.912   4.397  12.371 -3.2527  0.0155 -1.1206
 8887SOL    HW238295   0.926   4.279  12.453 -1.3874 -1.9028 -0.2705
 8888SOL     OW38296   1.033   1.757   1.549  0.2350 -0.1026 -0.0818
 8888SOL    HW138297   1.058   1.790   1.463  0.0759 -0.4016 -0.2410
 8888SOL    HW238298   1.097   1.804   1.603 -0.2433 -0.5562  0.8712
 8889SOL     OW38299   0.020   1.207  12.873  0.2880  0.0531 -0.3235
 8889SOL    HW138300   0.082   1.260  12.923  0.5253  0.8421 -1.4619
 8889SOL    HW238301   0.039   1.121  12.910  1.4546  0.6383  0.4403
 8890SOL     OW38302   0.883   3.681   6.743  0.4804 -0.5530  0.1242
 8890SOL    HW138303   0.942   3.638   6.681 -2.0902 -3.2666 -0.4221
 8890SOL    HW238304   0.934   3.750   6.784 -0.8061  0.2724  0.3321
 8891SOL     OW38305   0.418   2.667  13.457 -0.4410  0.2408  0.3076
 8891SOL    HW138306   0.332   2.703  13.438  1.0721  2.2747 -2.5356
 8891SOL    HW238307   0.452   2.717  13.531 -1.7386  0.4886  0.7337
 8892SOL     OW38308   2.792   0.851   2.930 -0.0236  0.0359  0.5416
 8892SOL    HW138309   2.737   0.798   2.873  1.0823  0.1400 -0.6090
 8892SOL    HW238310   2.871   0.799   2.917  0.5961  0.8386  1.0409
 8893SOL     OW38311   3.951   0.087   5.742 -0.3911 -0.0136  0.5587
 8893SOL    HW138312   3.874   0.081   5.685  0.4656  3.0830 -0.9273
 8893SOL    HW238313   4.019   0.086   5.674  0.1073 -0.7113  1.0691
 8894SOL     OW38314   1.304   1.004   6.634  0.2876 -0.1324 -0.2614
 8894SOL    HW138315   1.218   1.030   6.666 -0.5821  0.7408 -3.3357
 8894SOL    HW238316   1.323   0.933   6.695 -0.2900  1.7138  2.0654
 8895SOL     OW38317   2.555   4.428   4.620 -0.1303 -0.6349 -0.0729
 8895SOL    HW138318   2.610   4.506   4.607 -0.6861 -0.4744 -1.4636
 8895SOL    HW238319   2.469   4.469   4.613 -0.7787 -1.6836  1.8347
 8896SOL     OW38320   3.230   4.308   4.019  0.0789  0.5375  0.3125
 8896SOL    HW138321   3.257   4.396   4.045  1.6414 -0.1397  0.9891
 8896SOL    HW238322   3.291   4.260   4.075  0.7287 -0.3431 -1.1358
 8897SOL     OW38323   4.401   4.527   2.496 -0.3240 -0.1247 -0.4529
 8897SOL    HW138324   4.458   4.458   2.530 -0.4877  0.4498  0.9985
 8897SOL    HW238325   4.473   4.584   2.468  0.5694 -2.4190 -2.8279
 8898SOL     OW38326   2.607   2.949   8.932  0.3296 -0.2318 -0.2950
 8898SOL    HW138327   2.612   3.021   8.870  0.7253  0.3744  0.4416
 8898SOL    HW238328   2.637   2.995   9.010  0.2631 -1.0646  0.2223
 8899SOL     OW38329   1.995   4.130   1.303  0.3464 -1.0502  0.1028
 8899SOL    HW138330   2.057   4.070   1.343  1.0240 -0.7926 -0.5483
 8899SOL    HW238331   2.012   4.123   1.209  1.4280 -0.6835  0.2651
 8900SOL     OW38332   1.963   4.011   7.760 -0.4581 -0.1898  0.0512
 8900SOL    HW138333   1.906   4.084   7.732  0.8900  0.9693  0.3246
 8900SOL    HW238334   1.911   3.933   7.741  1.2460 -0.7492 -2.1645
 8901SOL     OW38335   2.044   3.148   4.438 -0.5436 -0.5056  0.4988
 8901SOL    HW138336   2.137   3.170   4.434 -1.0228  1.4680  0.1559
 8901SOL    HW238337   2.047   3.057   4.410 -0.7514 -1.8008  4.8141
 8902SOL     OW38338   1.108   0.506   3.738  0.0763  0.0438 -0.2389
 8902SOL    HW138339   1.015   0.485   3.739 -0.2024  1.3018 -0.3565
 8902SOL    HW238340   1.140   0.416   3.746 -2.1920 -0.6406  0.9101
 8903SOL     OW38341   2.607   4.262  12.350 -0.1217  0.7264  0.5267
 8903SOL    HW138342   2.568   4.281  12.264 -0.6888  0.4166  0.7180
 8903SOL    HW238343   2.698   4.242  12.327 -0.1397 -0.4263  1.4994
 8904SOL     OW38344   3.195   3.316   4.033  0.2388  0.1461 -0.1145
 8904SOL    HW138345   3.259   3.248   4.054 -1.1137 -1.2643 -0.6339
 8904SOL    HW238346   3.119   3.267   4.001 -0.2804  0.3546  0.8098
 8905SOL     OW38347   1.253   2.122   5.299 -0.1934  0.1849  0.2627
 8905SOL    HW138348   1.245   2.155   5.209 -3.0555 -2.7888 -0.5428
 8905SOL    HW238349   1.170   2.078   5.312 -0.3362  1.3660  3.3784
 8906SOL     OW38350   3.497   1.299   1.755  0.2221  0.1705 -0.1630
 8906SOL    HW138351   3.558   1.327   1.824  0.0952  0.8737 -0.3356
 8906SOL    HW238352   3.534   1.344   1.679  0.0723 -1.3135 -1.0995
 8907SOL     OW38353   1.693   1.764   1.017 -0.7788 -0.4008 -0.2520
 8907SOL    HW138354   1.624   1.712   1.058 -2.0662  0.4629 -1.3337
 8907SOL    HW238355   1.740   1.816   1.082  0.6670 -1.3542 -0.5291
 8908SOL     OW38356   1.401   1.707   9.704 -0.0762  0.6166 -0.2585
 8908SOL    HW138357   1.400   1.627   9.757  1.9866  0.3492 -0.6376
 8908SOL    HW238358   1.492   1.733   9.716  0.2191 -0.2219 -0.6603
 8909SOL     OW38359   1.677   1.639   7.699  0.6442 -0.2937 -0.6605
 8909SOL    HW138360   1.745   1.703   7.678 -0.6434  0.4996 -2.4308
 8909SOL    HW238361   1.597   1.672   7.657  0.5116 -0.3444 -0.4462
 8910SOL     OW38362   0.290   2.403   7.369 -0.6767 -0.6266 -0.4380
 8910SOL    HW138363   0.209   2.428   7.323 -1.6890  1.2847  2.4028
 8910SOL    HW238364   0.355   2.435   7.306  0.5994  0.0490  1.2101
 8911SOL     OW38365   2.625   2.574   2.643 -0.6364  0.1909  0.4804
 8911SOL    HW138366   2.702   2.519   2.661 -0.2031  0.5547 -0.2826
 8911SOL    HW238367   2.566   2.526   2.700 -2.5253  1.2931 -0.5683
 8912SOL     OW38368   0.063   4.374  12.895  0.0281 -0.0809 -0.5627
 8912SOL    HW138369   0.052   4.436  12.968  2.0420 -1.7815  1.1904
 8912SOL    HW238370   0.086   4.295  12.945  0.0354  1.0485  1.2459
 8913SOL     OW38371   2.105   3.441   3.431 -0.0695  0.3322 -0.6746
 8913SOL    HW138372   2.180   3.424   3.487  0.5988 -0.7697 -1.9145
 8913SOL    HW238373   2.054   3.489   3.497  3.5174 -1.5605  3.4384
 8914SOL     OW38374   2.610   1.499   6.672 -0.6900  0.0130 -0.4160
 8914SOL    HW138375   2.596   1.571   6.734  0.2992 -0.0102 -0.1743
 8914SOL    HW238376   2.524   1.480   6.635 -0.7676  0.6274 -0.5532
 8915SOL     OW38377   1.529   1.386  11.408 -0.0133  0.9165  0.3841
 8915SOL    HW138378   1.464   1.455  11.417 -0.5976  0.4141  0.0784
 8915SOL    HW238379   1.473   1.330  11.353  0.4652  2.1962 -1.4235
 8916SOL     OW38380   0.407   3.496   9.882  0.2732 -0.0969  0.1017
 8916SOL    HW138381   0.424   3.404   9.861  0.0328  0.2334 -1.5179
 8916SOL    HW238382   0.479   3.529   9.828  0.3542 -2.9488 -1.5957
 8917SOL     OW38383   0.980   0.289  16.914 -0.0993 -0.0562 -0.6191
 8917SOL    HW138384   0.999   0.378  16.886 -0.5861  0.0243 -0.6899
 8917SOL    HW238385   1.061   0.246  16.887  0.5073  1.5067 -1.2501
 8918SOL     OW38386   4.214   1.140   5.946  0.2854 -0.0435  0.3207
 8918SOL    HW138387   4.194   1.046   5.946  0.2303 -0.0332  0.9505
 8918SOL    HW238388   4.144   1.174   5.890 -1.6963 -2.5301  1.2465
 8919SOL     OW38389   3.806   0.860   5.726  0.0018  0.1133 -0.3225
 8919SOL    HW138390   3.794   0.948   5.690 -0.5343  0.3198  0.3588
 8919SOL    HW238391   3.725   0.813   5.706  0.4452 -0.2308 -1.3104
 8920SOL     OW38392   2.438   2.553   6.698 -0.0960 -0.1383  0.2976
 8920SOL    HW138393   2.394   2.542   6.613  2.1117  1.5725 -1.0695
 8920SOL    HW238394   2.367   2.530   6.759  0.4851  2.0388  1.7972
 8921SOL     OW38395   3.727   2.480  15.683  0.4577  0.3997 -0.4045
 8921SOL    HW138396   3.634   2.469  15.700  0.8328  0.0433  1.4427
 8921SOL    HW238397   3.761   2.430  15.758 -2.4566  0.0881  0.6773
 8922SOL     OW38398   2.502   0.407   5.885 -0.7652  0.1460 -0.1040
 8922SOL    HW138399   2.589   0.432   5.918 -0.3540 -1.2587 -0.1348
 8922SOL    HW238400   2.520   0.320   5.851 -0.6055 -0.0900  0.5816
 8923SOL     OW38401   2.315   1.780   8.844  0.4569  0.4202  0.2176
 8923SOL    HW138402   2.386   1.770   8.908  0.8458  0.2192 -0.2412
 8923SOL    HW238403   2.246   1.783   8.910  1.7885 -0.6924  1.6399
 8924SOL     OW38404   2.952   3.520  11.079 -0.4292 -0.6129  0.4913
 8924SOL    HW138405   2.887   3.494  11.144 -0.3324 -1.4114  0.2641
 8924SOL    HW238406   2.978   3.604  11.117  0.2058 -0.7774  0.4334
 8925SOL     OW38407   0.640   0.197   0.527 -0.4582 -0.1507  0.5231
 8925SOL    HW138408   0.685   0.114   0.511 -1.4719 -0.5745 -0.1425
 8925SOL    HW238409   0.635   0.175   0.621 -4.2805 -0.3278  0.2567
 8926SOL     OW38410   2.172   4.432   3.282  0.1388  0.5035 -0.0135
 8926SOL    HW138411   2.104   4.391   3.229 -0.3099  0.5809  0.5008
 8926SOL    HW238412   2.221   4.355   3.309 -1.7188  0.0380  2.0314
 8927SOL     OW38413   3.257   1.861   9.608  0.2380 -0.8478 -0.0704
 8927SOL    HW138414   3.202   1.934   9.635 -0.1817 -1.7885  1.6253
 8927SOL    HW238415   3.314   1.860   9.686  0.0886 -1.6017  0.0319
 8928SOL     OW38416   1.943   3.775   1.962  0.0698 -0.1847  0.5880
 8928SOL    HW138417   1.943   3.712   2.034 -1.1811 -0.8154  0.0512
 8928SOL    HW238418   1.859   3.818   1.977  0.5192  1.6468 -2.1740
 8929SOL     OW38419   0.263   0.668   5.117  0.0284 -0.2095  0.7060
 8929SOL    HW138420   0.208   0.713   5.182  0.8091  0.6463  0.7779
 8929SOL    HW238421   0.199   0.598   5.106  0.7502 -0.9009  0.9527
 8930SOL     OW38422   4.492   0.667   2.690 -0.5018  0.5249  0.1855
 8930SOL    HW138423   4.490   0.733   2.760 -0.1559  1.3775 -0.6140
 8930SOL    HW238424   4.512   0.716   2.611 -1.4189  3.1569  1.5715
 8931SOL     OW38425   0.162   3.960   6.852  0.1486  0.6712  0.5879
 8931SOL    HW138426   0.163   3.906   6.773  0.3673  0.6989  0.5702
 8931SOL    HW238427   0.101   3.910   6.906  1.0758  0.8877  1.8280
 8932SOL     OW38428   3.147   0.620   4.577 -0.0433 -0.3201 -0.6711
 8932SOL    HW138429   3.135   0.666   4.494 -0.0518  0.9850  0.0524
 8932SOL    HW238430   3.242   0.632   4.577 -0.3431  1.9896 -1.5880
 8933SOL     OW38431   4.129   1.138   5.476  0.6265  0.5016  0.3671
 8933SOL    HW138432   4.135   1.232   5.493  0.1279  0.4189  0.9815
 8933SOL    HW238433   4.204   1.127   5.418  0.1561 -0.2722 -0.0906
 8934SOL     OW38434   2.976   4.058  12.994  0.1924  0.4761 -0.0512
 8934SOL    HW138435   3.055   4.003  12.997  0.3898  0.6373 -2.7513
 8934SOL    HW238436   2.917   4.010  13.053  0.4043 -0.9786 -1.0109
 8935SOL     OW38437   1.929   3.203  13.005  0.2233 -0.3964 -0.1175
 8935SOL    HW138438   1.991   3.172  13.071  0.2366  0.3068  0.1949
 8935SOL    HW238439   1.899   3.116  12.979 -1.0873  0.1381 -0.3566
 8936SOL     OW38440   1.427   1.367   4.634 -0.3731  0.6254  0.3908
 8936SOL    HW138441   1.442   1.407   4.719  0.1359  1.8273 -0.2721
 8936SOL    HW238442   1.508   1.388   4.588 -0.3224 -0.4874 -0.0441
 8937SOL     OW38443   3.254   0.642   7.298  0.7163  0.0652  0.1386
 8937SOL    HW138444   3.278   0.562   7.344  0.8621  0.3311  0.5177
 8937SOL    HW238445   3.338   0.673   7.264  0.2492 -1.5209 -2.4329
 8938SOL     OW38446   3.315   3.955   4.469 -0.1163 -0.1503  0.0122
 8938SOL    HW138447   3.345   3.896   4.538  0.4856 -1.2424 -1.2061
 8938SOL    HW238448   3.363   3.943   4.388  2.3102  0.8923  1.2845
 8939SOL     OW38449   3.614   2.596   4.450 -0.9025 -0.0792 -0.4056
 8939SOL    HW138450   3.653   2.673   4.493 -0.2170 -1.0774  0.7564
 8939SOL    HW238451   3.621   2.615   4.356 -1.4646 -0.1158 -0.4535
 8940SOL     OW38452   1.276   3.873   2.372 -0.5255  0.1180 -0.3783
 8940SOL    HW138453   1.261   3.795   2.426  0.6886 -0.1660 -0.4458
 8940SOL    HW238454   1.244   3.833   2.292  1.0502 -0.3060 -0.8107
 8941SOL     OW38455   0.160   1.624   5.373  0.8575  0.5476 -0.2482
 8941SOL    HW138456   0.210   1.599   5.451 -1.3068  3.1543  1.9771
 8941SOL    HW238457   0.206   1.576   5.304 -0.4170 -1.4314  0.2744
 8942SOL     OW38458   2.476   0.991   7.045 -0.0240 -0.0362  0.0356
 8942SOL    HW138459   2.466   1.013   7.137  0.3300 -1.4710  0.4172
 8942SOL    HW238460   2.425   1.056   6.996 -1.1420 -0.4857  0.6025
 8943SOL     OW38461   3.494   0.229  13.791  0.3179 -0.7341  0.2221
 8943SOL    HW138462   3.586   0.247  13.772 -0.3916  1.7048 -0.9521
 8943SOL    HW238463   3.502   0.228  13.887  0.8574 -0.2008  0.1822
 8944SOL     OW38464   1.971   3.522   0.509  0.0362  0.0920  0.0873
 8944SOL    HW138465   1.978   3.617   0.520 -1.1120  0.0088  1.5322
 8944SOL    HW238466   1.892   3.518   0.457  0.4041  0.0218 -0.4670
 8945SOL     OW38467   3.344   4.634   1.501 -0.4731 -0.6891 -0.0408
 8945SOL    HW138468   3.398   4.633   1.580  0.3270 -2.9248 -0.6327
 8945SOL    HW238469   3.409   4.616   1.433  0.7481 -1.1003  1.2364
 8946SOL     OW38470   3.901   1.412   4.856  0.2760  0.2543 -0.5737
 8946SOL    HW138471   3.879   1.321   4.836  1.9166 -0.6003  1.5530
 8946SOL    HW238472   3.940   1.401   4.942 -1.7712 -1.8670  0.0649
 8947SOL     OW38473   3.241   1.499   4.784  0.2340 -0.5469 -0.3035
 8947SOL    HW138474   3.171   1.565   4.777  0.9638  0.0910 -1.6110
 8947SOL    HW238475   3.281   1.515   4.869  0.8584 -0.0714 -0.6913
 8948SOL     OW38476   3.992   0.219   1.562 -0.5483  0.3339  0.1382
 8948SOL    HW138477   4.026   0.169   1.636  0.3667  0.8045  0.0338
 8948SOL    HW238478   3.990   0.163   1.485 -2.7697 -1.7191  1.6996
 8949SOL     OW38479   1.633   4.476  14.477 -0.3082  0.1121  0.2033
 8949SOL    HW138480   1.571   4.433  14.418 -0.0950 -0.8673  0.6999
 8949SOL    HW238481   1.644   4.554  14.422 -0.5792  0.9722  1.3759
 8950SOL     OW38482   0.592   2.243   8.451  0.3245 -0.3017  0.6624
 8950SOL    HW138483   0.600   2.150   8.473 -2.3205 -0.8088 -0.4536
 8950SOL    HW238484   0.536   2.238   8.373 -0.7637 -1.3889  1.5157
 8951SOL     OW38485   3.128   3.438   2.050 -0.1300  0.3875 -0.2764
 8951SOL    HW138486   3.156   3.347   2.049 -1.3745  0.0351 -2.0546
 8951SOL    HW238487   3.218   3.470   2.060  0.0517 -1.3802  3.9624
 8952SOL     OW38488   2.087   2.499   4.655  0.5747 -0.0265 -0.4635
 8952SOL    HW138489   2.106   2.453   4.737 -1.3054  0.1893  0.0983
 8952SOL    HW238490   1.998   2.465   4.647 -1.4385  5.3475 -0.6520
 8953SOL     OW38491   0.028   2.489   7.913  0.2985  0.3009 -0.0825
 8953SOL    HW138492   4.676   2.494   7.885  0.1551 -0.2327  0.2832
 8953SOL    HW238493   0.023   2.525   8.001 -0.6623 -0.6328  0.2362
 8954SOL     OW38494   0.284   3.567   0.606  0.2284 -0.0422 -0.3512
 8954SOL    HW138495   0.195   3.547   0.635 -0.1091  0.8587 -0.7359
 8954SOL    HW238496   0.266   3.597   0.516  1.0938  1.9483  0.1315
 8955SOL     OW38497   3.028   3.480   5.560  0.1983 -0.0500 -0.3062
 8955SOL    HW138498   3.086   3.423   5.610  1.2758 -0.4984 -2.0671
 8955SOL    HW238499   3.077   3.504   5.482 -0.8951  1.8006 -0.4139
 8956SOL     OW38500   4.733   1.514   4.458 -0.2010  0.5125  0.3603
 8956SOL    HW138501   4.657   1.530   4.402 -1.2798  0.5005  1.8281
 8956SOL    HW238502   0.057   1.579   4.427  1.1343 -1.8538 -1.8944
 8957SOL     OW38503   2.192   3.271   1.545  0.3260 -0.2901 -0.2347
 8957SOL    HW138504   2.220   3.362   1.536  1.5466 -0.2602  4.0166
 8957SOL    HW238505   2.211   3.233   1.459 -1.2620  0.4622 -0.9202
 8958SOL     OW38506   0.460   3.956   9.013  0.6762  0.1682 -0.1170
 8958SOL    HW138507   0.544   3.946   8.968 -0.6998  0.6112 -2.8089
 8958SOL    HW238508   0.440   3.863   9.022 -0.0495  0.4042  0.6383
 8959SOL     OW38509   0.290   4.006   2.053  0.2880 -0.6207  0.0252
 8959SOL    HW138510   0.334   4.037   1.974  0.1800 -0.1096  0.1658
 8959SOL    HW238511   0.298   4.075   2.119 -0.5004  1.3410 -1.9105
 8960SOL     OW38512   1.235   1.995   3.144  0.2839 -0.2765 -0.2428
 8960SOL    HW138513   1.167   1.953   3.092  0.5068 -1.9057  0.7725
 8960SOL    HW238514   1.272   1.920   3.191 -0.1977  0.9206  2.0256
 8961SOL     OW38515   3.147   4.322   9.036 -0.6619  0.0506 -0.2065
 8961SOL    HW138516   3.056   4.333   9.009 -1.4287 -0.8104  1.9853
 8961SOL    HW238517   3.159   4.404   9.083  2.2101  0.6007 -1.9120
 8962SOL     OW38518   2.044   0.680   7.190  0.1612 -0.4455 -0.1187
 8962SOL    HW138519   2.019   0.772   7.179  0.1921 -0.3856  0.3047
 8962SOL    HW238520   2.103   0.658   7.119 -1.3400 -0.7486 -1.2660
 8963SOL     OW38521   4.368   1.184   7.357 -0.5305  0.0652  0.2364
 8963SOL    HW138522   4.277   1.192   7.382 -0.1761 -0.2099  1.6129
 8963SOL    HW238523   4.420   1.182   7.438 -2.3931 -0.3200  1.4159
 8964SOL     OW38524   4.093   3.816   0.642  0.0881 -0.0628 -0.7360
 8964SOL    HW138525   4.183   3.834   0.671 -0.2938 -0.6184  0.7920
 8964SOL    HW238526   4.059   3.906   0.650 -0.1413 -0.3768  1.8376
 8965SOL     OW38527   3.972   0.156   7.668 -0.3764  0.2269  0.4449
 8965SOL    HW138528   3.986   0.106   7.749  0.0814  0.3992  0.4685
 8965SOL    HW238529   3.880   0.178   7.684 -0.5126 -0.6776  0.9421
 8966SOL     OW38530   1.520   3.140   6.124 -0.1237 -0.0797  0.2597
 8966SOL    HW138531   1.480   3.225   6.111  0.2843  0.1070  0.2051
 8966SOL    HW238532   1.590   3.151   6.060 -0.2036  2.0489  0.5299
 8967SOL     OW38533   0.731   2.645  12.401  0.2177  0.0994  0.3977
 8967SOL    HW138534   0.721   2.591  12.322 -2.8479 -0.0245  0.8766
 8967SOL    HW238535   0.741   2.732  12.361 -1.4683 -0.2078 -0.6939
 8968SOL     OW38536   1.856   3.927   6.507  0.1633 -0.2427  0.1610
 8968SOL    HW138537   1.944   3.891   6.520  0.6577  1.6171  1.9544
 8968SOL    HW238538   1.802   3.848   6.507 -0.8443  0.4452 -0.2272
 8969SOL     OW38539   3.701   3.325   0.566 -0.8002 -0.2237 -0.0352
 8969SOL    HW138540   3.641   3.399   0.560 -0.5198 -0.0252 -0.4538
 8969SOL    HW238541   3.654   3.256   0.613 -0.8806 -0.4086 -0.3840
 8970SOL     OW38542   4.358   0.255   2.648  0.1761 -0.7460  0.0403
 8970SOL    HW138543   4.403   0.196   2.708  1.9293 -0.6073 -1.1026
 8970SOL    HW238544   4.373   0.214   2.562 -1.3444  1.4221 -1.2601
 8971SOL     OW38545   2.585   3.505  17.317 -0.2016 -0.5878  0.0103
 8971SOL    HW138546   2.651   3.446  17.355  0.0001  0.3279  1.0944
 8971SOL    HW238547   2.521   3.433  17.317 -0.0301 -0.7423 -0.9418
 8972SOL     OW38548   0.888   1.835  16.184 -0.0141 -0.2177  0.0055
 8972SOL    HW138549   0.835   1.778  16.128 -0.5628 -2.4418  2.8109
 8972SOL    HW238550   0.973   1.826  16.140  0.8364  0.2898  1.5468
 8973SOL     OW38551   0.262   0.223   2.156  0.0810 -0.5586 -0.1467
 8973SOL    HW138552   0.192   0.182   2.207  0.9626 -0.1854  1.3745
 8973SOL    HW238553   0.222   0.229   2.069  0.1540 -0.3885 -0.1696
 8974SOL     OW38554   4.662   0.146   3.896 -0.5175 -0.2875  0.5613
 8974SOL    HW138555   4.640   0.069   3.949 -0.0086 -0.8557 -0.0504
 8974SOL    HW238556   4.597   0.200   3.941 -0.6866 -0.3665  0.4104
 8975SOL     OW38557   2.938   3.770   2.771 -0.4898 -0.1974 -0.2114
 8975SOL    HW138558   2.849   3.785   2.739 -0.7769 -1.4596  0.0232
 8975SOL    HW238559   2.937   3.848   2.826 -3.3697 -0.6340  0.3484
 8976SOL     OW38560   2.866   0.320  15.073  0.1760 -0.0749 -0.6035
 8976SOL    HW138561   2.889   0.412  15.084  0.9834 -0.5569  1.7042
 8976SOL    HW238562   2.781   0.329  15.030  0.0495 -1.9596 -0.7587
 8977SOL     OW38563   4.186   2.506   3.775  0.1544 -0.2776  0.6958
 8977SOL    HW138564   4.242   2.450   3.722 -0.0250 -0.3659  0.5994
 8977SOL    HW238565   4.254   2.570   3.798 -1.4165  1.5727  0.1225
 8978SOL     OW38566   2.053   3.429   8.420  0.3063  0.0202 -0.0758
 8978SOL    HW138567   2.027   3.434   8.328  0.5469 -0.3237 -0.1610
 8978SOL    HW238568   1.999   3.496   8.462  0.2458 -1.2694  1.9129
 8979SOL     OW38569   3.853   2.547   9.221  0.1837 -0.3851  0.3248
 8979SOL    HW138570   3.871   2.453   9.216 -0.7933 -0.5604 -0.0299
 8979SOL    HW238571   3.942   2.580   9.227 -0.2394  1.1100 -1.6946
 8980SOL     OW38572   0.486   0.270  13.864 -0.3569  0.4111 -0.5368
 8980SOL    HW138573   0.539   0.306  13.935 -0.3669 -1.4288  0.4005
 8980SOL    HW238574   0.393   0.282  13.882 -0.7074  0.2407 -2.2299
 8981SOL     OW38575   3.538   1.992   6.764 -0.4240  0.0139  0.2331
 8981SOL    HW138576   3.456   1.946   6.751  0.4045 -0.1816 -4.4302
 8981SOL    HW238577   3.523   2.048   6.840  1.4190  0.2795  0.4195
 8982SOL     OW38578   3.255   1.120   9.224 -0.4645 -0.2083  0.2228
 8982SOL    HW138579   3.341   1.081   9.209  0.6854  2.2786  0.3887
 8982SOL    HW238580   3.262   1.207   9.187  0.8589 -0.1362  0.6517
 8983SOL     OW38581   2.748   2.260  15.261  0.2527 -0.7633  0.4307
 8983SOL    HW138582   2.772   2.262  15.169 -0.4789  1.6852  0.3082
 8983SOL    HW238583   2.828   2.234  15.307 -0.2994 -0.8538  1.3533
 8984SOL     OW38584   2.907   3.799   8.109  0.3060  0.4858  0.2656
 8984SOL    HW138585   2.922   3.869   8.045  0.9261 -0.2762 -0.4304
 8984SOL    HW238586   2.822   3.771   8.073  0.7752 -2.2966  1.2924
 8985SOL     OW38587   3.883   1.489   6.442 -0.2949  0.3242  0.4971
 8985SOL    HW138588   3.824   1.427   6.401 -2.4543  1.4154  1.8999
 8985SOL    HW238589   3.837   1.492   6.526  0.5895  1.0051  0.9679
 8986SOL     OW38590   4.220   4.729   7.018  0.5510  0.3697  0.3658
 8986SOL    HW138591   4.272   4.688   6.948  0.2022 -1.3005  1.0749
 8986SOL    HW238592   4.292   4.730   7.082 -0.3224 -0.1202  1.3639
 8987SOL     OW38593   2.052   4.299   1.860  0.1753  0.7001  0.4569
 8987SOL    HW138594   2.118   4.337   1.801 -1.0943  1.4761 -0.4528
 8987SOL    HW238595   2.033   4.375   1.915 -2.8277  0.9907 -1.0044
 8988SOL     OW38596   3.245   3.527   1.233 -0.2964 -0.0060 -0.3486
 8988SOL    HW138597   3.215   3.494   1.149  1.8026  0.4471 -1.2780
 8988SOL    HW238598   3.184   3.478   1.288  1.2256 -1.4105  0.0732
 8989SOL     OW38599   3.698   0.690  12.289  0.2366  0.3596  0.3336
 8989SOL    HW138600   3.691   0.760  12.225  0.1179  2.0678  2.2113
 8989SOL    HW238601   3.723   0.734  12.370 -0.8067 -1.4321  1.6449
 8990SOL     OW38602   1.489   3.556   7.171 -0.2242 -0.0012 -0.2160
 8990SOL    HW138603   1.459   3.634   7.217  2.0669  0.5760  0.2949
 8990SOL    HW238604   1.522   3.520   7.253  2.1868 -2.5242 -2.2987
 8991SOL     OW38605   1.585   2.751   2.837  0.1508 -0.2574  0.2385
 8991SOL    HW138606   1.637   2.709   2.906 -0.9947 -0.0367  1.2450
 8991SOL    HW238607   1.654   2.794   2.787  0.1603 -2.5759 -1.7023
 8992SOL     OW38608   0.819   1.042  15.720 -0.7629  0.3929  0.0750
 8992SOL    HW138609   0.838   1.019  15.811  0.2430  1.3858  0.1141
 8992SOL    HW238610   0.777   0.960  15.693  1.8841 -0.6976 -0.7186
 8993SOL     OW38611   1.740   0.265   8.695  0.4003 -0.3810  0.0881
 8993SOL    HW138612   1.799   0.190   8.695  1.9452  0.8197  2.8815
 8993SOL    HW238613   1.765   0.315   8.772 -1.1156  0.1597  0.2281
 8994SOL     OW38614   1.303   0.154   6.885  0.2863  0.6056 -0.3704
 8994SOL    HW138615   1.306   0.213   6.960 -0.8178 -2.2117  1.8532
 8994SOL    HW238616   1.375   0.188   6.831  0.7985 -0.6937 -0.5044
 8995SOL     OW38617   2.726   3.475   8.102 -0.1865  0.2067  0.6218
 8995SOL    HW138618   2.759   3.421   8.174  0.8146  0.5038  0.3817
 8995SOL    HW238619   2.643   3.508   8.137  0.5648  1.5889  1.1075
 8996SOL     OW38620   0.800   2.811   6.503  0.2008  0.0734 -0.1524
 8996SOL    HW138621   0.772   2.897   6.470 -2.8571 -0.2541  1.5672
 8996SOL    HW238622   0.719   2.766   6.530  1.4004  1.0791  5.1351
 8997SOL     OW38623   3.198   3.238  15.169 -0.6447  0.6337  0.1005
 8997SOL    HW138624   3.181   3.179  15.243 -0.3288 -1.2900 -1.3342
 8997SOL    HW238625   3.243   3.179  15.109 -2.7846 -1.7452  0.8287
 8998SOL     OW38626   4.512   2.982  12.406  0.2667 -0.7174 -0.3744
 8998SOL    HW138627   4.518   2.912  12.342  1.0446 -1.2043  0.2438
 8998SOL    HW238628   4.553   2.943  12.483  0.2024 -0.6524 -0.3063
 8999SOL     OW38629   2.126   2.268  12.147  0.5700  0.1643  0.6147
 8999SOL    HW138630   2.116   2.183  12.189  0.5247  1.1617  2.6228
 8999SOL    HW238631   2.217   2.291  12.168  0.4055  1.2536  0.1365
 9000SOL     OW38632   1.669   3.693   6.799 -0.1463 -0.0380 -0.1389
 9000SOL    HW138633   1.674   3.788   6.800  0.8976 -0.1032  0.6713
 9000SOL    HW238634   1.582   3.681   6.838 -1.0345  1.0872 -1.7725
 9001SOL     OW38635   0.327   4.642   4.797 -0.0771 -0.4854 -0.0378
 9001SOL    HW138636   0.243   4.674   4.829  0.0416 -1.1130  0.8781
 9001SOL    HW238637   0.366   4.707   4.739 -0.7351 -1.7896 -1.9577
 9002SOL     OW38638   0.085   2.365   6.224  0.3780  0.0403  0.5093
 9002SOL    HW138639   0.134   2.446   6.240 -1.5495  1.6812 -1.7234
 9002SOL    HW238640   0.001   2.381   6.267  0.3544  1.0812  0.0833
 9003SOL     OW38641   0.107   3.481   4.594 -0.2618 -0.7392 -0.5169
 9003SOL    HW138642   0.070   3.422   4.528 -0.1556  1.8998 -2.9338
 9003SOL    HW238643   0.146   3.422   4.659  0.2870  0.9564  0.6931
 9004SOL     OW38644   1.809   0.685   7.650 -0.1991  0.6054 -0.1317
 9004SOL    HW138645   1.739   0.665   7.587  0.2258  1.8749 -1.0174
 9004SOL    HW238646   1.766   0.676   7.735  1.2542  2.2949  0.7752
 9005SOL     OW38647   3.440   1.445   8.945 -0.0784  0.3592 -1.0229
 9005SOL    HW138648   3.396   1.369   8.908 -0.7710  0.2057  0.1058
 9005SOL    HW238649   3.498   1.470   8.873  0.4087 -0.1071 -0.7850
 9006SOL     OW38650   2.959   4.638   8.696 -0.1213 -0.3638 -0.1770
 9006SOL    HW138651   2.905   4.631   8.617 -1.6644 -0.5087  0.8961
 9006SOL    HW238652   2.954   4.546   8.719  1.3969 -1.2876 -3.5041
 9007SOL     OW38653   2.351   2.985  10.465  0.9575  0.3434 -0.2807
 9007SOL    HW138654   2.446   2.972  10.455  0.4527 -0.8407 -3.4608
 9007SOL    HW238655   2.347   3.018  10.555  0.6652 -0.3318 -0.0473
 9008SOL     OW38656   0.236   2.578   8.551  0.2469 -0.5053  0.1192
 9008SOL    HW138657   0.179   2.602   8.624 -0.7661  1.2333 -1.2248
 9008SOL    HW238658   0.172   2.546   8.487  1.6463  0.0693 -1.5719
 9009SOL     OW38659   1.820   1.968   3.575  0.3400  0.2157  0.0457
 9009SOL    HW138660   1.819   2.064   3.570  0.0717  0.2071 -0.0431
 9009SOL    HW238661   1.739   1.941   3.533  0.6041 -0.5214  0.0094
 9010SOL     OW38662   1.734   0.188   4.929 -0.3069  0.3381 -0.4580
 9010SOL    HW138663   1.666   0.191   4.996  0.2965 -0.2031  0.1835
 9010SOL    HW238664   1.710   0.259   4.870  0.8272  0.3710 -0.8925
 9011SOL     OW38665   3.847   3.157   2.946  0.1582 -0.0537  0.7515
 9011SOL    HW138666   3.898   3.156   3.026  1.1183 -0.0332  0.1407
 9011SOL    HW238667   3.803   3.072   2.950  4.4944 -2.2540  1.6151
 9012SOL     OW38668   2.276   0.901   0.362  0.3783  0.5769 -0.0550
 9012SOL    HW138669   2.262   0.878   0.270 -1.2154  1.1486  0.0368
 9012SOL    HW238670   2.364   0.938   0.363  1.1091 -1.1471 -1.3709
 9013SOL     OW38671   4.245   1.767   2.282 -0.1412  0.8978 -0.0217
 9013SOL    HW138672   4.247   1.847   2.231  0.7960 -0.6127 -2.3330
 9013SOL    HW238673   4.203   1.797   2.363  0.9992  1.4228  0.3640
 9014SOL     OW38674   0.992   2.677   4.967 -0.8119 -0.1150 -0.7935
 9014SOL    HW138675   1.053   2.608   4.995 -0.1018  0.6050 -0.5608
 9014SOL    HW238676   1.045   2.755   4.949 -0.0740 -0.3461  0.3846
 9015SOL     OW38677   2.590   3.066   8.298  0.2350  0.4283 -0.0709
 9015SOL    HW138678   2.609   2.972   8.303  0.3321  0.4661  0.2791
 9015SOL    HW238679   2.516   3.077   8.357  0.5247 -0.4237  0.4669
 9016SOL     OW38680   3.909   3.124   3.208 -0.0415 -0.8355 -0.0537
 9016SOL    HW138681   3.969   3.059   3.245  0.4739 -0.1474  0.3309
 9016SOL    HW238682   3.835   3.110   3.267 -0.0933 -0.4418 -0.0283
 9017SOL     OW38683   0.886   1.991   1.763 -0.1537  0.0026  0.3514
 9017SOL    HW138684   0.830   2.032   1.829 -1.0811 -0.6332 -0.0300
 9017SOL    HW238685   0.907   2.073   1.719  1.0243 -0.3136  0.3262
 9018SOL     OW38686   0.509   0.224   1.060  0.3521  1.1558  0.7409
 9018SOL    HW138687   0.440   0.179   1.109 -0.0529 -0.5161 -1.3619
 9018SOL    HW238688   0.528   0.294   1.122  1.0712  0.4611  1.3120
 9019SOL     OW38689   2.595   2.568   8.509 -0.1732  0.3120  0.3438
 9019SOL    HW138690   2.672   2.521   8.475 -0.4639  0.4594 -0.5253
 9019SOL    HW238691   2.519   2.537   8.460 -0.3127  0.5881  0.3867
 9020SOL     OW38692   0.259   1.849  11.881  0.1293 -0.5101  0.6770
 9020SOL    HW138693   0.311   1.851  11.962  2.0739 -0.4960 -0.5895
 9020SOL    HW238694   0.234   1.757  11.877  1.8323 -0.9558  0.2909
 9021SOL     OW38695   3.006   0.063   9.400 -0.0670  0.0933 -0.3636
 9021SOL    HW138696   3.098   0.040   9.385 -0.1898 -0.1003 -0.8395
 9021SOL    HW238697   2.981   0.080   9.309 -1.2713  0.9749  0.1249
 9022SOL     OW38698   1.331   4.738  12.269  0.0661  0.9257 -1.0470
 9022SOL    HW138699   1.357   0.072  12.326 -2.7164  0.1014  1.2622
 9022SOL    HW238700   1.314   0.034  12.182  2.7109 -2.5785 -2.9512
 9023SOL     OW38701   3.541   1.918   8.270  0.3176 -0.2078  0.2502
 9023SOL    HW138702   3.535   1.998   8.322 -2.3066 -1.8236  2.4243
 9023SOL    HW238703   3.483   1.937   8.196  1.2813  1.4544 -0.0780
 9024SOL     OW38704   0.670   2.469   8.154 -0.1319  0.2417  0.0921
 9024SOL    HW138705   0.656   2.553   8.111 -1.4317  0.2278  0.5078
 9024SOL    HW238706   0.581   2.446   8.179  0.5076 -1.4445  0.7965
 9025SOL     OW38707   3.439   3.586  10.564  0.3754 -0.0901  0.0767
 9025SOL    HW138708   3.527   3.591  10.526  0.2959 -0.9161 -0.2243
 9025SOL    HW238709   3.457   3.573  10.657  0.3577  0.4285  0.1510
 9026SOL     OW38710   0.353   2.315   8.576  0.1857 -0.0165 -0.4884
 9026SOL    HW138711   0.350   2.410   8.571 -2.9804 -0.2543 -3.3927
 9026SOL    HW238712   0.360   2.296   8.482  1.6477 -1.3970 -0.1114
 9027SOL     OW38713   1.762   1.209  14.049  0.1925  0.0644  0.1815
 9027SOL    HW138714   1.780   1.204  14.143 -0.8480  0.7751  0.4149
 9027SOL    HW238715   1.792   1.122  14.023 -0.1476  0.3046 -1.0084
 9028SOL     OW38716   0.559   1.886   4.100  0.0105 -0.1037  0.6894
 9028SOL    HW138717   0.627   1.821   4.082  0.4508  0.2646  1.0564
 9028SOL    HW238718   0.494   1.831   4.144  0.8614  0.2402  2.3583
 9029SOL     OW38719   2.285   0.854   4.048  0.0369  0.2373 -0.3344
 9029SOL    HW138720   2.299   0.883   4.139  0.4649 -1.2183  0.0651
 9029SOL    HW238721   2.224   0.783   4.067  0.1018  0.4635  0.7751
 9030SOL     OW38722   2.794   0.802   3.845 -0.4503 -0.2011  0.2768
 9030SOL    HW138723   2.723   0.816   3.907 -0.6647 -0.2001  0.0286
 9030SOL    HW238724   2.770   0.713   3.822  0.9505 -1.1598  2.5612
 9031SOL     OW38725   0.394   1.571   4.409  0.5440 -0.2743  0.0293
 9031SOL    HW138726   0.473   1.609   4.449  0.8258 -0.7091 -0.1158
 9031SOL    HW238727   0.332   1.641   4.430 -0.2645 -0.5710 -1.4020
 9032SOL     OW38728   2.261   3.503   4.772  0.6979  0.0577  0.0645
 9032SOL    HW138729   2.267   3.513   4.867  1.1967  0.8491 -0.0534
 9032SOL    HW238730   2.191   3.561   4.744  2.0790  1.1389 -1.1050
 9033SOL     OW38731   0.393   1.760   3.465 -0.1668  0.6537 -0.1074
 9033SOL    HW138732   0.430   1.841   3.500  2.2116 -0.2037 -0.6595
 9033SOL    HW238733   0.482   1.726   3.452 -0.6594 -1.2794  1.5549
 9034SOL     OW38734   0.678   1.969   4.666 -0.0473 -0.1365  0.0896
 9034SOL    HW138735   0.641   2.031   4.729 -0.2638 -0.6498  0.4630
 9034SOL    HW238736   0.767   2.002   4.656  0.3103 -1.5316 -1.2230
 9035SOL     OW38737   2.832   3.487   4.974 -0.2542  0.1625  0.8112
 9035SOL    HW138738   2.819   3.401   4.934  2.4222  0.2281 -0.1973
 9035SOL    HW238739   2.743   3.520   4.962 -0.2310 -0.6921 -1.8447
 9036SOL     OW38740   1.378   2.725   3.077  0.2543  0.1866  0.9892
 9036SOL    HW138741   1.312   2.655   3.077 -0.6565  1.0462  2.1315
 9036SOL    HW238742   1.411   2.704   2.989  0.6532  0.5033  1.0626
 9037SOL     OW38743   3.876   3.103   0.616 -0.0646  0.9913  0.4166
 9037SOL    HW138744   3.967   3.129   0.601  0.4945 -1.7790 -0.9787
 9037SOL    HW238745   3.841   3.190   0.596  0.0428  0.8199 -0.5040
 9038SOL     OW38746   4.282   2.506   3.039 -0.1801  0.0428 -0.4959
 9038SOL    HW138747   4.256   2.415   3.047  0.7745 -0.1031  0.9111
 9038SOL    HW238748   4.359   2.493   2.983 -0.1687 -1.0277 -0.2299
 9039SOL     OW38749   0.116   1.178   1.793 -0.6851  0.2779  0.0635
 9039SOL    HW138750   0.037   1.193   1.846  0.2469  3.2605  0.6024
 9039SOL    HW238751   0.117   1.083   1.786  1.0768  0.3119 -0.1218
 9040SOL     OW38752   4.016   1.020   2.320  0.5659  0.1009  0.4018
 9040SOL    HW138753   3.966   0.957   2.370 -1.2897 -0.8227 -2.5928
 9040SOL    HW238754   3.943   1.082   2.316  0.5005  0.1188  1.9940
 9041SOL     OW38755   1.577   4.552   0.825  0.1098 -0.1889 -0.3060
 9041SOL    HW138756   1.660   4.535   0.781  0.5055 -0.5651  0.5691
 9041SOL    HW238757   1.549   4.463   0.843  1.5553 -1.0303 -2.1818
 9042SOL     OW38758   1.284   3.506   7.383  0.0593  0.5713  0.1899
 9042SOL    HW138759   1.307   3.599   7.386 -1.4288  0.7914  3.8377
 9042SOL    HW238760   1.262   3.495   7.475  0.2930  0.9784  0.2965
 9043SOL     OW38761   4.529   0.702  15.401  0.3624  0.2372  0.2307
 9043SOL    HW138762   4.475   0.781  15.404  0.5450  0.4047 -1.4212
 9043SOL    HW238763   4.608   0.739  15.441  1.5942 -1.3621 -0.7842
 9044SOL     OW38764   1.978   4.636   2.909  0.2251 -0.4625 -0.2237
 9044SOL    HW138765   1.968   4.729   2.892 -2.1464 -0.4514  1.1720
 9044SOL    HW238766   1.887   4.617   2.932  0.0444  1.1886  0.4039
 9045SOL     OW38767   0.915   0.442  15.631 -0.3691  0.2200 -0.2131
 9045SOL    HW138768   0.994   0.454  15.579 -0.1229 -0.8819 -0.0857
 9045SOL    HW238769   0.851   0.436  15.560 -0.7845  0.8645  0.1084
 9046SOL     OW38770   2.519   3.402   1.081  0.0319  0.2007 -0.8227
 9046SOL    HW138771   2.530   3.487   1.038 -1.8707 -0.6028 -2.9042
 9046SOL    HW238772   2.438   3.376   1.038 -0.4125 -0.2821  0.3059
 9047SOL     OW38773   3.192   3.435   6.229 -0.3589 -0.5168  0.2387
 9047SOL    HW138774   3.140   3.479   6.161  0.7237 -0.3977 -0.5342
 9047SOL    HW238775   3.137   3.361   6.251 -0.3329 -0.4171  0.6284
 9048SOL     OW38776   0.061   2.750   4.999  0.0784 -0.2044 -0.1033
 9048SOL    HW138777   0.001   2.690   4.955 -0.8031  1.6763 -1.4608
 9048SOL    HW238778   0.128   2.689   5.031  0.5811 -0.1978 -1.1271
 9049SOL     OW38779   3.732   0.945  11.318  0.2702 -0.0368 -0.0017
 9049SOL    HW138780   3.789   0.981  11.251  0.0561  0.2960 -0.0078
 9049SOL    HW238781   3.698   0.864  11.279 -0.1482 -0.0400  0.3694
 9050SOL     OW38782   3.963   3.722  12.594  0.0994  0.0522  0.1598
 9050SOL    HW138783   4.017   3.756  12.666  1.2349 -0.9982 -0.2068
 9050SOL    HW238784   4.017   3.646  12.574 -0.2548 -0.0312 -0.4872
 9051SOL     OW38785   4.619   1.351   7.809 -0.3408 -0.5588  0.4653
 9051SOL    HW138786   4.532   1.378   7.779  0.5550 -0.2743 -1.9313
 9051SOL    HW238787   4.639   1.294   7.734  0.5758 -1.2777  1.2695
 9052SOL     OW38788   1.029   3.812   5.838  0.5490  0.1487  0.0907
 9052SOL    HW138789   1.038   3.776   5.750  0.6897  0.3488  0.0213
 9052SOL    HW238790   1.018   3.904   5.812  0.0959 -0.3273 -1.3671
 9053SOL     OW38791   0.852   2.520   0.995 -0.0319  0.8748  0.8879
 9053SOL    HW138792   0.908   2.457   0.949  1.7737  1.3427  2.4390
 9053SOL    HW238793   0.793   2.467   1.049  2.6870 -0.2396  2.7559
 9054SOL     OW38794   0.626   0.588   4.324  0.0282  0.3745  0.0919
 9054SOL    HW138795   0.621   0.595   4.229  0.6383  0.7915  0.0912
 9054SOL    HW238796   0.596   0.498   4.337 -1.0570  0.6533 -0.4828
 9055SOL     OW38797   2.111   1.660   6.530 -0.1521 -0.3202  0.1670
 9055SOL    HW138798   2.067   1.645   6.446 -0.6760  1.3874  0.1304
 9055SOL    HW238799   2.194   1.613   6.526 -0.3025 -0.5480 -0.3382
 9056SOL     OW38800   4.246   1.876   1.460  0.0131  0.2972  0.3080
 9056SOL    HW138801   4.269   1.785   1.443  1.8480  0.9867 -0.9387
 9056SOL    HW238802   4.177   1.854   1.523 -0.7328  0.9168 -0.2800
 9057SOL     OW38803   3.676   2.947   7.955  0.0599 -0.2468 -0.4787
 9057SOL    HW138804   3.588   2.979   7.979  0.6106  0.3462  0.7298
 9057SOL    HW238805   3.690   2.878   8.019 -0.4366 -0.7937 -0.9575
 9058SOL     OW38806   0.736   4.232   6.679 -0.3310 -0.8079  0.1679
 9058SOL    HW138807   0.745   4.174   6.754  0.5266 -1.2498 -0.2737
 9058SOL    HW238808   0.827   4.256   6.662 -0.7141  0.4833 -0.1094
 9059SOL     OW38809   2.459   1.511   5.706 -0.4140 -0.3859 -0.4557
 9059SOL    HW138810   2.459   1.537   5.798 -1.3195  2.6821 -1.3200
 9059SOL    HW238811   2.400   1.438   5.720  0.9573 -1.2836  0.7058
 9060SOL     OW38812   0.746   3.795  13.346  0.2291  0.0394  0.8094
 9060SOL    HW138813   0.722   3.719  13.293  2.7039 -1.4845  1.8740
 9060SOL    HW238814   0.839   3.804  13.324 -0.0214  0.6972 -0.0029
 9061SOL     OW38815   2.833   2.415  11.727  0.5798  0.4486 -0.0353
 9061SOL    HW138816   2.887   2.393  11.651  2.8034  0.1860  1.6025
 9061SOL    HW238817   2.770   2.344  11.739 -0.1357  1.0244 -0.3819
 9062SOL     OW38818   0.015   1.222   4.323 -0.5021 -0.2159  0.0834
 9062SOL    HW138819   4.693   1.150   4.305 -1.1087  0.5779 -1.0426
 9062SOL    HW238820   4.693   1.264   4.383  0.5220  0.0238  0.9560
 9063SOL     OW38821   2.706   2.866   3.469  0.0830  0.0044 -0.4760
 9063SOL    HW138822   2.652   2.892   3.544 -0.6315 -2.8431 -0.0150
 9063SOL    HW238823   2.736   2.781   3.501  0.7557  1.1548  2.0362
 9064SOL     OW38824   3.784   3.627  14.759  0.2091  0.3734  0.7848
 9064SOL    HW138825   3.791   3.681  14.838 -0.6384 -0.3599  1.3552
 9064SOL    HW238826   3.739   3.686  14.698  0.4341  0.4323  0.6764
 9065SOL     OW38827   1.526   4.097  14.380 -0.3554  0.2257  0.0686
 9065SOL    HW138828   1.550   4.038  14.308  0.3762 -1.7439  1.9261
 9065SOL    HW238829   1.464   4.043  14.429 -0.7252  1.7290  1.2424
 9066SOL     OW38830   1.706   4.571   7.789 -0.1025 -0.3333  0.1342
 9066SOL    HW138831   1.647   4.636   7.751  1.3236  1.2733  0.6679
 9066SOL    HW238832   1.662   4.542   7.869  1.7321 -1.6352  0.6563
 9067SOL     OW38833   3.242   0.566   6.220 -0.1515 -0.4848  0.6549
 9067SOL    HW138834   3.332   0.562   6.251 -0.2822  0.1657  1.1057
 9067SOL    HW238835   3.273   0.528   6.137 -0.5630 -0.8069  0.6470
 9068SOL     OW38836   3.206   0.432   7.474  0.6638  0.0717  0.0115
 9068SOL    HW138837   3.221   0.338   7.462  0.7541 -0.1335  1.6874
 9068SOL    HW238838   3.139   0.428   7.543  0.2697  0.4348 -0.3549
 9069SOL     OW38839   4.092   4.542   6.010 -0.0098  0.6698  0.7594
 9069SOL    HW138840   4.184   4.528   6.032  0.6969  1.4474 -1.6213
 9069SOL    HW238841   4.039   4.523   6.087  0.7158 -0.1439  1.0646
 9070SOL     OW38842   3.397   1.028   2.126  0.1912  0.1449  0.3940
 9070SOL    HW138843   3.370   0.970   2.197  1.7447  0.1661  1.0136
 9070SOL    HW238844   3.341   0.998   2.055 -0.8843 -1.8660  2.1183
 9071SOL     OW38845   2.083   1.951  15.370 -0.1904 -0.2856 -0.2907
 9071SOL    HW138846   2.030   1.905  15.305  0.8981 -0.2891 -1.1604
 9071SOL    HW238847   2.020   1.993  15.429  1.8023  0.3563  1.3522
 9072SOL     OW38848   1.746   4.299   3.037 -0.1184  0.4501 -0.0133
 9072SOL    HW138849   1.670   4.241   3.039 -0.0046  0.2054 -2.1531
 9072SOL    HW238850   1.693   4.373   3.063 -0.7580  0.5280 -1.5203
 9073SOL     OW38851   4.154   0.715   4.695  0.2057 -0.0088 -0.1663
 9073SOL    HW138852   4.159   0.811   4.698  1.6618 -0.0797 -0.5384
 9073SOL    HW238853   4.231   0.703   4.640 -0.9010 -1.0254 -1.5131
 9074SOL     OW38854   4.456   4.633   8.257 -0.3573 -0.1001  0.0318
 9074SOL    HW138855   4.493   4.632   8.345 -0.8919  1.3807  0.2697
 9074SOL    HW238856   4.499   4.708   8.218  1.2634  0.2110  2.3977
 9075SOL     OW38857   1.725   4.163  12.452  0.2532 -0.1669  0.4544
 9075SOL    HW138858   1.754   4.234  12.510 -2.2293  0.4869  0.8664
 9075SOL    HW238859   1.661   4.214  12.403  0.8332 -0.0897 -0.2150
 9076SOL     OW38860   2.222   3.149   8.191  0.1041  0.2072  0.2109
 9076SOL    HW138861   2.284   3.077   8.196 -0.9711 -0.4858  3.5491
 9076SOL    HW238862   2.257   3.209   8.256 -0.6218  0.3173  0.5030
 9077SOL     OW38863   1.376   1.426   6.042  0.1265  0.5486  0.1413
 9077SOL    HW138864   1.457   1.392   6.002  0.7457  1.2362  0.8087
 9077SOL    HW238865   1.321   1.371   5.986 -0.7889  0.6027  1.0022
 9078SOL     OW38866   2.622   4.539  16.955 -0.3941  0.2571 -0.9494
 9078SOL    HW138867   2.662   4.567  16.873 -0.1833  1.2219 -0.5117
 9078SOL    HW238868   2.596   4.451  16.927 -2.3255  0.4820  0.1226
 9079SOL     OW38869   0.143   4.309  11.561 -0.9943 -0.5221  0.4726
 9079SOL    HW138870   0.180   4.254  11.492  1.9470  1.0462  0.7784
 9079SOL    HW238871   0.218   4.369  11.570  0.2131 -1.9290 -0.2021
 9080SOL     OW38872   0.566   1.757   7.432  0.1635  0.0368 -0.4527
 9080SOL    HW138873   0.633   1.822   7.453 -0.4262  0.3642  0.4149
 9080SOL    HW238874   0.622   1.681   7.447 -1.6717 -1.2711 -0.1752
 9081SOL     OW38875   4.017   1.564  17.607 -0.1181 -0.4803  0.4829
 9081SOL    HW138876   4.072   1.488  17.583  0.0214 -0.3908  0.5188
 9081SOL    HW238877   3.928   1.532  17.596 -0.0735 -0.9897  1.6743
 9082SOL     OW38878   4.073   0.843   7.185 -0.0633 -0.2894  0.1902
 9082SOL    HW138879   4.010   0.804   7.246  0.2884  0.3113  0.9345
 9082SOL    HW238880   4.105   0.764   7.141  0.3872 -0.2132  0.3864
 9083SOL     OW38881   1.962   4.681   7.316  0.1053 -0.6119 -0.2453
 9083SOL    HW138882   1.938   4.601   7.362 -1.9368  1.5614  2.4268
 9083SOL    HW238883   2.055   4.664   7.301  0.1309 -0.0218 -0.7231
 9084SOL     OW38884   2.039   1.517   2.353  0.1480 -0.1705  0.4749
 9084SOL    HW138885   1.991   1.532   2.435  0.0355 -1.3860  0.6404
 9084SOL    HW238886   2.069   1.608   2.345 -0.8703  0.0976 -0.3110
 9085SOL     OW38887   1.030   3.813   6.935  0.0373  0.5228  0.6872
 9085SOL    HW138888   1.028   3.746   7.003  2.4197  0.9430  1.1355
 9085SOL    HW238889   1.092   3.882   6.955  1.1770 -1.0100  2.4541
 9086SOL     OW38890   3.991   3.544   4.702  0.0877  0.0155  0.3086
 9086SOL    HW138891   3.947   3.575   4.623 -0.8278 -1.8111  0.1045
 9086SOL    HW238892   3.945   3.595   4.769  1.0482  1.9132 -0.4874
 9087SOL     OW38893   0.510   1.200   8.662  0.3576 -0.7058  0.3378
 9087SOL    HW138894   0.427   1.248   8.660  1.1243  0.6304  1.0880
 9087SOL    HW238895   0.578   1.266   8.652  0.8414 -1.5159 -1.7368
 9088SOL     OW38896   4.265   2.308   5.589  0.0801  0.4600  0.0349
 9088SOL    HW138897   4.320   2.280   5.516 -1.8628 -1.7946 -0.5712
 9088SOL    HW238898   4.316   2.293   5.669  1.7759 -0.7395 -1.2771
 9089SOL     OW38899   0.789   4.417   3.948 -0.0711  0.2370  0.5532
 9089SOL    HW138900   0.715   4.405   4.008 -0.3711  0.0175  0.1501
 9089SOL    HW238901   0.835   4.490   3.989 -1.3430  0.9748  0.6611
 9090SOL     OW38902   3.242   2.765   6.092 -0.0184 -0.0987 -0.3430
 9090SOL    HW138903   3.282   2.678   6.101  1.2139  0.3758 -1.1675
 9090SOL    HW238904   3.256   2.776   5.998 -1.9303  0.8479 -0.5022
 9091SOL     OW38905   1.940   3.486   6.113 -0.1592 -0.0355  0.0680
 9091SOL    HW138906   1.935   3.397   6.077  2.1390 -0.7334  1.4852
 9091SOL    HW238907   1.973   3.469   6.201 -2.5932  0.3207  1.0324
 9092SOL     OW38908   1.688   3.464   2.778 -0.1512  0.0214  0.2224
 9092SOL    HW138909   1.609   3.421   2.811  0.4927 -1.2732  0.0582
 9092SOL    HW238910   1.657   3.505   2.698  0.7979 -1.4976 -0.9184
 9093SOL     OW38911   3.941   0.621   4.015  0.1385 -0.1710  0.5820
 9093SOL    HW138912   3.947   0.544   4.071  2.0580  0.0689  0.7272
 9093SOL    HW238913   3.900   0.689   4.068  0.3839  0.4323  0.0082
 9094SOL     OW38914   4.191   1.248  12.115  0.2566 -0.0032 -0.5012
 9094SOL    HW138915   4.249   1.272  12.188  1.6453  0.1962 -1.6592
 9094SOL    HW238916   4.152   1.172  12.157  0.0576  0.6902  0.5674
 9095SOL     OW38917   2.467   2.378   1.682  0.4077  0.1963 -0.4995
 9095SOL    HW138918   2.495   2.434   1.610  0.0260 -0.9752 -1.5612
 9095SOL    HW238919   2.401   2.431   1.727 -1.2269  0.2342 -2.9286
 9096SOL     OW38920   4.320   2.807   6.921  0.0376 -0.1114  0.5472
 9096SOL    HW138921   4.400   2.762   6.946 -0.1390 -0.6784  0.0943
 9096SOL    HW238922   4.253   2.740   6.937 -1.7897  1.5716 -0.0845
 9097SOL     OW38923   1.775   4.216  14.468  0.4771 -0.2090 -0.6229
 9097SOL    HW138924   1.691   4.171  14.461 -0.1681  1.2472 -2.3242
 9097SOL    HW238925   1.770   4.278  14.395 -3.2030 -1.3331 -1.3339
 9098SOL     OW38926   4.341   0.279  11.292 -1.1091  0.1791  0.0263
 9098SOL    HW138927   4.276   0.327  11.343  0.0988  1.4963  0.3210
 9098SOL    HW238928   4.404   0.253  11.360 -0.8636  1.0825  0.1466
 9099SOL     OW38929   2.506   3.030  16.025 -0.3924  0.2803 -0.6972
 9099SOL    HW138930   2.578   2.968  16.016 -1.0630 -0.6217  0.1258
 9099SOL    HW238931   2.544   3.104  16.073  1.2891 -1.0787  0.0621
 9100SOL     OW38932   1.345   2.690   7.715  0.1214  0.0580 -0.0430
 9100SOL    HW138933   1.366   2.784   7.712 -0.4181  0.2718  2.4143
 9100SOL    HW238934   1.394   2.652   7.642 -0.5535  0.7136 -0.8373
 9101SOL     OW38935   4.220   4.409   2.323 -0.4138  0.0975  0.1713
 9101SOL    HW138936   4.290   4.386   2.262  0.6422  1.2742  0.9421
 9101SOL    HW238937   4.266   4.451   2.396  0.3318  1.6104 -1.1915
 9102SOL     OW38938   4.253   3.765  11.023  0.5967 -0.2055 -0.0459
 9102SOL    HW138939   4.212   3.739  11.106 -0.0934 -0.6132 -0.5168
 9102SOL    HW238940   4.345   3.747  11.042  0.1147 -1.7237  0.8513
 9103SOL     OW38941   3.372   2.404   3.332  0.4291 -0.1327 -0.2624
 9103SOL    HW138942   3.437   2.452   3.384 -1.7135  2.1536  0.2980
 9103SOL    HW238943   3.389   2.319   3.372  1.1423  0.2803  0.3058
 9104SOL     OW38944   3.042   3.140   3.858  0.5323 -0.0750 -0.1535
 9104SOL    HW138945   2.961   3.093   3.880 -0.0600 -0.9603 -4.2786
 9104SOL    HW238946   3.096   3.069   3.824 -0.2714 -0.9210  0.3278
 9105SOL     OW38947   2.410   2.103   1.661  0.6184 -0.1688  0.3316
 9105SOL    HW138948   2.384   2.083   1.751  0.7596 -0.6932  0.2576
 9105SOL    HW238949   2.425   2.196   1.675  0.9730  0.3560 -3.5143
 9106SOL     OW38950   3.341   4.069  11.826  0.7733  0.4313 -0.3660
 9106SOL    HW138951   3.367   3.994  11.879  0.1861 -0.4503 -1.3431
 9106SOL    HW238952   3.369   4.042  11.739  1.1247 -0.6617  0.0934
 9107SOL     OW38953   4.166   3.608   4.064 -0.1676  0.1737 -0.4381
 9107SOL    HW138954   4.107   3.650   4.127  0.1562 -1.1182  0.7235
 9107SOL    HW238955   4.151   3.514   4.077 -1.2590  0.0634 -2.4218
 9108SOL     OW38956   3.145   3.402  10.676  0.6240 -0.2750 -0.1292
 9108SOL    HW138957   3.139   3.422  10.582 -0.6568 -0.8863 -0.1877
 9108SOL    HW238958   3.149   3.306  10.677 -0.0352 -0.2979  0.3171
 9109SOL     OW38959   2.035   0.787   6.539 -0.1879  0.1333 -0.8393
 9109SOL    HW138960   2.080   0.809   6.457  0.4179  0.2077 -0.4863
 9109SOL    HW238961   2.106   0.755   6.594 -1.0623 -1.4441 -0.6221
 9110SOL     OW38962   1.666   1.434   3.737 -0.1786 -0.2356 -0.0373
 9110SOL    HW138963   1.635   1.518   3.703 -2.0054 -1.0332 -0.3800
 9110SOL    HW238964   1.721   1.457   3.812 -2.9239 -0.6991  2.1208
 9111SOL     OW38965   4.350   2.013   4.445 -0.4044 -0.4322 -0.0547
 9111SOL    HW138966   4.435   1.972   4.430 -0.3351  0.2868 -1.5525
 9111SOL    HW238967   4.328   2.020   4.353 -0.2562 -0.5265 -0.0982
 9112SOL     OW38968   3.107   3.097   1.436 -0.8614  0.4524 -1.1099
 9112SOL    HW138969   3.165   3.050   1.377  1.7644  1.6257  0.5348
 9112SOL    HW238970   3.158   3.100   1.517 -3.0014 -0.5419  0.2829
 9113SOL     OW38971   3.939   0.417   5.650 -0.0107 -0.1084 -0.0995
 9113SOL    HW138972   3.991   0.486   5.608 -0.4372  1.0821  1.3202
 9113SOL    HW238973   4.005   0.348   5.643  1.0683  0.9957 -0.8898
 9114SOL     OW38974   0.740   1.360   7.398  0.7373 -0.1237 -0.5391
 9114SOL    HW138975   0.830   1.368   7.367 -0.0840  2.1487 -2.2793
 9114SOL    HW238976   0.695   1.371   7.314 -0.6255  0.8535  0.3230
 9115SOL     OW38977   0.238   1.214   2.182  0.0199 -0.1370  0.6677
 9115SOL    HW138978   0.185   1.278   2.134 -0.0112  0.6545  1.7293
 9115SOL    HW238979   0.327   1.238   2.156  0.2899 -1.3032  0.5311
 9116SOL     OW38980   3.173   2.648   3.448 -0.0463 -0.0372  0.0574
 9116SOL    HW138981   3.116   2.622   3.376  0.3198 -0.4411 -0.0937
 9116SOL    HW238982   3.231   2.572   3.460  0.5451  0.4385  0.2413
 9117SOL     OW38983   3.377   2.169   9.490  0.6024  0.1259 -0.5756
 9117SOL    HW138984   3.300   2.172   9.547 -1.0894 -1.6463 -2.8098
 9117SOL    HW238985   3.410   2.081   9.506 -2.5339 -0.6749  1.3544
 9118SOL     OW38986   0.244   4.320  12.655  0.0153  0.3640 -0.3980
 9118SOL    HW138987   0.305   4.354  12.721  2.2182 -1.4694 -1.4681
 9118SOL    HW238988   0.170   4.374  12.683 -0.1857  0.8789 -1.9415
 9119SOL     OW38989   0.556   1.709   5.296  0.8251 -0.1067 -0.1535
 9119SOL    HW138990   0.497   1.721   5.371  0.9749  0.2229 -0.0887
 9119SOL    HW238991   0.503   1.649   5.243  0.5143 -1.2342  1.4576
 9120SOL     OW38992   3.216   1.292   9.944 -0.5525 -0.4607 -0.0985
 9120SOL    HW138993   3.219   1.239  10.023  0.0033  0.5836  0.5829
 9120SOL    HW238994   3.182   1.234   9.876 -1.2501 -0.5534  0.3389
 9121SOL     OW38995   2.008   4.399   3.069 -0.3604  0.4116  0.2778
 9121SOL    HW138996   2.000   4.487   3.033 -0.1267  0.2395 -0.1983
 9121SOL    HW238997   1.920   4.362   3.056  0.2565 -0.6114 -1.0398
 9122SOL     OW38998   2.309   1.224   8.716 -0.4188 -0.4016  0.2148
 9122SOL    HW138999   2.395   1.246   8.750 -0.3127 -2.0391  1.0273
 9122SOL    HW239000   2.307   1.135   8.752  0.2412 -0.3326  0.4148
 9123SOL     OW39001   1.611   0.947   6.826  0.5677  0.3505  0.3819
 9123SOL    HW139002   1.656   0.866   6.853  0.8368  1.0460  1.9865
 9123SOL    HW239003   1.522   0.914   6.834  0.2249  1.6648  1.9267
 9124SOL     OW39004   3.070   2.133   9.127 -0.2174 -0.8557  0.0491
 9124SOL    HW139005   3.089   2.223   9.154 -1.0308 -0.9037  0.7966
 9124SOL    HW239006   3.109   2.070   9.188 -1.6538 -1.5856  0.2164
 9125SOL     OW39007   3.049   2.653   5.118 -0.6898 -0.3093 -0.0607
 9125SOL    HW139008   3.084   2.735   5.083  1.5556 -0.1303  2.5729
 9125SOL    HW239009   3.120   2.591   5.102  1.3297  1.9483  0.0481
 9126SOL     OW39010   2.148   2.232   1.193 -0.3595  0.6229 -0.0055
 9126SOL    HW139011   2.198   2.184   1.258 -0.2843  0.2684 -0.3266
 9126SOL    HW239012   2.057   2.205   1.210  0.0734 -0.3916  0.6682
 9127SOL     OW39013   4.639   3.420   1.397 -0.1451 -0.1394 -0.1197
 9127SOL    HW139014   4.601   3.446   1.481  1.0876  1.1461  0.0374
 9127SOL    HW239015   4.730   3.414   1.427  0.2850  0.0287 -1.3762
 9128SOL     OW39016   1.689   3.968   6.837 -0.2207  0.1574 -0.5288
 9128SOL    HW139017   1.688   4.032   6.767 -0.6282  0.7542  0.0221
 9128SOL    HW239018   1.660   4.016   6.915 -0.2317 -1.1913  0.3062
 9129SOL     OW39019   1.176   1.688   4.390 -0.0497 -0.2951 -0.3443
 9129SOL    HW139020   1.261   1.648   4.405 -0.5303 -0.6306  1.5154
 9129SOL    HW239021   1.144   1.708   4.478 -1.5272 -0.0101 -0.9368
 9130SOL     OW39022   0.384   3.277   8.826 -0.2297 -0.4949 -0.0432
 9130SOL    HW139023   0.382   3.232   8.741  0.0187  0.1652 -0.3978
 9130SOL    HW239024   0.459   3.334   8.810 -1.8175  1.8244  0.7301
 9131SOL     OW39025   2.192   3.396   3.065  0.4847 -0.0942 -0.0823
 9131SOL    HW139026   2.239   3.330   3.116 -0.2955  0.4322  1.3380
 9131SOL    HW239027   2.128   3.421   3.133 -1.6211 -1.7982 -1.4286
 9132SOL     OW39028   0.856   4.342   6.092  0.3802 -0.0433 -0.4543
 9132SOL    HW139029   0.825   4.379   6.175  1.8911  2.7075 -1.1277
 9132SOL    HW239030   0.918   4.278   6.128  1.2902  1.0532 -0.0585
 9133SOL     OW39031   2.838   1.282  11.279  0.0094 -0.2883  0.2772
 9133SOL    HW139032   2.879   1.201  11.250  0.3396  0.3669 -1.1200
 9133SOL    HW239033   2.796   1.254  11.360  1.4889  0.5225  1.3330
 9134SOL     OW39034   0.151   0.802  12.195  0.2072 -0.2460 -0.2813
 9134SOL    HW139035   0.229   0.844  12.230  0.4811  0.5602 -1.8472
 9134SOL    HW239036   0.188   0.717  12.171 -0.2176 -0.6602  0.5272
 9135SOL     OW39037   0.587   0.242   5.784  0.0216 -0.1733  0.3270
 9135SOL    HW139038   0.511   0.268   5.836 -0.4272  0.3164 -0.5664
 9135SOL    HW239039   0.629   0.172   5.833 -1.1819 -0.6073  0.7481
 9136SOL     OW39040   1.617   0.881   7.885  0.2760 -0.2536  0.4366
 9136SOL    HW139041   1.631   0.883   7.979  1.3902  0.3099  0.2678
 9136SOL    HW239042   1.600   0.788   7.877  0.5534 -0.4114  1.7531
 9137SOL     OW39043   1.162   0.522   1.892  0.3105  0.5855 -0.1462
 9137SOL    HW139044   1.193   0.613   1.894  1.8555  0.0521  0.5096
 9137SOL    HW239045   1.083   0.547   1.844 -0.0896  0.3028  0.3650
 9138SOL     OW39046   1.419   1.746  13.475  0.1812  0.1959 -0.0438
 9138SOL    HW139047   1.472   1.702  13.408 -1.4292 -0.1177 -1.1224
 9138SOL    HW239048   1.405   1.677  13.540 -0.4649 -0.2210 -0.6228
 9139SOL     OW39049   4.725   2.690   6.136  0.2954 -1.0088 -0.5384
 9139SOL    HW139050   4.642   2.738   6.133  0.7102 -0.1637  1.4489
 9139SOL    HW239051   4.736   2.652   6.049  0.2435 -0.8022 -0.6351
 9140SOL     OW39052   3.792   4.002   2.043  0.4079 -0.1859  0.5552
 9140SOL    HW139053   3.700   3.982   2.025 -0.0963  1.3225  1.4237
 9140SOL    HW239054   3.766   4.061   2.113  0.6763  0.2213  0.3145
 9141SOL     OW39055   3.385   3.755  10.328 -0.4222  0.3443 -0.7858
 9141SOL    HW139056   3.472   3.788  10.307 -0.4200  1.0054  0.2287
 9141SOL    HW239057   3.402   3.711  10.411  0.0910  0.4741 -0.8249
 9142SOL     OW39058   0.635   0.155   0.812 -0.0609 -0.1236  0.0911
 9142SOL    HW139059   0.608   0.187   0.898 -0.0297  0.2387 -0.0302
 9142SOL    HW239060   0.714   0.106   0.830  0.5154  0.8918  0.3166
 9143SOL     OW39061   3.340   4.618   4.781  0.3025 -0.1555 -0.6114
 9143SOL    HW139062   3.389   4.649   4.857  0.6243  1.8386 -1.6345
 9143SOL    HW239063   3.377   4.674   4.714 -0.6443  1.5392  0.2862
 9144SOL     OW39064   3.789   3.426   6.884 -0.8043 -0.3567  0.8300
 9144SOL    HW139065   3.722   3.492   6.863 -0.7532 -0.5864 -0.0549
 9144SOL    HW239066   3.765   3.403   6.974  0.4491 -0.0885  1.2227
 9145SOL     OW39067   1.137   0.021   4.615  0.4962 -0.4140  0.3974
 9145SOL    HW139068   1.216   4.717   4.581  0.6541 -0.2602  0.5713
 9145SOL    HW239069   1.126   0.100   4.562 -0.0760 -1.4003 -0.9648
 9146SOL     OW39070   1.375   2.053  15.090  0.0211 -0.0502 -0.7150
 9146SOL    HW139071   1.385   1.959  15.108  1.2004 -0.1599 -1.9373
 9146SOL    HW239072   1.352   2.061  14.997 -1.9630 -2.5898 -0.4401
 9147SOL     OW39073   0.394   0.461   7.079  0.1280  0.0873  0.0854
 9147SOL    HW139074   0.350   0.458   6.995  1.5565 -1.2532 -0.6201
 9147SOL    HW239075   0.444   0.543   7.072  0.6466 -0.2333  0.0059
 9148SOL     OW39076   1.413   3.714   3.999 -0.2884  0.2502  0.0470
 9148SOL    HW139077   1.428   3.745   4.088  1.1318 -1.0139  0.2430
 9148SOL    HW239078   1.483   3.649   4.001  0.7265  1.2722 -2.7506
 9149SOL     OW39079   0.504   0.878  14.486  0.1584 -0.3215  0.0656
 9149SOL    HW139080   0.432   0.826  14.521 -0.9433  1.3388  0.2829
 9149SOL    HW239081   0.449   0.948  14.451  1.0216  0.4939  0.3366
 9150SOL     OW39082   1.889   4.451   7.506  0.0060 -0.6388  0.5340
 9150SOL    HW139083   1.886   4.385   7.437  0.9633  0.5755 -0.6692
 9150SOL    HW239084   1.802   4.447   7.545 -0.1284 -1.6895  0.1317
 9151SOL     OW39085   2.085   2.690   7.327 -0.1810  0.1642  0.1124
 9151SOL    HW139086   2.077   2.719   7.417  2.0866  1.9668 -0.2817
 9151SOL    HW239087   2.118   2.600   7.329  0.6031  0.4450 -0.0266
 9152SOL     OW39088   0.932   2.447   4.498  0.1574 -0.1043 -0.2444
 9152SOL    HW139089   0.994   2.444   4.426 -0.1540  0.5945 -0.5481
 9152SOL    HW239090   0.885   2.366   4.481 -0.5122 -0.0720  1.4472
 9153SOL     OW39091   4.727   2.084  16.532  0.2187  0.1186 -0.0148
 9153SOL    HW139092   4.714   1.989  16.532 -1.6797  0.3782  0.3775
 9153SOL    HW239093   4.648   2.120  16.572 -0.8540 -1.0156 -1.0779
 9154SOL     OW39094   0.373   3.231   3.245 -0.4460  0.3761  0.2788
 9154SOL    HW139095   0.361   3.294   3.317 -0.2418 -0.3202  0.9161
 9154SOL    HW239096   0.294   3.178   3.248  0.3897 -0.8466  0.5481
 9155SOL     OW39097   0.441   4.292  14.956  0.2693  0.0312  0.5766
 9155SOL    HW139098   0.440   4.355  15.027 -0.7600  2.1781 -1.3469
 9155SOL    HW239099   0.386   4.325  14.885  0.4082 -0.3261  0.2989
 9156SOL     OW39100   0.835   4.527   5.869  0.6362  0.3922  0.0347
 9156SOL    HW139101   0.747   4.498   5.892  0.4168  0.4619 -0.6954
 9156SOL    HW239102   0.886   4.466   5.923  1.0467 -2.9494 -4.0884
 9157SOL     OW39103   1.325   1.253  11.970 -0.5530 -0.0630 -0.2338
 9157SOL    HW139104   1.252   1.287  12.020 -0.9341  0.3730 -1.0759
 9157SOL    HW239105   1.358   1.325  11.916  0.1191 -1.0495 -1.1515
 9158SOL     OW39106   1.290   1.441  13.997  0.6810  0.9879 -0.1368
 9158SOL    HW139107   1.354   1.448  14.068 -0.1849  2.6592  0.4901
 9158SOL    HW239108   1.240   1.521  14.013 -1.2323 -0.2544  0.0831
 9159SOL     OW39109   4.397   0.490   7.274  0.1720 -0.1104  0.4450
 9159SOL    HW139110   4.320   0.452   7.232 -0.0420  3.1574 -2.1465
 9159SOL    HW239111   4.438   0.536   7.201 -2.0840  0.8127 -0.2428
 9160SOL     OW39112   2.483   1.811   9.076  0.1644 -0.5489 -0.4136
 9160SOL    HW139113   2.400   1.790   9.118  0.2175  0.9256  0.4026
 9160SOL    HW239114   2.508   1.895   9.113 -0.6647  0.0592 -1.2531
 9161SOL     OW39115   1.681   2.163   8.886  0.6480 -0.2019 -0.1903
 9161SOL    HW139116   1.711   2.249   8.914  1.5809 -0.9851  1.2416
 9161SOL    HW239117   1.596   2.186   8.848  1.3770 -1.0448 -2.3091
 9162SOL     OW39118   4.343   1.377   6.442  0.3503 -0.4567 -0.3662
 9162SOL    HW139119   4.261   1.389   6.394  1.5874  2.3114 -1.8114
 9162SOL    HW239120   4.314   1.403   6.529  2.4219 -1.6543  0.6892
 9163SOL     OW39121   3.308   0.396   8.344 -0.2012  0.2081  0.4401
 9163SOL    HW139122   3.335   0.311   8.379 -0.4696  0.1646  0.5382
 9163SOL    HW239123   3.217   0.379   8.319 -0.2058  0.6646  0.1439
 9164SOL     OW39124   1.928   3.542   1.541 -0.4088 -0.6064 -0.6493
 9164SOL    HW139125   1.964   3.473   1.485  1.7803 -0.3455  0.4265
 9164SOL    HW239126   1.893   3.498   1.618 -1.8721 -0.6569 -1.3509
 9165SOL     OW39127   2.325   4.676   9.373 -0.0921  0.2544  0.1307
 9165SOL    HW139128   2.247   4.684   9.427 -0.8286 -1.2924 -0.6971
 9165SOL    HW239129   2.338   4.581   9.380 -1.5190 -0.0278 -1.1786
 9166SOL     OW39130   0.104   2.663   0.282  0.2646 -0.2951  0.1312
 9166SOL    HW139131   0.078   2.606   0.355  1.7226  0.1043  0.9656
 9166SOL    HW239132   0.059   2.625   0.206  0.1670  1.5073 -0.6949
 9167SOL     OW39133   3.303   2.918   2.286 -0.7176 -0.2729 -0.3594
 9167SOL    HW139134   3.266   2.860   2.219  0.3026 -0.3090 -0.8909
 9167SOL    HW239135   3.217   2.955   2.307 -0.5957  0.7472 -1.6661
 9168SOL     OW39136   2.362   0.734   3.575  0.1070 -0.4958  0.5955
 9168SOL    HW139137   2.309   0.780   3.640 -1.0055 -1.8550  0.6463
 9168SOL    HW239138   2.317   0.757   3.493  1.5828  1.3855  0.3056
 9169SOL     OW39139   3.082   1.934   9.311  0.5461 -0.0930 -0.2956
 9169SOL    HW139140   3.139   1.861   9.334  0.4574  0.7093  2.5025
 9169SOL    HW239141   3.008   1.926   9.370 -1.4627  0.2968 -2.7348
 9170SOL     OW39142   4.046   2.711  17.089 -0.4000  0.3547 -0.1114
 9170SOL    HW139143   4.088   2.796  17.075  2.6043 -1.3782 -1.6687
 9170SOL    HW239144   3.955   2.737  17.098 -0.9834 -0.8100 -2.5655
 9171SOL     OW39145   4.402   0.274   9.192 -0.2899 -0.2054 -0.4637
 9171SOL    HW139146   4.461   0.264   9.267 -2.9714  0.5471  1.7504
 9171SOL    HW239147   4.371   0.186   9.171 -1.7126 -0.2158  1.6318
 9172SOL     OW39148   3.114   1.480   0.958 -0.2131 -0.0256 -0.2110
 9172SOL    HW139149   3.138   1.500   1.048  0.2548  0.7814 -0.5114
 9172SOL    HW239150   3.020   1.462   0.965 -0.7617  2.5995 -0.5491
 9173SOL     OW39151   0.361   1.102  17.687 -0.6737 -0.1717 -0.2539
 9173SOL    HW139152   0.350   1.100  17.592 -0.1811  2.7685 -0.3670
 9173SOL    HW239153   0.322   1.188  17.703 -0.0670  0.2774 -1.1631
 9174SOL     OW39154   0.738   3.087   6.464  0.3215 -0.0259 -0.1361
 9174SOL    HW139155   0.659   3.110   6.513  1.1509  1.5068  0.4824
 9174SOL    HW239156   0.805   3.140   6.508 -0.1961  1.5867 -1.3265
 9175SOL     OW39157   2.217   0.095  16.763 -0.0015 -0.2956 -0.0730
 9175SOL    HW139158   2.243   0.011  16.725  0.6759 -0.6566  1.2156
 9175SOL    HW239159   2.304   0.113  16.799  0.3124 -2.2351  0.1418
 9176SOL     OW39160   2.612   1.255   9.369  0.0952  0.4513 -0.3306
 9176SOL    HW139161   2.626   1.223   9.280 -0.2356  0.4384 -0.3781
 9176SOL    HW239162   2.665   1.186   9.408  0.5962  1.1299  0.1974
 9177SOL     OW39163   1.745   0.185   0.968  0.2091 -0.1534  0.3950
 9177SOL    HW139164   1.713   0.098   0.993 -0.9901 -0.0682 -0.8001
 9177SOL    HW239165   1.663   0.234   0.975  0.7887  1.1293 -1.7858
 9178SOL     OW39166   4.382   3.067  11.104  0.2980  0.0301  0.7664
 9178SOL    HW139167   4.439   3.101  11.035  0.9489 -0.3659  1.1133
 9178SOL    HW239168   4.297   3.100  11.076  0.1208 -0.4990  0.6803
 9179SOL     OW39169   0.598   4.397   4.157 -0.6423 -0.3422 -0.1126
 9179SOL    HW139170   0.619   4.333   4.225 -0.1171 -1.9041 -1.7389
 9179SOL    HW239171   0.596   4.475   4.213 -4.1507 -0.7479  0.3474
 9180SOL     OW39172   1.964   3.461   8.145  0.0682  0.0882 -0.0932
 9180SOL    HW139173   1.882   3.509   8.151 -1.2008 -2.0398 -0.5094
 9180SOL    HW239174   1.991   3.490   8.058 -0.4239  1.6344  0.2650
 9181SOL     OW39175   0.198   2.478   6.874 -0.3569  0.1716 -0.3376
 9181SOL    HW139176   0.126   2.471   6.937  0.3975 -2.4706  0.2124
 9181SOL    HW239177   0.267   2.517   6.927 -0.5651  1.7201 -1.1944
 9182SOL     OW39178   1.247   0.182   8.834 -0.3421 -0.4612 -0.3894
 9182SOL    HW139179   1.186   0.108   8.841 -2.0690  0.6948 -2.8941
 9182SOL    HW239180   1.196   0.231   8.899  0.3115 -1.8799  1.1707
 9183SOL     OW39181   2.836   0.236   3.513  0.7546 -0.1931  0.4644
 9183SOL    HW139182   2.836   0.181   3.435  1.9558  1.0885 -0.4209
 9183SOL    HW239183   2.923   0.272   3.501 -0.5793  2.3636 -1.3996
 9184SOL     OW39184   4.506   0.506   4.435 -0.2690 -0.4740  0.6502
 9184SOL    HW139185   4.559   0.573   4.392  0.3868 -1.5107 -0.1526
 9184SOL    HW239186   4.453   0.493   4.357  0.4347 -0.1807  0.1245
 9185SOL     OW39187   1.464   4.137   4.340  0.3156 -0.3695 -0.6165
 9185SOL    HW139188   1.467   4.158   4.246 -1.7474 -0.5665 -0.7232
 9185SOL    HW239189   1.389   4.077   4.341 -0.4366  0.6497  2.2038
 9186SOL     OW39190   3.594   0.438   9.475 -0.2713 -0.0796  0.4142
 9186SOL    HW139191   3.507   0.478   9.469 -0.1198  0.1801 -0.0230
 9186SOL    HW239192   3.608   0.445   9.570  0.0299 -0.8249  0.4250
 9187SOL     OW39193   2.005   4.446  13.799 -0.7179 -0.2700 -0.4769
 9187SOL    HW139194   1.995   4.460  13.704  0.0954 -0.5254 -0.6030
 9187SOL    HW239195   1.955   4.376  13.840 -0.6068  0.2875  0.5880
 9188SOL     OW39196   1.930   2.139   0.534 -0.0742 -0.1685 -0.4932
 9188SOL    HW139197   1.886   2.076   0.592 -0.2687  1.3841  1.0565
 9188SOL    HW239198   2.021   2.112   0.521 -0.6557 -3.2310  1.6930
 9189SOL     OW39199   2.856   2.890   6.117  0.1333  0.4470 -0.1747
 9189SOL    HW139200   2.938   2.896   6.166  0.4165  1.9263 -0.8294
 9189SOL    HW239201   2.797   2.944   6.169  2.4532  2.1432  0.6765
 9190SOL     OW39202   2.300   4.264   7.969  0.0663 -0.0383  0.0757
 9190SOL    HW139203   2.391   4.234   7.973 -0.2445 -0.8083  1.2041
 9190SOL    HW239204   2.275   4.217   7.889 -1.7570 -0.1925  0.7436
 9191SOL     OW39205   0.086   4.677   6.517  0.0690 -0.0007 -0.0352
 9191SOL    HW139206   0.006   4.666   6.464 -0.3522  1.3731  0.2943
 9191SOL    HW239207   0.153   4.639   6.461  1.2098 -2.8582  3.3126
 9192SOL     OW39208   2.136   2.263   1.907 -0.1406  0.0661 -0.0386
 9192SOL    HW139209   2.046   2.247   1.936  0.2644 -2.4298 -0.2286
 9192SOL    HW239210   2.181   2.183   1.933  1.6445  0.1400 -2.8947
 9193SOL     OW39211   2.179   4.389   1.606 -0.0853  0.8543  0.6241
 9193SOL    HW139212   2.260   4.434   1.632  0.3826 -0.5810  1.6739
 9193SOL    HW239213   2.204   4.297   1.620 -0.6563  0.5276 -0.5537
 9194SOL     OW39214   2.842   0.042   8.919 -0.1039  0.1078 -0.0726
 9194SOL    HW139215   2.883   0.124   8.893  1.8222 -0.4395  1.2354
 9194SOL    HW239216   2.837   0.000   8.833  2.3785 -1.0654  0.3739
 9195SOL     OW39217   0.488   3.711   0.390  0.0714 -0.4995  0.4427
 9195SOL    HW139218   0.532   3.693   0.473 -0.2482 -0.5513  0.6008
 9195SOL    HW239219   0.416   3.766   0.421 -0.2701 -0.5763 -0.2177
 9196SOL     OW39220   0.358   3.881   9.965 -0.3387  0.4760 -0.3988
 9196SOL    HW139221   0.316   3.866   9.880  0.0900 -0.6356 -0.4116
 9196SOL    HW239222   0.297   3.949   9.993  1.6151  2.2189 -0.4225
 9197SOL     OW39223   2.785   3.738  10.180 -0.0846  0.1217  0.8324
 9197SOL    HW139224   2.727   3.762  10.108 -0.4719 -0.6219  0.8899
 9197SOL    HW239225   2.836   3.663  10.149  0.1744  0.0448  1.4351
 9198SOL     OW39226   4.043   4.351  13.122 -0.0249  0.3703 -0.3703
 9198SOL    HW139227   4.044   4.305  13.206  1.6544  1.0690 -0.0060
 9198SOL    HW239228   4.066   4.281  13.061  1.9271 -1.0118  1.9594
 9199SOL     OW39229   0.821   0.011   2.757 -0.5150 -0.5026 -0.1524
 9199SOL    HW139230   0.889   0.075   2.738  0.1344 -1.7228 -1.9148
 9199SOL    HW239231   0.823   4.697   2.677 -3.2085 -1.8290  0.6499
 9200SOL     OW39232   0.814   0.184  12.590 -0.1235 -0.1472  0.3255
 9200SOL    HW139233   0.900   0.144  12.606 -0.7134 -2.0741 -1.4392
 9200SOL    HW239234   0.807   0.160  12.498 -1.5285  0.1043  0.3730
 9201SOL     OW39235   2.904   4.334   5.311 -0.0214 -0.2016 -0.2807
 9201SOL    HW139236   2.813   4.353   5.288 -0.9743 -1.4953  2.4730
 9201SOL    HW239237   2.947   4.371   5.234 -1.6916  2.5509  0.1044
 9202SOL     OW39238   2.358   3.665   2.128  0.1291 -0.3387  0.4481
 9202SOL    HW139239   2.341   3.702   2.215  0.5418  0.1319  0.3289
 9202SOL    HW239240   2.454   3.669   2.135  0.2350 -0.2944 -1.1349
 9203SOL     OW39241   3.980   2.884   2.759 -0.0382  0.6530  0.6854
 9203SOL    HW139242   3.921   2.811   2.741  1.4103 -0.0357 -1.2285
 9203SOL    HW239243   4.057   2.838   2.794 -1.1889 -1.4546  0.4492
 9204SOL     OW39244   3.469   2.606   3.963  0.3759  0.4448  0.2685
 9204SOL    HW139245   3.395   2.556   3.999  1.4352 -0.9001  0.5648
 9204SOL    HW239246   3.446   2.611   3.871  0.6763 -0.3338  0.1577
 9205SOL     OW39247   3.590   0.605  13.219  0.5823  0.3590  0.1947
 9205SOL    HW139248   3.557   0.573  13.135 -1.7187  1.5382  0.6570
 9205SOL    HW239249   3.546   0.690  13.216 -1.6290 -0.8681 -2.0112
 9206SOL     OW39250   4.026   0.047   6.418  0.6819 -0.0023  0.0768
 9206SOL    HW139251   4.115   0.062   6.386  1.4805 -0.3935  2.1355
 9206SOL    HW239252   4.022   4.692   6.438  3.1826  0.0931  1.0780
 9207SOL     OW39253   3.786   1.713  17.082 -0.2631 -0.0068 -0.1609
 9207SOL    HW139254   3.811   1.806  17.086  0.0778 -0.1512  0.9692
 9207SOL    HW239255   3.800   1.687  16.991  0.6831 -2.0158  0.5799
 9208SOL     OW39256   0.828   3.894  16.792 -0.2383 -0.1822  0.1446
 9208SOL    HW139257   0.779   3.950  16.851 -1.2645 -1.7815  0.8038
 9208SOL    HW239258   0.918   3.927  16.801 -0.6896  1.8294 -2.9139
 9209SOL     OW39259   4.700   0.857   5.516  0.8932 -0.1486  0.0104
 9209SOL    HW139260   4.619   0.906   5.527 -0.1359 -1.3138 -2.3512
 9209SOL    HW239261   4.714   0.800   5.591 -0.2328 -0.2001  0.1772
 9210SOL     OW39262   1.185   2.268  14.160  0.1569  0.7344  0.8385
 9210SOL    HW139263   1.176   2.297  14.069 -1.2019 -0.1579  0.6849
 9210SOL    HW239264   1.200   2.347  14.211 -0.4856  1.0262  0.5788
 9211SOL     OW39265   1.822   2.534   9.607  0.4184  0.7414 -0.0893
 9211SOL    HW139266   1.857   2.445   9.608  0.2013  0.6561  0.0490
 9211SOL    HW239267   1.841   2.572   9.522 -0.7646  0.9043 -0.2823
 9212SOL     OW39268   3.991   1.603   8.669  0.0936 -0.2597  0.3687
 9212SOL    HW139269   4.040   1.540   8.615 -0.9766  0.6225 -1.6257
 9212SOL    HW239270   4.060   1.669   8.673  0.8738 -1.2865  3.4688
 9213SOL     OW39271   4.062   0.245  11.072 -0.7776  0.1379 -0.1986
 9213SOL    HW139272   4.064   0.287  11.158 -0.9326  0.6131 -0.4268
 9213SOL    HW239273   4.155   0.234  11.053 -0.8401  2.0201 -1.5748
 9214SOL     OW39274   4.457   2.196  14.980  0.7269 -0.5288 -0.2632
 9214SOL    HW139275   4.440   2.289  14.963 -0.7595 -0.6414  0.5749
 9214SOL    HW239276   4.544   2.193  14.941  0.3978  0.5727 -1.0899
 9215SOL     OW39277   1.001   0.713  17.108 -0.2186  0.2948  0.9565
 9215SOL    HW139278   0.982   0.775  17.177 -0.0432 -0.1046  1.3669
 9215SOL    HW239279   0.940   0.732  17.037 -0.6136 -1.6487  0.7678
 9216SOL     OW39280   0.830   2.733  12.851  0.5225  0.0654  0.3051
 9216SOL    HW139281   0.914   2.737  12.805 -1.7300 -1.2535 -3.9419
 9216SOL    HW239282   0.851   2.671  12.920 -0.0284 -0.8044 -0.2998
 9217SOL     OW39283   2.413   1.722   3.345  0.1884 -0.5707 -0.3034
 9217SOL    HW139284   2.388   1.631   3.357  1.2820 -0.6557  1.2412
 9217SOL    HW239285   2.348   1.768   3.398  3.3121  3.7464 -0.1893
 9218SOL     OW39286   3.333   1.559   5.015 -0.3167  0.3389 -0.0658
 9218SOL    HW139287   3.351   1.519   5.100 -0.8274 -1.3442 -0.7486
 9218SOL    HW239288   3.334   1.653   5.034 -0.8309  0.6616 -1.6814
 9219SOL     OW39289   0.308   0.025   7.738 -0.3294  0.5818  0.0638
 9219SOL    HW139290   0.305   0.072   7.821 -1.3704  1.7783 -0.6560
 9219SOL    HW239291   0.302   4.677   7.776  0.4399 -0.2428 -1.6940
 9220SOL     OW39292   4.571   0.920   6.264  0.7759 -0.4047  0.3774
 9220SOL    HW139293   4.540   0.999   6.221  0.9960 -0.4708  0.0916
 9220SOL    HW239294   4.491   0.869   6.252 -1.0176  2.1424  1.6535
 9221SOL     OW39295   3.197   1.331  16.561  0.0457  0.0860  0.0873
 9221SOL    HW139296   3.141   1.254  16.545  0.0327 -0.0893  0.9600
 9221SOL    HW239297   3.253   1.337  16.484  0.4354  1.3212  0.4723
 9222SOL     OW39298   0.979   2.135   0.381 -0.1135 -0.1596 -0.3322
 9222SOL    HW139299   0.962   2.228   0.364  2.8559  0.3098 -0.7424
 9222SOL    HW239300   1.074   2.138   0.366 -0.2000 -0.7829 -1.0022
 9223SOL     OW39301   1.927   4.526   4.649 -0.2602  0.8510 -0.2877
 9223SOL    HW139302   1.844   4.563   4.681 -0.6669 -0.0924 -0.2634
 9223SOL    HW239303   1.925   4.565   4.562 -1.4881  0.8014 -0.2792
 9224SOL     OW39304   1.831   0.017   1.580  0.1816 -0.2025  0.1847
 9224SOL    HW139305   1.855   4.716   1.496  2.9800  0.3393  0.7289
 9224SOL    HW239306   1.916   0.046   1.614  0.0530  2.0328 -1.4250
 9225SOL     OW39307   2.699   3.037  11.587 -0.1007 -0.8423 -0.2358
 9225SOL    HW139308   2.638   2.967  11.562  0.1186 -1.2420  0.3632
 9225SOL    HW239309   2.650   3.083  11.655  0.5700  2.3567 -1.9217
 9226SOL     OW39310   2.738   2.716  16.999 -0.1195 -0.0975 -0.2616
 9226SOL    HW139311   2.764   2.626  17.018 -0.9596 -0.3253 -0.1945
 9226SOL    HW239312   2.653   2.708  17.043 -1.0104  0.9519 -1.8110
 9227SOL     OW39313   1.856   0.419   2.849  0.4664 -0.0148 -0.3893
 9227SOL    HW139314   1.919   0.491   2.856  2.2735 -1.3649 -2.4168
 9227SOL    HW239315   1.855   0.409   2.754  1.2855 -2.4173 -0.1344
 9228SOL     OW39316   2.657   3.813   3.161  0.0560  0.1328 -0.5605
 9228SOL    HW139317   2.622   3.732   3.124 -0.1218 -0.0153 -0.0651
 9228SOL    HW239318   2.688   3.782   3.246 -0.3103  0.5521 -0.2696
 9229SOL     OW39319   1.224   2.070   5.576 -0.4207  0.8301  0.0556
 9229SOL    HW139320   1.246   2.103   5.489  1.6108 -4.6431 -1.4633
 9229SOL    HW239321   1.130   2.091   5.577 -0.7682 -0.6515 -0.6997
 9230SOL     OW39322   1.358   3.136   9.767  0.4757  0.2634 -0.6022
 9230SOL    HW139323   1.337   3.210   9.709  0.7039 -0.0072 -1.0314
 9230SOL    HW239324   1.446   3.120   9.732 -0.1036 -0.1649 -1.8510
 9231SOL     OW39325   1.943   1.413   6.129  0.2231  0.0107 -0.3641
 9231SOL    HW139326   1.900   1.329   6.146  0.9961 -0.5019 -0.9455
 9231SOL    HW239327   2.033   1.386   6.110 -0.1457 -0.8530 -0.9132
 9232SOL     OW39328   4.591   1.223   2.621 -0.0506 -0.8926  0.4965
 9232SOL    HW139329   4.655   1.286   2.653  0.5275 -0.9182 -0.6175
 9232SOL    HW239330   4.527   1.272   2.569  2.5691 -1.5054 -3.2978
 9233SOL     OW39331   2.719   1.641   4.768 -0.8180 -0.0906 -0.0029
 9233SOL    HW139332   2.775   1.633   4.845  0.3198  1.2497 -0.6873
 9233SOL    HW239333   2.657   1.709   4.794  0.3294  0.9896 -0.0492
 9234SOL     OW39334   3.147   3.535  11.534  0.1229  0.6826  0.5991
 9234SOL    HW139335   3.083   3.481  11.579 -1.6365  0.9615 -1.5354
 9234SOL    HW239336   3.113   3.623  11.550  3.3640  2.2942 -1.3643
 9235SOL     OW39337   4.546   2.924  13.091 -0.0656 -0.2250 -0.1655
 9235SOL    HW139338   4.454   2.913  13.115 -0.1588 -0.2232 -0.5217
 9235SOL    HW239339   4.567   2.965  13.175  1.6523  1.4311 -1.4062
 9236SOL     OW39340   3.279   0.419   7.086 -0.0129  0.0332  0.0921
 9236SOL    HW139341   3.354   0.364   7.112 -0.7213 -1.0777 -0.2093
 9236SOL    HW239342   3.328   0.493   7.051 -2.0508  1.0818 -0.5450
 9237SOL     OW39343   3.124   1.501   3.319  0.4367  0.2987  0.2413
 9237SOL    HW139344   3.045   1.504   3.265  0.4083 -2.6639  0.1219
 9237SOL    HW239345   3.080   1.501   3.404 -0.0877 -1.6597 -0.0371
 9238SOL     OW39346   2.878   4.597   6.887 -0.0437  0.1657  0.0009
 9238SOL    HW139347   2.909   4.687   6.871 -1.3633  0.4746 -0.7295
 9238SOL    HW239348   2.843   4.578   6.801 -0.9790  0.3565  0.3433
 9239SOL     OW39349   2.805   0.647   6.486  0.3406 -0.5138  0.2238
 9239SOL    HW139350   2.845   0.635   6.399 -1.3614 -0.3414 -0.5893
 9239SOL    HW239351   2.769   0.560   6.501 -2.0866  0.1800 -1.4436
 9240SOL     OW39352   0.489   0.082   6.748  0.2446  0.3634 -0.4682
 9240SOL    HW139353   0.508   0.103   6.840 -1.3366  2.9290 -0.7330
 9240SOL    HW239354   0.548   0.007   6.739  0.9854  0.7350  1.3166
 9241SOL     OW39355   2.336   2.705   7.793  0.4399  0.1005 -0.3144
 9241SOL    HW139356   2.292   2.743   7.870  1.1241  1.5561 -0.6304
 9241SOL    HW239357   2.344   2.613   7.817  1.0700  0.4437  0.8032
 9242SOL     OW39358   0.943   2.393   7.926 -0.1566 -0.0331  0.8147
 9242SOL    HW139359   0.862   2.355   7.959 -0.4614  1.6836  2.0090
 9242SOL    HW239360   0.914   2.482   7.908 -1.2187 -0.2630  1.3577
 9243SOL     OW39361   4.024   3.609   3.061 -0.4456 -0.3459 -0.7288
 9243SOL    HW139362   4.008   3.521   3.094  0.9210 -0.9491 -1.6854
 9243SOL    HW239363   3.968   3.663   3.118 -0.8148 -1.8194  0.3156
 9244SOL     OW39364   2.412   3.864  17.019  0.6457  0.1499  0.3043
 9244SOL    HW139365   2.403   3.791  16.957 -0.1306 -0.8899  1.6587
 9244SOL    HW239366   2.382   3.805  17.088  0.8150 -0.4844 -0.1528
 9245SOL     OW39367   3.718   1.775   8.104  0.4545  0.1067 -0.0870
 9245SOL    HW139368   3.686   1.685   8.113  0.7709 -0.1304 -1.2668
 9245SOL    HW239369   3.669   1.824   8.169 -0.7449  0.2204 -1.0685
 9246SOL     OW39370   0.971   1.342   2.093  0.1006 -0.6074  0.0467
 9246SOL    HW139371   1.049   1.291   2.115  1.7104  1.0836 -1.6872
 9246SOL    HW239372   0.915   1.305   2.160  0.2087 -2.0343 -0.6466
 9247SOL     OW39373   0.317   1.117   6.330  0.0638 -0.3885  0.1033
 9247SOL    HW139374   0.227   1.107   6.298  0.1199 -0.4912 -0.0268
 9247SOL    HW239375   0.310   1.082   6.418  2.3107 -0.9122  0.0753
 9248SOL     OW39376   0.593   1.162   2.416 -0.1040  0.1562  0.1925
 9248SOL    HW139377   0.525   1.181   2.481 -1.7466 -3.1663 -0.5029
 9248SOL    HW239378   0.603   1.068   2.435 -0.9446  0.6945  3.2351
 9249SOL     OW39379   1.237   1.132   3.088 -0.0531 -0.0480 -0.1113
 9249SOL    HW139380   1.331   1.122   3.105  0.2629  2.7571 -0.1182
 9249SOL    HW239381   1.242   1.147   2.994  0.4951 -1.7049 -0.3471
 9250SOL     OW39382   0.079   1.135  14.521 -0.3696 -0.2857  0.1481
 9250SOL    HW139383   0.006   1.197  14.518 -0.8238 -0.7810  1.0527
 9250SOL    HW239384   0.040   1.060  14.565  2.5152 -1.3282  0.9586
 9251SOL     OW39385   2.154   1.202  15.785  0.2005 -0.2892  0.0853
 9251SOL    HW139386   2.074   1.215  15.734  1.0006 -0.1718 -1.1481
 9251SOL    HW239387   2.142   1.112  15.816 -2.0762 -0.8724 -2.4186
 9252SOL     OW39388   0.447   2.990  17.430 -0.9395  0.4072 -0.2827
 9252SOL    HW139389   0.363   2.990  17.385 -0.4172  1.1935 -1.2464
 9252SOL    HW239390   0.439   2.915  17.489 -1.4478  0.3978 -0.3660
 9253SOL     OW39391   0.883   1.738   6.574  0.3228 -0.5350 -0.2721
 9253SOL    HW139392   0.974   1.713   6.594  0.3607 -0.8331 -0.8084
 9253SOL    HW239393   0.834   1.657   6.579 -0.9147  0.4442  3.0599
 9254SOL     OW39394   2.046   1.252   6.955 -0.1700 -0.2701  0.4833
 9254SOL    HW139395   1.966   1.207   6.984 -0.1539 -1.5995 -1.5319
 9254SOL    HW239396   2.005   1.300   6.882 -0.5015 -1.9222 -0.4027
 9255SOL     OW39397   0.853   2.757   1.343  0.2397  0.5564 -0.4734
 9255SOL    HW139398   0.907   2.707   1.282 -0.0872  1.2819 -1.3643
 9255SOL    HW239399   0.913   2.812   1.394  1.2188  0.9682 -2.0791
 9256SOL     OW39400   1.391   0.834   6.897 -0.1237 -0.0383  0.2955
 9256SOL    HW139401   1.425   0.834   6.987  0.6583 -0.5548 -0.0001
 9256SOL    HW239402   1.393   0.739   6.883  0.1099  0.1000 -0.5947
 9257SOL     OW39403   1.291   1.282  15.663  0.6517 -0.0686  0.3842
 9257SOL    HW139404   1.207   1.314  15.628  0.5424  0.8154  1.4545
 9257SOL    HW239405   1.258   1.212  15.718 -0.3608  1.1683  1.3527
 9258SOL     OW39406   1.312   4.007   1.951 -0.0793 -0.6131 -0.2122
 9258SOL    HW139407   1.350   3.970   2.031 -1.0803  1.9535  1.4886
 9258SOL    HW239408   1.269   3.930   1.914  1.9604 -1.2775 -1.1963
 9259SOL     OW39409   2.316   3.363   8.357 -0.4185  0.2332 -1.2392
 9259SOL    HW139410   2.375   3.354   8.431 -1.1471  2.6658 -0.3762
 9259SOL    HW239411   2.233   3.387   8.399  0.5309 -0.3920  0.9865
 9260SOL     OW39412   1.760   2.044   2.661  0.0993 -0.2318 -0.2839
 9260SOL    HW139413   1.739   2.085   2.746 -1.0046 -1.8241  0.2178
 9260SOL    HW239414   1.811   2.114   2.621  2.2038 -0.1644  2.5579
 9261SOL     OW39415   3.542   4.474   2.315  0.2080 -0.4706 -0.1655
 9261SOL    HW139416   3.532   4.393   2.265 -0.6328  0.1229 -0.9547
 9261SOL    HW239417   3.537   4.544   2.250  2.6530 -3.1207 -3.2840
 9262SOL     OW39418   1.558   1.276   6.315 -0.1535  0.2763 -0.0794
 9262SOL    HW139419   1.593   1.365   6.317 -0.0880  0.2248  1.1946
 9262SOL    HW239420   1.514   1.276   6.400 -0.2244  0.2409 -0.1164
 9263SOL     OW39421   0.511   4.314   6.799 -0.0139 -0.2780  0.5419
 9263SOL    HW139422   0.462   4.241   6.837 -0.5082 -0.6779 -0.8482
 9263SOL    HW239423   0.582   4.266   6.756  0.3944 -0.7936  1.8052
 9264SOL     OW39424   1.264   1.107  11.520  0.2025 -0.1509  0.1254
 9264SOL    HW139425   1.209   1.132  11.595 -0.2605 -2.1139  0.4389
 9264SOL    HW239426   1.339   1.069  11.564 -0.3392 -1.6288 -0.2115
 9265SOL     OW39427   1.401   2.320   2.305 -0.0019  0.1046 -0.6713
 9265SOL    HW139428   1.340   2.295   2.236 -1.6890  1.2911  0.4085
 9265SOL    HW239429   1.342   2.352   2.373 -0.2370  1.9905 -1.7598
 9266SOL     OW39430   2.465   4.238   3.193  0.3206  0.4229 -0.0325
 9266SOL    HW139431   2.392   4.222   3.132  0.3629  0.0290  0.0206
 9266SOL    HW239432   2.423   4.194   3.267  1.8151  1.0749  1.2047
 9267SOL     OW39433   2.678   3.072   6.249 -0.7860  0.6536  0.1376
 9267SOL    HW139434   2.647   2.996   6.297  0.6577  0.2399  0.4323
 9267SOL    HW239435   2.635   3.147   6.289  0.2230  0.6803  1.1533
 9268SOL     OW39436   4.128   4.273  16.568 -0.2227 -0.7761  0.3311
 9268SOL    HW139437   4.198   4.220  16.529  0.5053  0.4004  0.0468
 9268SOL    HW239438   4.114   4.346  16.509 -0.2320 -2.0121 -1.2068
 9269SOL     OW39439   1.310   1.710   4.776  0.3150  0.1433  0.0477
 9269SOL    HW139440   1.384   1.683   4.830  0.0218  0.2193  0.4955
 9269SOL    HW239441   1.250   1.636   4.787  1.4846 -0.8497 -0.3058
 9270SOL     OW39442   4.687   2.825   5.656 -0.4583 -0.5933  0.0158
 9270SOL    HW139443   4.661   2.813   5.748  0.0092 -1.0771  0.0846
 9270SOL    HW239444   4.721   2.737   5.641  2.3531  0.5334 -0.1086
 9271SOL     OW39445   1.599   3.768   2.851 -0.1570 -0.0292 -0.0298
 9271SOL    HW139446   1.535   3.735   2.788 -0.8555 -0.5806  0.9541
 9271SOL    HW239447   1.636   3.688   2.888 -1.9504 -0.8422 -0.0044
 9272SOL     OW39448   0.950   2.811  17.136  0.2842  0.1197  0.1843
 9272SOL    HW139449   0.874   2.834  17.190  0.3464  0.4805  0.1168
 9272SOL    HW239450   0.920   2.723  17.112  0.0705  0.6586 -1.5233
 9273SOL     OW39451   1.781   2.869  14.116 -0.2064  0.3468 -0.3800
 9273SOL    HW139452   1.760   2.887  14.208  0.7254  0.2133 -0.1408
 9273SOL    HW239453   1.872   2.838  14.111 -0.6855 -0.7532 -2.1254
 9274SOL     OW39454   0.847   2.087   4.298  0.5902  0.3143  0.2856
 9274SOL    HW139455   0.928   2.074   4.348  0.0003  1.2919  1.5012
 9274SOL    HW239456   0.788   2.131   4.360  1.6529  1.7017  0.3179
 9275SOL     OW39457   3.841   1.319  17.697  0.0466 -0.4127 -0.5877
 9275SOL    HW139458   3.841   1.236  17.649 -1.2935  0.2417 -1.7294
 9275SOL    HW239459   3.806   1.378  17.630 -2.7336 -0.2372  0.9807
 9276SOL     OW39460   4.372   0.462  15.404 -0.5413 -0.0587  0.1264
 9276SOL    HW139461   4.349   0.449  15.496  0.5727 -1.1312  0.2576
 9276SOL    HW239462   4.408   0.551  15.402 -2.3849  0.6519 -1.5593
 9277SOL     OW39463   2.852   3.048  17.325  0.4461 -0.0190 -0.3124
 9277SOL    HW139464   2.921   3.055  17.391  0.2086 -1.3486  0.0847
 9277SOL    HW239465   2.834   2.954  17.331  0.3908 -0.1532 -2.3944
 9278SOL     OW39466   0.906   2.121   7.538 -0.3788  0.0030 -0.5026
 9278SOL    HW139467   0.901   2.036   7.493  2.0875  0.0207 -0.8035
 9278SOL    HW239468   0.832   2.168   7.498  1.5175  0.8970 -2.9733
 9279SOL     OW39469   4.730   4.701   1.677 -0.0643 -0.4669 -0.2365
 9279SOL    HW139470   0.033   0.030   1.624 -1.1940 -0.7316 -1.4798
 9279SOL    HW239471   0.029   4.728   1.760 -2.4170  4.7934 -0.8491
 9280SOL     OW39472   0.481   3.563  12.323 -0.2157  0.4373  0.8209
 9280SOL    HW139473   0.491   3.604  12.409 -2.7580 -0.1883  1.4139
 9280SOL    HW239474   0.391   3.590  12.305 -0.4754 -1.1345 -0.2773
 9281SOL     OW39475   0.958   0.997  16.460  0.8445 -0.2958  0.4919
 9281SOL    HW139476   0.863   1.002  16.472  0.9539  1.6866  0.5909
 9281SOL    HW239477   0.985   1.040  16.542 -0.2230  0.9038  0.2118
 9282SOL     OW39478   4.131   2.913   7.658  0.1638  0.3069  0.3502
 9282SOL    HW139479   4.187   2.906   7.581 -1.6039 -0.8600 -0.8431
 9282SOL    HW239480   4.043   2.902   7.621  0.9420 -1.3684 -1.0273
 9283SOL     OW39481   3.789   2.552   5.877 -0.0929  0.3244  0.0952
 9283SOL    HW139482   3.804   2.463   5.845  1.4148  0.7090 -0.2662
 9283SOL    HW239483   3.799   2.600   5.795 -2.2694  0.4957 -0.0457
 9284SOL     OW39484   1.736   1.096   3.505 -0.7033 -0.4433  0.0339
 9284SOL    HW139485   1.775   1.176   3.471  0.6682 -0.9980  0.2813
 9284SOL    HW239486   1.704   1.065   3.420  0.9850 -0.1416 -0.7081
 9285SOL     OW39487   2.550   1.288  11.125 -0.5090  0.5473 -0.0216
 9285SOL    HW139488   2.554   1.342  11.204  0.2125  1.2803 -0.5531
 9285SOL    HW239489   2.460   1.258  11.121 -0.4223  0.2509  0.2485
 9286SOL     OW39490   0.513   4.027   7.641 -0.3795  0.8243 -0.1190
 9286SOL    HW139491   0.527   4.061   7.729  1.3671 -0.1087 -0.0402
 9286SOL    HW239492   0.525   4.101   7.581  2.7063  0.4301  0.0174
 9287SOL     OW39493   1.239   2.972   8.022  0.1093  0.2409 -0.3407
 9287SOL    HW139494   1.224   2.973   7.928  3.0642 -1.5076 -0.8493
 9287SOL    HW239495   1.231   2.878   8.042 -1.8724  0.5438  0.2599
 9288SOL     OW39496   3.509   4.581  13.828  0.2294 -0.0119  0.2596
 9288SOL    HW139497   3.423   4.548  13.804  0.6337 -1.0539  0.2693
 9288SOL    HW239498   3.487   4.605  13.918  1.6705 -0.3857  0.7106
 9289SOL     OW39499   4.381   4.308   6.012  0.1049  0.1104  0.1377
 9289SOL    HW139500   4.337   4.313   6.097  0.5617  0.0312  0.3756
 9289SOL    HW239501   4.470   4.281   6.034  0.1429 -0.9225 -1.2946
 9290SOL     OW39502   0.677   3.690   7.523  0.0862  0.3586  0.4469
 9290SOL    HW139503   0.586   3.679   7.498  0.8746 -1.1909 -1.7413
 9290SOL    HW239504   0.709   3.759   7.465  1.9610 -0.2496  0.7457
 9291SOL     OW39505   1.632   0.624   6.193  0.1459  0.0470  0.3293
 9291SOL    HW139506   1.622   0.692   6.259  0.5603 -0.5237  0.9708
 9291SOL    HW239507   1.670   0.668   6.117  0.8121  1.6197  1.5741
 9292SOL     OW39508   1.497   2.937   4.405 -0.1346  0.1379 -0.1142
 9292SOL    HW139509   1.457   2.861   4.448  1.0733 -0.4916 -0.1098
 9292SOL    HW239510   1.561   2.897   4.345 -0.3002 -0.6451  0.2261
 9293SOL     OW39511   1.893   4.720   4.052 -0.3573  0.5650 -0.3665
 9293SOL    HW139512   1.967   4.686   4.102 -0.6784  1.4415  0.7051
 9293SOL    HW239513   1.874   0.060   4.103 -1.9585  0.8379 -1.3611
 9294SOL     OW39514   4.592   1.424   3.674  0.2316 -0.5528  0.3362
 9294SOL    HW139515   4.589   1.478   3.596 -0.9811 -1.2988 -0.1262
 9294SOL    HW239516   4.681   1.418   3.708  0.3953 -1.4051 -0.2495
 9295SOL     OW39517   2.043   3.090   6.328 -0.0243  0.1734 -0.2293
 9295SOL    HW139518   1.982   3.160   6.353  2.1988  2.0222 -0.0343
 9295SOL    HW239519   2.118   3.139   6.296  0.2081 -0.6348 -0.9298
 9296SOL     OW39520   0.378   4.727   8.528 -0.2438 -0.3240 -0.0894
 9296SOL    HW139521   0.369   0.055   8.596  0.2434  1.9944 -2.2783
 9296SOL    HW239522   0.472   4.708   8.534 -0.5712 -1.2719  1.7663
 9297SOL     OW39523   3.250   4.685  16.147  0.1039  0.0965  0.1205
 9297SOL    HW139524   3.179   4.694  16.211  0.1185 -1.4644  0.3526
 9297SOL    HW239525   3.216   0.011  16.086 -0.0885  0.2852  0.4306
 9298SOL     OW39526   1.753   4.563   1.824  0.0304 -0.2405 -0.1210
 9298SOL    HW139527   1.762   4.598   1.735 -0.3264 -0.2918 -0.1769
 9298SOL    HW239528   1.668   4.602   1.844 -0.1687 -0.8236  0.1405
 9299SOL     OW39529   0.934   0.106   4.806 -0.0595  0.2244 -0.1498
 9299SOL    HW139530   0.992   0.088   4.732 -1.0100 -1.7286 -0.4229
 9299SOL    HW239531   0.913   0.017   4.832 -1.0492  0.7532  0.8401
 9300SOL     OW39532   4.361   1.210   8.022  0.2066  0.5114  0.5453
 9300SOL    HW139533   4.384   1.301   8.005 -0.6319  0.7808  0.8747
 9300SOL    HW239534   4.278   1.218   8.069  0.2934  0.3241  0.7303
 9301SOL     OW39535   2.222   4.313   5.357 -0.2865 -0.3302  0.2543
 9301SOL    HW139536   2.243   4.259   5.281  2.2376 -2.0222  2.1749
 9301SOL    HW239537   2.296   4.291   5.413 -1.4427 -0.1823  1.8520
 9302SOL     OW39538   3.727   1.942   2.391 -0.5880 -0.8680 -0.4447
 9302SOL    HW139539   3.735   1.882   2.465  1.3326  0.3943  0.4002
 9302SOL    HW239540   3.682   1.888   2.327  0.8537 -2.0645 -0.4625
 9303SOL     OW39541   1.264   0.537   9.066 -0.2838 -0.0500 -0.1798
 9303SOL    HW139542   1.207   0.606   9.033  0.1810  0.6328  0.4458
 9303SOL    HW239543   1.344   0.576   9.031 -0.1793 -1.0838 -1.0925
 9304SOL     OW39544   4.172   2.578   1.534 -0.0863  0.4109 -0.1973
 9304SOL    HW139545   4.085   2.599   1.569 -1.3091 -2.0413 -1.7646
 9304SOL    HW239546   4.186   2.499   1.586 -1.2369  2.1620  2.7920
 9305SOL     OW39547   1.041   3.973  11.873 -0.0610  0.3581  0.2288
 9305SOL    HW139548   0.991   4.024  11.809  0.8663  0.8367 -0.1148
 9305SOL    HW239549   0.969   3.933  11.922  0.1709  0.6906  0.8385
 9306SOL     OW39550   3.180   1.491  15.299 -0.0673  0.2408  0.8001
 9306SOL    HW139551   3.104   1.512  15.353 -0.1684  1.9635 -0.0279
 9306SOL    HW239552   3.199   1.578  15.264 -0.6060 -0.4186 -1.1513
 9307SOL     OW39553   2.232   2.913   0.238  0.8235 -0.5379  0.7137
 9307SOL    HW139554   2.191   2.995   0.212 -1.8520 -1.1734  2.9128
 9307SOL    HW239555   2.162   2.849   0.225 -1.1868  1.8265 -0.0815
 9308SOL     OW39556   1.921   0.507   1.801  0.1054 -0.2758 -0.0441
 9308SOL    HW139557   1.862   0.511   1.725  1.3440  2.6345 -0.8415
 9308SOL    HW239558   1.947   0.414   1.799 -1.8892 -0.8135 -1.2093
 9309SOL     OW39559   3.407   3.472  17.065  0.3295 -0.0022 -0.3929
 9309SOL    HW139560   3.375   3.520  16.988  0.4386 -1.4121 -1.3264
 9309SOL    HW239561   3.340   3.404  17.075  1.1967 -0.7429  0.2740
 9310SOL     OW39562   1.415   3.613   8.146  0.3512 -0.2381  0.6618
 9310SOL    HW139563   1.366   3.586   8.223 -1.6268  0.8377 -0.2167
 9310SOL    HW239564   1.357   3.588   8.074  0.9546 -0.0305  0.0986
 9311SOL     OW39565   0.984   3.951   8.384  0.0040 -0.0996  0.2362
 9311SOL    HW139566   0.957   4.043   8.387 -2.8236 -0.8892 -1.6452
 9311SOL    HW239567   1.039   3.941   8.461 -1.1690  2.6315  1.4220
 9312SOL     OW39568   3.845   2.408  11.985  0.6230 -0.6445 -0.3891
 9312SOL    HW139569   3.902   2.435  12.057 -1.3345  0.4642  0.7354
 9312SOL    HW239570   3.771   2.388  12.042 -0.2881  0.6943 -1.0922
 9313SOL     OW39571   4.442   4.276   4.995  0.2509  0.4512 -0.1314
 9313SOL    HW139572   4.417   4.358   4.952 -1.0332  0.6552  1.0164
 9313SOL    HW239573   4.406   4.204   4.944  0.3442  2.0426 -2.4721
 9314SOL     OW39574   0.063   2.268   2.842  0.3314  0.4523 -0.5051
 9314SOL    HW139575   0.060   2.211   2.918 -1.1429 -0.0681 -0.9624
 9314SOL    HW239576   0.149   2.243   2.807  0.5382  0.8644 -0.2844
 9315SOL     OW39577   3.586   1.296   7.793 -0.1528  0.6830  0.5436
 9315SOL    HW139578   3.674   1.328   7.815 -0.1905  1.2871 -0.1947
 9315SOL    HW239579   3.613   1.215   7.751 -2.4250  0.5237 -0.6115
 9316SOL     OW39580   3.123   4.168   3.197 -0.1858 -0.2370  0.1379
 9316SOL    HW139581   3.098   4.250   3.240  1.0513 -0.5253  1.3831
 9316SOL    HW239582   3.102   4.194   3.107 -1.2387 -0.2761  0.3758
 9317SOL     OW39583   3.755   4.727   6.192 -0.1750  0.2883  0.2716
 9317SOL    HW139584   3.663   4.718   6.169 -0.2794 -0.3362  0.9220
 9317SOL    HW239585   3.794   0.014   6.109 -1.5443  0.6966 -0.2382
 9318SOL     OW39586   1.774   1.962   7.516  0.6369  0.0740 -0.2522
 9318SOL    HW139587   1.832   2.038   7.518  1.3272 -0.4259 -1.4157
 9318SOL    HW239588   1.694   2.014   7.516  0.2629 -0.4741  1.5598
 9319SOL     OW39589   4.565   3.748   2.336  0.3925  0.1607  0.2312
 9319SOL    HW139590   4.632   3.680   2.323  0.1063 -0.5250  2.3974
 9319SOL    HW239591   4.525   3.749   2.249  2.2301  0.3240 -0.6258
 9320SOL     OW39592   0.379   3.258   5.217  0.1575  0.1392  0.0396
 9320SOL    HW139593   0.432   3.334   5.195  0.0094 -0.1349 -1.2507
 9320SOL    HW239594   0.321   3.300   5.281 -0.7486  1.2052 -1.4874
 9321SOL     OW39595   0.334   1.504   5.176  0.6948 -0.2808  0.2299
 9321SOL    HW139596   0.395   1.516   5.103  1.7429 -0.1076  1.1280
 9321SOL    HW239597   0.318   1.410   5.167  0.5393 -0.5894  3.4534
 9322SOL     OW39598   4.619   1.918   4.425 -0.3871 -0.3061  0.4595
 9322SOL    HW139599   4.690   1.916   4.489 -0.2580  2.2806  0.3981
 9322SOL    HW239600   4.662   1.957   4.349 -1.0931 -1.4481 -0.5237
 9323SOL     OW39601   2.290   1.998   4.643  0.7733 -0.0441  0.0089
 9323SOL    HW139602   2.367   1.999   4.700  0.0231 -4.2458  1.0833
 9323SOL    HW239603   2.239   2.074   4.672  1.3739  0.3922 -0.0881
 9324SOL     OW39604   3.925   4.305  14.677 -0.1314  0.4644  0.1653
 9324SOL    HW139605   3.832   4.315  14.657 -0.2286 -0.7375  0.0063
 9324SOL    HW239606   3.942   4.221  14.633  0.4354  1.4447 -1.4719
 9325SOL     OW39607   1.265   0.598   3.925  0.2239  0.0365  0.4223
 9325SOL    HW139608   1.208   0.574   3.852  1.2955 -1.1009 -0.0276
 9325SOL    HW239609   1.318   0.519   3.929 -0.9815 -0.7341  1.1553
 9326SOL     OW39610   4.589   3.296   9.238 -0.4220 -0.3996  0.5732
 9326SOL    HW139611   4.542   3.287   9.155  1.4602  1.5908 -0.6939
 9326SOL    HW239612   4.585   3.208   9.276  0.1888 -0.6254  0.1066
 9327SOL     OW39613   4.432   1.137   8.878 -0.2495  0.1743 -0.0097
 9327SOL    HW139614   4.378   1.196   8.931 -2.0522 -2.0285  0.5834
 9327SOL    HW239615   4.355   1.101   8.834  0.7711 -0.7028 -1.0736
 9328SOL     OW39616   4.308   3.825   4.029  0.4363 -0.2236 -0.2981
 9328SOL    HW139617   4.392   3.802   4.070 -0.1573 -0.6640  0.6553
 9328SOL    HW239618   4.266   3.741   4.049 -0.0372 -0.6058 -2.8319
 9329SOL     OW39619   3.238   4.621  15.234 -0.4525 -0.2339  0.4349
 9329SOL    HW139620   3.180   4.564  15.184  2.8954 -2.4667 -0.8995
 9329SOL    HW239621   3.219   4.701  15.187 -1.7385  0.3615  1.9701
 9330SOL     OW39622   4.103   1.383   6.327 -0.3675  0.7418  0.3489
 9330SOL    HW139623   4.028   1.423   6.371 -0.5098 -1.2810  1.9888
 9330SOL    HW239624   4.077   1.377   6.236 -0.6967  2.6117  0.3313
 9331SOL     OW39625   4.319   1.717   5.499  0.6970 -0.2657  0.2368
 9331SOL    HW139626   4.398   1.771   5.486  1.4865 -1.3234  0.6857
 9331SOL    HW239627   4.268   1.766   5.563  1.2613  2.3496 -1.3064
 9332SOL     OW39628   1.099   4.098  13.207 -0.1189  0.1736 -0.3844
 9332SOL    HW139629   1.185   4.058  13.194  0.5956  0.8467  2.4076
 9332SOL    HW239630   1.123   4.191  13.213  1.6833 -0.3021 -0.2067
 9333SOL     OW39631   2.630   2.227   4.079 -0.3685 -0.4321  0.2590
 9333SOL    HW139632   2.673   2.159   4.131 -1.0840 -0.2844  1.0329
 9333SOL    HW239633   2.574   2.170   4.028  1.9981 -2.3280 -0.2479
 9334SOL     OW39634   0.484   3.777   6.058 -0.0852 -0.1169  0.1935
 9334SOL    HW139635   0.418   3.837   6.091 -0.3897  0.7195 -1.9638
 9334SOL    HW239636   0.446   3.698   6.097  1.6921 -0.6843  0.8073
 9335SOL     OW39637   1.833   2.016   2.218  0.0711  0.0594 -0.3912
 9335SOL    HW139638   1.871   2.079   2.157 -0.4372  1.4531  0.7133
 9335SOL    HW239639   1.836   2.066   2.300  0.0462 -2.2326  1.0160
 9336SOL     OW39640   1.205   1.506   9.153  0.4417 -0.4229  0.0291
 9336SOL    HW139641   1.145   1.581   9.154  0.3317 -0.5471  2.2985
 9336SOL    HW239642   1.239   1.511   9.242 -2.3427  1.9653  0.9709
 9337SOL     OW39643   1.809   3.904   3.345 -0.4179  0.1275 -0.2963
 9337SOL    HW139644   1.893   3.863   3.366  1.0843  2.3419 -1.9751
 9337SOL    HW239645   1.766   3.889   3.429  1.2622  0.1075  0.5519
 9338SOL     OW39646   0.455   0.310   3.190  0.1144  0.1276 -0.1878
 9338SOL    HW139647   0.464   0.240   3.254 -2.4366  1.5937  1.7724
 9338SOL    HW239648   0.470   0.266   3.106  1.5383  1.9159 -0.8654
 9339SOL     OW39649   3.478   3.217   6.951  0.1476 -0.4558 -0.4897
 9339SOL    HW139650   3.522   3.160   6.888 -0.0506  2.0300 -2.8656
 9339SOL    HW239651   3.467   3.297   6.899 -1.8006  0.8977  2.0427
 9340SOL     OW39652   0.894   4.555  13.736  0.7191  0.6163 -0.0742
 9340SOL    HW139653   0.873   4.475  13.688 -0.5624  0.6715  0.4034
 9340SOL    HW239654   0.913   4.501  13.813 -0.4286  0.0188 -0.2104
 9341SOL     OW39655   4.706   1.245   0.979 -0.3426  0.2562  0.2741
 9341SOL    HW139656   0.020   1.306   1.030  1.6616 -1.4822  0.2539
 9341SOL    HW239657   0.032   1.177   0.964  0.4183  0.4352  2.8353
 9342SOL     OW39658   4.472   0.944   6.591  0.3969  0.5062 -0.2476
 9342SOL    HW139659   4.390   0.986   6.617  0.3243  1.2587 -1.7021
 9342SOL    HW239660   4.444   0.884   6.522 -1.1463 -0.8590  1.5887
 9343SOL     OW39661   4.439   0.794   9.063  0.0815 -0.0597  0.7516
 9343SOL    HW139662   4.396   0.850   9.128 -1.5272  0.5396 -0.8536
 9343SOL    HW239663   4.378   0.723   9.048  1.3845 -1.3810  1.6162
 9344SOL     OW39664   0.411   0.350   9.163  0.3806 -0.3951  0.0388
 9344SOL    HW139665   0.469   0.373   9.090 -2.4301  0.7896 -1.8254
 9344SOL    HW239666   0.367   0.434   9.170  0.0329 -0.4559 -1.2711
 9345SOL     OW39667   0.786   3.505  11.236 -0.3795 -0.3877  0.4947
 9345SOL    HW139668   0.793   3.416  11.202  0.9099 -0.1144  0.0117
 9345SOL    HW239669   0.833   3.543  11.161 -0.9649 -0.7175 -0.0420
 9346SOL     OW39670   3.432   3.392  15.737  0.4275 -0.0706  0.4223
 9346SOL    HW139671   3.456   3.463  15.678  0.1688 -2.0877 -2.0783
 9346SOL    HW239672   3.348   3.362  15.704  1.2927 -0.0362 -1.8239
 9347SOL     OW39673   0.664   4.023   5.354  0.0624 -0.9565  0.2560
 9347SOL    HW139674   0.697   4.030   5.265 -0.1546  0.5354  0.2900
 9347SOL    HW239675   0.640   3.931   5.364 -1.9609 -0.4611 -0.0308
 9348SOL     OW39676   4.004   3.626   7.019  0.1403  0.0963 -0.5137
 9348SOL    HW139677   4.002   3.705   7.072 -0.0723  0.5959 -1.2642
 9348SOL    HW239678   3.914   3.593   7.028 -0.1286  1.1875  0.7099
 9349SOL     OW39679   0.463   4.244  11.735 -0.0168  0.0863 -0.4701
 9349SOL    HW139680   0.408   4.319  11.712  0.8674  0.8338 -0.1454
 9349SOL    HW239681   0.413   4.196  11.800 -1.0739  0.8045 -0.7429
 9350SOL     OW39682   1.127   4.458   5.798 -0.1037 -0.7829  0.1661
 9350SOL    HW139683   1.064   4.392   5.771 -0.5672  0.0024 -0.6869
 9350SOL    HW239684   1.080   4.535   5.766  2.5028  0.9151  0.4547
 9351SOL     OW39685   3.219   0.648   4.969 -0.1831 -0.3172  0.1266
 9351SOL    HW139686   3.173   0.726   4.998  2.2165  1.6430 -1.3372
 9351SOL    HW239687   3.310   0.676   4.977 -0.0991 -1.2420  2.5688
 9352SOL     OW39688   2.632   4.386   5.264  0.0695 -0.4024 -0.0982
 9352SOL    HW139689   2.589   4.358   5.344  1.8956 -1.2350  0.5754
 9352SOL    HW239690   2.581   4.337   5.200  0.9879 -0.7528 -0.5693
 9353SOL     OW39691   2.236   1.003   8.879  0.3335 -0.3341  0.4428
 9353SOL    HW139692   2.256   0.993   8.972  0.3032 -2.1832  0.2632
 9353SOL    HW239693   2.145   0.976   8.870  0.5730 -0.6171 -1.2674
 9354SOL     OW39694   3.199   3.515   2.457  0.3139 -0.7540  0.1929
 9354SOL    HW139695   3.253   3.443   2.490 -0.3550 -1.9958 -1.4343
 9354SOL    HW239696   3.244   3.592   2.492  3.6776 -1.6197 -2.2538
 9355SOL     OW39697   2.030   1.278   2.677  0.1071 -0.3733 -0.4452
 9355SOL    HW139698   1.965   1.344   2.652  0.2900 -0.8770 -2.2660
 9355SOL    HW239699   1.997   1.255   2.763 -1.3829 -2.6486 -1.6298
 9356SOL     OW39700   3.033   4.569   0.528 -0.0567 -0.2932 -0.1849
 9356SOL    HW139701   3.018   4.474   0.521  0.9167 -0.5558  1.3877
 9356SOL    HW239702   3.095   4.581   0.456  0.0473  2.1873  0.3409
 9357SOL     OW39703   2.551   0.856   2.157  0.5005 -0.0995  0.2404
 9357SOL    HW139704   2.481   0.921   2.151 -0.2776 -1.1248 -1.5112
 9357SOL    HW239705   2.570   0.850   2.251  1.5091 -3.0362 -0.1568
 9358SOL     OW39706   0.723   4.614   4.691  0.0823  0.2714 -0.6955
 9358SOL    HW139707   0.806   4.604   4.738  0.8052  2.4992 -1.5139
 9358SOL    HW239708   0.664   4.598   4.765  0.8685 -1.3260 -0.4113
 9359SOL     OW39709   2.193   2.096   0.671  0.3863 -0.2899  0.0106
 9359SOL    HW139710   2.268   2.148   0.643 -1.2987  0.8125 -2.4268
 9359SOL    HW239711   2.168   2.134   0.755  0.9262  2.4623 -1.0916
 9360SOL     OW39712   0.756   2.766   4.868  0.5478  0.1195 -0.0381
 9360SOL    HW139713   0.831   2.725   4.913 -0.6423 -1.1875  0.7397
 9360SOL    HW239714   0.715   2.807   4.944 -1.6345  0.3438 -1.3574
 9361SOL     OW39715   2.466   1.238   6.289 -0.4008 -0.5453 -0.0428
 9361SOL    HW139716   2.434   1.148   6.279  2.0552 -1.3851 -0.3047
 9361SOL    HW239717   2.532   1.230   6.357  0.3190  2.1872 -0.4251
 9362SOL     OW39718   1.762   2.425   8.893  0.2436 -0.1184 -1.1512
 9362SOL    HW139719   1.834   2.488   8.895 -1.0623  1.3217  0.4930
 9362SOL    HW239720   1.696   2.466   8.838 -0.5534 -0.5856 -0.5439
 9363SOL     OW39721   2.080   2.968  10.478  0.1568  0.6105  0.1911
 9363SOL    HW139722   2.172   2.957  10.455 -0.4928 -3.2808 -0.6423
 9363SOL    HW239723   2.075   3.060  10.501 -0.4904  0.7400 -0.4662
 9364SOL     OW39724   2.387   3.531  13.537  0.0306  0.1025 -0.1553
 9364SOL    HW139725   2.375   3.626  13.532 -0.1187 -0.0937 -3.2948
 9364SOL    HW239726   2.325   3.516  13.609 -1.3038  0.6987 -1.2024
 9365SOL     OW39727   4.115   2.398  17.120 -0.7577 -0.0583  0.2652
 9365SOL    HW139728   4.100   2.492  17.108 -2.8362 -0.6831 -2.0526
 9365SOL    HW239729   4.026   2.371  17.140 -1.0668  1.7158  1.2327
 9366SOL     OW39730   1.963   2.126   4.728 -0.0519 -0.2756  0.4004
 9366SOL    HW139731   1.960   2.030   4.725  0.4029 -0.2546 -0.7410
 9366SOL    HW239732   1.961   2.142   4.822  1.2676  0.3809  0.3085
 9367SOL     OW39733   3.430   2.480   1.206 -0.0854 -0.3865 -0.1543
 9367SOL    HW139734   3.464   2.567   1.185 -1.3088  0.4021  1.1516
 9367SOL    HW239735   3.500   2.451   1.264 -1.8190 -0.9581  1.6406
 9368SOL     OW39736   2.315   4.722   4.095 -0.6920  0.0410 -1.1461
 9368SOL    HW139737   2.239   0.018   4.141 -0.5119  1.1553 -1.7018
 9368SOL    HW239738   2.300   0.010   4.004  0.3671 -1.2271 -1.6951
 9369SOL     OW39739   1.861   0.572   6.447  0.6226 -0.2738  0.1952
 9369SOL    HW139740   1.931   0.623   6.488 -0.0303  1.3514 -0.7144
 9369SOL    HW239741   1.829   0.528   6.527  3.2376  1.4934  2.2065
 9370SOL     OW39742   3.653   2.232   9.757 -0.1162  0.1377 -0.0424
 9370SOL    HW139743   3.591   2.166   9.790  0.0249 -0.4351 -0.9141
 9370SOL    HW239744   3.720   2.175   9.718 -0.8208 -0.9735  0.3840
 9371SOL     OW39745   2.945   4.487  12.342 -0.3520 -0.0255 -0.0034
 9371SOL    HW139746   2.960   4.490  12.247  2.1871 -1.6115  0.3487
 9371SOL    HW239747   2.907   4.400  12.356 -0.7331 -0.2500 -2.4232
 9372SOL     OW39748   3.106   1.503   9.737  0.1687 -0.4036  0.1345
 9372SOL    HW139749   3.180   1.551   9.700 -1.6687  2.2205 -0.1155
 9372SOL    HW239750   3.147   1.433   9.787 -2.7912 -2.0931  0.2497
 9373SOL     OW39751   0.267   1.366   3.122  0.2396  0.3853  0.0976
 9373SOL    HW139752   0.252   1.273   3.107 -1.6219  0.6742  0.1219
 9373SOL    HW239753   0.349   1.360   3.171  0.3412 -0.8228 -0.2281
 9374SOL     OW39754   1.984   1.808   6.734  0.8690 -0.1264  0.1812
 9374SOL    HW139755   2.004   1.731   6.680  1.1337  1.5229 -2.0531
 9374SOL    HW239756   2.063   1.860   6.724  0.4590  0.1266 -1.7134
 9375SOL     OW39757   1.595   0.860   3.924 -0.4651  0.2285  0.1608
 9375SOL    HW139758   1.525   0.924   3.940 -1.3619 -0.1130 -2.4360
 9375SOL    HW239759   1.562   0.782   3.968 -1.3470 -0.7588 -2.2897
 9376SOL     OW39760   3.476   4.649   7.395  0.4170  0.3463  0.5368
 9376SOL    HW139761   3.430   4.678   7.317 -1.7325 -1.5395  1.1076
 9376SOL    HW239762   3.557   4.701   7.392 -0.6339  1.9526  0.0344
 9377SOL     OW39763   1.427   0.692  13.391 -0.0046  0.5946 -0.0624
 9377SOL    HW139764   1.350   0.636  13.381  1.0923 -0.8819 -0.3373
 9377SOL    HW239765   1.383   0.777  13.389  0.1695  0.7141  1.2149
 9378SOL     OW39766   1.507   3.941   9.616 -0.1750 -0.1433 -0.0206
 9378SOL    HW139767   1.429   3.974   9.570 -0.5180 -0.5845  0.2407
 9378SOL    HW239768   1.477   3.971   9.702  1.7331  0.0761  0.5493
 9379SOL     OW39769   2.521   3.068   7.091  0.0508 -0.9257 -0.2371
 9379SOL    HW139770   2.514   3.026   7.177 -1.4551  2.1778  1.1613
 9379SOL    HW239771   2.616   3.078   7.093 -0.2626  2.5637 -2.8495
 9380SOL     OW39772   1.404   2.022  17.223  0.1428 -0.0723  0.3447
 9380SOL    HW139773   1.445   1.936  17.236 -1.3896 -0.9760 -0.7946
 9380SOL    HW239774   1.327   2.031  17.280  0.4306 -0.0890  0.7390
 9381SOL     OW39775   0.894   0.114   7.771 -0.1231 -0.0001 -0.4189
 9381SOL    HW139776   0.886   0.158   7.687  0.2136 -0.2971 -0.6076
 9381SOL    HW239777   0.836   0.169   7.823  1.0107  3.5453 -2.9165
 9382SOL     OW39778   1.000   2.802   6.668 -0.2987 -0.0617 -0.1675
 9382SOL    HW139779   0.927   2.793   6.608 -0.9953 -0.6953  0.7694
 9382SOL    HW239780   0.963   2.868   6.726 -0.4117 -0.1428 -0.1473
 9383SOL     OW39781   3.659   4.157   3.154 -0.1577 -0.2175 -0.1382
 9383SOL    HW139782   3.732   4.109   3.116  1.9857  2.3944  0.6442
 9383SOL    HW239783   3.670   4.148   3.249  0.1428  2.6672  0.1088
 9384SOL     OW39784   0.357   1.528   6.565  0.1849  0.2429  0.4983
 9384SOL    HW139785   0.281   1.508   6.510 -0.5003 -0.3300  1.6514
 9384SOL    HW239786   0.353   1.452   6.623  1.7416  0.8223  1.3488
 9385SOL     OW39787   3.740   0.672   3.495 -0.4289 -0.7089  0.2477
 9385SOL    HW139788   3.794   0.593   3.506 -0.0038 -0.6293 -1.2181
 9385SOL    HW239789   3.773   0.699   3.409  1.7499  0.0369  1.3186
 9386SOL     OW39790   1.874   1.037   8.167 -0.5376 -0.8345 -0.0975
 9386SOL    HW139791   1.831   1.054   8.251 -0.9006 -0.2017 -0.4083
 9386SOL    HW239792   1.886   1.129   8.144  1.7912 -0.8855  1.0285
 9387SOL     OW39793   4.203   0.696  13.423 -0.4755  0.9486 -0.1085
 9387SOL    HW139794   4.238   0.612  13.452 -0.1471  1.5778  1.3290
 9387SOL    HW239795   4.234   0.701  13.333 -0.3468  0.2593 -0.0970
 9388SOL     OW39796   0.704   2.204  10.413 -0.7008 -0.4116 -0.0769
 9388SOL    HW139797   0.738   2.286  10.448  0.3928 -1.1300  0.5473
 9388SOL    HW239798   0.700   2.145  10.489 -0.1801  0.4409  0.6069
 9389SOL     OW39799   0.876   2.238   7.002 -0.3656  0.1837 -0.2573
 9389SOL    HW139800   0.858   2.268   6.912 -0.7768  1.8816  0.3987
 9389SOL    HW239801   0.925   2.316   7.029 -0.9696 -0.8172  3.6490
 9390SOL     OW39802   3.776   2.490   1.885  0.8066  0.4000  0.1473
 9390SOL    HW139803   3.852   2.431   1.881 -0.3877 -0.9791 -1.8554
 9390SOL    HW239804   3.816   2.570   1.920 -1.2658  1.1887  0.6931
 9391SOL     OW39805   3.102   4.108  10.216 -0.2781  0.3368  0.4036
 9391SOL    HW139806   3.073   4.087  10.127 -2.4543 -1.5434  1.5144
 9391SOL    HW239807   3.051   4.043  10.265  0.4192  1.0349  2.0619
 9392SOL     OW39808   1.503   4.480   8.043  0.0384  0.2341 -0.5911
 9392SOL    HW139809   1.578   4.510   8.094  0.7224 -1.4259 -0.6166
 9392SOL    HW239810   1.465   4.422   8.110  2.5582  0.6846  1.2358
 9393SOL     OW39811   1.627   2.451   0.363  0.8771  0.0875 -0.3196
 9393SOL    HW139812   1.629   2.358   0.339  0.2670  0.9630 -3.7720
 9393SOL    HW239813   1.681   2.449   0.441  2.4350 -1.5788 -1.4344
 9394SOL     OW39814   2.579   3.845  15.849  0.4020  0.1936  0.3512
 9394SOL    HW139815   2.605   3.754  15.862  1.5545  0.5580  0.6429
 9394SOL    HW239816   2.518   3.863  15.921 -1.4517  0.8085 -1.3789
 9395SOL     OW39817   3.614   2.518   5.366  0.1268 -0.1392  0.5474
 9395SOL    HW139818   3.592   2.599   5.320  1.4670 -0.3077 -0.3848
 9395SOL    HW239819   3.666   2.478   5.297  0.1368  2.3403 -0.8455
 9396SOL     OW39820   0.795   2.193  13.086 -0.0169  0.0392  0.5588
 9396SOL    HW139821   0.767   2.275  13.125 -4.0063 -1.6654  1.2866
 9396SOL    HW239822   0.884   2.185  13.120 -0.0874 -0.5936  0.5955
 9397SOL     OW39823   3.546   2.274   1.531 -0.1695  0.0595  0.6325
 9397SOL    HW139824   3.607   2.328   1.480  0.9498 -1.5334  0.2887
 9397SOL    HW239825   3.575   2.282   1.621 -0.5145 -0.7577  0.8104
 9398SOL     OW39826   2.105   1.755   2.704  0.0025 -0.3445 -0.4466
 9398SOL    HW139827   2.178   1.813   2.730 -1.3454  1.6853 -1.1760
 9398SOL    HW239828   2.080   1.715   2.787  0.6032  1.9469  0.8712
 9399SOL     OW39829   3.793   0.102  13.584 -0.0836  0.0377  0.3448
 9399SOL    HW139830   3.704   0.083  13.553  0.2711 -1.0108 -0.0314
 9399SOL    HW239831   3.817   0.036  13.648  0.9001  1.0818  1.0617
 9400SOL     OW39832   4.228   0.388   8.913 -0.0604  0.1736  0.1801
 9400SOL    HW139833   4.291   0.324   8.879 -0.8111 -0.1000 -0.7052
 9400SOL    HW239834   4.177   0.333   8.972  1.8317 -0.3474  1.3324
 9401SOL     OW39835   3.308   3.886  14.288  0.2564  0.0545  0.1704
 9401SOL    HW139836   3.316   3.981  14.295  0.0367 -0.0824  2.2861
 9401SOL    HW239837   3.306   3.878  14.383 -3.5774  0.3733  0.1162
 9402SOL     OW39838   0.364   3.531   6.148  0.4567  0.4957 -0.3040
 9402SOL    HW139839   0.368   3.500   6.057 -0.8717  1.8684 -0.8368
 9402SOL    HW239840   0.275   3.566   6.157  1.0727  1.5438  1.5781
 9403SOL     OW39841   4.291   4.099   3.183  0.0433 -0.5679 -0.2547
 9403SOL    HW139842   4.343   4.028   3.144  0.1670  0.2149 -1.5293
 9403SOL    HW239843   4.327   4.176   3.140 -0.7502 -0.3471 -0.5162
 9404SOL     OW39844   0.514   1.154   7.258 -0.4506 -0.0384 -0.2840
 9404SOL    HW139845   0.499   1.243   7.226  1.2339  1.1996  2.4103
 9404SOL    HW239846   0.440   1.106   7.221  0.9263 -0.8249 -2.0378
 9405SOL     OW39847   0.188   1.540   4.832 -1.4799 -0.0720 -0.2476
 9405SOL    HW139848   0.243   1.541   4.911  0.7379  1.5608 -1.8381
 9405SOL    HW239849   0.138   1.619   4.851 -0.2530 -0.1269  3.2286
 9406SOL     OW39850   0.742   4.009   6.920 -0.3775 -0.0826 -0.2879
 9406SOL    HW139851   0.708   3.950   6.987  1.7215 -2.0367 -0.9583
 9406SOL    HW239852   0.727   3.949   6.846 -0.1472  2.5742 -2.5113
 9407SOL     OW39853   3.642   3.394  12.760 -0.2157 -0.4634  0.2825
 9407SOL    HW139854   3.726   3.374  12.720 -0.2074  1.5004 -0.7016
 9407SOL    HW239855   3.645   3.487  12.738  0.9913 -0.1771  1.6615
 9408SOL     OW39856   4.144   3.646  16.482  0.3912  0.3334 -0.2733
 9408SOL    HW139857   4.183   3.589  16.416 -0.6922 -0.9070  0.1573
 9408SOL    HW239858   4.113   3.590  16.553 -1.5022  1.9083  0.1318
 9409SOL     OW39859   4.045   2.439  15.197  0.4773  0.5940  0.0256
 9409SOL    HW139860   3.999   2.365  15.236 -0.3152  0.0071 -2.0137
 9409SOL    HW239861   3.974   2.485  15.153 -0.7985  0.8989  2.4143
 9410SOL     OW39862   3.093   3.356  14.270  0.1397  0.6455  0.2074
 9410SOL    HW139863   3.129   3.444  14.256  1.8066  0.6330  4.2708
 9410SOL    HW239864   3.171   3.305  14.249  0.0944 -0.0435  1.7312
 9411SOL     OW39865   0.183   3.115   4.010 -0.0839 -0.4924 -0.5672
 9411SOL    HW139866   0.158   3.206   4.023  0.6074 -0.2571 -0.8670
 9411SOL    HW239867   0.142   3.066   4.081  0.7554  1.9176  1.5953
 9412SOL     OW39868   1.965   2.969   3.659  0.3922  0.0019  0.6193
 9412SOL    HW139869   2.058   2.948   3.653 -0.0176 -2.0356  1.2887
 9412SOL    HW239870   1.956   3.033   3.589 -3.0144  0.9060  1.8886
 9413SOL     OW39871   3.419   3.851  11.967 -0.4867  0.0203 -0.3953
 9413SOL    HW139872   3.513   3.860  11.949 -0.1942  0.7890  1.5321
 9413SOL    HW239873   3.401   3.768  12.011  0.6725 -0.9080 -1.6921
 9414SOL     OW39874   2.249   0.311   2.074 -0.0398 -0.0708  0.0087
 9414SOL    HW139875   2.317   0.291   2.010 -0.1827 -1.6603  0.3718
 9414SOL    HW239876   2.225   0.222   2.099 -1.0727  0.5692  1.3286
 9415SOL     OW39877   2.754   1.414   6.435 -0.0555  0.0501 -0.4497
 9415SOL    HW139878   2.713   1.328   6.437  1.7728 -0.7826  0.4645
 9415SOL    HW239879   2.738   1.449   6.523  2.6298 -0.6680  0.2972
 9416SOL     OW39880   0.737   1.371   4.619  0.5273  0.2023  0.6839
 9416SOL    HW139881   0.668   1.313   4.653  0.6471  0.4085  1.2638
 9416SOL    HW239882   0.775   1.317   4.550  0.6489  1.6594 -0.3865
 9417SOL     OW39883   1.787   3.142   1.658  0.5028 -0.0180  0.0719
 9417SOL    HW139884   1.818   3.169   1.745 -2.2437 -0.2112  1.1196
 9417SOL    HW239885   1.820   3.052   1.665 -0.6224 -0.6732 -3.3799
 9418SOL     OW39886   0.493   0.871   4.727 -0.4978  0.8322 -0.4506
 9418SOL    HW139887   0.514   0.957   4.691  0.2189  0.7589 -0.1964
 9418SOL    HW239888   0.498   0.873   4.822  0.1817 -0.0751 -0.4711
 9419SOL     OW39889   3.625   3.605   2.869  0.0754  0.5704 -0.3871
 9419SOL    HW139890   3.672   3.540   2.920  1.0707  0.9201 -0.8612
 9419SOL    HW239891   3.549   3.613   2.926  1.8404  1.8645  1.7650
 9420SOL     OW39892   1.395   0.259  11.479  0.6122 -0.4951 -0.3475
 9420SOL    HW139893   1.414   0.261  11.385 -1.3851 -1.0048 -0.7701
 9420SOL    HW239894   1.328   0.191  11.484  1.5241 -1.3743 -0.3286
 9421SOL     OW39895   2.674   0.561   6.032  0.3745 -0.8366  0.2843
 9421SOL    HW139896   2.666   0.505   6.109 -1.5785 -1.1137 -0.1175
 9421SOL    HW239897   2.623   0.638   6.059  0.7028 -1.3686  2.4663
 9422SOL     OW39898   4.340   2.207   7.234  0.1279  0.1682  0.0283
 9422SOL    HW139899   4.412   2.269   7.249 -1.1383  1.5854  0.2747
 9422SOL    HW239900   4.381   2.126   7.204  0.1332  0.2180 -0.1014
 9423SOL     OW39901   3.534   2.916   3.671 -0.0383 -0.3114  0.3582
 9423SOL    HW139902   3.456   2.861   3.672 -0.1228 -0.1894  0.4393
 9423SOL    HW239903   3.599   2.851   3.642 -0.8437 -0.4108 -1.1947
 9424SOL     OW39904   3.752   1.099   7.400 -0.1414 -0.8035 -0.0040
 9424SOL    HW139905   3.799   1.069   7.323  0.3299  0.8212 -0.3499
 9424SOL    HW239906   3.659   1.091   7.382 -0.2186  0.1390 -0.0330
 9425SOL     OW39907   3.503   0.318   5.854  0.0483 -0.1523  0.4345
 9425SOL    HW139908   3.550   0.299   5.935 -1.4601  1.2218  1.6335
 9425SOL    HW239909   3.504   0.235   5.806  0.3706 -1.5303  2.8720
 9426SOL     OW39910   0.888   3.877   3.126  0.1747  0.3349 -0.1291
 9426SOL    HW139911   0.853   3.823   3.197  2.2923 -1.9986 -0.8710
 9426SOL    HW239912   0.834   3.952   3.153  2.3104  0.9914  2.3086
 9427SOL     OW39913   1.839   1.274   5.755  0.1507  0.3207  0.7616
 9427SOL    HW139914   1.846   1.295   5.662 -2.0182 -0.0975  0.5257
 9427SOL    HW239915   1.847   1.179   5.744 -0.8136  0.3250  0.0045
 9428SOL     OW39916   3.348   0.819   8.121  0.5365  0.1378  0.0087
 9428SOL    HW139917   3.367   0.912   8.107  0.4127  0.0957 -0.4727
 9428SOL    HW239918   3.262   0.821   8.164  0.0570 -0.9164 -0.9076
 9429SOL     OW39919   0.883   2.037   8.589  0.3499 -0.2193 -0.4509
 9429SOL    HW139920   0.804   2.090   8.584  1.0325  0.6304 -2.0244
 9429SOL    HW239921   0.867   1.988   8.508  1.8395  0.1441 -0.9625
 9430SOL     OW39922   3.632   1.167   8.322 -0.0762  0.0377  0.4612
 9430SOL    HW139923   3.657   1.260   8.327 -1.5486  0.4326  0.7464
 9430SOL    HW239924   3.702   1.121   8.367  2.8116  2.0679 -1.9396
 9431SOL     OW39925   4.589   2.760  12.231  0.1061  0.8902 -0.1320
 9431SOL    HW139926   4.684   2.764  12.241 -0.1512  1.9930  1.8222
 9431SOL    HW239927   4.579   2.733  12.139  0.9922  0.7713 -0.1868
 9432SOL     OW39928   3.014   3.140   4.599  0.5882  0.2133 -0.1411
 9432SOL    HW139929   3.071   3.123   4.523  2.5221 -0.1563  1.4009
 9432SOL    HW239930   2.933   3.155   4.551  0.4772  2.9288  0.8787
 9433SOL     OW39931   1.902   1.521   4.863  0.3113  0.2469  0.3669
 9433SOL    HW139932   1.843   1.536   4.936  0.0479  2.7062 -0.3600
 9433SOL    HW239933   1.856   1.546   4.783  1.0574  0.2449 -0.0674
 9434SOL     OW39934   3.958   2.398   3.371  0.5363 -0.1586  0.1658
 9434SOL    HW139935   3.977   2.384   3.279  0.9585 -1.6795  0.4666
 9434SOL    HW239936   4.040   2.364   3.409  0.6510 -0.7308 -0.5893
 9435SOL     OW39937   4.104   0.731  15.024  0.9509  0.2609  0.0379
 9435SOL    HW139938   4.157   0.789  14.970 -1.2939  2.8368  0.6124
 9435SOL    HW239939   4.166   0.661  15.045 -0.7209 -1.3871 -0.4890
 9436SOL     OW39940   4.538   1.281  14.412  0.1154 -0.0341  0.2849
 9436SOL    HW139941   4.495   1.270  14.497  0.5170 -1.1759  0.3440
 9436SOL    HW239942   4.481   1.342  14.366 -2.0492 -1.0427  1.6308
 9437SOL     OW39943   0.950   0.683   6.618  0.0914 -0.7248  0.3591
 9437SOL    HW139944   1.004   0.607   6.641  3.1788  1.8198  1.5221
 9437SOL    HW239945   0.965   0.741   6.693  1.5094 -0.2802 -0.2653
 9438SOL     OW39946   3.945   3.073   1.628 -0.7170  0.0470  0.3261
 9438SOL    HW139947   3.946   2.987   1.586  0.8019 -0.0333  0.5373
 9438SOL    HW239948   3.930   3.140   1.561 -2.0075  1.2826  1.8665
 9439SOL     OW39949   0.659   4.699   1.169  0.5309 -0.4715 -0.8682
 9439SOL    HW139950   0.712   0.000   1.238 -1.0512 -0.3746  0.2942
 9439SOL    HW239951   0.572   4.735   1.190  0.1424 -2.9133  1.6921
 9440SOL     OW39952   3.805   3.580   3.978 -0.4771 -0.1535 -0.1639
 9440SOL    HW139953   3.859   3.623   3.912  0.2742 -0.4958  0.2237
 9440SOL    HW239954   3.747   3.540   3.912 -0.1116 -0.2028 -0.4561
 9441SOL     OW39955   0.846   3.013   8.660 -0.1232 -0.3478 -0.1516
 9441SOL    HW139956   0.846   2.961   8.580 -0.6955 -0.6208  0.0293
 9441SOL    HW239957   0.940   3.032   8.666 -0.0493 -0.8602  0.2877
 9442SOL     OW39958   2.026   2.387   0.303 -0.8910  0.2395 -0.9038
 9442SOL    HW139959   1.975   2.405   0.381 -2.2224 -0.6545 -1.5566
 9442SOL    HW239960   1.968   2.413   0.231 -2.2734 -0.4512 -0.0387
 9443SOL     OW39961   1.715   4.266  10.261 -0.0802  0.1690  0.1185
 9443SOL    HW139962   1.757   4.183  10.285 -0.5295  0.2225  1.1147
 9443SOL    HW239963   1.788   4.321  10.289 -0.7022  1.0901 -0.0458
 9444SOL     OW39964   2.678   1.824  13.742  0.0893 -0.1651 -0.5878
 9444SOL    HW139965   2.706   1.816  13.833 -2.2629  1.6971  0.3040
 9444SOL    HW239966   2.583   1.815  13.745 -0.1120  2.5456  0.9474
 9445SOL     OW39967   3.251   4.212   5.734  0.0428 -0.6606 -0.0975
 9445SOL    HW139968   3.214   4.198   5.820 -2.0365 -3.0023 -1.3868
 9445SOL    HW239969   3.231   4.304   5.714 -1.0135 -0.7202  0.7250
 9446SOL     OW39970   2.016   1.703   2.988  0.1764 -0.1100 -0.2793
 9446SOL    HW139971   2.074   1.691   3.063  2.3387  0.5210 -1.8320
 9446SOL    HW239972   1.986   1.793   3.006  1.3571 -0.3013  2.6278
 9447SOL     OW39973   2.340   3.693   8.658 -0.4332 -0.3268  0.3126
 9447SOL    HW139974   2.434   3.677   8.654 -0.3584 -0.4592  2.5351
 9447SOL    HW239975   2.300   3.606   8.664  0.6579 -0.7750  1.0296
 9448SOL     OW39976   1.371   0.843   3.627  0.1459 -0.2125 -0.0879
 9448SOL    HW139977   1.386   0.759   3.669  0.1351 -0.6713 -0.9923
 9448SOL    HW239978   1.421   0.833   3.545  1.0100  0.2888  0.3747
 9449SOL     OW39979   4.084   0.415   9.259 -0.2999 -0.3891  0.0334
 9449SOL    HW139980   3.992   0.423   9.282 -0.5824 -1.0882 -0.8656
 9449SOL    HW239981   4.084   0.340   9.200 -0.7511 -1.0260  0.8268
 9450SOL     OW39982   4.652   0.166   5.347  0.4246  0.2423  0.1150
 9450SOL    HW139983   4.617   0.214   5.422  1.9400  1.5182 -0.0004
 9450SOL    HW239984   4.738   0.139   5.380  0.1816 -1.7017 -0.8311
 9451SOL     OW39985   1.068   4.091   5.802  0.0437  0.4005  0.1237
 9451SOL    HW139986   1.032   4.128   5.720 -0.4676  0.8852  0.5630
 9451SOL    HW239987   1.155   4.131   5.800  0.0759  0.3693  1.1607
 9452SOL     OW39988   3.672   4.132   8.867  0.2153 -0.0327 -0.0286
 9452SOL    HW139989   3.745   4.151   8.925 -0.5734  1.2274  0.5572
 9452SOL    HW239990   3.658   4.038   8.875 -0.6599  0.2125  1.3263
 9453SOL     OW39991   2.189   4.497   7.092  0.7031  0.2305  0.4020
 9453SOL    HW139992   2.265   4.438   7.085 -0.1225 -0.9879  1.8325
 9453SOL    HW239993   2.198   4.531   7.181 -0.1973 -1.1639  1.0200
 9454SOL     OW39994   2.618   2.138   4.400 -0.4135 -0.4805 -0.1524
 9454SOL    HW139995   2.602   2.214   4.345 -1.6206 -0.6554 -0.0327
 9454SOL    HW239996   2.587   2.173   4.484  2.5529 -0.0006  0.7531
 9455SOL     OW39997   1.927   0.326   7.782 -0.4862 -0.3883  0.4273
 9455SOL    HW139998   1.920   0.346   7.875  0.3969  2.8162 -0.1856
 9455SOL    HW239999   1.884   0.241   7.778 -0.1134 -0.5320 -0.5455
 9456SOL     OW40000   2.441   2.260   0.716 -0.0621 -0.7948  0.1666
 9456SOL    HW140001   2.481   2.300   0.793 -1.9097  0.7119  0.3209
 9456SOL    HW240002   2.484   2.175   0.703  1.3567 -0.0527 -0.0289
 9457SOL     OW40003   2.018   3.755   2.504 -0.1943 -0.1267 -0.0992
 9457SOL    HW140004   1.997   3.824   2.567  0.6842 -0.9416  1.0835
 9457SOL    HW240005   2.016   3.808   2.424  1.2862 -1.3379 -0.9298
 9458SOL     OW40006   4.327   4.305   6.785 -0.3214 -0.3112 -0.1942
 9458SOL    HW140007   4.295   4.247   6.855  0.8732  0.5780  1.0978
 9458SOL    HW240008   4.413   4.315   6.827 -0.0770 -0.5522 -0.6313
 9459SOL     OW40009   1.926   2.328   2.886  0.1605 -0.0258  0.3712
 9459SOL    HW140010   1.985   2.390   2.930 -0.2426  1.7932 -1.6501
 9459SOL    HW240011   1.836   2.353   2.910  0.1210 -0.5234  0.7491
 9460SOL     OW40012   1.175   1.046   8.830  0.1919  0.1744  0.2516
 9460SOL    HW140013   1.223   1.092   8.760  1.1498 -0.1191  0.7172
 9460SOL    HW240014   1.087   1.049   8.792 -0.3214  1.9832  1.5402
 9461SOL     OW40015   3.248   1.718   2.054 -0.1004 -0.7338 -0.2012
 9461SOL    HW140016   3.168   1.688   2.097 -0.4817 -0.9943 -1.0851
 9461SOL    HW240017   3.215   1.799   2.014  3.1259  0.9650  0.5903
 9462SOL     OW40018   3.388   2.778   2.018 -0.1282  0.2349  0.2449
 9462SOL    HW140019   3.463   2.786   1.959  3.0610  0.9387  4.4499
 9462SOL    HW240020   3.422   2.731   2.094  1.0785  1.6554  0.5695
 9463SOL     OW40021   2.628   3.966   8.798  0.2027  0.2198  0.2562
 9463SOL    HW140022   2.606   3.883   8.755 -1.5723  0.6001  0.4211
 9463SOL    HW240023   2.719   3.946   8.819  0.8175  3.4392  0.6866
 9464SOL     OW40024   4.214   0.513  16.811 -0.4204 -0.2238 -0.3257
 9464SOL    HW140025   4.202   0.602  16.844 -0.1651  0.2322 -1.4844
 9464SOL    HW240026   4.123   0.494  16.788  0.0212  1.4119 -3.3256
 9465SOL     OW40027   1.127   2.985  15.256  0.0377 -0.0126 -0.4503
 9465SOL    HW140028   1.177   3.055  15.299  1.5665 -0.3240 -1.7131
 9465SOL    HW240029   1.134   2.910  15.315  0.0677  1.5466  1.5456
 9466SOL     OW40030   1.092   0.482   4.572 -0.2264 -0.5491  0.0816
 9466SOL    HW140031   1.075   0.441   4.657 -0.0117 -0.3117  0.2364
 9466SOL    HW240032   1.015   0.467   4.517  0.7425  0.3498 -1.5146
 9467SOL     OW40033   1.279   2.560   6.132 -0.3196  0.3593 -0.7526
 9467SOL    HW140034   1.205   2.604   6.172 -1.1734  2.2238 -4.3670
 9467SOL    HW240035   1.318   2.526   6.212  0.5851  1.8458 -0.5763
 9468SOL     OW40036   2.596   3.592   0.303 -0.4147 -0.3470  0.1849
 9468SOL    HW140037   2.574   3.657   0.235  1.4389  0.2440  0.1701
 9468SOL    HW240038   2.653   3.538   0.249  1.2895 -1.0875  2.7444
 9469SOL     OW40039   4.275   3.450   4.392 -0.4120  0.8844  0.0426
 9469SOL    HW140040   4.181   3.440   4.380 -0.3647  0.4578  0.0475
 9469SOL    HW240041   4.287   3.467   4.486 -0.0222 -0.0538  0.1665
 9470SOL     OW40042   1.678   1.745   2.113 -0.4011  0.1632 -0.4232
 9470SOL    HW140043   1.592   1.784   2.129 -0.1738  0.8461 -0.8284
 9470SOL    HW240044   1.675   1.709   2.024  2.3108 -0.6121 -0.2146
 9471SOL     OW40045   2.379   1.293   7.194  0.0450  0.0251 -0.6125
 9471SOL    HW140046   2.448   1.344   7.153  0.3699 -0.6034 -0.8473
 9471SOL    HW240047   2.357   1.337   7.276 -0.5706  0.0030 -0.7614
 9472SOL     OW40048   1.775   0.763   5.626  0.4339 -0.0180 -0.4264
 9472SOL    HW140049   1.793   0.705   5.552 -2.3105 -1.7574  0.2714
 9472SOL    HW240050   1.849   0.745   5.684 -2.2183 -1.9927  2.3242
 9473SOL     OW40051   1.016   3.749   9.534 -0.1868 -0.0062 -0.0253
 9473SOL    HW140052   1.023   3.844   9.540 -1.1675 -0.1302  3.0720
 9473SOL    HW240053   0.930   3.738   9.492 -0.1445 -2.1342  0.4222
 9474SOL     OW40054   0.944   2.084   9.188 -0.1127 -0.7769 -0.3676
 9474SOL    HW140055   0.954   2.051   9.099 -2.4760 -1.4327 -0.3933
 9474SOL    HW240056   0.850   2.098   9.172 -0.0301  1.8654  1.4641
 9475SOL     OW40057   2.253   1.164   5.905  0.3048  0.3103  0.4413
 9475SOL    HW140058   2.193   1.235   5.881  0.8536 -0.0518 -2.0375
 9475SOL    HW240059   2.188   1.097   5.924  1.8812 -0.3950  3.3396
 9476SOL     OW40060   4.436   0.914  14.544  0.0912 -0.5293 -0.1107
 9476SOL    HW140061   4.439   1.006  14.569 -1.8921 -0.6668  0.6047
 9476SOL    HW240062   4.493   0.890  14.617  0.1329  2.1585  0.7499
 9477SOL     OW40063   3.893   3.178   8.010 -0.4201 -0.3912  0.5315
 9477SOL    HW140064   3.886   3.115   7.938 -0.3473 -0.9993  1.0582
 9477SOL    HW240065   3.948   3.135   8.076  2.0408  2.6094  0.4437
 9478SOL     OW40066   0.673   1.898  11.287  0.0119  0.3219 -0.5726
 9478SOL    HW140067   0.605   1.955  11.251  0.2242  1.1932  0.4097
 9478SOL    HW240068   0.634   1.885  11.373  0.6680 -1.2072 -0.5215
 9479SOL     OW40069   2.515   0.507  16.242  0.2362  0.2329  1.1186
 9479SOL    HW140070   2.469   0.436  16.287 -1.1770 -0.0146 -0.7395
 9479SOL    HW240071   2.500   0.573  16.310 -0.4963 -0.8181  1.9748
 9480SOL     OW40072   1.146   4.099   6.656  0.2389 -0.0825 -0.7574
 9480SOL    HW140073   1.192   4.040   6.715 -2.2448  0.3321  1.5645
 9480SOL    HW240074   1.216   4.147   6.614  0.0881  0.9464  0.1858
 9481SOL     OW40075   0.669   0.082   8.693 -0.2225  0.2567 -0.9574
 9481SOL    HW140076   0.634   0.065   8.781  1.3989 -2.4977 -0.8463
 9481SOL    HW240077   0.760   0.086   8.721  0.4071 -1.6935 -2.7551
 9482SOL     OW40078   3.656   1.567   3.689  0.4997 -0.2902  0.4593
 9482SOL    HW140079   3.659   1.490   3.633  0.9551 -0.0936  0.2120
 9482SOL    HW240080   3.564   1.559   3.717  0.8872  3.4253  2.9070
 9483SOL     OW40081   3.667   4.636   8.005 -0.0708  0.0273  0.4041
 9483SOL    HW140082   3.664   4.541   8.016 -1.7170  0.2002  1.3394
 9483SOL    HW240083   3.574   4.656   7.997  0.0721  0.0200 -1.2057
 9484SOL     OW40084   4.266   3.277   2.115  0.1167  0.1915  0.2891
 9484SOL    HW140085   4.190   3.222   2.135  1.0664 -0.5259  1.9184
 9484SOL    HW240086   4.335   3.214   2.094  1.0758  0.8593  1.4270
 9485SOL     OW40087   4.716   1.952   7.551  0.0139 -0.6869  0.5186
 9485SOL    HW140088   0.036   1.971   7.624 -0.9074  1.5678  0.6590
 9485SOL    HW240089   0.022   1.873   7.521 -1.3175 -2.6895  3.7636
 9486SOL     OW40090   1.588   1.389  13.687  0.0538  0.2240 -0.0174
 9486SOL    HW140091   1.584   1.317  13.625  0.1272 -0.6758  1.0338
 9486SOL    HW240092   1.514   1.446  13.666  1.6422  1.8820 -1.1159
 9487SOL     OW40093   0.605   3.622   9.060  0.0603  0.4356 -0.1380
 9487SOL    HW140094   0.614   3.575   8.977 -2.5751  0.5518 -0.4877
 9487SOL    HW240095   0.647   3.558   9.117  0.4411  0.7023 -0.1205
 9488SOL     OW40096   3.154   2.631  10.868 -0.2996  0.3945  0.1273
 9488SOL    HW140097   3.173   2.541  10.845  1.3191  1.1281 -1.3872
 9488SOL    HW240098   3.065   2.638  10.832 -0.6232  1.0844  1.0637
 9489SOL     OW40099   1.063   4.428  15.746  0.0955 -0.1235  0.3040
 9489SOL    HW140100   1.142   4.373  15.749  0.6121  0.5546 -1.3002
 9489SOL    HW240101   1.043   4.422  15.653  0.4634  0.1655  0.2071
 9490SOL     OW40102   1.768   1.653   1.843 -0.3368  0.1258  0.0117
 9490SOL    HW140103   1.770   1.557   1.847  3.4211  0.2238  0.6270
 9490SOL    HW240104   1.780   1.671   1.750  1.6123  0.4884  0.3484
 9491SOL     OW40105   1.827   2.366  15.702  0.6847 -0.1113  0.5261
 9491SOL    HW140106   1.821   2.368  15.797 -0.4371  3.6792  0.3972
 9491SOL    HW240107   1.743   2.326  15.681 -0.7912  3.0012  0.4062
 9492SOL     OW40108   1.949   1.220   1.559 -0.1458  0.4765  0.0710
 9492SOL    HW140109   1.879   1.173   1.604  2.0909 -0.8394  2.1673
 9492SOL    HW240110   2.022   1.159   1.572 -0.8913  0.2633  3.2857
 9493SOL     OW40111   3.505   0.973   7.733 -0.4149 -0.3277  0.2349
 9493SOL    HW140112   3.519   0.879   7.720  0.2270 -0.0703 -0.9618
 9493SOL    HW240113   3.588   1.021   7.729  0.6767 -2.0945  1.5311
 9494SOL     OW40114   3.339   2.230   0.845 -0.0634  0.1951  0.4485
 9494SOL    HW140115   3.245   2.213   0.848  0.2051 -1.2551  0.5067
 9494SOL    HW240116   3.371   2.163   0.906  0.5395  2.3837  2.5569
 9495SOL     OW40117   2.889   3.827   2.292  0.1251 -0.6216 -0.9275
 9495SOL    HW140118   2.941   3.906   2.310 -0.8590 -0.3254  0.6736
 9495SOL    HW240119   2.909   3.780   2.373  0.0709  3.2496  1.3656
 9496SOL     OW40120   3.122   3.481   5.959 -0.2057 -0.3777 -0.6076
 9496SOL    HW140121   3.107   3.388   5.944 -0.9618 -0.5103  0.9789
 9496SOL    HW240122   3.072   3.516   5.885 -0.8174  1.2962  0.6143
 9497SOL     OW40123   0.196   1.159  14.186 -0.7435 -0.3608  0.0730
 9497SOL    HW140124   0.113   1.130  14.149 -0.9886 -2.6044  2.3870
 9497SOL    HW240125   0.218   1.206  14.106  0.8734 -0.1024  0.6715
 9498SOL     OW40126   0.951   4.527   0.321 -0.2939  0.0671  0.0005
 9498SOL    HW140127   0.870   4.555   0.364  0.3722  2.2200 -0.1470
 9498SOL    HW240128   0.919   4.489   0.240 -0.1423  0.3091 -0.1706
 9499SOL     OW40129   1.943   3.593   2.155  0.3221  0.3471 -0.5448
 9499SOL    HW140130   1.975   3.524   2.213 -0.9581  1.1736  1.1153
 9499SOL    HW240131   1.861   3.613   2.200 -0.2054 -2.1451 -0.3970
 9500SOL     OW40132   3.622   1.176  10.782 -0.0198  0.2102 -0.3292
 9500SOL    HW140133   3.654   1.262  10.808 -1.4353  0.1105  1.7888
 9500SOL    HW240134   3.528   1.194  10.777 -0.6519 -2.0853  2.8324
 9501SOL     OW40135   2.807   3.999   1.565 -0.7728  0.5573  0.5813
 9501SOL    HW140136   2.783   3.948   1.642 -2.4316 -0.7800 -0.8389
 9501SOL    HW240137   2.881   3.948   1.532  0.1285  2.7434 -0.7833
 9502SOL     OW40138   2.413   2.871   6.158  0.1133  0.3590  0.6864
 9502SOL    HW140139   2.408   2.869   6.254 -1.2301 -3.6807  0.5453
 9502SOL    HW240140   2.406   2.776   6.147  2.3928  0.1682  0.7649
 9503SOL     OW40141   3.189   0.751  16.175  0.4405 -0.0939 -0.5887
 9503SOL    HW140142   3.182   0.802  16.094  1.0069 -1.3102 -1.4191
 9503SOL    HW240143   3.269   0.705  16.149 -0.1897 -1.6754  0.2896
 9504SOL     OW40144   1.287   4.519   3.407  0.1620  0.7579 -0.3552
 9504SOL    HW140145   1.242   4.580   3.348 -0.5446 -0.1253 -0.7291
 9504SOL    HW240146   1.301   4.442   3.351  1.2923  2.1342 -1.9722
 9505SOL     OW40147   3.123   4.441   5.594 -0.6850 -0.1727  0.2313
 9505SOL    HW140148   3.110   4.390   5.514  1.2444 -1.0675  0.4806
 9505SOL    HW240149   3.068   4.518   5.579 -1.1867 -0.5888 -0.0775
 9506SOL     OW40150   2.224   2.343   8.185 -0.4610 -0.2612 -0.2348
 9506SOL    HW140151   2.203   2.292   8.264 -0.2516  1.1168  0.7175
 9506SOL    HW240152   2.200   2.431   8.213  1.3475 -0.4932  2.0953
 9507SOL     OW40153   4.285   1.118  13.634 -0.2167 -0.3851  0.3954
 9507SOL    HW140154   4.370   1.075  13.638  0.2941  0.3030 -3.5979
 9507SOL    HW240155   4.230   1.042  13.653  0.4651 -1.2921 -1.3351
 9508SOL     OW40156   3.902   3.153  16.074 -0.0132  0.0646  0.4059
 9508SOL    HW140157   3.820   3.148  16.026  0.5915 -0.8373 -0.5506
 9508SOL    HW240158   3.890   3.237  16.118  1.6575  0.7433 -0.4010
 9509SOL     OW40159   0.115   1.696   6.936 -0.2405  0.4290 -0.2613
 9509SOL    HW140160   0.150   1.715   6.849  0.9176 -0.8678 -0.0790
 9509SOL    HW240161   0.127   1.782   6.978  0.3007  0.9087 -1.4176
 9510SOL     OW40162   4.411   4.136  13.534 -0.2616 -0.4160 -0.0502
 9510SOL    HW140163   4.441   4.067  13.593 -2.2213 -1.3892 -0.1900
 9510SOL    HW240164   4.344   4.190  13.575 -0.5236 -0.3019 -0.6249
 9511SOL     OW40165   4.245   0.512   6.217 -0.4752  0.4496  0.3938
 9511SOL    HW140166   4.273   0.427   6.253 -1.8254 -0.7144 -1.3306
 9511SOL    HW240167   4.155   0.523   6.247 -0.7445  1.0518 -0.6565
 9512SOL     OW40168   4.223   2.789  10.962 -0.4963  0.3543  0.2979
 9512SOL    HW140169   4.175   2.778  11.044  0.6791 -1.7755  0.7098
 9512SOL    HW240170   4.181   2.721  10.910  1.3819 -1.3805  1.0213
 9513SOL     OW40171   4.643   4.005  13.131 -0.6552 -0.2514 -0.4147
 9513SOL    HW140172   4.629   3.933  13.192  2.3311 -0.1350  0.4101
 9513SOL    HW240173   4.731   3.994  13.095 -0.3399  0.1249  0.2342
 9514SOL     OW40174   2.808   1.837   6.979  0.0211  0.0352  0.3418
 9514SOL    HW140175   2.876   1.827   6.912 -2.9064  0.4633 -2.6618
 9514SOL    HW240176   2.739   1.892   6.943  1.0599  2.0895  1.5171
 9515SOL     OW40177   1.240   4.631   1.782 -0.6792  0.0099 -0.2249
 9515SOL    HW140178   1.233   4.721   1.814 -2.4595  0.1948 -1.1068
 9515SOL    HW240179   1.151   4.595   1.776 -0.8999  1.0304 -3.2941
 9516SOL     OW40180   3.089   4.684  12.651 -0.7152 -0.4993  0.5311
 9516SOL    HW140181   3.119   4.710  12.739  1.3505  0.3269 -0.4121
 9516SOL    HW240182   3.076   4.590  12.661 -1.2453 -0.6249 -1.3539
 9517SOL     OW40183   4.402   2.038  16.323 -0.3054 -0.4388 -0.4054
 9517SOL    HW140184   4.396   2.108  16.259  0.2188 -0.7104 -0.7511
 9517SOL    HW240185   4.431   2.091  16.397 -0.2543  1.5811 -1.8703
 9518SOL     OW40186   0.908   1.729  10.137  0.5638 -0.3240 -0.3229
 9518SOL    HW140187   1.001   1.742  10.152  0.2730  2.1617 -0.6105
 9518SOL    HW240188   0.875   1.739  10.226  2.4732 -0.6870  0.4204
 9519SOL     OW40189   4.714   0.693   9.122 -0.6441 -0.6011  0.3403
 9519SOL    HW140190   4.622   0.707   9.100 -0.0603  1.3207 -0.9093
 9519SOL    HW240191   4.709   0.608   9.166  1.4609 -1.9124 -1.9627
 9520SOL     OW40192   0.577   2.408  12.502  0.9205 -0.0970  0.3749
 9520SOL    HW140193   0.571   2.502  12.486  0.0308 -0.0537  0.9709
 9520SOL    HW240194   0.673   2.407  12.500  0.9235 -0.6786  0.6726
 9521SOL     OW40195   2.287   2.816   3.732  0.2277 -0.2360 -0.1920
 9521SOL    HW140196   2.330   2.901   3.735  0.6439 -0.4343 -0.4689
 9521SOL    HW240197   2.358   2.761   3.765  2.1361  1.5068 -1.3234
 9522SOL     OW40198   4.617   2.355   1.647 -0.5829 -0.1148  0.7889
 9522SOL    HW140199   4.705   2.357   1.609 -1.2467 -3.2081 -0.8567
 9522SOL    HW240200   4.575   2.412   1.583  2.9283 -1.3582 -2.6329
 9523SOL     OW40201   2.119   0.940  15.876  0.4548  0.4718 -0.3635
 9523SOL    HW140202   2.195   0.902  15.832  1.5059 -0.4270  2.2270
 9523SOL    HW240203   2.057   0.922  15.806  0.7988  0.7140 -0.7328
 9524SOL     OW40204   4.440   0.791   3.861  0.1494  0.3736 -0.2738
 9524SOL    HW140205   4.505   0.756   3.800  1.4655  1.2412  0.6510
 9524SOL    HW240206   4.474   0.874   3.893  0.6540  0.3963 -0.8762
 9525SOL     OW40207   0.951   2.823   7.653  0.4721  0.3109 -0.2982
 9525SOL    HW140208   0.903   2.869   7.585  0.0414 -3.2915 -2.4511
 9525SOL    HW240209   0.981   2.750   7.598  2.3499 -0.4976  1.7640
 9526SOL     OW40210   4.662   3.107  16.623 -0.0580  0.6601 -0.3074
 9526SOL    HW140211   4.666   3.146  16.710 -0.9794 -0.9907  0.4660
 9526SOL    HW240212   4.635   3.183  16.569  0.7162  0.5253 -0.8822
 9527SOL     OW40213   4.719   2.141   8.183 -0.0202  0.0904 -0.4219
 9527SOL    HW140214   4.665   2.072   8.221  0.5695  0.2495  0.7205
 9527SOL    HW240215   4.671   2.220   8.209 -1.3797 -0.5509 -0.9929
 9528SOL     OW40216   0.727   0.058   3.169  0.2559 -0.2917 -0.0462
 9528SOL    HW140217   0.788   0.132   3.165  1.7163 -1.4378  1.8273
 9528SOL    HW240218   0.746   0.003   3.244  0.0989 -1.1066 -0.5992
 9529SOL     OW40219   2.753   2.376   8.419  0.2237  0.1149 -0.4648
 9529SOL    HW140220   2.726   2.292   8.382  0.3938 -0.5763  0.9978
 9529SOL    HW240221   2.797   2.348   8.499 -0.5770 -0.6346 -0.2833
 9530SOL     OW40222   1.664   1.770   9.768  0.4891  0.2002 -0.2142
 9530SOL    HW140223   1.701   1.811   9.691 -2.9191  1.1493 -1.3535
 9530SOL    HW240224   1.709   1.685   9.768  0.0676 -0.0236 -0.7331
 9531SOL     OW40225   0.558   1.633   6.416  0.0929 -0.1888  0.8788
 9531SOL    HW140226   0.472   1.602   6.444 -0.3109 -0.3265 -0.5433
 9531SOL    HW240227   0.526   1.722   6.400  0.1501 -0.5537 -1.1735
 9532SOL     OW40228   1.389   2.504   0.535 -0.3901 -0.7928  0.2347
 9532SOL    HW140229   1.466   2.560   0.544 -0.0181 -1.2837  0.0914
 9532SOL    HW240230   1.385   2.502   0.440 -1.1684  1.6926  0.2117
 9533SOL     OW40231   2.681   4.363   7.812 -0.0471 -0.7759  0.3157
 9533SOL    HW140232   2.663   4.456   7.822  0.3941 -0.5961 -0.5614
 9533SOL    HW240233   2.721   4.371   7.725 -1.3149  1.1593 -0.0741
 9534SOL     OW40234   3.384   2.221   3.655 -0.1025 -0.3639 -0.0469
 9534SOL    HW140235   3.424   2.183   3.576  0.3227  0.0927 -0.0570
 9534SOL    HW240236   3.443   2.190   3.724 -0.8430  0.3191  0.8793
 9535SOL     OW40237   2.005   0.729  11.696  0.4535  0.1501  0.2874
 9535SOL    HW140238   1.939   0.745  11.763 -0.3418  0.2631 -0.5251
 9535SOL    HW240239   2.085   0.712  11.745  0.8873  0.1676 -0.4124
 9536SOL     OW40240   0.339   3.587   4.081  0.3688 -0.0002  0.0667
 9536SOL    HW140241   0.372   3.637   4.006  2.8686 -1.1938  0.3867
 9536SOL    HW240242   0.396   3.620   4.150  2.3145 -0.6114 -1.2382
 9537SOL     OW40243   0.953   4.737  14.574 -0.0932  0.2994 -0.1078
 9537SOL    HW140244   0.949   4.671  14.504  0.5895  1.8943 -1.6482
 9537SOL    HW240245   0.881   0.052  14.539  0.7891  1.5491  0.0093
 9538SOL     OW40246   2.167   0.709  11.221 -0.1176 -0.1208  0.1609
 9538SOL    HW140247   2.128   0.728  11.135  0.2968 -0.3005 -0.0670
 9538SOL    HW240248   2.090   0.733  11.273 -1.1705  0.4318 -1.6385
 9539SOL     OW40249   4.309   3.751   6.002  0.1278 -0.6227 -0.1736
 9539SOL    HW140250   4.313   3.815   6.073  0.8169  0.3140 -1.0586
 9539SOL    HW240251   4.327   3.673   6.055 -0.8277 -0.4374  0.4187
 9540SOL     OW40252   2.577   3.178  15.715  0.4962  0.2399 -0.5161
 9540SOL    HW140253   2.509   3.207  15.775  1.6904  0.9911  0.4652
 9540SOL    HW240254   2.528   3.127  15.650 -1.5776  1.9204 -0.2652
 9541SOL     OW40255   0.027   3.534   3.860  0.8046 -0.0332  0.1905
 9541SOL    HW140256   0.073   3.481   3.925 -0.4288 -1.2925  0.0464
 9541SOL    HW240257   4.731   3.605   3.915  1.0724 -0.4039  0.8456
 9542SOL     OW40258   1.032   0.075   2.374 -0.1120  0.3012  0.2711
 9542SOL    HW140259   1.113   0.091   2.327 -1.3408 -1.0446 -2.2918
 9542SOL    HW240260   0.964   0.126   2.330 -0.1810  0.2567  0.3243
 9543SOL     OW40261   2.413   2.145   1.124  0.1230  0.1724  0.0672
 9543SOL    HW140262   2.349   2.083   1.087 -0.2296 -1.1404  2.8861
 9543SOL    HW240263   2.408   2.219   1.064  1.0085 -0.8513 -1.2963
 9544SOL     OW40264   1.899   0.727   6.856 -0.2570  0.2175 -0.2033
 9544SOL    HW140265   1.960   0.666   6.816  0.9977  0.3914  1.4242
 9544SOL    HW240266   1.957   0.803   6.862 -0.7256  0.5837 -0.3104
 9545SOL     OW40267   0.496   4.584   1.834  0.4058 -0.2282  0.5117
 9545SOL    HW140268   0.476   4.606   1.744  2.6547 -0.7318 -0.1226
 9545SOL    HW240269   0.496   4.489   1.831  0.0142 -0.1921 -0.4074
 9546SOL     OW40270   2.088   3.250   9.012 -0.1909 -0.0939  0.5862
 9546SOL    HW140271   2.032   3.281   9.083 -0.0012  1.0129  0.2701
 9546SOL    HW240272   2.045   3.303   8.945 -1.6664 -4.1264 -1.6375
 9547SOL     OW40273   2.377   0.195   7.319 -0.8375 -0.1314  0.3626
 9547SOL    HW140274   2.457   0.201   7.370 -0.7269 -0.6169  0.2537
 9547SOL    HW240275   2.402   0.137   7.246 -1.0749  0.8859 -0.5308
 9548SOL     OW40276   2.451   3.568   3.942 -0.3322 -0.1520 -0.2416
 9548SOL    HW140277   2.444   3.541   4.033  0.2940 -1.1957 -0.5080
 9548SOL    HW240278   2.434   3.661   3.956  0.4693  0.2929 -2.2131
 9549SOL     OW40279   1.955   1.917   9.356 -0.4493  0.4722 -0.5480
 9549SOL    HW140280   1.924   1.998   9.317  0.5656  0.5844 -1.0895
 9549SOL    HW240281   1.890   1.906   9.426  1.2645 -0.4325  0.9150
 9550SOL     OW40282   2.148   3.841   6.984  0.0317 -0.1598 -0.0114
 9550SOL    HW140283   2.054   3.854   6.971  0.2873 -0.1754 -1.8206
 9550SOL    HW240284   2.161   3.779   6.913  1.8702 -0.5329  0.6407
 9551SOL     OW40285   3.774   3.915  14.868  0.3980 -0.3581 -0.0621
 9551SOL    HW140286   3.728   3.835  14.894  0.5370 -1.2234 -2.4970
 9551SOL    HW240287   3.839   3.924  14.938 -0.5657  0.3583  0.7412
 9552SOL     OW40288   3.706   1.635   4.903 -0.1120  0.4057  0.0941
 9552SOL    HW140289   3.670   1.602   4.821  0.2335  0.6584 -0.1602
 9552SOL    HW240290   3.796   1.646   4.873 -0.3677  1.1904 -0.3895
 9553SOL     OW40291   2.482   4.104   9.931  0.2427  0.7230  0.1401
 9553SOL    HW140292   2.505   4.118  10.023 -1.3208  0.1222  0.6285
 9553SOL    HW240293   2.543   4.043   9.891  1.3385  1.7315  0.2733
 9554SOL     OW40294   0.856   3.237   8.811  0.2015  0.3693  0.6922
 9554SOL    HW140295   0.936   3.205   8.853  1.2742  2.5126  0.2486
 9554SOL    HW240296   0.837   3.168   8.747 -2.1859  1.9710 -0.3076
 9555SOL     OW40297   3.044   1.209   3.677 -0.6141 -0.1657 -0.3083
 9555SOL    HW140298   2.977   1.140   3.669 -1.4683  0.4802  1.2080
 9555SOL    HW240299   3.114   1.144   3.691  0.0392  0.6359  0.1122
 9556SOL     OW40300   2.896   3.248  17.654 -0.4688 -0.3998  0.1530
 9556SOL    HW140301   2.966   3.296  17.611  0.8694 -0.7636  1.9333
 9556SOL    HW240302   2.937   3.163  17.642  0.2269  0.0619 -0.7801
 9557SOL     OW40303   3.757   2.871  10.669  0.2196  0.0028 -0.3774
 9557SOL    HW140304   3.723   2.893  10.756  0.9366 -0.2186 -0.0480
 9557SOL    HW240305   3.736   2.949  10.617 -0.1220 -1.3528 -2.3020
 9558SOL     OW40306   0.716   4.110   3.201 -0.3298  0.1641 -0.0986
 9558SOL    HW140307   0.767   4.144   3.275  1.4947 -0.3443 -1.1335
 9558SOL    HW240308   0.671   4.192   3.182  0.6120  0.9707  1.1473
 9559SOL     OW40309   2.347   1.606   2.644  0.0539  0.2630  0.5514
 9559SOL    HW140310   2.386   1.601   2.557 -0.4044  0.6223  0.3291
 9559SOL    HW240311   2.364   1.694   2.679  0.9650  0.4662 -0.4119
 9560SOL     OW40312   1.822   3.339  10.427 -0.2589  0.0299  0.5068
 9560SOL    HW140313   1.787   3.259  10.467  1.5878 -1.6842 -1.2526
 9560SOL    HW240314   1.879   3.302  10.359 -0.9309  0.8144 -0.4786
 9561SOL     OW40315   2.742   0.206   4.255  0.2940  0.8260 -0.4210
 9561SOL    HW140316   2.824   0.213   4.206  0.5009  1.2617 -0.0156
 9561SOL    HW240317   2.709   0.118   4.239 -0.7221  0.8655  1.4126
 9562SOL     OW40318   3.190   2.568  11.793 -0.0166 -0.3898  0.0560
 9562SOL    HW140319   3.285   2.582  11.789  0.3332 -2.4750  1.3656
 9562SOL    HW240320   3.156   2.648  11.752 -1.0670  1.2157  4.0766
 9563SOL     OW40321   2.762   1.851   1.776  0.1333  0.1920  0.2826
 9563SOL    HW140322   2.841   1.904   1.785  1.2066 -0.9724 -2.1134
 9563SOL    HW240323   2.797   1.773   1.733  1.9206 -0.2298  2.5442
 9564SOL     OW40324   1.815   0.466  17.189 -0.1782 -0.3501  0.1860
 9564SOL    HW140325   1.735   0.508  17.221  0.3737 -0.0519  1.1862
 9564SOL    HW240326   1.785   0.378  17.165 -1.3691 -0.3164  1.5431
 9565SOL     OW40327   0.858   3.892   7.438 -0.1958  0.4990  0.2357
 9565SOL    HW140328   0.909   3.824   7.394 -0.0325  1.7485 -1.5288
 9565SOL    HW240329   0.901   3.907   7.523  1.1801 -0.2373 -0.3245
 9566SOL     OW40330   4.377   2.384   3.611  0.0664  0.1853 -0.1299
 9566SOL    HW140331   4.384   2.320   3.541  1.6687 -1.2066  1.3087
 9566SOL    HW240332   4.432   2.457   3.584  0.2283 -0.5771 -1.8348
 9567SOL     OW40333   2.079   1.902   5.156  0.4734 -0.0830 -0.2833
 9567SOL    HW140334   2.098   1.935   5.244  0.2820 -1.2011  0.1794
 9567SOL    HW240335   1.987   1.881   5.170  0.0471  1.7353 -0.3045
 9568SOL     OW40336   2.503   4.156  13.708 -0.1911 -0.1427  0.4109
 9568SOL    HW140337   2.422   4.154  13.760 -0.5284  1.3145 -0.0806
 9568SOL    HW240338   2.464   4.189  13.628 -0.6117  0.2805  0.7920
 9569SOL     OW40339   3.235   2.768   3.118  0.4643  0.7189 -0.0596
 9569SOL    HW140340   3.221   2.839   3.181  1.7099  2.2976 -1.5392
 9569SOL    HW240341   3.161   2.792   3.062 -1.3098  0.0951  2.0575
 9570SOL     OW40342   3.985   2.519   4.395  0.2773  0.3680 -0.3564
 9570SOL    HW140343   3.934   2.502   4.316  0.1832 -2.3466  0.3045
 9570SOL    HW240344   3.930   2.476   4.460  2.5454 -1.8694  0.0679
 9571SOL     OW40345   1.409   4.624   5.426  0.3139 -0.0895  0.3075
 9571SOL    HW140346   1.355   4.694   5.462 -0.7368 -1.4023  1.2934
 9571SOL    HW240347   1.357   4.602   5.348  1.5876  1.2695 -0.9233
   4.73898   4.73898  17.75381
