Membrane in water
40347
    1TMC1    C1    1   3.549   4.042  11.072 -0.1715  0.6665  1.2445
    1TMC1    C2    2   3.558   4.183  11.069  1.1188  0.8825 -0.3619
    1TMC1    C3    3   3.614   4.240  10.956 -0.6307  0.5986  0.2325
    1TMC1    C4    4   3.612   3.967  10.975  0.2810 -0.2029  0.3144
    1TMC1    C5    5   3.649   4.030  10.860  0.0213  0.4858  0.0617
    1TMC1    C6    6   3.647   4.163  10.845 -0.6802 -0.0911  0.2580
    1TMC1     C    7   3.515   3.977  11.193  0.2832 -0.2141 -0.6965
    1TMC1     O    8   3.450   4.053  11.264 -0.0110 -0.1899  0.1267
    1TMC1     H    9   3.518   4.249  11.146  0.1115  0.1372 -0.2516
    1TMC1    H1   10   3.608   3.858  10.977 -0.6037 -0.1407  2.1413
    1TMC1    H2   11   3.670   4.210  10.751  0.1354  0.0274  0.5219
    1TMC1    C7   12   3.690   3.934  10.757 -0.0243  0.0931 -0.1398
    1TMC1    C8   13   3.588   4.373  10.920 -0.7690 -0.1698 -0.6923
    1TMC1    O1   14   3.630   3.833  10.724  0.9202 -0.3729  0.3464
    1TMC1    O2   15   3.661   4.436  10.842 -0.0461  0.0766  0.0100
    1TMC1    O3   16   3.825   3.924  10.770  0.8432 -0.1825  0.1697
    1TMC1    H3   17   3.869   4.004  10.804 -0.5812  1.0540 -0.8853
    1TMC1    O5   18   3.458   4.389  10.939 -0.0222  0.4391  0.1970
    1TMC1    H5   19   3.415   4.311  10.981 -0.5140 -0.3357 -1.7572
    2MPD2     C   20   3.434   3.585  11.510  0.2388 -0.3323  0.0648
    2MPD2    C1   21   3.384   3.713  11.512  0.0054 -0.3853  0.0418
    2MPD2    C2   22   3.423   3.801  11.419  0.1638  0.2382 -0.4437
    2MPD2    C3   23   3.514   3.760  11.317 -0.7008 -0.2817 -1.1994
    2MPD2    C4   24   3.576   3.633  11.323  0.8349  0.8549  0.4378
    2MPD2    C5   25   3.523   3.544  11.417 -0.4084  0.0941  0.5856
    2MPD2     H   26   3.371   3.896  11.412 -0.2172 -0.0735 -1.7807
    2MPD2    H1   27   3.654   3.606  11.252  1.4387 -1.5926  2.0185
    2MPD2    H2   28   3.397   3.507  11.576 -0.6211  0.4871  0.5492
    2MPD2    H3   29   3.556   3.440  11.416  0.9764  0.5294  1.4828
    2MPD2     N   30   3.553   3.841  11.211 -0.5863  0.5906  0.7407
    2MPD2    H5   31   3.598   3.794  11.134 -0.8503 -0.1727  1.0527
    2MPD2    N1   32   3.279   3.738  11.606 -0.5760 -0.1609 -0.0158
    2MPD2    H7   33   3.255   3.668  11.676  1.9732  0.3450  1.3793
    3TMC1    C1   34   2.245   4.602  11.101  0.3360 -0.1655  0.3141
    3TMC1    C2   35   2.273   4.465  11.102  0.9310  0.0798 -0.3199
    3TMC1    C3   36   2.376   4.421  11.028 -0.5815  0.2040  0.3672
    3TMC1    C4   37   2.314   4.697  11.029  0.7789 -0.1403 -0.0040
    3TMC1    C5   38   2.428   4.646  10.969  0.2552  0.0133 -0.9517
    3TMC1    C6   39   2.456   4.509  10.959  0.2040  0.2634  0.6163
    3TMC1     C   40   2.144   4.639  11.206 -0.3819 -0.0262 -0.0776
    3TMC1     O   41   2.100   4.541  11.254 -0.0341  0.3558 -0.0313
    3TMC1     H   42   2.213   4.389  11.151 -0.4748  0.3421 -1.6525
    3TMC1    H1   43   2.291   0.068  11.028  0.4393 -0.1946  1.8958
    3TMC1    H2   44   2.549   4.481  10.912 -0.6936 -2.1389  0.2904
    3TMC1    C7   45   2.500   0.001  10.883  0.0813  0.7731  0.4572
    3TMC1    C8   46   2.387   4.284  10.990 -0.1880  0.2168 -0.0371
    3TMC1    O1   47   2.446   0.101  10.834 -0.6933 -0.4202 -0.3610
    3TMC1    O2   48   2.413   4.255  10.874 -0.0631  0.3770  0.6803
    3TMC1    O3   49   2.623   4.686  10.858  0.0809 -0.0859  0.3779
    3TMC1    H3   50   2.652   4.623  10.928 -0.0269 -0.7768 -0.1997
    3TMC1    O5   51   2.411   4.203  11.099  0.3667 -0.1400 -0.0794
    3TMC1    H5   52   2.420   4.254  11.182 -1.7434 -0.0662  0.1116
    4MPD2     C   53   1.898   0.245  11.514  0.5141  0.8125  0.8735
    4MPD2    C1   54   1.979   0.310  11.419  0.4503  0.1146  0.2817
    4MPD2    C2   55   2.076   0.244  11.338 -0.3456 -0.4283 -0.6055
    4MPD2    C3   56   2.085   0.104  11.335 -0.1171 -0.1483 -0.1704
    4MPD2    C4   57   2.001   0.041  11.432  0.3600 -0.6474 -1.0342
    4MPD2    C5   58   1.910   0.109  11.518 -0.1258  0.3626 -0.4115
    4MPD2     H   59   2.146   0.301  11.277 -0.7090 -2.2817 -2.7374
    4MPD2    H1   60   1.997   4.668  11.439  0.8020 -0.5747  0.2983
    4MPD2    H2   61   1.817   0.298  11.563 -0.4814  0.2817 -0.1935
    4MPD2    H3   62   1.831   0.049  11.563  0.5111 -0.9470 -1.0412
    4MPD2     N   63   2.153   0.038  11.232  0.9583  0.3098 -0.0506
    4MPD2    H5   64   2.202   0.098  11.166 -1.9238  0.2582 -2.2299
    4MPD2    N1   65   1.963   0.446  11.387 -0.8207 -0.0793 -0.4695
    4MPD2    H7   66   2.012   0.483  11.306  0.4730 -0.3750  0.1749
    5TCq1    O1   67   3.295   2.330  11.572 -0.1525 -0.5595 -0.2920
    5TCq1    C1   68   3.384   2.417  11.508  0.8049 -0.2461 -0.0815
    5TCq1    O2   69   3.472   2.482  11.563 -0.3427  0.6111 -0.0664
    5TCq1    C2   70   3.322   2.454  11.384  0.4705  0.2769 -0.0972
    5TCq1    C3   71   3.316   2.587  11.352  0.5654  0.0413  0.2914
    5TCq1    C4   72   3.226   2.630  11.256 -0.6387 -0.2284 -0.5633
    5TCq1    C5   73   3.136   2.545  11.197  0.5167 -0.7699  0.3198
    5TCq1    C6   74   3.141   2.411  11.230 -0.2306 -0.9751 -0.5918
    5TCq1    C7   75   3.225   2.369  11.327  0.8134 -0.1425 -0.2484
    5TCq1    C8   76   3.050   2.309  11.181  0.6440  1.1541 -0.6434
    5TCq1    O4   77   3.094   2.193  11.186 -0.7410  0.2972  0.1124
    5TCq1    C9   78   3.222   2.769  11.220  0.3663 -0.2744  0.2519
    5TCq1    O5   79   3.293   2.842  11.293  0.2351 -0.6789  0.0752
    5TCq1    O6   80   3.113   2.808  11.169  0.4978  0.0817 -0.2239
    5TCq1    H1   81   3.213   2.328  11.517  0.5532  1.5982 -1.4186
    5TCq1    H2   82   3.379   2.663  11.397  0.0895  0.4176  0.3297
    5TCq1    H3   83   3.063   2.580  11.125  1.1941 -0.1685 -0.0702
    5TCq1    H4   84   3.253   2.265  11.341 -1.5649 -0.5519  1.4012
    6MPD2     C   85   2.728   2.318  11.022  0.0100  0.2540  0.1756
    6MPD2    C1   86   2.860   2.277  11.032  0.2246  0.6586 -0.5983
    6MPD2    C2   87   2.907   2.164  10.962 -0.0809  0.2464  0.5463
    6MPD2    C3   88   2.815   2.089  10.880  0.0111  0.4560 -0.1012
    6MPD2    C4   89   2.683   2.126  10.882 -0.1351 -0.0780  0.3997
    6MPD2    C5   90   2.648   2.240  10.950 -0.8127  0.2693 -0.2038
    6MPD2     H   91   3.012   2.138  10.962 -0.1370  0.0236 -0.3383
    6MPD2    H1   92   2.602   2.083  10.825 -1.2427  0.2887  1.6989
    6MPD2    H2   93   2.689   2.404  11.074 -1.3959 -0.3564  0.1293
    6MPD2    H3   94   2.545   2.274  10.943 -0.8969 -0.3934 -2.3914
    6MPD2     N   95   2.876   1.990  10.798  0.8282 -0.0867 -0.0162
    6MPD2    H5   96   2.972   1.964  10.819 -0.6272 -3.9728  1.5674
    6MPD2    N1   97   2.947   2.362  11.107  0.7445  0.0274  0.1422
    6MPD2    H7   98   2.914   2.450  11.145 -1.8784 -1.0008  0.2155
    7TCq1    O1   99   0.626   1.883  13.148  0.2323 -0.4236 -0.8896
    7TCq1    C1  100   0.552   1.925  13.059  0.1780  0.1765  0.0379
    7TCq1    O2  101   0.541   2.045  13.025 -0.4628  0.0679 -0.4634
    7TCq1    C2  102   0.462   1.814  13.019 -0.3791 -0.1418  0.2681
    7TCq1    C3  103   0.357   1.862  12.933 -0.3624  0.0258  0.1672
    7TCq1    C4  104   0.279   1.763  12.870 -0.1406 -0.0384 -0.2523
    7TCq1    C5  105   0.312   1.634  12.879  0.0614 -0.1878  0.0117
    7TCq1    C6  106   0.411   1.590  12.968  0.2271  0.8316  0.4298
    7TCq1    C7  107   0.482   1.679  13.036 -0.1745 -0.6563  0.6977
    7TCq1    C8  108   0.448   1.448  12.981  0.6691  0.0074  0.1812
    7TCq1    O4  109   0.540   1.415  13.051 -0.1814 -0.4298 -0.2486
    7TCq1    C9  110   0.189   1.807  12.765  0.5828 -0.3560  0.3160
    7TCq1    O5  111   0.234   1.904  12.696  0.1930  0.7601 -0.4898
    7TCq1    O6  112   0.111   1.715  12.724  0.0360  0.2270 -0.2893
    7TCq1    H1  113   0.603   1.793  13.180  2.6459 -1.1114 -1.0437
    7TCq1    H2  114   0.325   1.965  12.925  0.0294  0.0265 -1.4235
    7TCq1    H3  115   0.250   1.562  12.828  2.1670 -0.5273 -2.0258
    7TCq1    H4  116   0.572   1.637  13.079  1.1155  0.4578 -0.8966
    8MPD2     C  117   0.323   0.965  12.824 -0.1614 -0.0987 -0.2560
    8MPD2    C1  118   0.417   1.006  12.912  0.3963 -1.2433  0.0779
    8MPD2    C2  119   0.437   1.138  12.950 -0.2117  0.2896  0.6482
    8MPD2    C3  120   0.354   1.231  12.891 -0.1715  0.8218 -0.4374
    8MPD2    C4  121   0.252   1.195  12.805  0.3047 -0.1804 -0.1099
    8MPD2    C5  122   0.236   1.063  12.776 -0.3388 -0.1466 -0.8812
    8MPD2     H  123   0.509   1.171  13.024 -1.0042  2.3334  0.4856
    8MPD2    H1  124   0.193   1.270  12.754 -0.2429 -0.4086  0.1928
    8MPD2    H2  125   0.322   0.862  12.789 -0.1034 -0.5136  0.9421
    8MPD2    H3  126   0.167   1.043  12.696 -0.0140  1.8918 -1.6596
    8MPD2     N  127   0.361   1.369  12.909 -0.6037  0.6400 -0.3570
    8MPD2    H5  128   0.290   1.427  12.864 -0.7924  1.1310  0.5781
    8MPD2    N1  129   0.499   0.901  12.974 -0.2289  0.3815  0.5973
    8MPD2    H7  130   0.507   0.815  12.920 -1.3844  1.0589 -0.6459
    9TMC1    C1  131   2.514   1.037  11.484  0.1154  0.1853 -0.2285
    9TMC1    C2  132   2.632   1.009  11.417 -0.5550 -0.0367 -0.8249
    9TMC1    C3  133   2.726   1.107  11.407 -0.1473  0.4245 -0.3819
    9TMC1    C4  134   2.507   1.157  11.547  0.4177 -0.7355  0.6417
    9TMC1    C5  135   2.610   1.249  11.544 -0.2660  0.3466  0.1119
    9TMC1    C6  136   2.724   1.232  11.469 -1.1524 -0.3143  1.0846
    9TMC1     C  137   2.431   0.929  11.530  0.6968 -0.2284  0.4177
    9TMC1     O  138   2.336   0.969  11.596 -0.0100 -0.7898  0.6251
    9TMC1     H  139   2.645   0.914  11.365 -0.1468  0.5338 -1.7560
    9TMC1    H1  140   2.441   1.181  11.629 -1.5850  2.8259 -1.9914
    9TMC1    H2  141   2.802   1.308  11.468 -1.4129 -0.0593 -1.7630
    9TMC1    C7  142   2.627   1.351  11.645 -0.6264 -0.0481 -0.6580
    9TMC1    C8  143   2.830   1.089  11.313  0.2656  0.0005 -0.4162
    9TMC1    O1  144   2.628   1.330  11.762 -0.0389  0.2695 -0.1653
    9TMC1    O2  145   2.895   1.181  11.263  0.4165  0.4036 -0.0756
    9TMC1    O3  146   2.691   1.459  11.594  0.5313  0.9295  0.1883
    9TMC1    H3  147   2.686   1.459  11.496 -1.8596 -1.7286  0.3198
    9TMC1    O5  148   2.882   0.960  11.326 -0.1651 -0.3507 -0.3497
    9TMC1    H5  149   2.852   0.909  11.405  1.3555  0.9414  1.0556
   10MPD2     C  150   2.290   0.671  11.578  0.9032 -0.2968  0.6086
   10MPD2    C1  151   2.426   0.689  11.574 -0.4743  0.7168  0.5445
   10MPD2    C2  152   2.506   0.584  11.603  0.3715 -0.9555 -0.1675
   10MPD2    C3  153   2.455   0.458  11.645  0.5618  0.1664 -0.7936
   10MPD2    C4  154   2.314   0.448  11.656 -0.1061 -0.6188  0.8188
   10MPD2    C5  155   2.233   0.550  11.621 -0.1219  0.2260 -0.1965
   10MPD2     H  156   2.613   0.599  11.592  0.0550  3.1855  2.2484
   10MPD2    H1  157   2.267   0.356  11.687 -0.1495 -1.2230 -1.0410
   10MPD2    H2  158   2.225   0.754  11.555 -0.4102 -2.8656 -4.8596
   10MPD2    H3  159   2.126   0.549  11.635  0.0658 -0.3912  1.1391
   10MPD2     N  160   2.523   0.346  11.667  0.2751  0.1345 -0.8509
   10MPD2    H5  161   2.477   0.262  11.701  0.8263  0.3380  0.4205
   10MPD2    N1  162   2.490   0.808  11.540 -0.6087  0.1169 -0.2570
   10MPD2    H7  163   2.587   0.806  11.511 -0.1775 -1.3456  1.2842
   11TCq1    O1  164   2.869   0.160  15.045 -0.8999 -0.3124  0.1573
   11TCq1    C1  165   3.001   0.120  15.051 -0.6357  0.5032  0.5062
   11TCq1    O2  166   3.077   0.119  15.146  0.2669 -0.5164 -0.2605
   11TCq1    C2  167   3.015   0.038  14.935  0.0015  0.3654  0.2095
   11TCq1    C3  168   3.092   4.665  14.948 -0.0965 -0.0773 -0.2007
   11TCq1    C4  169   3.119   4.582  14.838 -0.4061 -0.3215  0.4459
   11TCq1    C5  170   3.066   4.607  14.715 -0.0499 -0.5303  0.2540
   11TCq1    C6  171   2.987   4.720  14.703  0.3624  0.1090  0.9518
   11TCq1    C7  172   2.966   0.072  14.809  0.8193  0.3184 -0.4994
   11TCq1    C8  173   2.890   4.723  14.594  0.3915  0.0825  0.0857
   11TCq1    O4  174   2.803   0.073  14.586 -0.4914  0.0751 -0.1873
   11TCq1    C9  175   3.197   4.459  14.853 -0.2797 -0.1379 -0.0978
   11TCq1    O5  176   3.219   4.392  14.748  0.4150  0.2028  0.2701
   11TCq1    O6  177   3.259   4.446  14.962  0.3600 -0.1799  0.1985
   11TCq1    H1  178   2.824   0.140  14.961  1.1540 -1.5931 -0.6504
   11TCq1    H2  179   3.136   4.642  15.044  0.2071 -4.1222 -1.2746
   11TCq1    H3  180   3.084   4.540  14.632 -2.5032 -0.6242 -0.1991
   11TCq1    H4  181   2.909   0.163  14.802  0.0896 -0.2013 -1.3919
   12MPD2     C  182   2.717   4.639  14.349 -0.0040 -0.7489  0.4183
   12MPD2    C1  183   2.845   4.593  14.375 -0.3746 -0.1736 -0.4002
   12MPD2    C2  184   2.904   4.496  14.293 -0.1207  0.1975 -0.8984
   12MPD2    C3  185   2.836   4.458  14.179  0.1914 -0.6202  0.7183
   12MPD2    C4  186   2.711   4.499  14.160 -0.3058  0.0544 -0.0215
   12MPD2    C5  187   2.649   4.588  14.244 -0.6086 -0.2971  0.2293
   12MPD2     H  188   3.007   4.471  14.313 -0.2448 -1.6144 -2.5579
   12MPD2    H1  189   2.640   4.454  14.091 -1.1026 -0.3331  1.0526
   12MPD2    H2  190   2.670   4.714  14.411  2.2950  0.5878  0.5273
   12MPD2    H3  191   2.546   4.616  14.225  0.5685  3.2182 -1.0338
   12MPD2     N  192   2.885   4.367  14.085 -0.9044  0.3201  0.1914
   12MPD2    H5  193   2.843   4.364  13.993 -2.0309 -3.0186  0.8078
   12MPD2    N1  194   2.921   4.627  14.499  0.2362 -0.1783  1.0542
   12MPD2    H7  195   3.008   4.575  14.507 -0.0906 -1.2603 -2.2506
   13TCq1    O1  196   3.429   0.528  10.658 -0.1802  0.0557  0.4127
   13TCq1    C1  197   3.546   0.461  10.677  0.3461  0.5284 -0.1848
   13TCq1    O2  198   3.599   0.384  10.600  0.8078 -0.3602  0.0317
   13TCq1    C2  199   3.556   0.440  10.819 -0.6818 -0.1424  0.1118
   13TCq1    C3  200   3.683   0.426  10.862  0.2027  0.1592 -0.0772
   13TCq1    C4  201   3.707   0.364  10.978 -0.6471  0.2007 -0.5895
   13TCq1    C5  202   3.608   0.314  11.052  0.2724  0.6517  0.1632
   13TCq1    C6  203   3.481   0.323  11.007  0.2511 -0.4109  0.0452
   13TCq1    C7  204   3.446   0.390  10.891 -0.2990  0.6295 -0.2644
   13TCq1    C8  205   3.373   0.235  11.059  0.0478  0.4235 -0.1018
   13TCq1    O4  206   3.254   0.256  11.027 -0.1074  0.7536 -0.7254
   13TCq1    C9  207   3.844   0.340  11.025  0.2836  0.0694 -0.0954
   13TCq1    O5  208   3.855   0.317  11.152 -0.0858  0.1749 -0.1804
   13TCq1    O6  209   3.928   0.402  10.956  0.4927 -0.0851  0.2218
   13TCq1    H1  210   3.406   0.576  10.740  2.2790  0.7692  0.7070
   13TCq1    H2  211   3.771   0.463  10.811  0.6285 -0.2693  0.3414
   13TCq1    H3  212   3.626   0.260  11.144  0.4032 -0.7782 -0.7046
   13TCq1    H4  213   3.346   0.373  10.854  0.7874 -2.0706 -2.0213
   14MPD2     C  214   3.421   4.647  11.230 -0.1795 -0.4235 -0.2949
   14MPD2    C1  215   3.350   0.021  11.186 -0.3492 -0.7556  0.1469
   14MPD2    C2  216   3.215   0.016  11.194 -0.7231 -0.0599 -0.6091
   14MPD2    C3  217   3.149   4.637  11.241 -0.3227  0.0780  0.1746
   14MPD2    C4  218   3.220   4.527  11.279 -0.7838 -0.2643 -0.5897
   14MPD2    C5  219   3.358   4.535  11.284 -0.2222 -0.2644  0.4459
   14MPD2     H  220   3.149   0.097  11.167 -1.5251 -0.0702  1.3573
   14MPD2    H1  221   3.176   4.436  11.316  0.9460 -0.8902 -0.0940
   14MPD2    H2  222   3.527   4.634  11.214 -0.2530 -1.1163 -0.2102
   14MPD2    H3  223   3.410   4.442  11.305  0.2907 -0.5284 -2.0082
   14MPD2     N  224   3.008   4.642  11.225  0.0977 -0.4779  0.4434
   14MPD2    H5  225   2.973   4.720  11.169  0.0628  0.6945  2.1188
   14MPD2    N1  226   3.424   0.122  11.123  0.0079 -0.1769  0.7199
   14MPD2    H7  227   3.525   0.116  11.130 -0.0906 -1.7849  0.8227
   15TCq1    O1  228   0.188   3.953   2.460 -0.2711  0.0727 -0.2573
   15TCq1    C1  229   0.268   3.963   2.355 -0.3820  0.5717 -0.0677
   15TCq1    O2  230   0.365   3.894   2.335  0.2560  0.2546 -0.5766
   15TCq1    C2  231   0.190   3.991   2.240  0.6659  0.1352  0.2987
   15TCq1    C3  232   0.096   4.087   2.244 -0.2313 -0.0971 -0.7302
   15TCq1    C4  233   0.006   4.096   2.145  0.0878 -0.1600  0.3055
   15TCq1    C5  234   4.735   3.998   2.045  0.1557 -0.0574 -1.1201
   15TCq1    C6  235   0.097   3.894   2.050  0.5589 -0.1361 -0.0492
   15TCq1    C7  236   0.201   3.905   2.138 -0.4367 -0.3285  0.3453
   15TCq1    C8  237   0.103   3.781   1.957  0.3525  0.5963 -0.3806
   15TCq1    O4  238   0.200   3.706   1.958  0.2108 -0.4518  0.2537
   15TCq1    C9  239   4.644   4.197   2.144  0.1564  0.0867  0.0124
   15TCq1    O5  240   4.574   4.225   2.041  0.1585  0.3111 -0.3107
   15TCq1    O6  241   4.661   4.289   2.230 -0.6320 -0.2410 -0.6707
   15TCq1    H1  242   0.106   4.006   2.461 -1.2091 -1.3442 -1.6915
   15TCq1    H2  243   0.074   4.143   2.335  1.3486 -3.2144  1.5928
   15TCq1    H3  244   4.658   3.998   1.968 -2.2724  0.1383  1.2860
   15TCq1    H4  245   0.281   3.832   2.137  1.4711  1.7329  0.5919
   16MPD2     C  246   4.587   3.707   1.701 -0.1603 -0.6764  0.6174
   16MPD2    C1  247   4.700   3.683   1.775 -0.1269  0.0728 -0.0520
   16MPD2    C2  248   0.052   3.582   1.734 -0.4561  0.6549  0.2517
   16MPD2    C3  249   0.024   3.509   1.619 -0.5154  0.8791 -0.3569
   16MPD2    C4  250   4.640   3.534   1.551  0.2445  0.6731 -0.2095
   16MPD2    C5  251   4.557   3.636   1.592  0.0007 -0.4471  0.9398
   16MPD2     H  252   0.146   3.565   1.787 -0.3331  2.3116  0.5660
   16MPD2    H1  253   4.628   3.485   1.455 -1.2887 -0.3223  0.4916
   16MPD2    H2  254   4.532   3.794   1.734  0.9574 -0.6255  2.3469
   16MPD2    H3  255   4.471   3.658   1.530  0.3667  0.8847  0.9088
   16MPD2     N  256   0.109   3.398   1.583  0.7486 -0.2398 -0.3135
   16MPD2    H5  257   0.201   3.389   1.624  0.2562 -0.7181  0.6716
   16MPD2    N1  258   4.723   3.771   1.879 -0.0529  0.1168  0.2926
   16MPD2    H7  259   4.666   3.853   1.894  0.1929  0.4383 -0.5904
   17TMC1    C1  260   2.331   3.324  10.570  0.6156  0.3804 -0.9123
   17TMC1    C2  261   2.206   3.275  10.598 -0.8461 -0.1818 -0.7455
   17TMC1    C3  262   2.114   3.273  10.495  0.0349 -0.5961  0.2561
   17TMC1    C4  263   2.364   3.372  10.449 -0.2472  0.2633  0.6335
   17TMC1    C5  264   2.273   3.364  10.347  0.7046  0.0912  0.1349
   17TMC1    C6  265   2.143   3.324  10.371 -0.7978  0.1838 -0.2965
   17TMC1     C  266   2.431   3.309  10.669 -0.3492 -0.6144 -0.0142
   17TMC1     O  267   2.391   3.237  10.769 -0.2619  0.2534 -0.5168
   17TMC1     H  268   2.183   3.245  10.699  2.4233 -0.8144 -0.1876
   17TMC1    H1  269   2.449   3.436  10.429 -0.3616  0.5412  1.0267
   17TMC1    H2  270   2.085   3.304  10.281  1.8596 -1.4417 -1.6360
   17TMC1    C7  271   2.320   3.423  10.224 -0.0734  0.5377  0.5300
   17TMC1    C8  272   1.996   3.189  10.514  0.2645 -0.1239  0.1133
   17TMC1    O1  273   2.256   3.498  10.152 -0.3320 -0.2527 -0.7756
   17TMC1    O2  274   1.978   3.142  10.629 -0.2691  0.2306 -0.2215
   17TMC1    O3  275   2.436   3.368  10.197  0.1483  0.1715  0.0157
   17TMC1    H3  276   2.465   3.289  10.247 -0.4361 -0.0425  0.0150
   17TMC1    O5  277   1.938   3.166  10.400  0.7212 -0.3297 -0.9109
   17TMC1    H5  278   1.948   3.214  10.316  0.4514  1.1970 -0.0641
   18MPD2     C  279   2.658   3.336  10.860  0.0558  0.2593  0.4706
   18MPD2    C1  280   2.654   3.395  10.736 -0.6925  0.4151  0.0186
   18MPD2    C2  281   2.764   3.464  10.694  0.9553 -0.5672  0.3422
   18MPD2    C3  282   2.879   3.485  10.769  0.0498  0.1097  0.0312
   18MPD2    C4  283   2.879   3.424  10.894 -0.5069  0.3568  0.3815
   18MPD2    C5  284   2.773   3.348  10.938 -0.4438 -0.6843 -0.7342
   18MPD2     H  285   2.763   3.510  10.596  0.9479  0.4074  0.8033
   18MPD2    H1  286   2.972   3.425  10.950 -1.4604  0.6496  1.9619
   18MPD2    H2  287   2.576   3.286  10.910  0.8200 -1.9993 -0.5109
   18MPD2    H3  288   2.778   3.290  11.029  0.3404 -0.2500 -0.5012
   18MPD2     N  289   2.994   3.556  10.720 -0.5759 -0.0013 -0.2429
   18MPD2    H5  290   3.078   3.553  10.777 -0.2359 -0.4572 -0.7789
   18MPD2    N1  291   2.549   3.379  10.646 -0.0445 -0.7349 -0.3623
   18MPD2    H7  292   2.551   3.424  10.555 -0.4024  0.2380  0.1123
   19TMC2    C1  293   0.094   4.403  13.668 -0.6563  0.1903 -0.3875
   19TMC2    C2  294   0.059   4.470  13.556  0.7599 -0.2117  0.1956
   19TMC2    C3  295   4.725   4.413  13.459 -0.3443  0.7026 -0.2263
   19TMC2    C4  296   0.037   4.277  13.694  0.1411 -0.2221 -0.1727
   19TMC2    C5  297   4.689   4.223  13.595 -0.5077  0.5857  0.2090
   19TMC2    C6  298   4.673   4.289  13.470  0.0132 -0.4107  0.6557
   19TMC2     C  299   0.175   4.468  13.762  0.0263 -0.6187 -0.3892
   19TMC2     O  300   0.176   4.590  13.761  0.3384 -0.3641 -0.0521
   19TMC2     H  301   0.096   4.572  13.552 -2.7256  0.9846 -1.1653
   19TMC2    H1  302   0.057   4.225  13.787 -2.1800 -1.9493 -0.6361
   19TMC2    H2  303   4.614   4.242  13.393  2.1983 -1.0013 -0.6438
   19TMC2    C7  304   4.590   4.130  13.650 -0.0286 -0.1393  0.4512
   19TMC2    C8  305   4.663   4.499  13.358  1.1658 -0.4266 -0.4932
   19TMC2    O1  306   4.581   4.128  13.773 -0.0367 -0.0702  0.4597
   19TMC2    O2  307   4.672   4.485  13.237  0.7073  0.6953 -0.5518
   19TMC2    O5  308   4.570   4.562  13.429  0.1602 -0.2604  0.2173
   19TMC2    H5  309   4.558   4.526  13.520  0.5002  1.0248  0.7703
   20MPD2     C  310   0.401   4.563  13.929  0.4767 -0.0447  0.5259
   20MPD2    C1  311   0.364   4.429  13.919 -0.5387 -0.3300 -0.2758
   20MPD2    C2  312   0.426   4.334  13.997  0.0827  0.0737  0.1825
   20MPD2    C3  313   0.539   4.367  14.076 -0.0783  0.3074  0.2114
   20MPD2    C4  314   0.572   4.502  14.085  0.2232 -0.1096 -0.4776
   20MPD2    C5  315   0.507   4.598  14.013  0.5314  0.0117 -0.3896
   20MPD2     H  316   0.391   4.232  13.987 -0.4809  0.3647 -0.8042
   20MPD2    H1  317   0.664   4.536  14.133 -0.9542 -0.0447  1.7567
   20MPD2    H2  318   0.360   4.637  13.861 -0.5661 -0.4277  0.7400
   20MPD2    H3  319   0.538   4.700  13.997 -0.5762  0.6637  1.6838
   20MPD2     N  320   0.602   4.272  14.155 -0.2042 -0.7140  0.2949
   20MPD2    H5  321   0.663   4.300  14.231 -2.4725  0.5111  1.6570
   20MPD2    N1  322   0.255   4.383  13.838  0.0022  0.5146  0.0960
   20MPD2    H7  323   0.249   4.282  13.839 -0.6336  0.5427 -0.9652
   21TMC2    C1  324   1.724   0.083  15.012 -0.0932  0.2636  0.2904
   21TMC2    C2  325   1.748   0.013  15.127 -0.7507  0.3653 -0.5146
   21TMC2    C3  326   1.680   0.045  15.235  0.1127 -0.3384  0.3577
   21TMC2    C4  327   1.646   0.195  15.009  0.1615  0.5243  0.5320
   21TMC2    C5  328   1.581   0.230  15.126  0.2114  0.1074 -0.5263
   21TMC2    C6  329   1.596   0.153  15.239 -0.7265  0.2496  0.0022
   21TMC2     C  330   1.800   0.039  14.895 -0.0219  0.8444  0.9138
   21TMC2     O  331   1.867   4.672  14.916 -0.6605  0.0269 -0.1922
   21TMC2     H  332   1.813   4.661  15.126 -0.8156  0.3138 -0.1525
   21TMC2    H1  333   1.633   0.253  14.918  2.1741  2.4477  1.4784
   21TMC2    H2  334   1.570   0.194  15.336  1.3436  0.0564  0.6387
   21TMC2    C7  335   1.497   0.354  15.138  0.3764 -0.0249 -0.1448
   21TMC2    C8  336   1.719   4.720  15.363 -0.2256 -0.0657  0.3559
   21TMC2    O1  337   1.446   0.379  15.243  0.3212 -0.2853 -0.1414
   21TMC2    O2  338   1.823   4.662  15.381 -0.7289  0.0459 -0.2107
   21TMC2    O5  339   1.594   4.695  15.418 -0.1780 -0.3628 -0.5665
   21TMC2    H5  340   1.522   0.016  15.381 -0.9824 -1.6796 -0.9866
   22MPD2     C  341   1.922   0.035  14.389  0.0783 -0.0841  0.5235
   22MPD2    C1  342   1.966   4.698  14.498 -0.4345  0.7799 -0.7291
   22MPD2    C2  343   1.909   4.709  14.621  0.4842  0.8190  0.3917
   22MPD2    C3  344   1.801   0.057  14.644 -0.6411  0.1400 -0.4153
   22MPD2    C4  345   1.773   0.145  14.534  0.4042  0.0968 -0.3285
   22MPD2    C5  346   1.822   0.129  14.410  0.4733 -0.4046 -0.5705
   22MPD2     H  347   1.952   4.652  14.703  1.0645  2.6788  1.3793
   22MPD2    H1  348   1.695   0.219  14.541  2.9329  2.5380  1.8946
   22MPD2    H2  349   1.972   0.017  14.295 -2.0896  0.2111 -0.6929
   22MPD2    H3  350   1.797   0.190  14.324  2.7464  0.7135 -0.4237
   22MPD2     N  351   1.749   0.092  14.774 -0.2134  0.3872 -0.0745
   22MPD2    H5  352   1.680   0.166  14.780  0.4229  0.7951  1.9475
   22MPD2    N1  353   2.086   4.620  14.495 -0.4082  0.1154 -0.0525
   22MPD2    H7  354   2.112   4.591  14.589 -0.0509 -2.3002 -0.9107
   23TMC2    C1  355   3.347   1.230  14.330 -0.0897  0.1647  0.6028
   23TMC2    C2  356   3.381   1.325  14.231 -0.4604  0.1496  0.2329
   23TMC2    C3  357   3.278   1.366  14.153 -0.0712 -0.2849  0.4441
   23TMC2    C4  358   3.214   1.192  14.343 -0.0016 -0.2591 -0.4072
   23TMC2    C5  359   3.114   1.247  14.268 -0.1476 -0.9579 -0.3302
   23TMC2    C6  360   3.145   1.336  14.167  0.3440 -0.1095 -0.0084
   23TMC2     C  361   3.443   1.152  14.403  0.9054  0.6217 -0.1611
   23TMC2     O  362   3.397   1.064  14.474 -0.8155 -0.1368 -0.1147
   23TMC2     H  363   3.475   1.371  14.207  0.4494 -1.6882  0.2718
   23TMC2    H1  364   3.183   1.109  14.405 -0.0452  0.0254 -0.0516
   23TMC2    H2  365   3.065   1.342  14.094 -0.3263 -3.1439  0.4433
   23TMC2    C7  366   2.998   1.159  14.242 -0.0112 -0.5061 -0.1606
   23TMC2    C8  367   3.313   1.447  14.037 -0.0151 -0.2589 -0.0388
   23TMC2    O1  368   3.011   1.040  14.269 -0.0304  0.4262  0.4480
   23TMC2    O2  369   3.420   1.443  13.982 -0.2230 -0.7627  0.2034
   23TMC2    O5  370   3.231   1.548  14.008 -0.6057 -0.3759 -0.0398
   23TMC2    H5  371   3.182   1.585  14.084  2.6521  1.8260  1.0102
   24MPD2     C  372   3.874   0.876  14.428  0.3463  0.4051  0.2455
   24MPD2    C1  373   3.779   0.892  14.526  0.3758  0.1654  0.3079
   24MPD2    C2  374   3.680   0.987  14.500 -0.2064  0.2381  0.2566
   24MPD2    C3  375   3.682   1.075  14.392  0.8404  0.7150 -0.5238
   24MPD2    C4  376   3.787   1.061  14.301 -0.3472 -0.9756 -0.1284
   24MPD2    C5  377   3.878   0.962  14.320  0.4483  0.3656 -0.3873
   24MPD2     H  378   3.597   0.993  14.569  0.4011  1.6116  0.8576
   24MPD2    H1  379   3.791   1.126  14.214 -2.3661  0.7095  1.0669
   24MPD2    H2  380   3.950   0.798  14.433  0.2232  0.2962  0.4519
   24MPD2    H3  381   3.952   0.948  14.242  1.2023 -0.1584  0.4206
   24MPD2     N  382   3.575   1.158  14.358 -0.1315  0.1944 -0.0494
   24MPD2    H5  383   3.601   1.219  14.280  2.4826  0.1496  0.7864
   24MPD2    N1  384   3.769   0.811  14.641  0.5686 -0.7816  0.1559
   24MPD2    H7  385   3.691   0.828  14.703  1.3701 -0.9108  1.2034
   25TMC2    C1  386   2.531   3.516  11.403  0.2328  0.4111 -1.0493
   25TMC2    C2  387   2.626   3.616  11.416  0.4643 -0.1050 -0.8644
   25TMC2    C3  388   2.663   3.634  11.550 -0.7731  0.3039  0.1935
   25TMC2    C4  389   2.495   3.429  11.504 -0.9439  0.1966 -0.3348
   25TMC2    C5  390   2.539   3.464  11.638  0.3593  0.1186 -0.1754
   25TMC2    C6  391   2.632   3.564  11.663  0.1510  0.0625 -0.0527
   25TMC2     C  392   2.480   3.503  11.265  0.9504 -0.2967 -0.1043
   25TMC2     O  393   2.503   3.600  11.194 -0.5289  0.0706  0.2120
   25TMC2     H  394   2.659   3.678  11.334 -2.1766  2.5391  0.0773
   25TMC2    H1  395   2.413   3.359  11.503 -2.8585  2.3811  2.3960
   25TMC2    H2  396   2.658   3.587  11.765  1.1699 -0.1986 -0.2541
   25TMC2    C7  397   2.496   3.396  11.761 -0.2457 -0.3211  0.1770
   25TMC2    C8  398   2.755   3.741  11.569 -0.0651 -0.1860  0.5170
   25TMC2    O1  399   2.446   3.475  11.843 -0.1849 -0.0230  0.3136
   25TMC2    O2  400   2.857   3.762  11.500  0.1106  0.3145  0.0720
   25TMC2    O5  401   2.735   3.797  11.694  0.0879 -0.0833 -0.1540
   25TMC2    H5  402   2.645   3.788  11.730 -0.0149 -1.0196 -0.6393
   26MPD2     C  403   2.127   3.322  10.945 -0.7166 -0.6687  0.2304
   26MPD2    C1  404   2.136   3.234  11.041  0.4445 -0.6146  0.2641
   26MPD2    C2  405   2.221   3.259  11.149  0.9861 -0.1888  0.1342
   26MPD2    C3  406   2.308   3.369  11.145 -0.2760 -0.2352 -0.2472
   26MPD2    C4  407   2.309   3.456  11.033  0.7915 -0.2372  0.7053
   26MPD2    C5  408   2.216   3.429  10.934 -0.7238  0.5837  0.0060
   26MPD2     H  409   2.221   3.204  11.242 -0.9353  0.4694  0.5309
   26MPD2    H1  410   2.387   3.530  11.018 -1.1822  2.1949  2.4908
   26MPD2    H2  411   2.062   3.309  10.859 -1.5612 -3.3697  1.2915
   26MPD2    H3  412   2.202   3.498  10.852  1.8542 -1.6399 -2.2863
   26MPD2     N  413   2.393   3.395  11.255 -0.3201  0.0824  0.2379
   26MPD2    H5  414   2.396   3.329  11.332 -0.3915  1.2182  1.2188
   26MPD2    N1  415   2.045   3.125  11.031  0.0108  0.0317 -0.1115
   26MPD2    H7  416   1.990   3.118  10.946  1.7231  1.0222 -1.3007
   27TMC2    C1  417   1.897   0.761  11.838  0.1888 -0.2830 -1.1466
   27TMC2    C2  418   1.873   0.622  11.852 -0.2995 -0.7621 -0.2324
   27TMC2    C3  419   1.975   0.549  11.891 -0.1499 -0.1783  0.3334
   27TMC2    C4  420   2.010   0.821  11.875 -0.7805  0.1387  0.1151
   27TMC2    C5  421   2.104   0.738  11.931 -0.3880  1.0602  0.0981
   27TMC2    C6  422   2.095   0.603  11.929  0.0571 -0.3815 -0.2464
   27TMC2     C  423   1.790   0.842  11.783  0.0462 -0.2964  0.2321
   27TMC2     O  424   1.815   0.934  11.708 -0.0366 -0.2042 -0.3123
   27TMC2     H  425   1.777   0.579  11.828  0.2974 -1.8033 -0.7416
   27TMC2    H1  426   2.029   0.925  11.852 -0.2084 -0.3618 -1.7053
   27TMC2    H2  427   2.178   0.534  11.943  2.1590  1.9736 -0.9712
   27TMC2    C7  428   2.217   0.806  11.985  0.1940  0.3091 -0.2320
   27TMC2    C8  429   1.956   0.403  11.911 -0.4514 -0.4563 -0.3655
   27TMC2    O1  430   2.243   0.911  11.930  0.4345 -0.2716 -0.2695
   27TMC2    O2  431   2.030   0.353  11.992 -0.0155  0.1302 -0.4261
   27TMC2    O5  432   1.939   0.358  11.788 -0.5500 -0.3689 -0.1351
   27TMC2    H5  433   1.903   0.437  11.742 -1.7679  0.5140  2.2919
   28MPD2     C  434   1.313   1.019  11.872  0.7698  0.1523 -0.2755
   28MPD2    C1  435   1.353   0.936  11.977 -0.1900 -0.8632 -0.4504
   28MPD2    C2  436   1.475   0.879  11.964 -0.5554 -0.3150 -0.0222
   28MPD2    C3  437   1.561   0.893  11.854  0.2570 -0.9839 -0.0088
   28MPD2    C4  438   1.531   0.993  11.761  0.3669 -0.1838 -0.5782
   28MPD2    C5  439   1.405   1.047  11.769 -0.3964  0.0370 -0.2188
   28MPD2     H  440   1.518   0.825  12.049  2.3814  1.9005 -0.0849
   28MPD2    H1  441   1.599   1.033  11.687  1.5901 -1.6615 -0.2508
   28MPD2    H2  442   1.221   1.076  11.874  0.5020 -0.2544 -0.9052
   28MPD2    H3  443   1.375   1.096  11.677  1.0124 -2.8658 -2.1914
   28MPD2     N  444   1.681   0.824  11.864 -0.0070  0.1332 -0.3522
   28MPD2    H5  445   1.688   0.773  11.952 -0.5080 -0.6984 -0.7899
   28MPD2    N1  446   1.257   0.916  12.083 -0.1444 -0.5141 -0.5817
   28MPD2    H7  447   1.174   0.975  12.090  0.3999  0.1510  0.2396
   29TMC2    C1  448   0.761   3.186  14.408  0.5517 -0.8586 -0.0686
   29TMC2    C2  449   0.723   3.176  14.540  0.0235  0.1760 -0.5102
   29TMC2    C3  450   0.714   3.299  14.609 -0.3183  0.6134 -0.1323
   29TMC2    C4  451   0.804   3.303  14.352  0.6604  0.3579 -0.1790
   29TMC2    C5  452   0.794   3.414  14.426 -0.0588  0.7145 -0.5630
   29TMC2    C6  453   0.747   3.417  14.550 -0.1066 -0.2014  0.7012
   29TMC2     C  454   0.740   3.068  14.332 -0.7658  0.0027  0.0911
   29TMC2     O  455   0.727   2.958  14.385 -0.1380  0.1095  0.2215
   29TMC2     H  456   0.693   3.078  14.575  1.8787  1.2489  4.1182
   29TMC2    H1  457   0.858   3.300  14.258  0.7603 -0.0637 -0.1080
   29TMC2    H2  458   0.728   3.508  14.606 -2.9896 -0.1756 -0.3170
   29TMC2    C7  459   0.812   3.537  14.361  0.3624  0.8035  0.2743
   29TMC2    C8  460   0.678   3.302  14.752 -0.0446 -0.0182  0.1558
   29TMC2    O1  461   0.784   3.531  14.241 -0.1648  0.3157  0.2396
   29TMC2    O2  462   0.691   3.408  14.812  0.1143 -0.2333  0.1057
   29TMC2    O5  463   0.669   3.174  14.797  0.3781  0.0721 -0.6035
   29TMC2    H5  464   0.678   3.169  14.894  0.7625 -0.9694 -0.6895
   30MPD2     C  465   0.710   2.838  13.873  0.3355 -0.3274 -0.8236
   30MPD2    C1  466   0.775   2.802  13.988  0.0355 -0.4439  0.9482
   30MPD2    C2  467   0.772   2.890  14.096  0.6885 -0.0481  0.0620
   30MPD2    C3  468   0.716   3.014  14.089 -0.4360  0.0162 -0.1067
   30MPD2    C4  469   0.645   3.052  13.973  0.3927 -0.5438 -0.2337
   30MPD2    C5  470   0.647   2.966  13.868 -0.0935 -0.4291 -0.0848
   30MPD2     H  471   0.837   2.872  14.180  0.0801 -0.8196  0.3604
   30MPD2    H1  472   0.600   3.150  13.963  2.0060 -0.0964 -3.1859
   30MPD2    H2  473   0.706   2.783  13.780 -0.9021  0.1390 -1.0475
   30MPD2    H3  474   0.594   2.986  13.776 -1.8238  2.2441  1.5202
   30MPD2     N  475   0.712   3.102  14.202  0.3124  0.5116  0.6252
   30MPD2    H5  476   0.669   3.193  14.188  4.1438  2.4272  1.0877
   30MPD2    N1  477   0.830   2.668  14.016  0.3105 -0.5016  0.2496
   30MPD2    H7  478   0.879   2.656  14.105 -1.6508 -0.5673  1.3370
   31TMC2    C1  479   3.404   1.505  15.097 -0.3004 -0.6877 -0.1348
   31TMC2    C2  480   3.274   1.500  15.061 -0.0383 -0.8963  0.3523
   31TMC2    C3  481   3.174   1.455  15.148 -0.4657  0.3731  0.1236
   31TMC2    C4  482   3.454   1.488  15.222  0.0458 -0.3840  0.2973
   31TMC2    C5  483   3.352   1.447  15.308 -0.2206  0.8219  0.4231
   31TMC2    C6  484   3.218   1.432  15.274 -0.2084 -0.1332 -0.3895
   31TMC2     C  485   3.490   1.571  15.006  0.2074  0.3045  0.2832
   31TMC2     O  486   3.442   1.647  14.925 -0.1135  0.5390  0.1739
   31TMC2     H  487   3.259   1.526  14.957  1.8553 -0.0693  0.2714
   31TMC2    H1  488   3.558   1.487  15.253 -0.5075 -1.1416  2.1396
   31TMC2    H2  489   3.144   1.393  15.343  1.0090  1.7080  1.9625
   31TMC2    C7  490   3.384   1.389  15.435  0.1164 -0.0267  0.0860
   31TMC2    C8  491   3.037   1.416  15.114  0.1710 -0.2812 -0.1945
   31TMC2    O1  492   3.291   1.337  15.498 -0.9636 -0.2667 -0.0577
   31TMC2    O2  493   2.958   1.384  15.201 -0.8787  0.1573  0.1572
   31TMC2    O5  494   3.050   1.354  14.995 -0.1010  0.2091 -0.0756
   31TMC2    H5  495   3.133   1.374  14.946  0.1984 -2.7725 -0.7699
   32MPD2     C  496   3.946   1.600  14.778 -0.5576 -0.5248  0.3330
   32MPD2    C1  497   3.839   1.689  14.766 -1.0595  1.1737 -0.4604
   32MPD2    C2  498   3.726   1.660  14.839  0.1061  0.1216  0.4151
   32MPD2    C3  499   3.722   1.549  14.920  0.2210  0.1033 -0.9237
   32MPD2    C4  500   3.830   1.466  14.929  0.9326 -0.0694  0.0699
   32MPD2    C5  501   3.942   1.489  14.855 -0.4722  0.1067  0.5583
   32MPD2     H  502   3.641   1.728  14.841 -0.3117 -0.3600 -0.7968
   32MPD2    H1  503   3.823   1.378  14.991 -1.9252 -1.6982 -2.5802
   32MPD2    H2  504   4.036   1.623  14.722 -1.0440  2.9103  0.9397
   32MPD2    H3  505   4.028   1.422  14.861 -0.9786 -0.7786 -2.1675
   32MPD2     N  506   3.612   1.512  15.002 -0.4294 -0.6323 -0.2115
   32MPD2    H5  507   3.628   1.435  15.066  3.0235  1.6083  1.6570
   32MPD2    N1  508   3.848   1.795  14.668 -0.0104 -0.4257  0.2773
   32MPD2    H7  509   3.930   1.794  14.608  0.7365  0.6011  1.3128
   33TMC2    C1  510   3.237   4.438   9.954 -0.1337 -0.5663  0.3700
   33TMC2    C2  511   3.156   4.404   9.855  0.1559 -0.0291  0.6626
   33TMC2    C3  512   3.118   4.498   9.762 -0.0350  0.5318  0.8167
   33TMC2    C4  513   3.273   4.569   9.967 -0.1248  0.5452  0.3012
   33TMC2    C5  514   3.238   4.659   9.872 -0.2734 -0.0415  0.3676
   33TMC2    C6  515   3.157   4.628   9.765 -0.2336 -0.1737 -0.7110
   33TMC2     C  516   3.249   4.353  10.074 -0.0187 -0.6968 -0.4022
   33TMC2     O  517   3.209   4.237  10.066  0.0111  0.3450  0.8045
   33TMC2     H  518   3.116   4.303   9.851 -0.5349  0.2791 -0.1752
   33TMC2    H1  519   3.337   4.612  10.044 -1.2583  1.5786  0.6685
   33TMC2    H2  520   3.126   4.705   9.696  0.3683 -0.0902 -0.8923
   33TMC2    C7  521   3.321   0.039   9.865 -0.2858 -0.1660 -0.3470
   33TMC2    C8  522   3.039   4.441   9.660 -0.4965 -0.1701 -0.8546
   33TMC2    O1  523   3.439   0.031   9.889  0.2673  0.2808 -0.2582
   33TMC2    O2  524   2.980   4.332   9.672 -0.1082  0.1665 -0.0162
   33TMC2    O5  525   3.010   4.523   9.565  0.0558  0.1928 -0.2333
   33TMC2    H5  526   3.090   4.574   9.539  2.4761 -2.6887  1.5523
   34MPD2     C  527   3.444   4.256  10.541 -0.3616 -0.6466  0.4982
   34MPD2    C1  528   3.409   4.166  10.445 -0.0640  0.4185  0.0811
   34MPD2    C2  529   3.385   4.214  10.315  0.1242  0.1228  0.3902
   34MPD2    C3  530   3.380   4.349  10.291  0.0571  0.7073 -0.1492
   34MPD2    C4  531   3.422   4.431  10.393 -0.2781  0.3491 -0.0962
   34MPD2    C5  532   3.446   4.386  10.516 -0.0799 -0.2487 -0.3267
   34MPD2     H  533   3.356   4.148  10.235 -2.1049  1.1918  0.3359
   34MPD2    H1  534   3.419   4.539  10.386 -0.4308  0.3900  0.6838
   34MPD2    H2  535   3.450   4.222  10.644  1.3032  0.3597  0.7251
   34MPD2    H3  536   3.470   4.459  10.593  1.0976  0.0575 -0.9828
   34MPD2     N  537   3.327   4.410  10.175  0.1145  0.6637  0.5669
   34MPD2    H5  538   3.335   4.511  10.169 -1.1827  0.6415 -1.5203
   34MPD2    N1  539   3.386   4.035  10.489 -0.3616  0.2971 -0.3227
   34MPD2    H7  540   3.405   4.009  10.586 -0.8952 -1.7705 -0.7791
   35TMC2    C1  541   0.358   0.820  11.084 -0.1696  0.0616  0.1786
   35TMC2    C2  542   0.402   0.882  10.967 -0.9596 -0.5340  0.7165
   35TMC2    C3  543   0.320   0.870  10.854 -0.5001  0.8188 -0.1139
   35TMC2    C4  544   0.240   0.756  11.093  0.1495  0.5483  0.2786
   35TMC2    C5  545   0.179   0.730  10.978  0.0614  0.0454 -1.2380
   35TMC2    C6  546   0.215   0.779  10.858  0.3977  0.5110  0.6104
   35TMC2     C  547   0.471   0.774  11.165  0.3521  0.4649  0.3333
   35TMC2     O  548   0.579   0.802  11.117 -0.1687 -0.4465  0.0194
   35TMC2     H  549   0.494   0.940  10.967 -1.3732  0.1238 -0.7741
   35TMC2    H1  550   0.202   0.693  11.172  1.4180 -1.0753 -0.4233
   35TMC2    H2  551   0.164   0.751  10.767  0.5725  1.4167  0.2302
   35TMC2    C7  552   0.099   0.611  10.986  0.2269  0.1255  0.6700
   35TMC2    C8  553   0.407   0.874  10.740  0.0832 -0.1575  0.2241
   35TMC2    O1  554   0.157   0.514  11.038  0.5207  0.1982 -0.1335
   35TMC2    O2  555   0.526   0.850  10.745  0.3313  0.4055 -0.3338
   35TMC2    O5  556   0.325   0.843  10.640  0.1977 -0.6722 -0.1177
   35TMC2    H5  557   0.235   0.872  10.666  0.4471  0.4698 -0.5577
   36MPD2     C  558   0.641   0.403  11.478  0.0266 -0.0394 -0.2810
   36MPD2    C1  559   0.504   0.418  11.488  0.2529 -0.5600  1.0129
   36MPD2    C2  560   0.445   0.520  11.423  0.1957 -0.0899 -0.1543
   36MPD2    C3  561   0.516   0.607  11.339  0.0602  0.9255  0.3371
   36MPD2    C4  562   0.650   0.593  11.325  0.6280 -0.6385 -0.3949
   36MPD2    C5  563   0.715   0.493  11.400 -0.3209 -0.3385 -0.5540
   36MPD2     H  564   0.339   0.536  11.431  0.4503  0.2076  2.5711
   36MPD2    H1  565   0.717   0.652  11.262 -1.4711  0.8310 -1.2398
   36MPD2    H2  566   0.693   0.329  11.539 -0.2189  0.4220  0.4853
   36MPD2    H3  567   0.822   0.487  11.380  0.1531  0.1900  1.8926
   36MPD2     N  568   0.433   0.696  11.274  0.3287  0.3698 -0.6978
   36MPD2    H5  569   0.334   0.676  11.288  0.2714  0.2164 -1.3028
   36MPD2    N1  570   0.436   0.330  11.580  0.0725  0.0475 -0.6634
   36MPD2    H7  571   0.494   0.258  11.622  1.0424  1.4564  0.4150
   37TMC2    C1  572   2.522   1.480  12.149 -0.6180 -0.0204  0.5199
   37TMC2    C2  573   2.446   1.565  12.070 -0.3818  0.6022  1.2032
   37TMC2    C3  574   2.513   1.617  11.959 -0.9388 -0.5538  0.6549
   37TMC2    C4  575   2.644   1.437  12.116  0.2780  0.1609  0.4148
   37TMC2    C5  576   2.695   1.483  12.000 -0.8302  0.8764  0.9845
   37TMC2    C6  577   2.637   1.573  11.915  0.3153  0.3253  0.0455
   37TMC2     C  578   2.450   1.430  12.267 -0.6816  0.2174  0.1954
   37TMC2     O  579   2.334   1.458  12.292 -0.3659 -0.0177 -0.1889
   37TMC2     H  580   2.353   1.609  12.106 -1.2363 -0.4542  0.2609
   37TMC2    H1  581   2.697   1.358  12.167 -0.4256  0.0873  1.0435
   37TMC2    H2  582   2.671   1.595  11.814  0.8749 -0.7669  0.0008
   37TMC2    C7  583   2.834   1.444  11.975  0.3497  0.1392 -0.2093
   37TMC2    C8  584   2.438   1.684  11.852 -0.1239 -0.2675 -0.2118
   37TMC2    O1  585   2.905   1.445  12.074 -0.1387  0.0239 -0.7141
   37TMC2    O2  586   2.492   1.748  11.764 -0.0076 -0.6762  0.2282
   37TMC2    O5  587   2.314   1.621  11.848 -0.0491 -0.5687  0.8437
   37TMC2    H5  588   2.295   1.538  11.898  0.1380 -1.1048  0.0370
   38MPD2     C  589   2.491   1.125  12.677 -0.2428  0.6890  0.3668
   38MPD2    C1  590   2.618   1.176  12.648  0.1705  0.5427  0.1099
   38MPD2    C2  591   2.627   1.257  12.542  0.0336 -0.6315  0.0815
   38MPD2    C3  592   2.517   1.304  12.474  0.0721 -0.2001 -0.1630
   38MPD2    C4  593   2.390   1.256  12.501  0.4094 -0.1271  0.6236
   38MPD2    C5  594   2.380   1.169  12.611  0.5887  0.1463  0.1642
   38MPD2     H  595   2.722   1.306  12.523  0.1548 -0.4473  1.1721
   38MPD2    H1  596   2.302   1.303  12.458  1.7655  1.0800 -0.8481
   38MPD2    H2  597   2.467   1.058  12.759  0.2888  1.0750  0.8462
   38MPD2    H3  598   2.279   1.140  12.639  0.5491 -0.2618 -0.4092
   38MPD2     N  599   2.540   1.382  12.361  0.4100  0.3886  0.2091
   38MPD2    H5  600   2.636   1.398  12.333  1.1108 -2.5450  0.9134
   38MPD2    N1  601   2.737   1.129  12.709 -0.0309  0.0670  0.4303
   38MPD2    H7  602   2.823   1.139  12.655  0.5963 -1.7774  1.0870
   39TMC2    C1  603   0.302   3.423   2.022 -0.4448 -0.0808  0.0193
   39TMC2    C2  604   0.231   3.445   2.137 -0.2755 -0.0997 -0.0690
   39TMC2    C3  605   0.285   3.542   2.220  0.3191  0.1118 -0.3715
   39TMC2    C4  606   0.420   3.482   1.991  0.3071  0.0099 -0.5519
   39TMC2    C5  607   0.473   3.570   2.084 -0.7203 -0.6525 -0.0818
   39TMC2    C6  608   0.401   3.610   2.192  0.5428 -0.2324  0.1834
   39TMC2     C  609   0.252   3.320   1.931 -1.0845  0.7170  0.7495
   39TMC2     O  610   0.135   3.292   1.940 -0.3309 -0.3339 -0.2608
   39TMC2     H  611   0.141   3.391   2.162 -0.3168  0.4283  0.9233
   39TMC2    H1  612   0.478   3.450   1.906 -0.6360 -2.6801 -0.1895
   39TMC2    H2  613   0.440   3.692   2.251  2.3425  0.0104 -1.3663
   39TMC2    C7  614   0.610   3.603   2.069 -0.6108 -0.6146  0.2232
   39TMC2    C8  615   0.194   3.592   2.326  0.0823  0.3399 -0.0839
   39TMC2    O1  616   0.651   3.624   1.953  0.0607 -0.0104  0.3008
   39TMC2    O2  617   0.081   3.555   2.327  0.6151 -0.0021 -0.1394
   39TMC2    O5  618   0.270   3.633   2.435  0.9784 -0.3134 -0.0651
   39TMC2    H5  619   0.368   3.637   2.427  1.2635  0.7944  4.0670
   40MPD2     C  620   0.466   3.042   1.790  0.3716  0.2651 -0.2255
   40MPD2    C1  621   0.350   3.113   1.819 -0.1330  0.6078  0.0900
   40MPD2    C2  622   0.230   3.053   1.780 -0.1907  0.4963  0.0135
   40MPD2    C3  623   0.221   2.932   1.710 -0.0392 -0.4361  0.0977
   40MPD2    C4  624   0.334   2.855   1.699 -0.5104 -0.0844  0.5050
   40MPD2    C5  625   0.454   2.916   1.732  0.3985 -0.5273 -0.2980
   40MPD2     H  626   0.143   3.117   1.792  0.1683  0.9312  0.2822
   40MPD2    H1  627   0.336   2.775   1.626 -0.1917  0.3537  0.0368
   40MPD2    H2  628   0.565   3.076   1.818  0.7738 -1.0704 -0.0216
   40MPD2    H3  629   0.548   2.864   1.719  0.6929 -0.1821  0.4669
   40MPD2     N  630   0.104   2.877   1.650  0.4198 -0.1128  0.2153
   40MPD2    H5  631   0.107   2.781   1.617 -1.4765 -0.5587  1.3190
   40MPD2    N1  632   0.363   3.242   1.886  0.0248  0.2533  0.1456
   40MPD2    H7  633   0.454   3.274   1.917  0.3888 -1.5094  0.9225
   41TMC2    C1  634   4.608   0.616  13.784 -0.5622  0.1984 -0.0882
   41TMC2    C2  635   4.618   0.754  13.774  0.0624 -0.2958  0.6101
   41TMC2    C3  636   4.640   0.804  13.649  0.7507  0.0300 -0.4788
   41TMC2    C4  637   4.613   0.538  13.676 -0.1598  0.4142  0.9191
   41TMC2    C5  638   4.653   0.589  13.554  0.1062  0.3764 -0.6710
   41TMC2    C6  639   4.669   0.723  13.547 -0.3760 -0.3016 -0.1654
   41TMC2     C  640   4.535   0.559  13.890  0.2663 -0.4421 -0.4139
   41TMC2     O  641   4.506   0.440  13.880 -0.0194  0.4070 -0.3813
   41TMC2     H  642   4.626   0.817  13.861 -0.2063  1.9948 -1.0112
   41TMC2    H1  643   4.594   0.431  13.672  1.3304  0.2183 -1.1299
   41TMC2    H2  644   4.727   0.760  13.463  0.8712 -1.1551  0.3076
   41TMC2    C7  645   4.729   0.502  13.464  0.0615  0.4285  0.4911
   41TMC2    C8  646   4.666   0.946  13.629 -0.0804  0.1755 -0.2216
   41TMC2    O1  647   0.062   0.415  13.512  0.4439 -0.2298 -0.4029
   41TMC2    O2  648   4.724   0.987  13.532  0.1482  0.1886 -0.0417
   41TMC2    O5  649   4.580   1.018  13.705 -0.2410  0.1260 -0.2183
   41TMC2    H5  650   4.518   0.960  13.755 -0.3601  0.1864 -0.2941
   42MPD2     C  651   4.358   0.491  14.126 -0.3767  1.1442  0.6345
   42MPD2    C1  652   4.398   0.620  14.082 -0.3632 -0.1508  0.6030
   42MPD2    C2  653   4.345   0.727  14.148 -0.5360 -0.8516 -0.2106
   42MPD2    C3  654   4.271   0.711  14.270  0.6841 -0.2089 -0.3536
   42MPD2    C4  655   4.232   0.584  14.305  0.3767  0.4291 -0.1387
   42MPD2    C5  656   4.278   0.478  14.235 -0.0978 -0.5888 -0.3494
   42MPD2     H  657   4.378   0.827  14.121  0.0626 -1.4289 -1.6064
   42MPD2    H1  658   4.179   0.563  14.398  1.9069  0.9665  0.8502
   42MPD2    H2  659   4.381   0.400  14.071 -0.4323  0.6998  1.3603
   42MPD2    H3  660   4.245   0.383  14.276  0.5758 -0.7201 -0.1123
   42MPD2     N  661   4.237   0.815  14.367 -0.1374 -0.0906 -0.8165
   42MPD2    H5  662   4.202   0.787  14.458  0.3780 -1.7126 -1.1058
   42MPD2    N1  663   4.478   0.652  13.972 -0.0730 -0.2508 -0.0251
   42MPD2    H7  664   4.489   0.751  13.952 -1.4730  0.0022  0.4303
   43TMC2    C1  665   0.871   3.855   0.942  0.0735 -0.4622  0.4628
   43TMC2    C2  666   0.785   3.770   0.993  0.1448 -0.1973 -0.3048
   43TMC2    C3  667   0.769   3.776   1.131 -0.5430 -0.6563  0.4101
   43TMC2    C4  668   0.923   3.965   1.005 -1.0355  0.7400  0.0767
   43TMC2    C5  669   0.905   3.968   1.142  0.2421  0.5223  0.9485
   43TMC2    C6  670   0.834   3.868   1.204 -0.1699 -0.0090  0.2622
   43TMC2     C  671   0.893   3.834   0.808  0.4848 -0.5075  0.6181
   43TMC2     O  672   0.910   3.721   0.764 -0.0105 -0.5974  0.1329
   43TMC2     H  673   0.727   3.697   0.937 -1.5098  1.4445 -0.7447
   43TMC2    H1  674   1.000   4.028   0.961 -0.0094 -1.4962 -1.3317
   43TMC2    H2  675   0.840   3.861   1.312  1.0992  1.5094  0.2864
   43TMC2    C7  676   0.973   4.063   1.228  0.3537  0.1503  0.1311
   43TMC2    C8  677   0.710   3.663   1.201 -0.2595  0.8640  0.3191
   43TMC2    O1  678   1.067   4.121   1.183 -0.7894  0.1159 -0.1078
   43TMC2    O2  679   0.642   3.688   1.299 -0.2277  0.1926 -0.6388
   43TMC2    O5  680   0.723   3.546   1.132  0.1151  0.0980 -0.0882
   43TMC2    H5  681   0.786   3.543   1.057 -0.5000  0.6109 -0.6217
   44MPD2     C  682   0.844   4.007   0.323 -0.2800 -0.6152  0.3928
   44MPD2    C1  683   0.872   3.877   0.374 -0.4158  0.2585 -0.5783
   44MPD2    C2  684   0.893   3.859   0.509  0.2807  0.9321 -0.2068
   44MPD2    C3  685   0.881   3.968   0.598 -0.4577 -0.1696  1.1259
   44MPD2    C4  686   0.853   4.090   0.544  0.0613  0.5503  0.1591
   44MPD2    C5  687   0.832   4.108   0.409 -0.3830 -0.5349  0.6813
   44MPD2     H  688   0.914   3.758   0.542 -2.8989  0.1846 -0.4703
   44MPD2    H1  689   0.847   4.175   0.610 -0.5562 -0.2594  1.1322
   44MPD2    H2  690   0.821   4.016   0.217 -0.5591  0.5637  0.5541
   44MPD2    H3  691   0.799   4.204   0.370  1.5438  0.1757  0.7872
   44MPD2     N  692   0.877   3.954   0.741 -0.6625 -0.0526  0.1319
   44MPD2    H5  693   0.862   4.038   0.796 -1.3049 -0.3778  0.4542
   44MPD2    N1  694   0.892   3.763   0.295  0.3188 -0.0275  0.0560
   44MPD2    H7  695   0.900   3.672   0.341 -0.3266  0.8392  1.8846
   45TMC2    C1  696   1.867   0.927  10.087  0.8005 -0.3968 -0.2158
   45TMC2    C2  697   1.951   0.875  10.182  0.4802  0.8150  0.0944
   45TMC2    C3  698   1.988   0.944  10.294 -0.0571 -0.4006 -0.3393
   45TMC2    C4  699   1.812   1.054  10.108 -0.0795 -0.5478 -0.1886
   45TMC2    C5  700   1.862   1.124  10.213 -0.7147 -0.7382  0.5912
   45TMC2    C6  701   1.941   1.069  10.309 -0.2299  0.2480  0.1077
   45TMC2     C  702   1.813   0.839   9.983 -0.0047 -0.3205 -0.6208
   45TMC2     O  703   1.846   0.723   9.994 -0.1436  0.4572 -0.0743
   45TMC2     H  704   1.984   0.772  10.176  1.3823  1.0839  0.3096
   45TMC2    H1  705   1.737   1.094  10.040  0.7787 -1.4273 -1.6693
   45TMC2    H2  706   1.951   1.137  10.393 -1.9401  1.4567 -0.6474
   45TMC2    C7  707   1.842   1.265  10.217  0.1934 -0.3747  0.8938
   45TMC2    C8  708   2.015   0.878  10.419 -0.5791  0.2802 -0.3099
   45TMC2    O1  709   1.888   1.326  10.311  0.3889 -0.6420  0.1009
   45TMC2    O2  710   2.007   0.948  10.519 -0.9881 -0.7296  0.3383
   45TMC2    O5  711   2.053   0.746  10.409  0.0594  0.0507 -0.5421
   45TMC2    H5  712   2.092   0.727  10.322 -1.0624  1.3082 -1.3296
   46MPD2     C  713   1.652   0.713   9.762 -0.1511  0.0580 -0.3654
   46MPD2    C1  714   1.646   0.850   9.794  0.2098  1.1520  0.0768
   46MPD2    C2  715   1.560   0.926   9.724 -0.5834 -1.3445  0.2526
   46MPD2    C3  716   1.473   0.878   9.631  0.4591  0.0948  0.9854
   46MPD2    C4  717   1.477   0.742   9.603 -0.2399  0.3167 -0.1874
   46MPD2    C5  718   1.564   0.662   9.667  0.1042  0.1469  0.0431
   46MPD2     H  719   1.558   1.031   9.754  3.0429 -1.2295  0.1591
   46MPD2    H1  720   1.411   0.692   9.534 -0.2390  1.1334 -0.7778
   46MPD2    H2  721   1.714   0.644   9.818 -0.4633 -0.0843 -0.1997
   46MPD2    H3  722   1.568   0.554   9.654 -1.7537  0.3141 -1.8154
   46MPD2     N  723   1.369   0.963   9.589 -0.0204  0.1098 -0.6542
   46MPD2    H5  724   1.369   1.063   9.608 -0.0864 -0.0868  0.3602
   46MPD2    N1  725   1.727   0.907   9.901 -0.3967 -0.0460 -0.3146
   46MPD2    H7  726   1.733   1.008   9.897  0.7832 -0.1171 -0.4311
   47TMC2    C1  727   4.164   2.483   9.126 -1.0097 -0.4954 -0.1485
   47TMC2    C2  728   4.170   2.611   9.078 -0.7684  0.6150  0.1830
   47TMC2    C3  729   4.064   2.698   9.094 -0.2063  0.0967  0.2314
   47TMC2    C4  730   4.047   2.439   9.188 -0.2879  0.5942  0.2417
   47TMC2    C5  731   3.938   2.525   9.189 -0.0457  0.4369 -0.1555
   47TMC2    C6  732   3.945   2.655   9.145 -0.1695 -0.7098  0.1627
   47TMC2     C  733   4.281   2.394   9.108  0.1811  0.1348  0.1891
   47TMC2     O  734   4.360   2.439   9.028 -0.2167  0.4162  0.0030
   47TMC2     H  735   4.262   2.656   9.043 -1.2247  0.5049 -1.1484
   47TMC2    H1  736   4.040   2.332   9.209 -1.9877  0.9649  1.5784
   47TMC2    H2  737   3.852   2.705   9.122 -0.2426 -1.0322 -0.2429
   47TMC2    C7  738   3.814   2.473   9.252  0.1803 -0.1922  0.4892
   47TMC2    C8  739   4.076   2.826   9.034  0.2529 -0.1261  0.3043
   47TMC2    O1  740   3.813   2.348   9.269  0.2549 -0.3430 -0.1885
   47TMC2    O2  741   4.175   2.858   8.963  0.3906 -0.4464 -0.4977
   47TMC2    O5  742   3.975   2.902   9.078  0.6807 -0.3350 -0.4626
   47TMC2    H5  743   3.915   2.858   9.142 -0.9060  0.2610 -1.5308
   48MPD2     C  744   4.510   2.213   9.109  0.3097  0.1292  0.7799
   48MPD2    C1  745   4.388   2.185   9.177  0.1212  0.2592  0.2462
   48MPD2    C2  746   4.385   2.071   9.249  0.3737 -0.2395 -0.0998
   48MPD2    C3  747   4.490   1.984   9.264  0.1438  0.0621 -0.2431
   48MPD2    C4  748   4.604   1.995   9.188 -0.2948  0.0623 -0.2713
   48MPD2    C5  749   4.614   2.119   9.126  0.0296  0.0244  0.0222
   48MPD2     H  750   4.289   2.050   9.294 -0.5896  1.1215 -1.5114
   48MPD2    H1  751   4.683   1.921   9.184  0.5189  0.9865 -1.5556
   48MPD2    H2  752   4.538   2.299   9.050 -2.5919  0.5360  0.0013
   48MPD2    H3  753   4.711   2.149   9.087  0.4683 -2.0079 -0.4183
   48MPD2     N  754   4.471   1.863   9.340 -0.6656  0.2183 -0.4993
   48MPD2    H5  755   4.383   1.843   9.386  1.2330  0.1656  3.1768
   48MPD2    N1  756   4.280   2.273   9.179  0.9877  0.3545  0.3029
   48MPD2    H7  757   4.199   2.248   9.235 -0.9138  0.0964 -2.5705
   49TMC2    C1  758   2.491   3.521   9.805  0.4493 -0.2371  0.2023
   49TMC2    C2  759   2.489   3.532   9.668 -0.8468 -0.3628  0.1904
   49TMC2    C3  760   2.457   3.413   9.607  0.4197  0.5372 -0.2286
   49TMC2    C4  761   2.469   3.405   9.875  0.3184 -1.0098  0.4642
   49TMC2    C5  762   2.426   3.300   9.808  0.2477  0.0098  0.1340
   49TMC2    C6  763   2.424   3.296   9.675  0.0194  0.1778 -0.9063
   49TMC2     C  764   2.540   3.643   9.876  0.2557  1.3962  0.0356
   49TMC2     O  765   2.592   3.725   9.801 -0.1258 -0.5936 -0.0292
   49TMC2     H  766   2.506   3.629   9.621 -1.2006 -2.1919 -3.7488
   49TMC2    H1  767   2.492   3.406   9.981  0.5393 -1.6946  0.4210
   49TMC2    H2  768   2.388   3.205   9.629 -1.1847 -0.9333  2.2564
   49TMC2    C7  769   2.382   3.181   9.876 -0.2714 -0.1394  0.7373
   49TMC2    C8  770   2.402   3.424   9.475 -0.5324 -0.0171  0.0787
   49TMC2    O1  771   2.304   3.120   9.809  0.0470 -0.0242 -0.0086
   49TMC2    O2  772   2.344   3.327   9.425 -0.3855  0.3075  0.3139
   49TMC2    O5  773   2.483   3.503   9.395 -0.1197  0.0171  0.0629
   49TMC2    H5  774   2.541   3.563   9.447  1.8963 -2.9798  1.2894
   50MPD2     C  775   2.651   3.848  10.063 -0.0926  0.3463  0.0859
   50MPD2    C1  776   2.566   3.750  10.099 -0.0531  0.1121  0.5239
   50MPD2    C2  777   2.517   3.755  10.226 -0.6977 -0.0950  0.1144
   50MPD2    C3  778   2.557   3.851  10.317 -0.5735 -0.0804  0.3697
   50MPD2    C4  779   2.644   3.951  10.279  0.1297  0.0724 -0.0854
   50MPD2    C5  780   2.692   3.941  10.148 -0.1433  0.1338  0.4890
   50MPD2     H  781   2.442   3.682  10.253 -0.6436 -0.5432 -0.9556
   50MPD2    H1  782   2.679   4.024  10.351  2.0236 -1.4823  0.5687
   50MPD2    H2  783   2.686   3.854   9.960  0.0096 -2.0078 -0.0065
   50MPD2    H3  784   2.753   4.023  10.112 -0.9375  0.3332 -0.3913
   50MPD2     N  785   2.510   3.852  10.454 -0.1591 -0.0109 -0.3721
   50MPD2    H5  786   2.537   3.932  10.511 -0.6229 -1.2445  1.5682
   50MPD2    N1  787   2.523   3.648  10.013 -0.1093 -0.5464 -0.2521
   50MPD2    H7  788   2.462   3.576  10.050  0.6868 -0.0340  2.0151
   51TMC2    C1  789   2.407   3.015   1.127 -0.1450 -0.0317 -0.0801
   51TMC2    C2  790   2.494   2.906   1.130  0.6727 -0.2663  0.4375
   51TMC2    C3  791   2.619   2.950   1.098 -0.2010  0.5826  0.5462
   51TMC2    C4  792   2.446   3.142   1.101  0.1652 -0.5645 -0.4001
   51TMC2    C5  793   2.577   3.167   1.065 -0.1349  0.4747 -0.4883
   51TMC2    C6  794   2.669   3.071   1.060 -0.2519 -0.0059 -0.0613
   51TMC2     C  795   2.275   2.998   1.187  0.1981  0.4339 -0.3214
   51TMC2     O  796   2.221   2.890   1.178  0.1358  0.0205 -0.1009
   51TMC2     H  797   2.479   2.805   1.168 -1.5027 -0.0117  0.2671
   51TMC2    H1  798   2.374   3.223   1.105  1.0521  0.0781  2.1453
   51TMC2    H2  799   2.775   3.094   1.063  0.0483 -1.2679 -1.0609
   51TMC2    C7  800   2.624   3.309   1.065  0.3877 -0.7841  0.1595
   51TMC2    C8  801   2.717   2.849   1.123 -0.7868 -0.0827 -0.0655
   51TMC2    O1  802   2.736   3.328   1.114  0.1603 -0.4253 -0.0390
   51TMC2    O2  803   2.716   2.786   1.227  0.7419 -0.0993  0.3174
   51TMC2    O5  804   2.729   2.785   1.001  0.2622  0.4128  0.2749
   51TMC2    H5  805   2.686   2.836   0.929  0.4968 -0.5823 -0.5713
   52MPD2     C  806   1.947   3.111   1.571 -0.1399  0.1235  0.0053
   52MPD2    C1  807   1.956   2.999   1.485  0.1912 -0.3106 -0.3670
   52MPD2    C2  808   2.055   2.995   1.397  0.8070 -0.3935  0.0129
   52MPD2    C3  809   2.138   3.104   1.366  0.7850 -0.3728  0.3203
   52MPD2    C4  810   2.117   3.213   1.440 -0.0023  0.4381  0.9008
   52MPD2    C5  811   2.031   3.217   1.548 -0.0109  0.2093 -0.3922
   52MPD2     H  812   2.073   2.902   1.345  0.2193 -1.3371  1.5210
   52MPD2    H1  813   2.175   3.303   1.426  0.0473  0.0430 -1.5194
   52MPD2    H2  814   1.882   3.113   1.658  3.4338  1.7242  2.6675
   52MPD2    H3  815   2.043   3.305   1.609 -0.4350 -0.7287  1.0462
   52MPD2     N  816   2.245   3.102   1.275 -0.0788  0.3811 -0.2507
   52MPD2    H5  817   2.312   3.178   1.276  1.7609 -1.2469  0.6302
   52MPD2    N1  818   1.886   2.878   1.512  0.0978  0.4147 -0.5115
   52MPD2    H7  819   1.884   2.806   1.440  2.1909 -0.6610  0.4832
   53TMC2    C1  820   3.569   1.474  12.010  0.0463  0.0706 -0.0776
   53TMC2    C2  821   3.652   1.359  12.014  0.5108  0.1250 -0.3457
   53TMC2    C3  822   3.655   1.273  12.119  0.0773  0.3623  0.3764
   53TMC2    C4  823   3.500   1.496  12.123  0.2493 -0.0182 -1.0734
   53TMC2    C5  824   3.495   1.402  12.233  0.0657  0.1672  0.5220
   53TMC2    C6  825   3.571   1.292  12.232 -0.0040  0.0867  0.7054
   53TMC2     C  826   3.489   1.465  11.895  0.2910  0.4776  0.2192
   53TMC2     O  827   3.530   1.414  11.789 -0.1485  0.1631  0.6920
   53TMC2     H  828   3.700   1.332  11.921  0.1303 -1.7050 -0.0097
   53TMC2    H1  829   3.460   1.596  12.124  1.0575  0.3011 -0.4481
   53TMC2    H2  830   3.568   1.220  12.313  0.2022  0.1988  0.8130
   53TMC2    C7  831   3.363   1.401  12.297  0.2184  0.5295  0.0265
   53TMC2    C8  832   3.786   1.211  12.148 -0.0168 -0.5591  0.9516
   53TMC2    O1  833   3.278   1.462  12.234 -0.3247 -0.2747 -0.0426
   53TMC2    O2  834   3.798   1.093  12.166  0.1872  0.6876 -0.0458
   53TMC2    O5  835   3.885   1.295  12.121 -0.1367 -0.3232 -0.1930
   53TMC2    H5  836   3.858   1.389  12.125 -0.2006 -0.3622  0.2169
   54MPD2     C  837   3.269   1.490  11.704  1.1133  0.6024  0.4440
   54MPD2    C1  838   3.251   1.488  11.837  0.3355 -0.2069 -0.3138
   54MPD2    C2  839   3.124   1.493  11.890  0.0051  0.3912 -0.0411
   54MPD2    C3  840   3.015   1.473  11.801  0.6166  0.5750 -0.0782
   54MPD2    C4  841   3.035   1.466  11.668  0.2453  0.4622 -0.8936
   54MPD2    C5  842   3.161   1.488  11.621  0.0828 -0.9713  0.9049
   54MPD2     H  843   3.119   1.497  11.998 -1.7897  0.6573 -0.1298
   54MPD2    H1  844   2.953   1.459  11.598 -0.7613 -0.7518  0.4112
   54MPD2    H2  845   3.364   1.503  11.654 -0.4639  1.0742 -2.4303
   54MPD2    H3  846   3.173   1.489  11.513 -0.1304 -0.9256  0.8803
   54MPD2     N  847   2.879   1.454  11.843 -0.1025 -0.2554 -0.4740
   54MPD2    H5  848   2.806   1.448  11.772 -0.5151  0.7938 -0.1283
   54MPD2    N1  849   3.359   1.503  11.926 -0.6772  0.0954 -0.5673
   54MPD2    H7  850   3.334   1.524  12.022 -1.7751  0.8511 -1.0135
   55TMC2    C1  851   3.851   3.697  17.586  0.0013  0.4705  0.0640
   55TMC2    C2  852   3.824   3.642  17.463 -0.0506  0.3441 -0.7450
   55TMC2    C3  853   3.872   3.516  17.440 -0.4323  0.4206 -0.0227
   55TMC2    C4  854   3.898   3.622  17.687  1.0507  0.1784 -0.1574
   55TMC2    C5  855   3.946   3.493  17.660 -0.6979 -0.2983  0.2949
   55TMC2    C6  856   3.940   3.440  17.533  0.3387 -0.2749  0.4197
   55TMC2     C  857   3.808   3.839  17.615 -0.3369 -0.6041  0.2763
   55TMC2     O  858   3.801   3.872  17.732  0.1661  0.0828  0.2699
   55TMC2     H  859   3.769   3.695  17.386  0.5795  0.0246 -1.4141
   55TMC2    H1  860   3.912   3.670   0.043 -1.9292 -0.3401  0.5557
   55TMC2    H2  861   3.951   3.335  17.511 -1.6157 -0.3359 -0.2615
   55TMC2    C7  862   3.964   3.400   0.027  0.7279 -0.2072  0.2330
   55TMC2    C8  863   3.815   3.437  17.335 -0.5426  0.7093  0.0743
   55TMC2    O1  864   4.008   3.291  17.732 -0.8287  0.4055  0.1052
   55TMC2    O2  865   3.872   3.335  17.298  0.5359  0.4432 -0.3363
   55TMC2    O5  866   3.708   3.498  17.274  0.2953 -0.0926  0.3210
   55TMC2    H5  867   3.660   3.557  17.337 -0.4743 -0.7476  0.3529
   56MPD2     C  868   3.775   4.116  17.388 -0.0975  0.9967  0.1309
   56MPD2    C1  869   3.753   4.048  17.503  0.8503 -0.5375  0.3334
   56MPD2    C2  870   3.687   4.115  17.610  0.1055 -0.2052  0.3839
   56MPD2    C3  871   3.643   4.247  17.599  0.8815 -0.3372 -0.1890
   56MPD2    C4  872   3.674   4.312  17.483 -0.4529 -0.3347 -0.3597
   56MPD2    C5  873   3.731   4.245  17.378  0.2002 -0.5440 -0.0406
   56MPD2     H  874   3.672   4.071  17.708  1.1791 -0.8140  0.2724
   56MPD2    H1  875   3.633   4.408  17.457 -1.8206  0.2553  3.9415
   56MPD2    H2  876   3.817   4.064  17.303 -1.6969 -0.5039  0.2679
   56MPD2    H3  877   3.741   4.298  17.284 -0.4549 -0.0399  0.1748
   56MPD2     N  878   3.576   4.311  17.709 -0.1965 -0.5135  0.0463
   56MPD2    H5  879   3.563   4.246   0.047 -0.4593 -1.0703 -0.4710
   56MPD2    N1  880   3.795   3.917  17.508  0.0370  0.2830 -0.4970
   56MPD2    H7  881   3.851   3.881  17.430  3.1296 -0.8068  2.2222
   57TMC2    C1  882   2.878   0.067  13.897 -0.1898  0.1132  0.3298
   57TMC2    C2  883   2.951   0.010  13.996  0.5118 -0.4573  0.2117
   57TMC2    C3  884   3.078   4.699  13.963 -0.5361 -0.0811  0.5959
   57TMC2    C4  885   2.928   0.095  13.770  0.0345 -1.0774 -0.6328
   57TMC2    C5  886   3.050   0.046  13.748  1.0131 -1.1234  0.7235
   57TMC2    C6  887   3.130   4.716  13.838  0.4048 -0.5247  0.1587
   57TMC2     C  888   2.743   0.112  13.929  0.3044  0.2596 -0.5648
   57TMC2     O  889   2.677   0.143  13.830  0.2012 -0.4559 -0.4591
   57TMC2     H  890   2.909   4.706  14.088 -0.4815 -0.3285 -0.1957
   57TMC2    H1  891   2.861   0.140  13.698 -0.2802  1.5968  1.3718
   57TMC2    H2  892   3.232   4.691  13.815  0.1173 -1.3787 -0.1784
   57TMC2    C7  893   3.097   0.091  13.618  0.1761  0.0006  0.7519
   57TMC2    C8  894   3.155   4.608  14.051  0.3104 -0.3697  0.5824
   57TMC2    O1  895   3.043   0.187  13.560 -0.1949 -0.3015  0.2080
   57TMC2    O2  896   3.162   4.621  14.170  0.1881 -0.5496 -0.2647
   57TMC2    O5  897   3.213   4.511  13.981 -0.3120  0.0345 -0.4985
   57TMC2    H5  898   3.188   4.531  13.888  1.5474  3.8097 -0.1890
   58MPD2     C  899   2.389   0.214  14.271 -0.2447 -0.3940 -0.4209
   58MPD2    C1  900   2.373   0.177  14.135  0.9457  0.5096  0.7551
   58MPD2    C2  901   2.488   0.156  14.061 -0.0159  0.2265  0.6208
   58MPD2    C3  902   2.612   0.167  14.123  0.1952  0.1258 -0.3773
   58MPD2    C4  903   2.626   0.193  14.253  0.3934  0.4076  1.1168
   58MPD2    C5  904   2.513   0.212  14.333 -0.0594  0.1132  0.1101
   58MPD2     H  905   2.478   0.124  13.958  0.0496 -3.8441  1.8805
   58MPD2    H1  906   2.722   0.204  14.302 -0.1645 -1.2539  2.5829
   58MPD2    H2  907   2.302   0.225  14.334  1.4163  1.8323  1.4844
   58MPD2    H3  908   2.521   0.229  14.440  0.0013  1.2582 -0.0660
   58MPD2     N  909   2.732   0.136  14.060 -0.4632 -0.0401  0.4104
   58MPD2    H5  910   2.821   0.140  14.109  0.9473  1.2377 -2.2504
   58MPD2    N1  911   2.245   0.152  14.073 -0.1487 -0.2109 -0.2363
   58MPD2    H7  912   2.247   0.130  13.975  0.8056  0.0507 -0.2693
   59TMC2    C1  913   0.854   0.328  12.698  0.0674 -0.4501 -0.5174
   59TMC2    C2  914   0.965   0.267  12.752 -0.8752  0.1072 -0.1053
   59TMC2    C3  915   0.977   0.131  12.750 -0.2907 -0.1220 -1.4576
   59TMC2    C4  916   0.757   0.251  12.634 -0.3746 -0.3279 -0.0822
   59TMC2    C5  917   0.779   0.122  12.613  0.0687 -0.5034  0.2814
   59TMC2    C6  918   0.883   0.056  12.684  0.0810 -0.0065  0.5144
   59TMC2     C  919   0.828   0.467  12.711  0.1549 -0.0460 -0.3462
   59TMC2     O  920   0.744   0.519  12.638  0.0791 -0.3882  0.0324
   59TMC2     H  921   1.056   0.322  12.776 -0.9501 -0.4557  1.4488
   59TMC2    H1  922   0.673   0.301  12.586  1.6081  1.6307 -1.5074
   59TMC2    H2  923   0.889   4.683  12.681 -0.4479 -0.0299  0.3574
   59TMC2    C7  924   0.679   0.027  12.554  0.7278  0.4277 -0.3006
   59TMC2    C8  925   1.109   0.076  12.756  0.3828 -0.3150 -0.0120
   59TMC2    O1  926   0.673   4.656  12.609 -0.6189  0.8370  0.2057
   59TMC2    O2  927   1.210   0.135  12.719  0.1972 -0.0157  0.5801
   59TMC2    O5  928   1.100   4.689  12.801 -0.1754  0.5314 -0.2896
   59TMC2    H5  929   1.027   4.674  12.864 -0.9030  0.1683 -1.2161
   60MPD2     C  930   0.825   0.755  12.776 -0.6483 -0.2774  0.0424
   60MPD2    C1  931   0.898   0.663  12.852  0.2013 -0.5736  0.0372
   60MPD2    C2  932   0.948   0.706  12.972  0.6414 -0.1205 -0.3155
   60MPD2    C3  933   0.937   0.837  13.017  0.4200  0.2280 -0.7188
   60MPD2    C4  934   0.871   0.925  12.940  0.2493  0.3317 -0.2125
   60MPD2    C5  935   0.806   0.883  12.829  0.5442  0.3583  0.0808
   60MPD2     H  936   1.008   0.636  13.029  0.3373 -0.4003 -0.3362
   60MPD2    H1  937   0.861   1.030  12.962 -0.7032  0.1673  0.1403
   60MPD2    H2  938   0.774   0.732  12.684 -0.5384 -2.2111  0.4478
   60MPD2    H3  939   0.767   0.962  12.766 -1.3870  1.6882  2.9563
   60MPD2     N  940   1.013   0.885  13.120 -0.5524  0.2173  0.3419
   60MPD2    H5  941   1.006   0.981  13.151  3.4020 -0.2169  2.6108
   60MPD2    N1  942   0.902   0.527  12.808 -0.1343 -0.7271 -0.1733
   60MPD2    H7  943   0.975   0.483  12.862 -0.7642 -0.9030  0.5423
   61TMC2    C1  944   4.601   1.142  15.136  0.2463  0.7690  0.3907
   61TMC2    C2  945   4.508   1.066  15.207  0.5245 -0.1204 -0.5194
   61TMC2    C3  946   4.425   1.137  15.293  0.3065 -0.5535 -0.3627
   61TMC2    C4  947   4.592   1.280  15.134 -0.4287 -0.5297 -0.0305
   61TMC2    C5  948   4.498   1.337  15.202  1.0399  0.1821 -0.3092
   61TMC2    C6  949   4.410   1.275  15.285  0.1378 -0.6292 -0.3154
   61TMC2     C  950   4.678   1.070  15.038  0.5907 -0.0894 -0.4096
   61TMC2     O  951   4.657   0.950  15.032 -0.1149 -0.1426 -0.2325
   61TMC2     H  952   4.522   0.959  15.216  1.4039  0.1417  1.1681
   61TMC2    H1  953   4.669   1.335  15.081 -0.5802 -1.2916 -1.0195
   61TMC2    H2  954   4.362   1.340  15.357  1.0991 -0.4079  0.1189
   61TMC2    C7  955   4.497   1.482  15.184 -0.4369  0.2082 -0.1335
   61TMC2    C8  956   4.329   1.062  15.365  0.0362  0.4244  0.3608
   61TMC2    O1  957   4.601   1.543  15.171  0.4799  0.1633  0.2789
   61TMC2    O2  958   4.352   0.965  15.430 -0.0458  0.0040  0.4692
   61TMC2    O5  959   4.206   1.102  15.319  0.2556  0.4244  0.0401
   61TMC2    H5  960   4.198   1.172  15.251  0.5165 -1.5133 -1.9715
   62MPD2     C  961   0.131   0.978  14.826  0.2662 -0.0301 -0.0572
   62MPD2    C1  962   0.126   1.107  14.876 -0.6903 -0.2509  0.5724
   62MPD2    C2  963   0.202   1.196  14.817  0.0028 -0.1453 -0.0175
   62MPD2    C3  964   0.284   1.161  14.708  0.0254 -1.2844  0.6220
   62MPD2    C4  965   0.291   1.035  14.657 -0.1858  0.3234  0.2991
   62MPD2    C5  966   0.208   0.944  14.717  0.2296  0.9044  0.0820
   62MPD2     H  967   0.198   1.295  14.861  0.7812  0.7781 -2.0269
   62MPD2    H1  968   0.348   1.006  14.569  1.2710 -0.1211  1.3796
   62MPD2    H2  969   0.065   0.904  14.870 -1.0130  1.1165 -0.0297
   62MPD2    H3  970   0.199   0.841  14.684  0.5806  0.1642  2.2908
   62MPD2     N  971   0.367   1.251  14.640 -0.3166 -0.3284 -0.0504
   62MPD2    H5  972   0.401   1.217  14.551  1.1749 -1.2969  0.8647
   62MPD2    N1  973   0.039   1.147  14.983 -0.3775 -0.0234 -0.6319
   62MPD2    H7  974   0.053   1.242  15.016  0.0268 -1.0102  2.0667
   63TMC2    C1  975   4.320   1.327  10.866  0.4771 -1.5236  0.5005
   63TMC2    C2  976   4.396   1.381  10.961  0.1193 -0.0314  0.2422
   63TMC2    C3  977   4.512   1.445  10.918 -0.2513 -0.6038  0.0670
   63TMC2    C4  978   4.331   1.352  10.732  0.0053 -0.3379 -0.3207
   63TMC2    C5  979   4.437   1.426  10.695  0.9653 -0.6569 -0.7808
   63TMC2    C6  980   4.530   1.470  10.784 -0.3887  0.4120 -0.1619
   63TMC2     C  981   4.187   1.286  10.911  0.4494 -0.0633 -0.1815
   63TMC2     O  982   4.141   1.337  11.011 -0.4660 -0.0464  0.3191
   63TMC2     H  983   4.378   1.376  11.068 -0.3933  1.5917  0.2312
   63TMC2    H1  984   4.252   1.335  10.660  0.5118  1.3501 -1.2879
   63TMC2    H2  985   4.618   1.521  10.747  0.1334  0.5107  1.2037
   63TMC2    C7  986   4.431   1.479  10.558  1.0560  0.1808  0.2802
   63TMC2    C8  987   4.613   1.484  11.016 -0.0805 -0.2220 -0.1572
   63TMC2    O1  988   4.360   1.413  10.479 -0.1284 -0.1807 -0.1307
   63TMC2    O2  989   4.615   1.437  11.132  0.0857 -0.0097  0.0604
   63TMC2    O5  990   4.646   1.616  10.993  0.3813  0.1461  0.0176
   63TMC2    H5  991   4.643   1.649  10.900  0.4372 -0.1170 -0.0776
   64MPD2     C  992   3.757   1.003  10.821  0.1550  0.1787 -0.4913
   64MPD2    C1  993   3.863   0.955  10.745 -0.2449  0.0286 -0.0369
   64MPD2    C2  994   3.992   1.009  10.759 -0.3337 -0.3515 -0.3141
   64MPD2    C3  995   4.007   1.126  10.827 -0.0659 -0.2870 -0.3086
   64MPD2    C4  996   3.901   1.180  10.892 -0.7199  0.1604 -0.7610
   64MPD2    C5  997   3.783   1.113  10.889 -0.3152  0.3146 -0.3329
   64MPD2     H  998   4.068   0.967  10.695 -0.8102 -1.2972 -0.2613
   64MPD2    H1  999   3.906   1.283  10.925  0.9315  0.0633 -0.6887
   64MPD2    H2 1000   3.660   0.955  10.825  0.0890  0.3462 -0.0859
   64MPD2    H3 1001   3.698   1.162  10.937 -1.1011 -0.0049 -1.4043
   64MPD2     N 1002   4.131   1.191  10.823 -0.4816  0.8429  0.6365
   64MPD2    H5 1003   4.207   1.144  10.774 -1.0145 -0.2193  0.8394
   64MPD2    N1 1004   3.857   0.842  10.660 -0.0225  0.3806 -0.6628
   64MPD2    H7 1005   3.942   0.830  10.606 -0.3743 -2.2222 -0.6227
   65TMC2    C1 1006   0.343   1.278  15.558 -0.3583 -0.4711 -0.2607
   65TMC2    C2 1007   0.332   1.232  15.431  0.2543  0.3751  0.5549
   65TMC2    C3 1008   0.300   1.322  15.329 -0.2388 -0.3406 -1.0277
   65TMC2    C4 1009   0.343   1.411  15.590 -0.0631  0.2489  0.2489
   65TMC2    C5 1010   0.307   1.497  15.493 -0.5449 -0.4151  0.5250
   65TMC2    C6 1011   0.278   1.453  15.365 -0.1411 -0.1473  0.6364
   65TMC2     C 1012   0.432   1.202  15.651 -0.7954 -0.4576  0.1269
   65TMC2     O 1013   0.492   1.274  15.734  0.1062  0.6771 -0.0465
   65TMC2     H 1014   0.348   1.128  15.406  4.1392  0.8806  0.9913
   65TMC2    H1 1015   0.347   1.455  15.688 -0.0292 -1.5526  1.0539
   65TMC2    H2 1016   0.272   1.532  15.290 -0.3003 -0.7517  0.0135
   65TMC2    C7 1017   0.305   1.637  15.531  0.3372 -0.1007 -0.1781
   65TMC2    C8 1018   0.242   1.266  15.211 -0.4752  0.7237  0.1521
   65TMC2    O1 1019   0.317   1.707  15.433 -0.2176  0.5649 -0.2795
   65TMC2    O2 1020   0.202   1.158  15.232 -0.0042  0.3034 -0.3010
   65TMC2    O5 1021   0.176   1.363  15.148  0.1292  0.1853  0.1224
   65TMC2    H5 1022   0.234   1.442  15.154  0.8140 -0.2248 -1.1535
   66MPD2     C 1023   0.504   1.007  15.873 -0.8719  0.5167 -0.8021
   66MPD2    C1 1024   0.456   0.973  15.749  0.2528 -0.6941 -0.1831
   66MPD2    C2 1025   0.456   0.840  15.720 -0.0665  0.3017 -0.0269
   66MPD2    C3 1026   0.482   0.739  15.807  0.1927  0.4484 -1.1082
   66MPD2    C4 1027   0.517   0.776  15.935  0.0895  0.0770 -0.1227
   66MPD2    C5 1028   0.539   0.907  15.964  0.0460 -0.0487 -0.6720
   66MPD2     H 1029   0.437   0.817  15.616 -0.0273  0.2262 -0.0174
   66MPD2    H1 1030   0.538   0.695  16.005  0.2061 -0.2764 -0.5658
   66MPD2    H2 1031   0.520   1.109  15.904  1.3985  0.4627 -1.7962
   66MPD2    H3 1032   0.579   0.935  16.060 -1.1240 -0.3088 -0.1091
   66MPD2     N 1033   0.477   0.596  15.782  0.2818 -0.0125  0.2673
   66MPD2    H5 1034   0.499   0.529  15.855  0.6185 -0.4790 -0.2671
   66MPD2    N1 1035   0.418   1.064  15.645  0.5925 -0.4477  0.1781
   66MPD2    H7 1036   0.356   1.020  15.578 -1.4348  3.6456 -0.6903
   67TMC2    C1 1037   0.460   0.238  14.550  0.0608 -0.1363  0.0073
   67TMC2    C2 1038   0.369   0.340  14.554  0.1874  0.0068  0.2077
   67TMC2    C3 1039   0.394   0.443  14.641  0.4388  0.4818 -0.2140
   67TMC2    C4 1040   0.572   0.247  14.627  0.3842 -0.3599  0.1197
   67TMC2    C5 1041   0.591   0.348  14.717  1.1770 -0.3161 -0.2858
   67TMC2    C6 1042   0.494   0.446  14.735 -0.0352  0.6166  0.0392
   67TMC2     C 1043   0.492   0.182  14.417  0.4529 -0.2098  1.0085
   67TMC2     O 1044   0.606   0.142  14.399 -0.0677 -0.1250  0.0481
   67TMC2     H 1045   0.285   0.345  14.487 -0.3941  1.1529  1.0219
   67TMC2    H1 1046   0.653   0.175  14.617  2.4744  2.1853 -1.3712
   67TMC2    H2 1047   0.521   0.538  14.785 -0.2393  1.0411 -0.6215
   67TMC2    C7 1048   0.729   0.380  14.745 -0.4071  0.2519  0.0533
   67TMC2    C8 1049   0.293   0.542  14.652  0.3883 -0.2038 -0.2632
   67TMC2    O1 1050   0.819   0.355  14.666  0.4446  0.2044 -0.5644
   67TMC2    O2 1051   0.279   0.617  14.750 -0.1545 -0.6061  0.1182
   67TMC2    O5 1052   0.267   0.581  14.525 -0.4654 -0.4316 -0.0152
   67TMC2    H5 1053   0.335   0.539  14.468 -0.8293 -1.5234  0.3674
   68MPD2     C 1054   0.538   0.207  14.126 -0.4989 -0.6654 -0.1447
   68MPD2    C1 1055   0.409   0.196  14.182  0.7214  0.2039 -0.1599
   68MPD2    C2 1056   0.303   0.188  14.095 -0.0629 -0.1805  0.4543
   68MPD2    C3 1057   0.309   0.196  13.959 -0.5190 -0.3894 -0.3046
   68MPD2    C4 1058   0.429   0.207  13.907 -0.3611  0.6248 -0.8801
   68MPD2    C5 1059   0.546   0.216  13.987  0.1142  0.6366 -0.2118
   68MPD2     H 1060   0.207   0.187  14.146  0.3520 -0.3582  1.2215
   68MPD2    H1 1061   0.437   0.206  13.799  0.2759 -1.9477 -0.8133
   68MPD2    H2 1062   0.629   0.215  14.184 -0.5574 -0.0880 -0.1403
   68MPD2    H3 1063   0.638   0.232  13.931  0.2026  3.5267  0.7844
   68MPD2     N 1064   0.206   0.183  13.870 -0.6175 -0.3648 -0.4780
   68MPD2    H5 1065   0.231   0.189  13.772 -0.0132  0.1676 -0.2904
   68MPD2    N1 1066   0.387   0.192  14.324 -0.4183  0.3533 -0.2915
   68MPD2    H7 1067   0.289   0.197  14.350 -0.1793  2.4659  0.1831
   69TMC2    C1 1068   3.076   1.966  12.387  0.2477 -0.0880 -0.1709
   69TMC2    C2 1069   2.964   2.038  12.383  0.1692 -0.1567 -0.3583
   69TMC2    C3 1070   2.943   2.091  12.262  0.1800 -0.2500  0.1441
   69TMC2    C4 1071   3.156   1.934  12.284  0.8560  0.0019 -0.9852
   69TMC2    C5 1072   3.126   1.990  12.159 -0.1350  0.1279 -0.5991
   69TMC2    C6 1073   3.011   2.070  12.150  0.4836  0.2858 -0.5236
   69TMC2     C 1074   3.094   1.890  12.508  0.0362 -0.2539 -0.0685
   69TMC2     O 1075   2.987   1.872  12.567 -0.4456  0.0518 -0.5141
   69TMC2     H 1076   2.904   2.057  12.471  0.0824  0.3098 -0.5162
   69TMC2    H1 1077   3.252   1.885  12.291  0.9383  0.4798  1.5159
   69TMC2    H2 1078   2.972   2.110  12.057 -1.1580 -0.9095 -0.3526
   69TMC2    C7 1079   3.203   1.955  12.039  0.3707 -0.7223  0.3890
   69TMC2    C8 1080   2.818   2.168  12.248  0.5778  0.2222  0.3771
   69TMC2    O1 1081   3.284   1.866  12.051  0.5237 -0.5506  0.2119
   69TMC2    O2 1082   2.795   2.236  12.148 -0.0011 -0.4272  0.0404
   69TMC2    O5 1083   2.734   2.157  12.355 -0.4084 -0.3950 -0.3229
   69TMC2    H5 1084   2.760   2.111  12.438 -0.3056  2.6560  1.3474
   70MPD2     C 1085   3.373   1.675  12.630 -0.1927 -0.0123 -0.1796
   70MPD2    C1 1086   3.250   1.738  12.631  0.6533  0.1160  0.2764
   70MPD2    C2 1087   3.163   1.707  12.744  0.2202 -0.2383  0.3103
   70MPD2    C3 1088   3.208   1.624  12.844  0.2306  0.3123  0.3268
   70MPD2    C4 1089   3.335   1.566  12.832  0.4433  0.2444 -0.4052
   70MPD2    C5 1090   3.416   1.589  12.730  0.0829 -0.4613  0.1875
   70MPD2     H 1091   3.061   1.741  12.738 -0.0358 -0.5512  2.8490
   70MPD2    H1 1092   3.376   1.504  12.911 -0.6361 -0.9073 -0.7588
   70MPD2    H2 1093   3.442   1.679  12.546 -1.1952  1.3630 -0.9294
   70MPD2    H3 1094   3.515   1.547  12.721  0.6489  0.6783  1.1346
   70MPD2     N 1095   3.124   1.577  12.950  0.3779  0.3091  0.0625
   70MPD2    H5 1096   3.163   1.502  13.006 -0.2438  0.4410  0.6683
   70MPD2    N1 1097   3.221   1.831  12.528 -0.1549 -0.2278  0.4015
   70MPD2    H7 1098   3.300   1.868  12.477  0.9641 -1.9185  0.8814
   71TMC2    C1 1099   4.353   2.557   1.920 -0.2571 -0.4232 -0.2575
   71TMC2    C2 1100   4.452   2.606   1.998 -0.7812 -0.3033  0.4047
   71TMC2    C3 1101   4.418   2.653   2.120  0.6889  0.8440 -0.0984
   71TMC2    C4 1102   4.224   2.567   1.957  0.4141 -0.4492 -0.0937
   71TMC2    C5 1103   4.191   2.617   2.082  0.4644 -0.3020  0.2735
   71TMC2    C6 1104   4.291   2.672   2.162 -0.2028  0.2673  0.0804
   71TMC2     C 1105   4.385   2.475   1.809 -0.2764  0.0078 -0.4610
   71TMC2     O 1106   4.503   2.482   1.774  0.4535 -0.2880 -0.1209
   71TMC2     H 1107   4.551   2.571   1.972 -0.7844 -0.3630  0.4726
   71TMC2    H1 1108   4.150   2.543   1.883  0.7590  0.1696 -0.6433
   71TMC2    H2 1109   4.269   2.701   2.264 -0.9849 -0.2112  0.0478
   71TMC2    C7 1110   4.063   2.673   2.101  0.0654 -0.1308  0.1116
   71TMC2    C8 1111   4.530   2.678   2.206  0.6446 -0.0851 -0.4334
   71TMC2    O1 1112   4.049   2.771   2.174 -0.1855  0.8692 -0.0220
   71TMC2    O2 1113   4.615   2.593   2.230  0.0759 -0.2354  0.0699
   71TMC2    O5 1114   4.499   2.779   2.284  0.3293  0.3226  0.5265
   71TMC2    H5 1115   4.446   2.843   2.231 -1.0773  0.3748  1.9803
   72MPD2     C 1116   4.332   2.079   1.485  1.1867 -0.9955 -0.3199
   72MPD2    C1 1117   4.421   2.184   1.483  0.7473 -0.1591 -0.6548
   72MPD2    C2 1118   4.418   2.275   1.587  0.1910 -0.7460 -0.1725
   72MPD2    C3 1119   4.320   2.268   1.684 -0.0179 -0.7163  0.1832
   72MPD2    C4 1120   4.231   2.165   1.679  0.7361  0.2798  0.2466
   72MPD2    C5 1121   4.241   2.071   1.583  0.2445 -0.2218 -0.2901
   72MPD2     H 1122   4.491   2.354   1.571 -0.0490 -0.5174 -0.1263
   72MPD2    H1 1123   4.145   2.162   1.746 -2.0957  0.7403 -3.3960
   72MPD2    H2 1124   4.310   2.001   1.412 -0.9653  1.0994 -1.9183
   72MPD2    H3 1125   4.165   1.994   1.587 -1.8638  1.9991  1.8437
   72MPD2     N 1126   4.293   2.370   1.777 -0.7160  0.4399 -0.5910
   72MPD2    H5 1127   4.215   2.350   1.839  1.5345  1.4340  2.5790
   72MPD2    N1 1128   4.523   2.201   1.385 -0.7934 -0.2247 -0.1806
   72MPD2    H7 1129   4.590   2.276   1.396 -0.0438 -1.2801  2.2730
   73TMC2    C1 1130   0.064   3.747  13.648 -0.3061 -0.0860 -0.3543
   73TMC2    C2 1131   4.699   3.775  13.741 -0.7963  0.0646  0.0274
   73TMC2    C3 1132   4.726   3.853  13.847  0.2285  0.3449 -0.5541
   73TMC2    C4 1133   0.192   3.790  13.666 -0.0740  0.4213  1.3394
   73TMC2    C5 1134   0.211   3.877  13.766  0.4181 -0.0958 -0.8058
   73TMC2    C6 1135   0.112   3.912  13.854 -0.3260  0.2078  0.1965
   73TMC2     C 1136   0.028   3.742  13.505 -0.0145 -0.2319  0.1941
   73TMC2     O 1137   0.101   3.818  13.441 -0.2293  0.6109 -0.3859
   73TMC2     H 1138   4.603   3.725  13.728  0.1028 -1.2147 -1.5683
   73TMC2    H1 1139   0.278   3.753  13.611 -0.6340  0.6170  0.3333
   73TMC2    H2 1140   0.122   3.981  13.936 -1.0363  1.6225 -0.9064
   73TMC2    C7 1141   0.281   3.996  13.722 -0.6732  0.1301 -0.2472
   73TMC2    C8 1142   4.638   3.848  13.955 -0.2603  0.6413 -0.3543
   73TMC2    O1 1143   0.287   4.087  13.805 -0.5391 -0.1328 -0.2285
   73TMC2    O2 1144   4.530   3.793  13.948  0.8053 -0.3177 -0.5788
   73TMC2    O5 1145   4.729   3.830  14.050  0.4979  0.3124  0.3055
   73TMC2    H5 1146   0.079   3.878  14.046  0.2993  0.9494  3.5976
   74MPD2     C 1147   4.410   3.729  13.132  0.4494 -0.6021 -0.4738
   74MPD2    C1 1148   4.517   3.811  13.158 -0.2995  0.3748 -0.2248
   74MPD2    C2 1149   4.594   3.787  13.272 -0.9258  0.3783  0.2469
   74MPD2    C3 1150   4.570   3.688  13.361 -0.3338  0.1578 -0.0531
   74MPD2    C4 1151   4.457   3.613  13.334  1.2203 -0.2668  0.2366
   74MPD2    C5 1152   4.379   3.634  13.224  0.1495  0.6598  0.5020
   74MPD2     H 1153   4.676   3.852  13.301 -0.5467 -0.2081  0.4779
   74MPD2    H1 1154   4.417   3.549  13.412 -2.0855  0.0129 -1.2451
   74MPD2    H2 1155   4.347   3.742  13.044  2.3831  0.4006 -1.6959
   74MPD2    H3 1156   4.291   3.570  13.217 -0.2458  1.6058 -3.0004
   74MPD2     N 1157   4.648   3.675  13.479  0.5663  0.8644  0.0676
   74MPD2    H5 1158   4.610   3.617  13.554  1.2039 -0.0112 -0.2869
   74MPD2    N1 1159   4.542   3.919  13.068  0.0087 -0.0131 -0.4607
   74MPD2    H7 1160   4.505   3.915  12.974 -4.1552  0.2478  1.1876
   75TMC2    C1 1161   4.719   0.152  13.774  0.6972  0.1305 -0.4109
   75TMC2    C2 1162   4.586   0.166  13.801  0.1389  0.0860 -0.5749
   75TMC2    C3 1163   4.502   0.164  13.693  1.0171 -0.1981 -0.1628
   75TMC2    C4 1164   0.041   0.129  13.652  0.6078  0.1013  0.3224
   75TMC2    C5 1165   4.685   0.127  13.551  0.6433  0.6503 -0.2503
   75TMC2    C6 1166   4.548   0.135  13.571  0.0060  0.1612 -0.1861
   75TMC2     C 1167   0.067   0.169  13.897 -0.7800 -0.0361  0.9170
   75TMC2     O 1168   0.012   0.147  14.004 -0.5230  0.0187  0.8112
   75TMC2     H 1169   4.559   0.188  13.904  1.3993 -0.7630 -0.0583
   75TMC2    H1 1170   0.146   0.110  13.638  0.7108  2.8583 -2.8478
   75TMC2    H2 1171   4.483   0.132  13.484 -1.8797  0.2075  1.2410
   75TMC2    C7 1172   4.723   0.136  13.411  0.0559 -0.1876 -0.0298
   75TMC2    C8 1173   4.364   0.197  13.706  0.0688  0.0127  0.7645
   75TMC2    O1 1174   4.637   0.138  13.328  0.3826 -0.2280  0.4851
   75TMC2    O2 1175   4.277   0.135  13.643  0.2988  0.4264 -0.2704
   75TMC2    O5 1176   4.351   0.242  13.829 -0.2394 -0.4737 -0.2831
   75TMC2    H5 1177   4.417   0.310  13.857  0.4221 -0.8679 -0.8984
   76TMC2    C1 1178   3.691   0.766  11.874 -0.3929 -0.3372 -0.0431
   76TMC2    C2 1179   3.607   0.674  11.817  0.5977  0.6837  0.8823
   76TMC2    C3 1180   3.579   0.567  11.899 -0.0107  0.0421  0.3194
   76TMC2    C4 1181   3.738   0.762  12.000  0.3534 -0.2791  0.0582
   76TMC2    C5 1182   3.688   0.669  12.082  0.0235  0.3677  0.2771
   76TMC2    C6 1183   3.614   0.567  12.027 -0.4983 -0.1072  0.1753
   76TMC2     C 1184   3.726   0.883  11.791 -0.5806 -0.1353 -0.2503
   76TMC2     O 1185   3.657   0.903  11.693  0.3805  0.2468 -0.3650
   76TMC2     H 1186   3.565   0.670  11.717  2.2872 -0.6086  0.2263
   76TMC2    H1 1187   3.811   0.830  12.043 -0.4138  0.2840  0.4605
   76TMC2    H2 1188   3.591   0.477  12.083 -0.3902  0.3001  0.8896
   76TMC2    C7 1189   3.727   0.635  12.220  1.0587 -0.6946 -0.4713
   76TMC2    C8 1190   3.519   0.452  11.850  0.5231 -0.1546 -0.1715
   76TMC2    O1 1191   3.652   0.572  12.293  0.2089 -0.6320 -0.2116
   76TMC2    O2 1192   3.436   0.391  11.915 -0.0589  0.0730  0.8780
   76TMC2    O5 1193   3.573   0.419  11.731 -0.1546 -0.0161 -0.4276
   76TMC2    H5 1194   3.637   0.479  11.687  0.1825  0.4788  0.7464
   77MPD2     C 1195   3.995   1.309  11.665 -0.1096 -0.3472 -0.1497
   77MPD2    C1 1196   3.872   1.274  11.630  0.1864 -0.4250  0.2267
   77MPD2    C2 1197   3.815   1.158  11.673 -0.0569  0.4615  0.4264
   77MPD2    C3 1198   3.886   1.077  11.771 -0.0531 -0.0785  0.3529
   77MPD2    C4 1199   4.013   1.114  11.807  1.1728  0.2534  0.1404
   77MPD2    C5 1200   4.063   1.231  11.755  0.6876  0.2577 -0.3289
   77MPD2     H 1201   3.713   1.132  11.647 -0.4304  0.7760  1.5839
   77MPD2    H1 1202   4.072   1.050  11.872 -1.5427 -1.9477  0.4578
   77MPD2    H2 1203   4.040   1.403  11.636  0.4677 -0.2331  1.1268
   77MPD2    H3 1204   4.166   1.248  11.783 -0.0237  1.8356  1.2930
   77MPD2     N 1205   3.841   0.959  11.834  0.6287 -0.2589  0.0067
   77MPD2    H5 1206   3.892   0.934  11.917 -1.9367 -0.4782  1.5161
   77MPD2    N1 1207   3.793   1.353  11.542  0.2709  0.3698  0.4938
   77MPD2    H7 1208   3.698   1.321  11.530  0.6488 -0.1802 -0.9816
   78TMC2    C1 1209   4.457   1.718   1.610  0.3634 -0.0756 -0.8710
   78TMC2    C2 1210   4.475   1.598   1.551 -1.0409  0.0788  0.0110
   78TMC2    C3 1211   4.590   1.581   1.486  0.6702 -0.0924  0.1476
   78TMC2    C4 1212   4.536   1.827   1.582  0.3047 -0.2387  0.0428
   78TMC2    C5 1213   4.650   1.807   1.514  0.5710  0.2954 -0.5340
   78TMC2    C6 1214   4.676   1.680   1.458 -0.1107  0.3303 -0.0356
   78TMC2     C 1215   4.337   1.742   1.690 -0.4741  0.2276 -0.2868
   78TMC2     O 1216   4.351   1.787   1.805 -0.4270  0.5121 -0.0522
   78TMC2     H 1217   4.399   1.522   1.565  0.0785 -0.9858  0.2116
   78TMC2    H1 1218   4.508   1.922   1.626 -1.4202 -0.3045 -0.9271
   78TMC2    H2 1219   0.033   1.665   1.403  0.2007  1.8496  0.0798
   78TMC2    C7 1220   0.004   1.907   1.466 -0.1973 -0.3754  0.2942
   78TMC2    C8 1221   4.615   1.446   1.429  1.1293 -0.3953  1.1951
   78TMC2    O1 1222   0.040   1.898   1.350 -0.5640 -0.4853  0.4595
   78TMC2    O2 1223   4.723   1.417   1.384  0.5736 -0.4551  0.2070
   78TMC2    O5 1224   4.500   1.386   1.389  0.0990 -0.1768  0.3577
   78TMC2    H5 1225   4.419   1.441   1.398  1.1906  1.0788  2.7911
   79MPD1     C 1226   3.832   1.676   1.764  0.1581 -0.4782 -0.1642
   79MPD1    C1 1227   3.914   1.780   1.802  0.0155 -0.7561 -0.6393
   79MPD1    C2 1228   4.039   1.787   1.755  0.3280  0.6470 -0.1193
   79MPD1    C3 1229   4.092   1.684   1.677 -0.4921  0.0585  0.7604
   79MPD1    C4 1230   4.011   1.580   1.632  0.1992  0.8672  0.3333
   79MPD1    C5 1231   3.882   1.581   1.676  0.3553 -0.0616  0.2389
   79MPD1     H 1232   4.114   1.855   1.792 -1.7254  0.9770  3.4694
   79MPD1    H1 1233   4.047   1.497   1.572  0.0956 -0.0190  1.4914
   79MPD1    H2 1234   3.728   1.670   1.792 -0.2101  2.1827 -0.9083
   79MPD1    H3 1235   3.822   1.500   1.636 -0.4153  1.0540 -0.8617
   79MPD1     N 1236   4.228   1.681   1.635 -0.0530 -0.1266  0.2287
   79MPD1    H5 1237   4.248   1.612   1.562 -0.8204  0.0570 -0.1482
   79MPD1    N1 1238   3.854   1.880   1.883  0.4586 -0.2097  0.1085
   79MPD1    H6 1239   3.789   1.848   1.954  1.4373 -0.1880  1.0055
   79MPD1    H7 1240   3.921   1.946   1.922  2.8763 -2.1497 -0.7273
   80TMC2    C1 1241   3.331   1.117  11.881  0.3265 -0.2638 -0.0157
   80TMC2    C2 1242   3.407   1.141  11.774 -0.8554  0.4474  0.0598
   80TMC2    C3 1243   3.348   1.156  11.653 -0.0499 -0.8713 -1.2762
   80TMC2    C4 1244   3.197   1.100  11.878 -0.3212  0.2287 -0.3134
   80TMC2    C5 1245   3.145   1.111  11.753 -0.0068  0.8604 -0.1079
   80TMC2    C6 1246   3.210   1.145  11.638 -0.2428  0.1687  0.5107
   80TMC2     C 1247   3.405   1.067  11.996 -0.1531  0.0735  0.1836
   80TMC2     O 1248   3.513   1.015  11.971  0.1660  0.1805 -0.2962
   80TMC2     H 1249   3.516   1.136  11.779 -0.9330 -2.3809 -1.1784
   80TMC2    H1 1250   3.146   1.051  11.960 -1.5449 -0.1331 -1.2814
   80TMC2    H2 1251   3.162   1.122  11.544  1.1488  0.2473 -0.2260
   80TMC2    C7 1252   3.009   1.062  11.729 -0.1287  0.2579 -0.4245
   80TMC2    C8 1253   3.420   1.182  11.536  0.5068 -0.4128 -0.1113
   80TMC2    O1 1254   2.934   1.114  11.649 -0.1216 -0.5323  0.1753
   80TMC2    O2 1255   3.408   1.116  11.434  0.0092  0.0604  0.0659
   80TMC2    O5 1256   3.512   1.274  11.574  0.0634  0.2373 -0.3673
   80TMC2    H5 1257   3.499   1.310  11.664  0.5619  0.8423 -0.5328
   81MPD2     C 1258   3.507   0.977  12.247  0.2657  0.0826  0.1117
   81MPD2    C1 1259   3.378   1.014  12.230 -0.8135 -0.4082 -0.3956
   81MPD2    C2 1260   3.291   1.009  12.335 -0.4433 -0.0838 -0.0102
   81MPD2    C3 1261   3.319   0.931  12.445 -0.2086 -0.0050 -0.6691
   81MPD2    C4 1262   3.452   0.897  12.466  0.0978 -0.4035  0.0774
   81MPD2    C5 1263   3.542   0.915  12.371 -0.5243 -0.4241 -0.1744
   81MPD2     H 1264   3.193   1.053  12.321  0.6787  1.3496 -3.2739
   81MPD2    H1 1265   3.482   0.849  12.559  2.0318  2.9361  1.2215
   81MPD2    H2 1266   3.581   0.998  12.171  0.9369  0.4282  0.8618
   81MPD2    H3 1267   3.646   0.887  12.386 -0.3973 -0.1260 -0.4927
   81MPD2     N 1268   3.221   0.895  12.540 -0.6266 -0.6988 -0.4463
   81MPD2    H5 1269   3.251   0.833  12.615 -1.3640 -0.0237  0.3920
   81MPD2    N1 1270   3.333   1.074  12.112  0.2127 -0.2082  0.2310
   81MPD2    H7 1271   3.240   1.116  12.112  0.7046  0.8783  0.2191
   82TMC2    C1 1272   1.224   4.435  11.053  0.2919  0.2225 -0.2085
   82TMC2    C2 1273   1.325   4.501  11.119 -0.3848  0.2526  0.3086
   82TMC2    C3 1274   1.382   4.424  11.224 -0.4701 -0.0636 -0.3184
   82TMC2    C4 1275   1.185   4.310  11.088  0.1147 -0.1323 -0.6216
   82TMC2    C5 1276   1.240   4.239  11.196  0.2331  0.2381 -0.8472
   82TMC2    C6 1277   1.343   4.301  11.261 -0.3562  0.1415 -0.0116
   82TMC2     C 1278   1.144   4.503  10.951  0.3014 -0.1883 -0.6283
   82TMC2     O 1279   1.032   4.459  10.933  0.1942 -0.4481 -0.0137
   82TMC2     H 1280   1.359   4.602  11.101 -0.1846  0.3492  1.2161
   82TMC2    H1 1281   1.100   4.277  11.030  0.4290  0.6595 -1.5250
   82TMC2    H2 1282   1.393   4.236  11.332  1.0678  1.6420  0.3426
   82TMC2    C7 1283   1.169   4.132  11.254 -0.1328 -0.2580  0.3112
   82TMC2    C8 1284   1.484   4.485  11.307 -0.1325  0.5196 -0.5018
   82TMC2    O1 1285   1.195   4.111  11.371 -0.2567  0.0510 -0.1637
   82TMC2    O2 1286   1.532   4.595  11.282  0.2500  0.5336 -0.1521
   82TMC2    O5 1287   1.501   4.419  11.423 -0.1018 -0.2267 -0.0838
   82TMC2    H5 1288   1.425   4.361  11.442 -0.3822  0.8494  2.0525
   83MPD2     C 1289   1.064   0.161  10.627 -0.1658 -0.0506  0.2824
   83MPD2    C1 1290   0.981   0.053  10.658  0.5270  0.3238  0.2359
   83MPD2    C2 1291   1.031   4.678  10.736  0.9895 -0.6495 -0.7984
   83MPD2    C3 1292   1.154   4.695  10.799 -0.0976 -0.1887 -0.7599
   83MPD2    C4 1293   1.232   0.065  10.759  0.1918  0.2442  0.5965
   83MPD2    C5 1294   1.190   0.161  10.669 -0.7984 -0.2230 -0.3998
   83MPD2     H 1295   0.964   4.597  10.763 -0.0090  0.0739 -1.1219
   83MPD2    H1 1296   1.334   0.075  10.793  0.6441  0.4686 -0.8023
   83MPD2    H2 1297   1.030   0.236  10.556 -2.3594 -2.0670 -0.8326
   83MPD2    H3 1298   1.257   0.237  10.632  1.1644 -0.8236  1.9565
   83MPD2     N 1299   1.203   4.614  10.898  0.5306  0.5749 -0.2320
   83MPD2    H5 1300   1.296   4.639  10.930 -0.1205  0.2690  1.9013
   83MPD2    N1 1301   0.851   0.046  10.613  0.5381 -0.0966  0.3038
   83MPD2    H7 1302   0.816   0.120  10.552  0.4681  0.4164  0.9664
   84TMC2    C1 1303   2.334   3.817  10.863 -0.2409 -0.7262 -0.5011
   84TMC2    C2 1304   2.457   3.806  10.927 -0.8944  0.4059  0.3978
   84TMC2    C3 1305   2.567   3.762  10.851 -0.2044  0.4032  0.2361
   84TMC2    C4 1306   2.328   3.798  10.727 -0.3354 -0.5666  0.4848
   84TMC2    C5 1307   2.441   3.770  10.658  0.5230  0.3610  0.1099
   84TMC2    C6 1308   2.565   3.757  10.710  0.0754 -0.0875 -0.1010
   84TMC2     C 1309   2.223   3.899  10.920  0.1554  0.6569 -0.6313
   84TMC2     O 1310   2.206   3.877  11.039  0.0781 -0.4623 -0.0689
   84TMC2     H 1311   2.463   3.834  11.031 -1.4089  3.0480 -0.2811
   84TMC2    H1 1312   2.231   3.793  10.680 -1.0472  0.6025  1.8297
   84TMC2    H2 1313   2.651   3.737  10.647  0.5039  0.2871  0.3746
   84TMC2    C7 1314   2.428   3.762  10.514  0.6594  0.2353 -0.5088
   84TMC2    C8 1315   2.696   3.745  10.919 -0.4331 -0.2467  0.1854
   84TMC2    O1 1316   2.350   3.682  10.464 -0.0150 -0.3874 -0.0348
   84TMC2    O2 1317   2.805   3.773  10.866 -0.4879 -0.6756 -0.0279
   84TMC2    O5 1318   2.680   3.730  11.056  0.1191 -0.4869  0.3709
   84TMC2    H5 1319   2.592   3.707  11.092  0.4683 -1.1028  0.8286
   85TMC2    C1 1320   3.089   2.306  16.078  0.2788  0.4278 -0.5273
   85TMC2    C2 1321   3.169   2.412  16.113  0.2167  0.2292 -0.0407
   85TMC2    C3 1322   3.309   2.392  16.107 -0.0521 -0.2352  0.0523
   85TMC2    C4 1323   3.148   2.196  16.016 -0.1861  0.0656 -0.2048
   85TMC2    C5 1324   3.280   2.192  15.994  0.4111  0.5314  0.5919
   85TMC2    C6 1325   3.360   2.285  16.043 -0.3355  0.3174  1.1441
   85TMC2     C 1326   2.945   2.309  16.094 -0.5451 -0.0150 -0.4105
   85TMC2     O 1327   2.895   2.421  16.112 -0.1204 -0.1448 -0.2684
   85TMC2     H 1328   3.133   2.504  16.157 -0.6253  1.2609 -2.8850
   85TMC2    H1 1329   3.089   2.108  15.994 -0.2915  0.1905 -0.4163
   85TMC2    H2 1330   3.468   2.286  16.042 -0.3395 -1.7387 -0.9315
   85TMC2    C7 1331   3.335   2.105  15.889  0.3110  0.0398  0.2907
   85TMC2    C8 1332   3.404   2.486  16.166  0.2322  0.2011  0.0732
   85TMC2    O1 1333   3.244   2.042  15.831 -0.2203  0.4062  0.6906
   85TMC2    O2 1334   3.523   2.495  16.138 -0.1110 -0.4806 -0.1548
   85TMC2    O5 1335   3.347   2.530  16.282 -0.4069  0.7551  0.4665
   85TMC2    H5 1336   3.256   2.495  16.296  0.0607 -1.4941 -2.2096
   86MPD2     C 1337   2.470   2.090  16.089  0.8839 -0.7749 -0.1930
   86MPD2    C1 1338   2.567   1.995  16.091 -0.9257 -0.0764  0.0713
   86MPD2    C2 1339   2.701   2.028  16.092  0.0055  0.2356  0.0606
   86MPD2    C3 1340   2.745   2.156  16.093  0.1292 -0.4071  0.2798
   86MPD2    C4 1341   2.651   2.251  16.101 -1.0882  0.0347  0.9299
   86MPD2    C5 1342   2.521   2.218  16.106  0.8196 -0.3639  0.9487
   86MPD2     H 1343   2.780   1.954  16.082 -0.5161 -0.2206 -0.6750
   86MPD2    H1 1344   2.676   2.355  16.082 -0.9813 -0.6553 -2.7597
   86MPD2    H2 1345   2.364   2.071  16.091  0.7243 -0.0971 -1.8367
   86MPD2    H3 1346   2.445   2.295  16.093  0.6145 -0.6955  0.1911
   86MPD2     N 1347   2.887   2.185  16.076 -0.2476  0.3023 -0.1016
   86MPD2    H5 1348   2.944   2.102  16.086  1.1752  1.0729 -1.8055
   86MPD2    N1 1349   2.536   1.858  16.096  0.1931 -0.1231  0.0440
   86MPD2    H7 1350   2.610   1.796  16.062 -0.5299 -0.4572 -0.8985
   87TMC2    C1 1351   0.247   0.366   1.583  0.6686  0.0656  0.4851
   87TMC2    C2 1352   0.198   0.291   1.686  0.0896 -0.4799 -0.2430
   87TMC2    C3 1353   0.113   0.352   1.766 -0.1488  0.1832 -0.1493
   87TMC2    C4 1354   0.194   0.485   1.550  0.4181 -0.1692 -0.6687
   87TMC2    C5 1355   0.107   0.542   1.639 -0.0583  0.2254 -0.0605
   87TMC2    C6 1356   0.065   0.478   1.749  0.0082  0.8481 -0.1098
   87TMC2     C 1357   0.309   0.300   1.473 -0.4133 -0.1733  0.5903
   87TMC2     O 1358   0.284   0.349   1.363  0.3771 -0.2424  0.1115
   87TMC2     H 1359   0.214   0.184   1.696 -0.8479 -0.7722 -1.8815
   87TMC2    H1 1360   0.235   0.544   1.469  0.9642 -1.2902 -1.2075
   87TMC2    H2 1361   4.715   0.507   1.810  1.4655  1.2275  1.7397
   87TMC2    C7 1362   0.052   0.667   1.589 -0.0918  0.6146 -0.5956
   87TMC2    C8 1363   0.119   0.314   1.908  0.3499 -0.6071 -0.3049
   87TMC2    O1 1364   0.078   0.699   1.477  0.1505  0.1729  0.9045
   87TMC2    O2 1365   0.053   0.368   1.995  0.4332 -0.0734 -1.0442
   87TMC2    O5 1366   0.243   0.275   1.926  0.4419 -0.3533  0.0211
   87TMC2    H5 1367   0.295   0.225   1.859 -0.0455 -0.6447 -0.1436
   88MPD2     C 1368   4.623   0.952   1.763 -0.0046 -0.5900  0.5473
   88MPD2    C1 1369   4.662   0.871   1.663  0.0543 -0.0525  0.6389
   88MPD2    C2 1370   4.638   0.912   1.528 -0.2002  0.7502  0.2411
   88MPD2    C3 1371   4.589   1.038   1.494 -0.1115 -0.1804 -0.2677
   88MPD2    C4 1372   4.562   1.121   1.597 -0.0302 -0.0129 -0.1088
   88MPD2    C5 1373   4.567   1.078   1.727 -0.0499 -0.1710  0.5290
   88MPD2     H 1374   4.649   0.840   1.448 -0.8781  0.1262  0.7127
   88MPD2    H1 1375   4.529   1.223   1.584  0.6136  0.2789  0.5404
   88MPD2    H2 1376   4.621   0.922   1.867  0.9624 -1.3979  0.3309
   88MPD2    H3 1377   4.537   1.149   1.803  2.0194  1.1669  0.1064
   88MPD2     N 1378   4.559   1.093   1.361 -0.4958 -0.4664  0.6541
   88MPD2    H5 1379   4.544   1.192   1.345 -0.7818 -0.7085 -0.5897
   88MPD2    N1 1380   4.720   0.742   1.688  0.3285  0.4358 -0.0762
   88MPD2    H7 1381   4.716   0.708   1.784  2.8206 -0.5689 -0.3348
   89TMC2    C1 1382   1.251   3.895   1.874 -1.1294 -0.1293  0.2642
   89TMC2    C2 1383   1.348   3.991   1.875 -0.1330 -0.5454  0.1619
   89TMC2    C3 1384   1.377   4.042   1.756 -0.7051 -0.7903  0.1067
   89TMC2    C4 1385   1.195   3.855   1.754 -0.5873 -0.5110 -0.3166
   89TMC2    C5 1386   1.249   3.888   1.634 -0.9669 -0.5502 -0.2039
   89TMC2    C6 1387   1.333   3.996   1.628 -0.0638  0.6416 -0.2068
   89TMC2     C 1388   1.212   3.858   2.007  0.5140 -0.5233  0.2209
   89TMC2     O 1389   1.288   3.898   2.101  0.2022 -0.1801  0.1374
   89TMC2     H 1390   1.395   4.017   1.969  0.6156 -1.8074  0.1319
   89TMC2    H1 1391   1.132   3.766   1.751 -1.5033  0.1351 -0.0388
   89TMC2    H2 1392   1.369   4.037   1.535  0.0877 -0.1434 -0.4983
   89TMC2    C7 1393   1.184   3.836   1.512  0.5043 -0.1584  0.0211
   89TMC2    C8 1394   1.477   4.152   1.764  0.0720  0.4932 -0.1254
   89TMC2    O1 1395   1.103   3.744   1.521  0.0410 -0.2850  0.3927
   89TMC2    O2 1396   1.469   4.238   1.850 -0.7035 -0.8258 -0.0205
   89TMC2    O5 1397   1.557   4.157   1.652 -0.1623 -0.0493  0.5621
   89TMC2    H5 1398   1.552   4.066   1.614 -3.6490 -0.2782  1.5513
   90MPD2     C 1399   0.858   3.673   2.332  0.2935  0.2082 -0.6497
   90MPD2    C1 1400   0.808   3.675   2.206  0.1531 -0.0263 -0.0217
   90MPD2    C2 1401   0.879   3.716   2.099 -0.5639 -0.1846  0.1650
   90MPD2    C3 1402   1.011   3.766   2.119 -0.3884  0.3729 -0.3754
   90MPD2    C4 1403   1.055   3.782   2.253  0.0233  0.1502 -0.7548
   90MPD2    C5 1404   0.982   3.722   2.350 -0.1660  0.2491 -0.1072
   90MPD2     H 1405   0.842   3.701   1.998  2.2738  1.6983 -1.1667
   90MPD2    H1 1406   1.153   3.822   2.277 -0.1084  0.7420 -1.2314
   90MPD2    H2 1407   0.799   3.629   2.412  3.8914  0.5094  2.1663
   90MPD2    H3 1408   1.022   3.727   2.451  2.0329  1.1378 -1.0195
   90MPD2     N 1409   1.083   3.807   2.008  0.1926  0.7658  1.0026
   90MPD2    H5 1410   1.039   3.792   1.918  0.7479 -0.6276  0.9623
   90MPD2    N1 1411   0.674   3.625   2.191 -0.5250 -0.0514 -0.3687
   90MPD2    H7 1412   0.620   3.608   2.276  1.2884  0.9184  0.9628
   91TMC2    C1 1413   2.747   3.028  16.581  0.4499  0.0620 -1.0067
   91TMC2    C2 1414   2.800   3.058  16.701  0.2853 -0.3153  0.4582
   91TMC2    C3 1415   2.738   2.997  16.815 -0.0789  0.0380  0.0004
   91TMC2    C4 1416   2.630   2.963  16.563 -0.3565  0.2228 -0.0605
   91TMC2    C5 1417   2.579   2.903  16.673  0.1033  0.3414 -0.4341
   91TMC2    C6 1418   2.624   2.923  16.805  0.1026 -0.3795 -0.5724
   91TMC2     C 1419   2.787   3.113  16.475  0.2166 -0.1778  0.7776
   91TMC2     O 1420   2.711   3.120  16.382  0.0093  0.2688 -0.0725
   91TMC2     H 1421   2.873   3.138  16.709  1.1854 -1.1603  0.6689
   91TMC2    H1 1422   2.591   2.953  16.462 -0.0829  1.8078 -0.3239
   91TMC2    H2 1423   2.575   2.887  16.894  0.0075 -0.1777 -0.5430
   91TMC2    C7 1424   2.456   2.824  16.663  0.0935 -1.0532 -0.5892
   91TMC2    C8 1425   2.798   3.018  16.945 -0.2515 -0.4276  0.3247
   91TMC2    O1 1426   2.418   2.785  16.771  0.7048 -0.3374 -0.3514
   91TMC2    O2 1427   2.740   3.006  17.052 -0.5698  0.0497 -0.0092
   91TMC2    O5 1428   2.926   3.008  16.917  0.2898  0.5921  0.3931
   91TMC2    H5 1429   2.955   3.045  16.831  0.4917  0.8837  0.5849
   92MPD2     C 1430   2.939   3.210  16.240  0.1156 -0.4018 -0.0750
   92MPD2    C1 1431   2.996   3.181  16.363  0.2113  1.5182 -1.0008
   92MPD2    C2 1432   3.134   3.181  16.370 -0.1529  0.2368 -0.5295
   92MPD2    C3 1433   3.214   3.213  16.264  0.3304 -0.4011  0.2136
   92MPD2    C4 1434   3.154   3.243  16.142  0.7867  0.0906  0.3293
   92MPD2    C5 1435   3.019   3.238  16.133  0.2978  0.1921 -0.3672
   92MPD2     H 1436   3.193   3.154  16.456 -0.4713 -2.7642 -1.2523
   92MPD2    H1 1437   3.209   3.281  16.057  2.2161  1.6185  1.9423
   92MPD2    H2 1438   2.833   3.217  16.217  0.0472 -0.8184  0.1179
   92MPD2    H3 1439   2.971   3.260  16.038  2.8272  2.4627 -1.1348
   92MPD2     N 1440   3.347   3.223  16.286  0.1762  0.6975 -0.1702
   92MPD2    H5 1441   3.382   3.207  16.379 -0.6895  2.1303  0.4049
   92MPD2    N1 1442   2.921   3.146  16.482  0.0167  0.2850  0.3823
   92MPD2    H7 1443   2.974   3.118  16.564 -0.7582  0.1676  0.8340
   93TMC2    C1 1444   4.677   3.434  13.915 -0.4344 -0.3536 -0.1505
   93TMC2    C2 1445   4.649   3.425  14.048 -0.4277 -0.3103  0.0129
   93TMC2    C3 1446   0.007   3.459  14.138  0.4964 -0.3815 -0.2050
   93TMC2    C4 1447   0.063   3.471  13.870  0.2446 -0.6693  0.4258
   93TMC2    C5 1448   0.163   3.472  13.966  0.1607  0.2705 -0.0153
   93TMC2    C6 1449   0.137   3.478  14.097 -0.2785 -0.4234  0.1261
   93TMC2     C 1450   4.556   3.427  13.823 -0.7216  0.1298 -0.1089
   93TMC2     O 1451   4.578   3.485  13.717  1.0828  0.2325 -0.0613
   93TMC2     H 1452   4.561   3.381  14.093 -0.5694 -0.4198 -0.3706
   93TMC2    H1 1453   0.080   3.479  13.763  2.2299 -3.8540  0.5118
   93TMC2    H2 1454   0.219   3.488  14.168  1.9988  1.4203 -2.7845
   93TMC2    C7 1455   0.306   3.465  13.926  0.1245 -0.1457 -0.1714
   93TMC2    C8 1456   4.719   3.407  14.271  0.2695 -0.9982 -0.2080
   93TMC2    O1 1457   0.393   3.496  13.998 -0.6552 -0.0134  0.1658
   93TMC2    O2 1458   4.625   3.334  14.301  0.6723  0.2285 -0.1308
   93TMC2    O5 1459   0.075   3.463  14.356  0.4496  0.1346  0.2470
   93TMC2    H5 1460   0.107   3.548  14.318  0.2452 -0.1636 -0.5933
   94MPD2     C 1461   4.266   3.472  13.715 -0.6433  0.3998  0.1007
   94MPD2    C1 1462   4.303   3.419  13.836  0.3439 -0.5507  0.0836
   94MPD2    C2 1463   4.192   3.374  13.917 -0.0943  0.0794 -0.2973
   94MPD2    C3 1464   4.054   3.373  13.875  0.0739 -0.3080 -0.4427
   94MPD2    C4 1465   4.026   3.422  13.745  0.7196  0.2628  0.0772
   94MPD2    C5 1466   4.131   3.473  13.670 -0.2052  0.5538 -0.1447
   94MPD2     H 1467   4.216   3.335  14.015 -0.5613 -0.6269 -0.4696
   94MPD2    H1 1468   3.929   3.427  13.697  0.7794 -0.1966 -0.0949
   94MPD2    H2 1469   4.344   3.511  13.650  0.2012 -1.6516 -0.1169
   94MPD2    H3 1470   4.109   3.533  13.583 -1.1695  1.3837  0.6722
   94MPD2     N 1471   3.942   3.331  13.944  0.3230  0.2275 -0.3401
   94MPD2    H5 1472   3.855   3.352  13.897 -0.3476  1.0757  1.2903
   94MPD2    N1 1473   4.437   3.401  13.885  0.0810  0.3679 -0.5935
   94MPD2    H7 1474   4.447   3.358  13.976 -1.7840  1.7679  0.2785
   95TMC2    C1 1475   4.495   4.511  16.150 -0.2775  0.3152  1.0588
   95TMC2    C2 1476   4.531   4.378  16.123 -0.0232  0.3742  0.2387
   95TMC2    C3 1477   4.474   4.282  16.196 -0.8868  0.1909  0.2379
   95TMC2    C4 1478   4.403   4.539  16.251  0.5481 -0.4011  0.5805
   95TMC2    C5 1479   4.364   4.434  16.327 -0.2281  0.2396  0.1894
   95TMC2    C6 1480   4.401   4.307  16.305 -0.0044 -0.2668  0.3028
   95TMC2     C 1481   4.555   4.612  16.066  0.2471 -0.3181 -0.4399
   95TMC2     O 1482   4.615   4.577  15.965  0.2770 -0.2869 -0.1816
   95TMC2     H 1483   4.601   4.359  16.043 -1.0645  0.2395 -0.6340
   95TMC2    H1 1484   4.365   4.640  16.260  0.2574 -0.4955  0.4209
   95TMC2    H2 1485   4.365   4.225  16.367 -2.2914  0.2862 -0.3166
   95TMC2    C7 1486   4.319   4.459  16.467  0.1295 -0.4235  0.7983
   95TMC2    C8 1487   4.503   4.148  16.157  0.3204 -0.3445 -0.6806
   95TMC2    O1 1488   4.349   4.372  16.547 -0.1828  0.0306  0.1077
   95TMC2    O2 1489   4.534   4.060  16.235  0.0234  0.0026 -0.0746
   95TMC2    O5 1490   4.484   4.132  16.026 -0.3720 -0.6633 -0.1151
   95TMC2    H5 1491   4.462   4.217  15.983  1.9105  0.6996  1.4506
   96MPD2     C 1492   4.588   0.350  15.891 -0.3400  0.3970  0.2319
   96MPD2    C1 1493   4.673   0.241  15.877 -0.0329  0.1875 -0.2279
   96MPD2    C2 1494   4.645   0.119  15.934  0.3277  0.5219  0.3164
   96MPD2    C3 1495   4.538   0.118  16.019 -0.6208  0.2872  0.1030
   96MPD2    C4 1496   4.460   0.229  16.036  0.5403 -0.2283 -0.5295
   96MPD2    C5 1497   4.484   0.348  15.979  0.5203  0.2168 -0.1256
   96MPD2     H 1498   4.715   0.037  15.924 -0.2576  0.2407 -1.5978
   96MPD2    H1 1499   4.375   0.222  16.103  1.6794  0.7642  0.9996
   96MPD2    H2 1500   4.612   0.440  15.835 -0.1462  0.5202  0.5193
   96MPD2    H3 1501   4.423   0.435  15.997  0.5654 -0.2110  2.0886
   96MPD2     N 1502   4.511   0.006  16.096 -0.1066  0.5970 -0.6904
   96MPD2    H5 1503   4.453   0.022  16.177  2.2856  0.2530  1.0865
   96MPD2    N1 1504   0.054   0.273  15.809  0.0781 -0.0511  0.6140
   96MPD2    H7 1505   0.063   0.371  15.786  0.1088  0.0106  0.8862
   97TMC2    C1 1506   2.003   2.854  17.466 -0.7673  0.4771 -0.2371
   97TMC2    C2 1507   1.944   2.854  17.345 -0.1764  0.3033 -0.6696
   97TMC2    C3 1508   1.949   2.972  17.277 -0.0537  0.5278  0.2862
   97TMC2    C4 1509   2.047   2.966  17.528  0.1680 -0.0934 -0.2606
   97TMC2    C5 1510   2.043   3.086  17.459  0.5476  0.4162  0.0800
   97TMC2    C6 1511   2.004   3.084  17.323 -0.4338  0.0613  0.2780
   97TMC2     C 1512   2.006   2.721  17.535  0.4902 -1.0408 -0.6911
   97TMC2     O 1513   1.948   2.629  17.476  0.1567 -0.1939  0.0787
   97TMC2     H 1514   1.911   2.766  17.290  1.1356 -1.6433  1.6392
   97TMC2    H1 1515   2.067   2.969  17.634  0.6335  0.9376 -0.3860
   97TMC2    H2 1516   2.011   3.171  17.259  2.3497 -0.5993 -0.2986
   97TMC2    C7 1517   2.107   3.202  17.514 -0.4609 -0.2383  0.4037
   97TMC2    C8 1518   1.937   2.972  17.136 -0.1475 -0.1204  0.0381
   97TMC2    O1 1519   2.166   3.178  17.618  0.3697 -0.6800 -0.5161
   97TMC2    O2 1520   1.977   3.068  17.067 -0.0092  0.3522 -0.1950
   97TMC2    O5 1521   1.850   2.877  17.088  0.1501 -0.1893  0.1404
   97TMC2    H5 1522   1.788   2.822  17.141 -0.5288 -0.4329 -0.8943
   98MPD2     C 1523   2.152   2.402   0.167 -0.1226 -0.4588 -0.7658
   98MPD2    C1 1524   2.157   2.528   0.218 -0.1922 -0.3838 -0.6153
   98MPD2    C2 1525   2.125   2.632   0.127  0.1306  0.3517  0.6349
   98MPD2    C3 1526   2.087   2.611   0.001 -0.1200 -0.1420 -0.3437
   98MPD2    C4 1527   2.086   2.482  17.691 -0.3217  0.5733  0.4683
   98MPD2    C5 1528   2.114   2.377   0.034  0.2913 -0.6652 -0.1279
   98MPD2     H 1529   2.140   2.734   0.160 -1.1171  0.3856  1.1077
   98MPD2    H1 1530   2.069   2.463  17.585  1.7593  1.4621 -0.0212
   98MPD2    H2 1531   2.179   2.316   0.226  1.8931  0.9673  0.3931
   98MPD2    H3 1532   2.107   2.277  17.733 -1.9208 -1.2739  1.7993
   98MPD2     N 1533   2.060   2.724  17.664 -0.4919  0.2671  0.3670
   98MPD2    H5 1534   2.091   2.811  17.708 -1.3803  1.2693 -0.9743
   98MPD2    N1 1535   2.185   2.550   0.356 -0.0560 -0.4526 -0.1224
   98MPD2    H7 1536   2.195   2.469   0.416 -0.8574 -2.1942 -2.3607
   99TMC2    C1 1537   0.886   4.102   2.071 -0.3454  0.6957  0.1692
   99TMC2    C2 1538   0.941   4.092   2.190 -0.3234 -0.6433 -0.8372
   99TMC2    C3 1539   0.858   4.083   2.300  0.2749 -0.1391 -0.5440
   99TMC2    C4 1540   0.752   4.102   2.048  0.0159  0.0602 -0.6706
   99TMC2    C5 1541   0.671   4.106   2.156 -0.1462 -0.0811 -0.1995
   99TMC2    C6 1542   0.720   4.090   2.282 -0.1429  0.0414  0.1342
   99TMC2     C 1543   0.983   4.148   1.965 -0.8534  0.5562  0.1260
   99TMC2     O 1544   1.083   4.205   2.003 -0.4955 -0.2768 -0.0550
   99TMC2     H 1545   1.047   4.102   2.212 -1.4801 -0.2385  4.3440
   99TMC2    H1 1546   0.706   4.130   1.954  0.6905 -0.1873 -1.0770
   99TMC2    H2 1547   0.653   4.092   2.368 -1.1548 -0.5617 -0.6515
   99TMC2    C7 1548   0.528   4.145   2.134  0.4804  0.0319 -0.8455
   99TMC2    C8 1549   0.921   4.055   2.429 -1.0007 -0.1251  0.5445
   99TMC2    O1 1550   0.472   4.191   2.232  0.4603  0.4431  0.0991
   99TMC2    O2 1551   1.044   4.069   2.441  0.1423 -0.1230 -0.0635
   99TMC2    O5 1552   0.837   3.986   2.515  0.4436  0.0848  0.0510
   99TMC2    H5 1553   0.741   3.986   2.499  0.2272 -0.4293  1.3929
  100MPD2     C 1554   1.095   4.245   1.699 -0.2465 -0.0317 -0.1577
  100MPD2    C1 1555   0.991   4.153   1.716 -0.3772 -0.0517 -0.5651
  100MPD2    C2 1556   0.936   4.103   1.599 -0.3368 -0.1727 -0.5268
  100MPD2    C3 1557   0.981   4.140   1.473 -0.8187  0.0906  0.8209
  100MPD2    C4 1558   1.070   4.244   1.465 -0.9743 -0.3972 -0.1922
  100MPD2    C5 1559   1.134   4.290   1.575  0.0534  0.6962 -0.2840
  100MPD2     H 1560   0.856   4.031   1.611 -0.1033 -0.6492 -1.8474
  100MPD2    H1 1561   1.093   4.282   1.366 -1.7647 -2.2546 -1.0852
  100MPD2    H2 1562   1.147   4.285   1.785 -1.5308  0.1900  0.5113
  100MPD2    H3 1563   1.206   4.369   1.563  1.6887 -0.6016  0.9876
  100MPD2     N 1564   0.924   4.069   1.360  0.6400 -0.0871  0.3297
  100MPD2    H5 1565   0.854   3.997   1.375  1.0827 -0.0848  2.3621
  100MPD2    N1 1566   0.933   4.119   1.842 -0.0331 -0.4502  0.7016
  100MPD2    H7 1567   0.862   4.047   1.838  1.8022 -2.2752  1.1326
  101TMC2    C1 1568   1.652   1.567  12.717 -0.6979 -0.5085 -0.3356
  101TMC2    C2 1569   1.562   1.656  12.670  0.4211  0.0174 -0.2820
  101TMC2    C3 1570   1.607   1.785  12.661 -0.2983  0.0825  1.3011
  101TMC2    C4 1571   1.764   1.611  12.789  0.0911 -0.0808 -0.2069
  101TMC2    C5 1572   1.806   1.745  12.777 -0.5838 -0.3685 -0.0061
  101TMC2    C6 1573   1.728   1.830  12.707  0.3512 -1.0078 -0.1193
  101TMC2     C 1574   1.597   1.448  12.776  0.9509  0.2025 -0.0180
  101TMC2     O 1575   1.486   1.445  12.828  1.1493 -0.5340  0.2458
  101TMC2     H 1576   1.471   1.615  12.628  0.3945  1.2535 -1.4397
  101TMC2    H1 1577   1.838   1.541  12.826  0.1518  1.0817  1.9012
  101TMC2    H2 1578   1.752   1.935  12.704  0.6667 -1.0937 -0.7284
  101TMC2    C7 1579   1.938   1.785  12.812 -0.0454 -0.8388 -0.3832
  101TMC2    C8 1580   1.521   1.869  12.584 -0.0672 -0.1404 -0.4777
  101TMC2    O1 1581   1.983   1.885  12.752  0.3924 -0.0755 -0.8226
  101TMC2    O2 1582   1.402   1.841  12.571  0.1645 -0.2240  0.1345
  101TMC2    O5 1583   1.597   1.916  12.491  0.2591  0.1286 -0.8777
  101TMC2    H5 1584   1.695   1.917  12.494  0.2272 -0.9798  0.5316
  102MPD2     C 1585   1.788   1.158  12.905  0.1262  0.7392 -0.7163
  102MPD2    C1 1586   1.680   1.240  12.886  0.0794 -0.0206 -0.0805
  102MPD2    C2 1587   1.573   1.215  12.973  0.2985  0.5217 -0.5593
  102MPD2    C3 1588   1.571   1.111  13.062  0.3115  0.0269  0.3018
  102MPD2    C4 1589   1.679   1.029  13.067  0.0222 -0.0205  0.6508
  102MPD2    C5 1590   1.786   1.059  12.987 -0.0460 -1.0078 -0.2627
  102MPD2     H 1591   1.480   1.271  12.981  1.2715  2.0190  0.1672
  102MPD2    H1 1592   1.690   0.947  13.136  1.6203  1.0672  1.7025
  102MPD2    H2 1593   1.882   1.181  12.857 -0.2780  1.0459 -1.3669
  102MPD2    H3 1594   1.867   0.988  12.996  1.4477  0.5752 -1.2059
  102MPD2     N 1595   1.463   1.094  13.143 -0.2118 -0.7400  0.2108
  102MPD2    H5 1596   1.369   1.116  13.114 -0.6759 -1.1625  1.3932
  102MPD2    N1 1597   1.694   1.352  12.800 -0.0263 -0.2910 -0.5432
  102MPD2    H7 1598   1.788   1.369  12.765  0.3409  0.1159  0.6413
  103TMC2    C1 1599   4.466   0.728  12.548  0.2383 -0.7559 -0.7899
  103TMC2    C2 1600   4.560   0.792  12.470 -0.5250 -0.0378 -0.4669
  103TMC2    C3 1601   4.684   0.797  12.526 -0.4107 -0.5771 -0.1432
  103TMC2    C4 1602   4.491   0.671  12.662  0.0959 -0.0809 -0.8618
  103TMC2    C5 1603   4.623   0.686  12.711 -0.1566 -0.2113 -0.0898
  103TMC2    C6 1604   4.723   0.740  12.641 -0.4207  0.2442 -0.4501
  103TMC2     C 1605   4.331   0.712  12.486  0.3271 -0.2111  0.4577
  103TMC2     O 1606   4.327   0.699  12.362  0.2492  0.5670  0.4992
  103TMC2     H 1607   4.536   0.833  12.373 -0.1051 -1.8315 -1.3304
  103TMC2    H1 1608   4.416   0.612  12.714  1.2387 -0.0850  0.7770
  103TMC2    H2 1609   0.078   0.786  12.682 -0.1030  0.4406 -1.3566
  103TMC2    C7 1610   4.654   0.616  12.834  0.3399 -0.1755  0.7073
  103TMC2    C8 1611   0.056   0.822  12.434 -0.1913 -0.5760 -0.5116
  103TMC2    O1 1612   4.561   0.568  12.900  0.0182  0.5128  0.1673
  103TMC2    O2 1613   0.152   0.752  12.444  0.6362  0.1498  0.1741
  103TMC2    O5 1614   0.058   0.958  12.431  0.4758 -0.2580 -0.2901
  103TMC2    H5 1615   4.704   0.996  12.445  1.3058  0.9862  1.6474
  104MPD2     C 1616   4.000   0.682  12.644  0.1522  0.2920  0.2424
  104MPD2    C1 1617   4.089   0.696  12.538 -0.3558  0.0033  0.0106
  104MPD2    C2 1618   4.030   0.713  12.412 -0.2745 -0.1894 -0.1820
  104MPD2    C3 1619   3.891   0.702  12.394  0.0528 -0.0512 -0.0906
  104MPD2    C4 1620   3.809   0.675  12.506  0.1693  0.8468  0.3711
  104MPD2    C5 1621   3.869   0.672  12.630  0.0491  0.9834  0.1008
  104MPD2     H 1622   4.090   0.724  12.322  1.6733  0.3291  1.1655
  104MPD2    H1 1623   3.701   0.670  12.498  0.3219  0.1987 -1.4794
  104MPD2    H2 1624   4.040   0.679  12.744 -0.2198  1.5684  0.4329
  104MPD2    H3 1625   3.804   0.660  12.716  0.6141 -1.7445  0.1336
  104MPD2     N 1626   3.844   0.701  12.257  0.2269  0.3494  0.0579
  104MPD2    H5 1627   3.908   0.719  12.181 -0.3023  2.5516  0.1425
  104MPD2    N1 1628   4.227   0.709  12.575  0.5277  0.1025  0.1623
  104MPD2    H7 1629   4.248   0.704  12.674  0.6953  1.4718  0.2036
  105TMC2    C1 1630   0.629   0.029   0.598 -0.6721  0.6739  0.4351
  105TMC2    C2 1631   0.544   0.126   0.562 -0.5126 -0.6679 -0.2929
  105TMC2    C3 1632   0.494   0.204   0.668 -0.9692  0.0165 -0.6523
  105TMC2    C4 1633   0.653   4.728   0.725  0.7141  0.2548  0.7015
  105TMC2    C5 1634   0.593   0.064   0.825 -0.3761 -0.2962  0.3578
  105TMC2    C6 1635   0.508   0.172   0.804 -0.4576 -0.2160  0.7635
  105TMC2     C 1636   0.697   4.679   0.498  0.0071 -0.0993  0.2603
  105TMC2     O 1637   0.722   4.566   0.541  0.7847 -0.5077 -0.3959
  105TMC2     H 1638   0.518   0.136   0.458 -1.4757  0.5329  0.0664
  105TMC2    H1 1639   0.728   4.654   0.748  1.7808  0.9917 -0.4261
  105TMC2    H2 1640   0.471   0.238   0.881  2.0837  1.8454  0.2151
  105TMC2    C7 1641   0.602   0.003   0.963 -0.4649 -0.4277  0.6945
  105TMC2    C8 1642   0.415   0.321   0.642  0.1724 -0.0100 -0.4809
  105TMC2    O1 1643   0.651   4.625   0.968  0.6091  0.1094  0.4825
  105TMC2    O2 1644   0.344   0.356   0.735  0.2791 -0.3950  0.5852
  105TMC2    O5 1645   0.467   0.395   0.541 -0.2859  0.0358 -0.4104
  105TMC2    H5 1646   0.548   0.352   0.504  0.3635  0.4791  0.4861
  106MPD2     C 1647   0.989   4.611   0.094 -0.2095  0.2062 -0.0099
  106MPD2    C1 1648   0.938   0.007   0.082 -0.5313 -0.6548  0.3852
  106MPD2    C2 1649   0.852   0.049   0.186  0.0564 -0.2702  0.0967
  106MPD2    C3 1650   0.804   4.692   0.282  0.4381  0.2640 -0.3430
  106MPD2    C4 1651   0.840   4.562   0.277  0.1596 -0.6251 -0.0090
  106MPD2    C5 1652   0.920   4.519   0.172  0.1574 -0.4273 -0.0170
  106MPD2     H 1653   0.826   0.155   0.182 -2.6252 -0.9273 -0.1996
  106MPD2    H1 1654   0.803   4.492   0.350  0.4536 -1.9077 -1.0733
  106MPD2    H2 1655   1.061   4.567   0.026 -2.0198  1.8521 -3.0067
  106MPD2    H3 1656   0.950   4.415   0.171  0.6911 -0.2739  0.2043
  106MPD2     N 1657   0.725   0.010   0.382 -0.1721 -0.8844  0.2155
  106MPD2    H5 1658   0.702   0.108   0.372 -2.4467 -1.5787 -1.5295
  106MPD2    N1 1659   0.983   0.110  17.733  1.1173  0.2407  0.9220
  106MPD2    H7 1660   0.937   0.200   0.002 -0.4883 -0.8747  4.2746
  107TMC2    C1 1661   1.803   4.378  11.605 -0.1499  0.0401  0.0295
  107TMC2    C2 1662   1.838   4.249  11.655  0.2823 -0.4237  0.2903
  107TMC2    C3 1663   1.867   4.154  11.562 -0.0388 -0.8231  0.3122
  107TMC2    C4 1664   1.803   4.395  11.467  0.2515  0.0027 -0.3059
  107TMC2    C5 1665   1.852   4.292  11.387 -0.0705  0.4033 -0.2974
  107TMC2    C6 1666   1.865   4.164  11.427  0.1409 -0.0276 -0.0263
  107TMC2     C 1667   1.723   4.460  11.695 -0.2062 -0.4893  0.2314
  107TMC2     O 1668   1.739   4.433  11.812 -0.1561 -0.1500 -0.2641
  107TMC2     H 1669   1.821   4.221  11.759 -2.8005 -2.5103 -0.8045
  107TMC2    H1 1670   1.786   4.492  11.422  1.2182  0.1247 -0.4248
  107TMC2    H2 1671   1.891   4.076  11.371 -0.3363  0.7300 -1.4290
  107TMC2    C7 1672   1.861   4.319  11.247 -0.3325  0.3781 -0.1076
  107TMC2    C8 1673   1.921   4.028  11.615  0.1821  0.0360  0.4049
  107TMC2    O1 1674   1.788   4.402  11.201  0.3472 -0.2023  0.0720
  107TMC2    O2 1675   2.001   3.958  11.555 -0.0063  0.2911  0.0209
  107TMC2    O5 1676   1.825   3.984  11.698  0.6889  0.4161 -0.1066
  107TMC2    H5 1677   1.757   4.053  11.715  0.3613  0.1606 -0.3880
  108MPD2     C 1678   1.484   4.716  11.612 -0.4254 -0.1477  0.0658
  108MPD2    C1 1679   1.556   4.634  11.698 -0.1965  0.2716  0.2998
  108MPD2    C2 1680   1.538   4.647  11.829  0.0861  0.3286  0.3446
  108MPD2    C3 1681   1.431   4.724  11.880  0.3052 -0.1318  0.3204
  108MPD2    C4 1682   1.370   0.077  11.793  0.1814  0.7118 -0.2886
  108MPD2    C5 1683   1.395   0.070  11.658  0.3624 -0.2198  0.2755
  108MPD2     H 1684   1.589   4.577  11.894 -0.9681 -2.2783 -1.6259
  108MPD2    H1 1685   1.311   0.160  11.831 -0.8660  1.2651 -3.1112
  108MPD2    H2 1686   1.498   4.709  11.505  1.4196  1.9147  0.1862
  108MPD2    H3 1687   1.332   0.136  11.600 -0.5409 -0.3207  1.1411
  108MPD2     N 1688   1.389   4.724  12.017  0.3658  0.3727  0.6631
  108MPD2    H5 1689   1.300   0.032  12.039  0.4046  1.0851 -0.5895
  108MPD2    N1 1690   1.649   4.552  11.631 -0.4522 -0.1539 -0.0452
  108MPD2    H7 1691   1.648   4.554  11.530 -0.3197  0.6461 -0.0352
  109TMC2    C1 1692   1.364   2.985   1.411  0.2298 -0.5837  0.2335
  109TMC2    C2 1693   1.428   3.106   1.433 -0.4676 -0.0662 -0.5535
  109TMC2    C3 1694   1.552   3.119   1.376 -0.2710  0.1504  0.6561
  109TMC2    C4 1695   1.426   2.878   1.355  0.0951  0.4556  0.1400
  109TMC2    C5 1696   1.540   2.908   1.286 -0.3394 -0.0715 -0.7415
  109TMC2    C6 1697   1.607   3.028   1.295  0.6589 -0.5447 -0.3509
  109TMC2     C 1698   1.221   2.984   1.456 -0.6994  0.2082  0.3026
  109TMC2     O 1699   1.180   3.063   1.538  0.2724 -0.4884 -0.1623
  109TMC2     H 1700   1.372   3.191   1.468  1.1008  1.0930 -0.8438
  109TMC2    H1 1701   1.382   2.780   1.369  0.7330  0.0112 -1.0304
  109TMC2    H2 1702   1.708   3.046   1.258  1.0430  1.3355  1.6571
  109TMC2    C7 1703   1.616   2.813   1.217 -0.3877  0.0445  0.2283
  109TMC2    C8 1704   1.612   3.251   1.376 -0.4042 -0.3804  1.2356
  109TMC2    O1 1705   1.737   2.824   1.217 -0.2323 -0.8440  0.2817
  109TMC2    O2 1706   1.630   3.309   1.272  0.6720  0.1228 -0.7084
  109TMC2    O5 1707   1.576   3.315   1.491 -0.3314  0.2816  0.2360
  109TMC2    H5 1708   1.565   3.255   1.568  1.2837  1.3038  1.2763
  110MPD2     C 1709   0.728   2.816   1.419 -0.0907 -0.0289 -0.0263
  110MPD2    C1 1710   0.806   2.723   1.360 -0.2517 -0.3017 -0.3411
  110MPD2    C2 1711   0.942   2.754   1.349  0.6239  0.7216 -0.6830
  110MPD2    C3 1712   1.001   2.869   1.400 -0.3756  0.6830 -0.0775
  110MPD2    C4 1713   0.914   2.958   1.468  0.0504 -0.0933  0.5233
  110MPD2    C5 1714   0.776   2.937   1.463  0.7066 -0.3389  0.0110
  110MPD2     H 1715   1.011   2.681   1.310  0.3904  0.3946 -0.4880
  110MPD2    H1 1716   0.958   3.050   1.503  1.4702 -0.1754 -1.0168
  110MPD2    H2 1717   0.621   2.805   1.434 -0.2443  0.9388 -0.3972
  110MPD2    H3 1718   0.707   3.014   1.495  1.1481 -0.4944  1.3466
  110MPD2     N 1719   1.145   2.888   1.382  0.7296 -0.4315  0.5000
  110MPD2    H5 1720   1.197   2.824   1.323 -3.0526 -2.8077 -0.2607
  110MPD2    N1 1721   0.741   2.603   1.308 -0.1445 -0.0645  0.1142
  110MPD2    H7 1722   0.645   2.599   1.340 -0.3470 -0.5568 -0.5552
  111TMC2    C1 1723   2.214   2.118  11.592  0.3902  0.3336  0.7894
  111TMC2    C2 1724   2.264   2.166  11.478  0.4333 -0.1966  0.2859
  111TMC2    C3 1725   2.403   2.181  11.467 -0.3234  0.6569 -0.4268
  111TMC2    C4 1726   2.295   2.100  11.703  0.2448  0.3639 -0.1026
  111TMC2    C5 1727   2.428   2.113  11.686 -0.0519  0.3707 -0.8047
  111TMC2    C6 1728   2.486   2.158  11.572 -0.1554 -0.0858  0.0324
  111TMC2     C 1729   2.066   2.112  11.607 -0.4668  0.6156  0.9071
  111TMC2     O 1730   1.998   2.120  11.504 -0.5781  0.8385 -0.0851
  111TMC2     H 1731   2.197   2.180  11.395  0.2881  0.0956  0.4541
  111TMC2    H1 1732   2.257   2.051  11.791  0.3305 -0.2469 -0.3996
  111TMC2    H2 1733   2.592   2.182  11.573 -0.8763  3.1135 -1.4376
  111TMC2    C7 1734   2.507   2.072  11.795  0.1618 -0.2357  0.0906
  111TMC2    C8 1735   2.469   2.200  11.339 -0.0790 -0.8557 -0.2411
  111TMC2    O1 1736   2.476   2.111  11.907 -0.6600  1.0668 -0.5774
  111TMC2    O2 1737   2.573   2.261  11.324 -0.5784 -0.1620 -0.1039
  111TMC2    O5 1738   2.442   2.085  11.275 -0.0608  0.0180 -0.2321
  111TMC2    H5 1739   2.356   2.041  11.294 -0.4716  0.1894 -1.6578
  112MPD2     C 1740   1.631   2.047  11.832 -0.1791 -0.2505 -0.7791
  112MPD2    C1 1741   1.687   1.988  11.716 -0.1212 -0.4561  0.4278
  112MPD2    C2 1742   1.815   2.022  11.680 -0.3647  0.0270  0.6827
  112MPD2    C3 1743   1.896   2.096  11.766 -0.3897 -0.1430 -0.1809
  112MPD2    C4 1744   1.839   2.145  11.886 -1.0321 -0.0963  0.8567
  112MPD2    C5 1745   1.708   2.122  11.920 -0.3090 -0.0329 -0.3242
  112MPD2     H 1746   1.858   1.980  11.589  0.4316 -0.3324  1.2243
  112MPD2    H1 1747   1.884   2.216  11.955  2.4058 -1.3632 -0.1005
  112MPD2    H2 1748   1.525   2.040  11.856  0.3787 -4.5875  0.3974
  112MPD2    H3 1749   1.668   2.158  12.014  1.5255 -1.5531  1.0305
  112MPD2     N 1750   2.028   2.127  11.733  0.5284 -0.0912 -0.4507
  112MPD2    H5 1751   2.095   2.162  11.802 -1.4114  1.5930  0.5911
  112MPD2    N1 1752   1.617   1.898  11.630  0.0262 -0.5827  0.0280
  112MPD2    H7 1753   1.671   1.868  11.550  0.4746 -1.4787  0.6621
  113TMC2    C1 1754   4.579   3.867   0.863 -0.3791 -0.4999  0.2660
  113TMC2    C2 1755   4.624   3.841   0.738 -0.5100  0.2039  0.1628
  113TMC2    C3 1756   4.535   3.829   0.638  0.7425  0.1670  0.1031
  113TMC2    C4 1757   4.447   3.870   0.897 -0.0771  0.5547 -0.9276
  113TMC2    C5 1758   4.358   3.863   0.786 -0.1498 -0.3711 -0.0816
  113TMC2    C6 1759   4.401   3.838   0.660 -0.3719 -0.2413  0.2312
  113TMC2     C 1760   4.671   3.898   0.968 -0.4638  0.3218  0.2185
  113TMC2     O 1761   4.636   3.989   1.048  0.0112  0.4204  0.0248
  113TMC2     H 1762   4.728   3.841   0.706 -0.2457  0.9207  1.0082
  113TMC2    H1 1763   4.421   3.867   1.003  1.7252 -1.3556 -0.5480
  113TMC2    H2 1764   4.331   3.838   0.578 -2.0098 -2.0995  1.6256
  113TMC2    C7 1765   4.223   3.890   0.809  0.6227  0.0483  0.7554
  113TMC2    C8 1766   4.597   3.819   0.507  0.0596  0.2167 -0.2684
  113TMC2    O1 1767   4.160   3.936   0.715  0.7534 -0.1878 -0.0071
  113TMC2    O2 1768   4.538   3.855   0.407 -0.3015  0.1231  0.1613
  113TMC2    O5 1769   4.696   3.732   0.501 -1.1485 -0.2251  0.2942
  113TMC2    H5 1770   4.717   3.674   0.577  1.2492 -0.0806 -0.2616
  114MPD2     C 1771   0.416   3.900   1.153  0.5246 -0.2727 -0.5296
  114MPD2    C1 1772   0.311   3.978   1.183 -0.7963 -0.2183  0.2613
  114MPD2    C2 1773   0.190   3.968   1.117  0.1185 -0.0464 -0.5234
  114MPD2    C3 1774   0.177   3.879   1.015  0.6425 -0.0490 -0.0182
  114MPD2    C4 1775   0.293   3.807   0.985  0.1012  0.0055  0.1722
  114MPD2    C5 1776   0.404   3.810   1.060 -0.5435  0.0314 -0.2512
  114MPD2     H 1777   0.103   4.023   1.153  0.4282  1.9506 -2.8457
  114MPD2    H1 1778   0.284   3.731   0.908 -1.3605  1.7154 -1.3634
  114MPD2    H2 1779   0.513   3.898   1.202  0.1288  2.1395  0.3709
  114MPD2    H3 1780   0.480   3.737   1.034 -0.4428 -0.2800  0.9272
  114MPD2     N 1781   0.059   3.844   0.941 -0.1505  0.2225 -0.0335
  114MPD2    H5 1782   0.072   3.772   0.870 -1.4168  0.4503 -0.5035
  114MPD2    N1 1783   0.333   4.080   1.277  0.0225 -0.4719 -0.2230
  114MPD2    H7 1784   0.256   4.141   1.301  1.4481  1.6445 -1.0711
  115TMC2    C1 1785   0.632   2.442   0.172  0.3897 -0.0174 -0.0338
  115TMC2    C2 1786   0.747   2.402   0.237 -0.3077  0.4260 -0.0507
  115TMC2    C3 1787   0.856   2.492   0.253 -0.1640  0.3950  0.3480
  115TMC2    C4 1788   0.628   2.567   0.113  0.0586  0.1143 -0.2455
  115TMC2    C5 1789   0.733   2.654   0.141 -0.7487 -0.0953 -0.2389
  115TMC2    C6 1790   0.839   2.620   0.216  0.7978 -0.2949 -0.6001
  115TMC2     C 1791   0.552   2.341   0.110  0.1282  0.1569  0.1494
  115TMC2     O 1792   0.549   2.234   0.168  1.0286  0.2356  0.0718
  115TMC2     H 1793   0.749   2.307   0.288  0.5066 -1.2084 -3.1408
  115TMC2    H1 1794   0.537   2.609   0.072  0.5783  0.8131 -0.6739
  115TMC2    H2 1795   0.913   2.696   0.241  1.6868 -1.1845 -0.5433
  115TMC2    C7 1796   0.704   2.787   0.107 -0.2037 -0.2825  0.1127
  115TMC2    C8 1797   0.937   2.489   0.370  0.4532  0.4190  0.5960
  115TMC2    O1 1798   0.590   2.826   0.131 -0.2779 -0.5963  0.4990
  115TMC2    O2 1799   0.964   2.588   0.445  0.2676 -0.2083 -0.0001
  115TMC2    O5 1800   0.964   2.360   0.391 -0.2762 -0.3146  0.2147
  115TMC2    H5 1801   0.939   2.292   0.325 -0.4725  0.2638 -0.2930
  116MPD2     C 1802   0.208   2.221  17.490 -0.7818 -0.2121 -0.2335
  116MPD2    C1 1803   0.247   2.145  17.600  0.0800 -0.2659  0.0534
  116MPD2    C2 1804   0.355   2.195  17.680 -0.1160 -0.7892  1.2741
  116MPD2    C3 1805   0.419   2.312  17.644  0.7765 -0.0399  0.9766
  116MPD2    C4 1806   0.386   2.372  17.526 -0.2581 -0.1080 -0.3266
  116MPD2    C5 1807   0.274   2.342  17.455  0.2250  0.4873 -0.1711
  116MPD2     H 1808   0.375   2.153   0.038  0.3753 -1.8392  0.7250
  116MPD2    H1 1809   0.426   2.469  17.501  0.2863 -0.1214  0.5064
  116MPD2    H2 1810   0.130   2.189  17.422 -2.3463  0.1495  1.3880
  116MPD2    H3 1811   0.237   2.399  17.371  1.6424  2.4233  0.5068
  116MPD2     N 1812   0.511   2.385  17.725 -0.3415 -0.5140 -0.0810
  116MPD2    H5 1813   0.546   2.469  17.680 -0.7543 -0.7893 -0.9171
  116MPD2    N1 1814   0.171   2.033  17.625 -0.1275 -0.4220 -0.3202
  116MPD2    H7 1815   0.087   2.023  17.568  1.1267 -2.0337 -1.8944
  117TMC2    C1 1816   3.961   3.673  14.157  0.7342 -0.0862 -0.7811
  117TMC2    C2 1817   4.077   3.644  14.226  0.1813  0.0338 -0.2022
  117TMC2    C3 1818   4.200   3.639  14.151  0.1776 -0.0413 -0.0383
  117TMC2    C4 1819   3.979   3.708  14.023 -0.1309 -0.4593  0.0645
  117TMC2    C5 1820   4.100   3.705  13.963 -0.3111 -0.1257  0.2695
  117TMC2    C6 1821   4.218   3.671  14.022 -0.0833  0.4388 -0.1281
  117TMC2     C 1822   3.835   3.626  14.195  0.2802  0.0480 -0.2511
  117TMC2     O 1823   3.831   3.522  14.255 -0.1619  0.3081 -0.5128
  117TMC2     H 1824   4.067   3.608  14.328  0.1638  0.2239 -0.1364
  117TMC2    H1 1825   3.897   3.732  13.956  1.9326 -2.1090 -3.0525
  117TMC2    H2 1826   4.314   3.672  13.972 -0.1075  2.4537 -0.1198
  117TMC2    C7 1827   4.097   3.744  13.825  0.2620 -0.9673  0.1303
  117TMC2    C8 1828   4.318   3.599  14.229  0.6105 -0.1139 -0.6191
  117TMC2    O1 1829   3.993   3.757  13.767 -0.2521 -0.1344  0.0652
  117TMC2    O2 1830   4.429   3.575  14.191  0.1532 -0.2710 -0.8432
  117TMC2    O5 1831   4.299   3.674  14.337 -0.0228 -0.0477  0.2206
  117TMC2    H5 1832   4.227   3.742  14.334  0.2638  0.3273  1.7005
  118MPD2     C 1833   4.197   3.824  13.540  0.5268  0.0271  0.5345
  118MPD2    C1 1834   4.256   3.850  13.667  0.3418 -0.2197  0.5241
  118MPD2    C2 1835   4.372   3.928  13.669  0.5460  0.0505 -0.1576
  118MPD2    C3 1836   4.428   3.972  13.551 -0.8818  0.2617 -0.9458
  118MPD2    C4 1837   4.380   3.936  13.430 -0.1018  0.1029 -0.1400
  118MPD2    C5 1838   4.262   3.860  13.426  0.7964  0.3072  0.5873
  118MPD2     H 1839   4.405   3.944  13.771 -1.0497  0.2522  0.3417
  118MPD2    H1 1840   4.423   3.971  13.337  0.9066  1.4743  0.8565
  118MPD2    H2 1841   4.105   3.767  13.538 -0.1695  1.1762 -1.0354
  118MPD2    H3 1842   4.211   3.837  13.333  0.9502 -1.4304  0.9264
  118MPD2     N 1843   4.524   4.071  13.548 -0.6630 -0.8155  0.8557
  118MPD2    H5 1844   4.545   4.097  13.452  3.1417 -0.8036  1.6794
  118MPD2    N1 1845   4.209   3.810  13.798 -0.2097 -0.0170  0.6176
  118MPD2    H7 1846   4.276   3.818  13.874  1.1576  1.0062 -0.6701
  119TMC2    C1 1847   1.716   4.356  13.223 -0.4606 -0.3550 -1.5736
  119TMC2    C2 1848   1.804   4.374  13.122  0.7263  0.9803 -0.2926
  119TMC2    C3 1849   1.801   4.488  13.041  0.0462 -0.0570 -0.4418
  119TMC2    C4 1850   1.609   4.440  13.225 -0.3044  0.7451 -0.5723
  119TMC2    C5 1851   1.611   4.560  13.151  0.3230 -0.4602  0.2520
  119TMC2    C6 1852   1.714   4.585  13.060 -0.2851 -0.5425 -0.3356
  119TMC2     C 1853   1.767   4.358  13.354 -0.5321 -0.6729  0.1157
  119TMC2     O 1854   1.696   4.409  13.439 -0.3743 -0.1210 -0.3759
  119TMC2     H 1855   1.875   4.296  13.099 -1.3564 -2.0849  3.5754
  119TMC2    H1 1856   1.525   4.426  13.291  0.8963 -0.7160  0.6647
  119TMC2    H2 1857   1.727   4.686  13.022  0.3704 -1.0237 -1.3722
  119TMC2    C7 1858   1.567   4.680  13.222  0.0552 -0.1765 -0.6164
  119TMC2    C8 1859   1.900   4.501  12.936  0.2582  0.1410  0.2748
  119TMC2    O1 1860   1.570   0.056  13.165 -0.0758 -0.0042  0.0435
  119TMC2    O2 1861   1.978   4.409  12.907  0.3967  0.0551 -0.7836
  119TMC2    O5 1862   1.838   4.579  12.843 -0.4587 -0.5354 -0.0457
  119TMC2    H5 1863   1.741   4.588  12.854 -0.3852  0.4681 -0.2279
  120MPD2     C 1864   2.158   4.417  13.670  0.1131  0.3866 -0.2418
  120MPD2    C1 1865   2.029   4.476  13.677 -0.0288 -0.8914 -0.1085
  120MPD2    C2 1866   1.949   4.453  13.569  0.2637  0.5210  0.8531
  120MPD2    C3 1867   1.980   4.355  13.477 -0.8817 -0.8279  0.4349
  120MPD2    C4 1868   2.096   4.290  13.485  0.3948  0.2579 -0.1351
  120MPD2    C5 1869   2.190   4.321  13.577 -0.7318 -0.5570  0.1659
  120MPD2     H 1870   1.865   4.520  13.558  0.3106  0.4818  0.2204
  120MPD2    H1 1871   2.121   4.206  13.421  2.9235  2.3076 -1.8583
  120MPD2    H2 1872   2.226   4.447  13.749  0.3860  0.8392 -0.6500
  120MPD2    H3 1873   2.289   4.276  13.581 -0.9118 -0.7442  2.6587
  120MPD2     N 1874   1.906   4.330  13.364  0.7440  0.1783 -0.2439
  120MPD2    H5 1875   1.947   4.274  13.289 -0.5570  0.2314 -0.9951
  120MPD2    N1 1876   2.003   4.581  13.769 -0.5203  0.7597  0.1667
  120MPD2    H7 1877   2.063   4.588  13.850  1.1345  1.9174 -1.1824
  121TMC2    C1 1878   3.864   1.783  14.173  0.2530 -0.4435 -0.6612
  121TMC2    C2 1879   3.799   1.737  14.283 -0.0646  0.5881 -0.1039
  121TMC2    C3 1880   3.669   1.710  14.272 -0.2199  1.0298 -0.2146
  121TMC2    C4 1881   3.792   1.804  14.055 -0.1920 -0.3371 -0.0573
  121TMC2    C5 1882   3.659   1.774  14.053  0.5472  0.4990 -0.2283
  121TMC2    C6 1883   3.601   1.715  14.158 -0.1303 -0.9706 -0.1096
  121TMC2     C 1884   4.005   1.771  14.166 -0.8094 -1.0987 -0.4706
  121TMC2     O 1885   4.053   1.692  14.245  0.2955  0.1950  0.2021
  121TMC2     H 1886   3.846   1.706  14.376 -0.5319  0.5605  0.1223
  121TMC2    H1 1887   3.856   1.822  13.970  3.3054 -2.1075  2.1915
  121TMC2    H2 1888   3.498   1.685  14.147 -0.9634  1.4091  1.2058
  121TMC2    C7 1889   3.584   1.805  13.934  0.2770  0.6001 -0.1884
  121TMC2    C8 1890   3.603   1.646  14.383  0.0787 -0.1337  0.5602
  121TMC2    O1 1891   3.642   1.806  13.829 -0.1891 -0.0039 -0.4863
  121TMC2    O2 1892   3.656   1.563  14.456  0.2506 -0.2383  0.5810
  121TMC2    O5 1893   3.469   1.653  14.371 -0.1540  0.6009 -0.8711
  121TMC2    H5 1894   3.428   1.709  14.302  0.1940  0.0810 -1.5043
  122MPD2     C 1895   4.294   1.757  14.086 -0.3309  0.9069 -0.4384
  122MPD2    C1 1896   4.207   1.852  14.052  1.0062  0.2214 -0.2077
  122MPD2    C2 1897   4.260   1.956  13.970  0.4663  0.2498  0.7216
  122MPD2    C3 1898   4.380   1.953  13.907 -0.4137  0.5763 -0.0650
  122MPD2    C4 1899   4.458   1.839  13.932 -0.6713  0.1074  0.9503
  122MPD2    C5 1900   4.422   1.747  14.034 -0.2625  0.3503 -0.2422
  122MPD2     H 1901   4.203   2.047  13.959 -0.5551 -0.4613  0.1286
  122MPD2    H1 1902   4.554   1.819  13.885 -1.1408 -2.4599  1.1311
  122MPD2    H2 1903   4.263   1.682  14.158  3.8162 -2.1263 -1.8524
  122MPD2    H3 1904   4.484   1.660  14.057 -0.4202 -0.1967 -1.8722
  122MPD2     N 1905   4.415   2.036  13.801  0.6486  0.4613 -0.3132
  122MPD2    H5 1906   4.488   1.996  13.743  0.9635 -1.4724  1.4154
  122MPD2    N1 1907   4.070   1.872  14.094 -0.5132 -0.1474 -0.4264
  122MPD2    H7 1908   4.013   1.946  14.055  0.8535  1.3063  0.3449
  123TMC2    C1 1909   2.116   0.655  10.935 -0.5856  0.5757 -0.4843
  123TMC2    C2 1910   2.030   0.752  10.969  1.1307  0.1809 -0.5252
  123TMC2    C3 1911   2.064   0.881  10.943 -0.4389  0.0319 -0.3687
  123TMC2    C4 1912   2.240   0.672  10.887  0.8402 -0.0176  0.2270
  123TMC2    C5 1913   2.280   0.805  10.873  0.0279  0.0843 -0.0287
  123TMC2    C6 1914   2.193   0.913  10.898  0.2744  0.4933 -0.3025
  123TMC2     C 1915   2.087   0.525  10.982  0.8152  0.1484  0.0472
  123TMC2     O 1916   2.036   0.520  11.094  0.4667 -0.6184  0.1731
  123TMC2     H 1917   1.935   0.731  11.017  1.2968  1.6365  0.4367
  123TMC2    H1 1918   2.303   0.589  10.859  0.1890 -0.0762 -1.0686
  123TMC2    H2 1919   2.233   1.009  10.869 -1.9916  1.9092  1.2661
  123TMC2    C7 1920   2.380   0.823  10.768  0.2102  0.0380 -0.6979
  123TMC2    C8 1921   1.987   0.997  10.988 -0.1881 -0.3381  0.3934
  123TMC2    O1 1922   2.455   0.726  10.765 -0.0785  0.1280  0.4144
  123TMC2    O2 1923   2.044   1.087  11.047 -0.0635 -0.4008  0.2816
  123TMC2    O5 1924   1.859   0.964  10.996 -0.2781 -0.3022  0.8049
  123TMC2    H5 1925   1.841   0.919  10.911 -1.1130  1.6912 -0.0749
  124MPD2     C 1926   1.958   0.035  10.850  0.0392 -0.1527  0.0005
  124MPD2    C1 1927   2.017   0.103  10.742 -0.0200 -0.6005 -0.4807
  124MPD2    C2 1928   2.069   0.229  10.757 -0.3202  0.1547  0.8056
  124MPD2    C3 1929   2.071   0.297  10.877  0.2337  0.3607 -0.0155
  124MPD2    C4 1930   2.008   0.226  10.985  0.0529  0.0997 -0.4768
  124MPD2    C5 1931   1.959   0.102  10.965  0.0616  0.3797  0.2911
  124MPD2     H 1932   2.106   0.290  10.676  0.9653 -1.3853  0.2189
  124MPD2    H1 1933   2.010   0.270  11.084  0.5433  0.8094 -0.7951
  124MPD2    H2 1934   1.899   4.679  10.844 -0.6077  0.1016  2.4128
  124MPD2    H3 1935   1.912   0.053  11.049  1.0814  1.1844  1.3277
  124MPD2     N 1936   2.115   0.430  10.888  0.2662 -1.0065  0.7561
  124MPD2    H5 1937   2.166   0.465  10.808  0.9793 -2.7018  0.4634
  124MPD2    N1 1938   2.000   0.041  10.622 -0.1496  0.4076 -0.4714
  124MPD2    H7 1939   1.954   4.686  10.624 -0.3557  0.5559  1.1747
  125TMC2    C1 1940   3.004   1.966   9.357 -0.5763 -0.2508 -0.1242
  125TMC2    C2 1941   3.085   1.866   9.314 -0.1795  0.2166 -0.1636
  125TMC2    C3 1942   3.201   1.907   9.249  0.8306  0.4566  0.1146
  125TMC2    C4 1943   3.041   2.097   9.359  0.6300  0.2213  0.8252
  125TMC2    C5 1944   3.158   2.130   9.299  0.0886 -0.1506 -0.3162
  125TMC2    C6 1945   3.243   2.036   9.241  0.5105 -0.9083 -0.3377
  125TMC2     C 1946   2.878   1.933   9.420  0.5294 -0.2390 -0.8654
  125TMC2     O 1947   2.864   1.830   9.488 -0.7525 -0.3392  0.1812
  125TMC2     H 1948   3.045   1.766   9.329  1.8022 -0.5740 -0.1069
  125TMC2    H1 1949   2.986   2.163   9.424  0.2568  1.3644 -0.6361
  125TMC2    H2 1950   3.334   2.070   9.193  0.8317 -1.8476 -0.3764
  125TMC2    C7 1951   3.195   2.270   9.313  0.0986 -0.5747  0.0595
  125TMC2    C8 1952   3.280   1.810   9.170 -0.0489 -0.8555  0.2322
  125TMC2    O1 1953   3.111   2.358   9.324  0.6503 -0.1297 -0.5041
  125TMC2    O2 1954   3.350   1.831   9.069 -0.3112 -0.0801 -0.1665
  125TMC2    O5 1955   3.267   1.688   9.225 -0.3561  0.4548 -0.7338
  125TMC2    H5 1956   3.230   1.687   9.316 -1.1296 -1.4386 -1.0845
  126MPD1     C 1957   2.397   2.078   9.525 -0.4744  0.7697 -0.7598
  126MPD1    C1 1958   2.440   2.159   9.420  0.5222  0.4773  0.5493
  126MPD1    C2 1959   2.566   2.133   9.363 -0.1860  0.1915 -0.6131
  126MPD1    C3 1960   2.649   2.039   9.425  0.4256  0.7146  0.6131
  126MPD1    C4 1961   2.601   1.973   9.534 -0.4975  0.8062 -0.4435
  126MPD1    C5 1962   2.480   1.994   9.594 -0.0768  0.0528 -0.5090
  126MPD1     H 1963   2.599   2.179   9.271  1.7436  0.8173  0.3831
  126MPD1    H1 1964   2.663   1.905   9.592 -1.9789  0.5681  0.8363
  126MPD1    H2 1965   2.294   2.079   9.559  0.2384  0.9009  1.3866
  126MPD1    H3 1966   2.442   1.921   9.665  0.5390  0.9921  0.7669
  126MPD1     N 1967   2.784   2.023   9.379 -0.1716 -0.0765  0.7065
  126MPD1    H5 1968   2.812   2.088   9.306 -0.8591  0.8698  1.2812
  126MPD1    N1 1969   2.351   2.240   9.338  0.3320 -0.1594 -0.6810
  126MPD1    H6 1970   2.401   2.308   9.280 -0.6657  0.8911 -0.3052
  126MPD1    H7 1971   2.278   2.288   9.390  2.6505  1.5121  1.0491
  127TMC2    C1 1972   3.999   0.746   9.740 -0.0639 -0.3435 -0.3733
  127TMC2    C2 1973   4.048   0.696   9.856  0.1811  0.2588  0.0811
  127TMC2    C3 1974   3.967   0.602   9.915  0.2723  0.1682 -0.1533
  127TMC2    C4 1975   3.880   0.697   9.686 -0.7562  0.1522  0.0681
  127TMC2    C5 1976   3.803   0.604   9.749  0.0092  0.1301  0.1983
  127TMC2    C6 1977   3.846   0.551   9.868  0.7693 -0.7495  0.1992
  127TMC2     C 1978   4.082   0.845   9.669 -0.0679  0.3800  0.1116
  127TMC2     O 1979   4.174   0.887   9.737 -0.2970 -0.6588  0.6149
  127TMC2     H 1980   4.151   0.712   9.884  0.4518 -0.3721 -0.5601
  127TMC2    H1 1981   3.844   0.739   9.593  0.4027 -1.4101 -1.0840
  127TMC2    H2 1982   3.792   0.475   9.924 -1.6335  0.6575 -0.2095
  127TMC2    C7 1983   3.669   0.585   9.693  0.8669  0.2840 -0.2055
  127TMC2    C8 1984   4.008   0.545  10.047 -0.5620  0.2689  0.1257
  127TMC2    O1 1985   3.635   0.652   9.596  0.5497  0.1016  0.6697
  127TMC2    O2 1986   3.958   0.439  10.088  0.3528  0.3792 -0.0095
  127TMC2    O5 1987   4.075   0.646  10.113 -0.5344  0.0074 -0.7147
  127TMC2    H5 1988   4.076   0.733  10.068  2.0193  0.2785 -0.1248
  128MPD2     C 1989   4.102   0.941   9.312  0.0172 -0.3684 -0.1262
  128MPD2    C1 1990   4.129   0.951   9.448  0.6512 -0.1375  0.2801
  128MPD2    C2 1991   4.201   1.062   9.497 -0.0235  0.2066  0.1950
  128MPD2    C3 1992   4.244   1.166   9.404  0.7331 -0.0360  0.4034
  128MPD2    C4 1993   4.204   1.152   9.277  0.8664 -0.5459  0.1190
  128MPD2    C5 1994   4.141   1.038   9.234  0.4797  0.4026  0.2933
  128MPD2     H 1995   4.223   1.078   9.602  0.5115  1.1581 -0.0671
  128MPD2    H1 1996   4.225   1.224   9.199 -0.3363  0.3069  0.6008
  128MPD2    H2 1997   4.030   0.871   9.269 -0.1383 -0.2636 -0.0373
  128MPD2    H3 1998   4.114   1.028   9.129  0.5701 -0.6030  0.3743
  128MPD2     N 1999   4.323   1.269   9.451 -0.2972 -0.3897 -0.3937
  128MPD2    H5 2000   4.348   1.276   9.549 -2.2828  0.1021  0.0568
  128MPD2    N1 2001   4.072   0.853   9.531  0.2159 -0.3023  0.3263
  128MPD2    H7 2002   3.999   0.797   9.488 -0.0026 -0.7636  1.2819
  129TMC2    C1 2003   0.801   2.041   1.413  0.3095 -0.2432  0.5511
  129TMC2    C2 2004   0.894   2.015   1.318  0.2912  0.5901  0.0030
  129TMC2    C3 2005   0.873   1.918   1.226 -0.0430  0.1220 -0.4718
  129TMC2    C4 2006   0.680   1.985   1.406  0.5024 -0.2803 -0.0836
  129TMC2    C5 2007   0.662   1.886   1.318 -0.1614  0.2434  0.2424
  129TMC2    C6 2008   0.761   1.835   1.237  0.5895 -0.3543  0.4340
  129TMC2     C 2009   0.808   2.166   1.485  0.0986  0.2024  0.1307
  129TMC2     O 2010   0.703   2.227   1.511 -0.4603  0.2188 -0.2667
  129TMC2     H 2011   0.990   2.066   1.321 -0.1968  1.4757  0.6987
  129TMC2    H1 2012   0.595   2.031   1.454  3.3074  2.2327  2.4648
  129TMC2    H2 2013   0.762   1.755   1.164  2.1141  1.1304 -1.1810
  129TMC2    C7 2014   0.555   1.794   1.338  0.3798 -0.1505  0.8024
  129TMC2    C8 2015   0.988   1.865   1.158  0.2521 -0.6157 -0.0124
  129TMC2    O1 2016   0.551   1.682   1.284 -0.1789  0.3368  0.0940
  129TMC2    O2 2017   1.102   1.901   1.180  0.5250 -0.4881  0.0023
  129TMC2    O5 2018   0.940   1.843   1.033 -0.6138 -0.0689 -0.3826
  129TMC2    H5 2019   0.843   1.830   1.028 -0.3182 -1.5607 -2.2307
  130MPD2     C 2020   0.896   2.434   1.594 -1.5021  0.5064  0.0404
  130MPD2    C1 2021   0.982   2.331   1.566  0.0012 -0.2868 -0.1651
  130MPD2    C2 2022   1.116   2.353   1.582  1.0954  0.3067 -0.1779
  130MPD2    C3 2023   1.172   2.479   1.608  0.2314 -0.2776 -0.1427
  130MPD2    C4 2024   1.083   2.586   1.624  0.1099 -0.0052  0.0141
  130MPD2    C5 2025   0.944   2.560   1.614  0.4386 -0.0403  0.2645
  130MPD2     H 2026   1.185   2.269   1.575  0.8907  0.2349 -1.3629
  130MPD2    H1 2027   1.114   2.689   1.636  0.4132 -0.3977  2.5176
  130MPD2    H2 2028   0.788   2.419   1.592 -1.3239 -0.6320 -0.4686
  130MPD2    H3 2029   0.873   2.637   1.641 -0.3032 -0.6733  0.1071
  130MPD2     N 2030   1.313   2.492   1.601  0.1557  0.6617 -0.0180
  130MPD2    H5 2031   1.362   2.408   1.574  2.5284  1.5218  1.6194
  130MPD2    N1 2032   0.938   2.205   1.514 -0.1607 -0.1970 -0.1090
  130MPD2    H7 2033   1.017   2.142   1.499 -1.0763 -1.1058 -1.1895
  131TMC2    C1 2034   2.429   0.663   9.844 -0.5352 -0.6195  0.6453
  131TMC2    C2 2035   2.563   0.669   9.853  0.0148  0.1526 -0.1827
  131TMC2    C3 2036   2.627   0.787   9.864  0.7350  0.1010  0.2678
  131TMC2    C4 2037   2.362   0.779   9.867  0.3386 -0.0181  0.1397
  131TMC2    C5 2038   2.425   0.902   9.871 -0.1859 -0.0659  0.4556
  131TMC2    C6 2039   2.561   0.909   9.868 -0.4306  0.2360 -0.3818
  131TMC2     C 2040   2.360   0.536   9.882  0.0007  0.4692  0.1648
  131TMC2     O 2041   2.299   0.532   9.986  0.1059  0.3812  0.1636
  131TMC2     H 2042   2.630   0.584   9.858  0.2973  0.3467 -0.6814
  131TMC2    H1 2043   2.256   0.757   9.876  0.7887 -0.7783  3.6276
  131TMC2    H2 2044   2.610   1.002   9.895  2.4050 -1.6309  0.9188
  131TMC2    C7 2045   2.338   1.007   9.928  0.4313 -0.1882 -0.5070
  131TMC2    C8 2046   2.730   0.779   9.961 -0.3550  0.7847  0.0653
  131TMC2    O1 2047   2.238   0.967   9.992 -0.2428  0.0797  0.5967
  131TMC2    O2 2048   2.691   0.752  10.074  0.6787 -0.4308  0.3880
  131TMC2    O5 2049   2.807   0.882   9.924  0.1253 -0.4524  0.6681
  131TMC2    H5 2050   2.807   0.881   9.826  2.2660  0.2384  0.6591
  132MPD2     C 2051   2.456   0.203   9.746  0.4701 -0.6005 -0.3506
  132MPD2    C1 2052   2.386   0.291   9.826 -0.1359 -0.1371 -0.0719
  132MPD2    C2 2053   2.296   0.244   9.919  0.2253 -0.2148 -0.5283
  132MPD2    C3 2054   2.269   0.112   9.925 -0.2296 -0.6194 -0.7777
  132MPD2    C4 2055   2.344   0.022   9.855 -0.4544  0.2572  0.4911
  132MPD2    C5 2056   2.438   0.072   9.770  0.0188 -0.0815  0.2180
  132MPD2     H 2057   2.251   0.310   9.992  1.0511  0.9940 -1.1137
  132MPD2    H1 2058   2.338   4.649   9.867 -0.6419 -0.0755 -2.6964
  132MPD2    H2 2059   2.524   0.237   9.669 -0.2902  1.5243 -0.0733
  132MPD2    H3 2060   2.497   0.009   9.704  0.8051 -0.0807  0.9382
  132MPD2     N 2061   2.175   0.071  10.028 -0.8011 -0.4592  0.2317
  132MPD2    H5 2062   2.114   0.143  10.064  0.2496  0.9930 -0.9227
  132MPD2    N1 2063   2.414   0.429   9.809  0.2120 -0.5581 -0.4567
  132MPD2    H7 2064   2.480   0.455   9.736 -0.1883 -1.3920 -1.1176
  133TMC2    C1 2065   1.153   1.929   9.945  0.0122 -0.2617 -0.0122
  133TMC2    C2 2066   1.140   1.907  10.075  0.9559  0.3398  0.3744
  133TMC2    C3 2067   1.179   1.998  10.164 -0.4837 -0.5063  0.1373
  133TMC2    C4 2068   1.199   2.044   9.895  0.5890 -0.1874  0.3944
  133TMC2    C5 2069   1.254   2.133   9.990  0.2211  0.6605 -0.5426
  133TMC2    C6 2070   1.245   2.110  10.120  0.3720  0.4814  0.3565
  133TMC2     C 2071   1.132   1.821   9.862  0.9347  0.3423  0.3459
  133TMC2     O 2072   1.198   1.718   9.877 -0.5817 -0.7510 -0.2987
  133TMC2     H 2073   1.104   1.811  10.112  0.8031  0.2995  0.1186
  133TMC2    H1 2074   1.202   2.058   9.787  1.0468  2.8179  0.8091
  133TMC2    H2 2075   1.295   2.176  10.190 -0.6318  0.6121  0.9616
  133TMC2    C7 2076   1.279   2.264   9.936  0.1621 -0.0040 -0.6179
  133TMC2    C8 2077   1.191   1.953  10.297 -0.2538 -0.4441 -0.8153
  133TMC2    O1 2078   1.278   2.273   9.815 -0.0980 -0.4210 -0.1249
  133TMC2    O2 2079   1.205   1.835  10.326  0.2694 -0.4518  0.3195
  133TMC2    O5 2080   1.211   2.059  10.383  0.0254 -0.1820 -0.1071
  133TMC2    H5 2081   1.192   2.149  10.351  0.0508 -1.0807 -2.6174
  134MPD2     C 2082   0.925   1.850   9.566  0.1911 -0.3913  0.8285
  134MPD2    C1 2083   1.007   1.784   9.654 -0.1100  0.5054  0.1187
  134MPD2    C2 2084   1.057   1.659   9.622 -0.6282 -0.3560 -0.7696
  134MPD2    C3 2085   1.016   1.601   9.502  0.1716 -1.0845 -0.2704
  134MPD2    C4 2086   0.914   1.659   9.429  0.2191  0.3492 -0.5394
  134MPD2    C5 2087   0.882   1.789   9.452  0.3720 -0.6352  0.5561
  134MPD2     H 2088   1.113   1.598   9.693 -1.6594 -0.1516  0.2124
  134MPD2    H1 2089   0.872   1.610   9.342 -0.2332 -0.6467  0.2556
  134MPD2    H2 2090   0.883   1.946   9.594 -0.5452 -0.2872 -0.6396
  134MPD2    H3 2091   0.815   1.840   9.385  1.9009  0.1538 -0.3792
  134MPD2     N 2092   1.050   1.462   9.480 -0.2218 -0.0756 -0.1108
  134MPD2    H5 2093   0.990   1.412   9.415  0.2389 -0.6250 -0.1127
  134MPD2    N1 2094   1.044   1.853   9.770 -0.3429 -0.6830 -0.1236
  134MPD2    H7 2095   1.000   1.945   9.778  0.4316 -0.3876  0.8115
  135TMC2    C1 2096   3.818   2.565   9.655 -0.7114 -0.4491 -0.1470
  135TMC2    C2 2097   3.699   2.600   9.709  0.2585 -0.0707  0.2437
  135TMC2    C3 2098   3.606   2.499   9.729  0.4879 -0.4713 -0.1321
  135TMC2    C4 2099   3.857   2.437   9.634  0.2061 -0.3140 -0.0974
  135TMC2    C5 2100   3.764   2.339   9.672 -0.0196  0.0749  0.0771
  135TMC2    C6 2101   3.644   2.368   9.713  0.5042  0.1412  0.4348
  135TMC2     C 2102   3.888   2.677   9.598 -0.1389 -0.3795 -0.8239
  135TMC2     O 2103   3.836   2.789   9.610 -0.6538  0.2760 -0.2934
  135TMC2     H 2104   3.669   2.703   9.724 -0.7636 -0.9689  4.2861
  135TMC2    H1 2105   3.944   2.411   9.575  0.5813 -1.4083  0.9420
  135TMC2    H2 2106   3.565   2.297   9.737  0.0850  0.8996  1.2848
  135TMC2    C7 2107   3.811   2.201   9.667 -0.5985  0.1554 -0.1286
  135TMC2    C8 2108   3.481   2.520   9.782 -0.5893 -0.1888  0.6946
  135TMC2    O1 2109   3.927   2.180   9.623  0.5591  0.6400  0.1269
  135TMC2    O2 2110   3.422   2.446   9.861 -0.4074 -0.2650  0.1665
  135TMC2    O5 2111   3.447   2.653   9.766  0.4292  0.0193  0.0051
  135TMC2    H5 2112   3.507   2.704   9.708  2.2934  1.2080  2.9586
  136MPD2     C 2113   4.055   2.891   9.474 -0.6728  0.8222  0.1419
  136MPD2    C1 2114   4.086   2.752   9.473  1.2571 -0.0021 -0.0860
  136MPD2    C2 2115   4.192   2.714   9.394  0.3937 -0.3420 -0.5684
  136MPD2    C3 2116   4.279   2.804   9.336  0.2606 -0.4182 -0.1217
  136MPD2    C4 2117   4.247   2.941   9.346 -0.0720  0.6758 -0.8616
  136MPD2    C5 2118   4.121   2.976   9.392  0.1410  0.4081  0.1878
  136MPD2     H 2119   4.207   2.606   9.396  0.9051 -0.2827 -0.8735
  136MPD2    H1 2120   4.307   3.021   9.305  1.5256  0.4168  0.9852
  136MPD2    H2 2121   3.970   2.935   9.525 -0.0178  0.0248  1.8931
  136MPD2    H3 2122   4.090   3.079   9.383 -0.7776  0.4252  3.4169
  136MPD2     N 2123   4.396   2.752   9.261 -0.1698  0.6803 -0.3980
  136MPD2    H5 2124   4.415   2.654   9.278  0.2484  0.6370 -1.1359
  136MPD2    N1 2125   4.011   2.652   9.545 -0.0260 -0.4007 -0.9511
  136MPD2    H7 2126   4.052   2.559   9.547  2.8536  0.9810  5.1612
  137TMC2    C1 2127   3.591   1.650   9.379 -0.7840  0.0702 -0.1948
  137TMC2    C2 2128   3.679   1.667   9.277  0.1456 -0.0094  0.5990
  137TMC2    C3 2129   3.711   1.793   9.245 -0.8073  0.2698 -0.2326
  137TMC2    C4 2130   3.539   1.747   9.462 -0.1937  0.9556  0.7203
  137TMC2    C5 2131   3.569   1.874   9.424  0.7570  0.8662 -0.0780
  137TMC2    C6 2132   3.645   1.900   9.313  0.3673 -0.1376 -0.5646
  137TMC2     C 2133   3.559   1.521   9.426  0.3281 -0.1679 -0.3565
  137TMC2     O 2134   3.522   1.515   9.544  0.2770 -0.0469 -0.0251
  137TMC2     H 2135   3.727   1.587   9.222  0.6667  1.0481 -0.4804
  137TMC2    H1 2136   3.494   1.724   9.557 -2.9245 -1.2803 -1.1222
  137TMC2    H2 2137   3.661   2.004   9.287  2.0486 -0.6553 -1.5885
  137TMC2    C7 2138   3.501   1.988   9.471 -0.5049  0.2159  0.3813
  137TMC2    C8 2139   3.772   1.813   9.116  0.1797 -0.2294  0.1993
  137TMC2    O1 2140   3.544   2.098   9.442  0.3681 -0.0006 -0.3318
  137TMC2    O2 2141   3.781   1.723   9.036 -0.3804  0.3748 -0.3393
  137TMC2    O5 2142   3.810   1.937   9.112 -0.1294  0.3148 -0.5843
  137TMC2    H5 2143   3.817   1.983   9.198 -2.3525  2.3577 -1.5063
  138MPD2     C 2144   3.451   1.237   9.210  1.0374 -0.3713  1.0226
  138MPD2    C1 2145   3.486   1.305   9.332  0.7076 -0.0227 -0.3286
  138MPD2    C2 2146   3.465   1.238   9.449  0.0831 -0.0364  0.1149
  138MPD2    C3 2147   3.429   1.106   9.450  0.2724  0.1253  0.2680
  138MPD2    C4 2148   3.401   1.039   9.330  0.6909  0.5786 -0.4595
  138MPD2    C5 2149   3.410   1.107   9.209 -0.4648 -0.3901  0.6526
  138MPD2     H 2150   3.487   1.282   9.545  0.1085  1.6432 -0.6522
  138MPD2    H1 2151   3.370   0.935   9.324 -2.6088  1.5662 -0.7393
  138MPD2    H2 2152   3.460   1.286   9.114  1.9189 -1.3834  0.5909
  138MPD2    H3 2153   3.392   1.056   9.115 -2.8331 -0.3504  1.0865
  138MPD2     N 2154   3.416   1.037   9.581  0.0985 -0.2576  0.2077
  138MPD2    H5 2155   3.453   1.086   9.662  0.6960 -0.9779  0.3693
  138MPD2    N1 2156   3.531   1.435   9.321  0.0159 -0.5132 -0.1557
  138MPD2    H7 2157   3.538   1.472   9.226  0.6792 -1.2623 -0.4058
  139TMC2    C1 2158   3.745   4.673  13.090  0.1207 -0.8532  0.1585
  139TMC2    C2 2159   3.830   4.688  12.983 -0.3250  0.8055  0.3140
  139TMC2    C3 2160   3.836   0.073  12.917  0.3123  0.0479  0.0421
  139TMC2    C4 2161   3.682   0.048  13.147  0.7741  0.2662 -0.6780
  139TMC2    C5 2162   3.692   0.170  13.078 -0.1533 -0.1764 -0.0325
  139TMC2    C6 2163   3.776   0.187  12.967  0.6180  0.9442  0.3951
  139TMC2     C 2164   3.744   4.539  13.147  0.5390  0.2607  0.3436
  139TMC2     O 2165   3.776   4.446  13.071  0.0941  0.3370 -0.0337
  139TMC2     H 2166   3.882   4.608  12.933 -0.3967  1.4495 -0.7854
  139TMC2    H1 2167   3.605   0.028  13.221 -1.9429  0.3063 -3.4703
  139TMC2    H2 2168   3.764   0.278  12.910 -1.4728  0.1376 -0.4342
  139TMC2    C7 2169   3.636   0.294  13.132 -0.0804  0.0797 -0.2980
  139TMC2    C8 2170   3.912   0.073  12.792 -0.5425 -0.0159 -0.1346
  139TMC2    O1 2171   3.612   0.380  13.053  0.0564  0.8450  0.0385
  139TMC2    O2 2172   3.882   0.016  12.689  0.5155  0.0273 -0.8369
  139TMC2    O5 2173   4.034   0.054  12.840  0.1326 -0.5583 -0.0794
  139TMC2    H5 2174   4.041   0.100  12.926 -0.4239 -0.3771 -0.1271
  140MPD2     C 2175   3.653   4.414  13.484 -0.2485 -0.8149 -0.3981
  140MPD2    C1 2176   3.694   4.409  13.356  1.0632  0.3962  0.8054
  140MPD2    C2 2177   3.747   4.294  13.303  0.0652  0.5957 -0.5827
  140MPD2    C3 2178   3.748   4.177  13.378  0.0664  0.5157 -0.4610
  140MPD2    C4 2179   3.703   4.187  13.506 -0.1933  0.3387  0.0543
  140MPD2    C5 2180   3.666   4.305  13.560 -0.4994  0.2003  0.7355
  140MPD2     H 2181   3.791   4.281  13.204  0.4753 -1.0639 -0.1896
  140MPD2    H1 2182   3.718   4.106  13.577  0.1282 -0.2669 -0.6966
  140MPD2    H2 2183   3.619   4.506  13.531  2.0880 -0.3804  0.4238
  140MPD2    H3 2184   3.630   4.313  13.662  0.2225  0.9212  0.9304
  140MPD2     N 2185   3.795   4.065  13.321 -0.6259 -0.2325 -0.2887
  140MPD2    H5 2186   3.839   4.067  13.230 -0.2511 -0.8440 -0.1239
  140MPD2    N1 2187   3.712   4.532  13.282  0.1122  0.2784  0.0922
  140MPD2    H7 2188   3.693   4.618  13.333  1.4948  0.1276  0.8341
  141TMC2    C1 2189   4.261   1.045  14.458 -0.5313  0.6771  1.0559
  141TMC2    C2 2190   4.163   1.017  14.551 -0.0670 -0.5599  0.1687
  141TMC2    C3 2191   4.088   1.125  14.599 -0.0921 -1.1240 -0.0417
  141TMC2    C4 2192   4.300   1.177  14.431  0.2965 -0.1126  0.3522
  141TMC2    C5 2193   4.220   1.277  14.475 -0.1524  0.8779 -0.5776
  141TMC2    C6 2194   4.112   1.254  14.559  0.7931 -0.0486 -0.5823
  141TMC2     C 2195   4.278   0.949  14.345 -0.1343 -0.4409  0.3256
  141TMC2     O 2196   4.306   0.999  14.238  0.0155 -0.3873  0.3059
  141TMC2     H 2197   4.132   0.916  14.576 -1.5342 -0.3400 -0.7362
  141TMC2    H1 2198   4.373   1.199  14.354 -1.0508  1.3791 -0.5010
  141TMC2    H2 2199   4.053   1.332  14.606 -0.4462 -1.1920 -0.2565
  141TMC2    C7 2200   4.271   1.410  14.467 -0.2160  0.5421  0.9706
  141TMC2    C8 2201   3.999   1.098  14.707 -0.7232 -0.2426 -0.7638
  141TMC2    O1 2202   4.198   1.507  14.484 -0.8217 -0.0875 -0.4088
  141TMC2    O2 2203   4.013   0.995  14.775 -0.6414  0.1531 -0.1142
  141TMC2    O5 2204   3.901   1.188  14.719  0.6322 -0.1367  0.4727
  141TMC2    H5 2205   3.880   1.250  14.645  1.1520 -2.0293 -1.2578
  142TMC2    C1 2206   2.471   0.160  10.239  0.4372 -0.5339  0.6381
  142TMC2    C2 2207   2.557   0.170  10.131  0.1764  0.3837 -0.4188
  142TMC2    C3 2208   2.628   0.288  10.104 -0.7188 -0.2743  0.7914
  142TMC2    C4 2209   2.426   0.270  10.301  0.1517  0.1283  0.4414
  142TMC2    C5 2210   2.491   0.384  10.262 -0.9572  0.3133  0.4701
  142TMC2    C6 2211   2.591   0.397  10.170 -0.2404 -0.0284 -0.4430
  142TMC2     C 2212   2.446   0.021  10.285 -0.3732  0.1933  0.9924
  142TMC2     O 2213   2.454   4.664  10.207 -0.6628 -0.1001  0.1613
  142TMC2     H 2214   2.574   0.076  10.079  0.0169  0.6334 -0.9197
  142TMC2    H1 2215   2.344   0.267  10.371 -0.3645  1.5181 -0.1169
  142TMC2    H2 2216   2.645   0.490  10.152 -0.0485  0.1886  1.2415
  142TMC2    C7 2217   2.455   0.491  10.349 -0.3614 -0.2335  0.8060
  142TMC2    C8 2218   2.728   0.298   9.999 -0.7637  0.0116 -0.3329
  142TMC2    O1 2219   2.416   0.469  10.461  0.6696 -0.3021 -0.1183
  142TMC2    O2 2220   2.735   0.373   9.901 -0.3676 -0.1886 -0.5551
  142TMC2    O5 2221   2.804   0.189  10.009  0.3795 -0.2037  0.4183
  142TMC2    H5 2222   2.810   0.147  10.098  1.4506  0.6198  0.7447
  143MPD2     C 2223   2.252   4.402  10.604 -0.0079  0.1310  0.8744
  143MPD2    C1 2224   2.295   4.392  10.473  0.1087  0.2978 -1.0881
  143MPD2    C2 2225   2.338   4.501  10.400 -0.2392 -0.1806 -0.3845
  143MPD2    C3 2226   2.349   4.624  10.465  0.8343  0.0217  0.2835
  143MPD2    C4 2227   2.297   4.633  10.593 -1.2672 -0.1430 -0.2042
  143MPD2    C5 2228   2.257   4.525  10.659  0.1495 -0.0017 -0.3664
  143MPD2     H 2229   2.359   4.491  10.294  1.0462 -1.8121  0.0384
  143MPD2    H1 2230   2.308   4.725  10.650 -0.1097  1.4646 -3.0075
  143MPD2    H2 2231   2.220   4.318  10.665  0.3689 -1.8205 -1.6075
  143MPD2    H3 2232   2.216   4.538  10.758  1.2378  0.9866 -0.0522
  143MPD2     N 2233   2.377   0.009  10.403  0.1481  0.3781  0.0964
  143MPD2    H5 2234   2.378   0.092  10.462  3.1113 -0.1925  0.8223
  143MPD2    N1 2235   2.290   4.257  10.417  0.1450  0.2312  0.1577
  143MPD2    H7 2236   2.283   4.182  10.486  1.7053 -1.1436 -1.1975
  144TMC2    C1 2237   4.467   2.860   1.008 -0.1777 -0.0567 -0.1384
  144TMC2    C2 2238   4.382   2.896   1.102  0.0249 -0.1545 -0.4213
  144TMC2    C3 2239   4.433   2.972   1.207 -0.1175 -0.3013 -1.0530
  144TMC2    C4 2240   4.600   2.900   1.010 -0.7185 -0.3486 -0.5308
  144TMC2    C5 2241   4.633   2.984   1.103 -0.4360 -0.2753 -0.1077
  144TMC2    C6 2242   4.562   3.022   1.217  0.5791  1.1903  0.3424
  144TMC2     C 2243   4.425   2.851   0.871  0.1823  0.4917 -0.8641
  144TMC2     O 2244   4.503   2.794   0.795  0.1067  0.3475 -0.3654
  144TMC2     H 2245   4.278   2.865   1.096 -0.4442  1.2779  0.2202
  144TMC2    H1 2246   4.660   2.894   0.920 -0.8481 -1.8119 -0.5137
  144TMC2    H2 2247   4.597   3.088   1.295 -0.0959 -0.7253  2.2620
  144TMC2    C7 2248   0.017   3.060   1.062  0.0604  1.3379  0.0653
  144TMC2    C8 2249   4.344   2.987   1.317  0.2517 -0.4188 -0.3756
  144TMC2    O1 2250   0.107   3.024   0.993 -0.2925 -0.1541  0.1127
  144TMC2    O2 2251   4.259   2.903   1.343 -0.0297 -0.0008  0.0667
  144TMC2    O5 2252   4.410   3.052   1.411  0.0907  0.4944  0.0135
  144TMC2    H5 2253   4.435   3.136   1.368  0.9580  1.1851  1.8537
  145MPD2     C 2254   4.226   3.108   0.471  0.2227 -0.2001  0.2783
  145MPD2    C1 2255   4.304   2.997   0.472 -0.3733  0.1153 -0.5366
  145MPD2    C2 2256   4.336   2.942   0.598 -0.3131 -0.6423  0.6145
  145MPD2    C3 2257   4.288   2.996   0.718 -0.4646  0.2961 -0.4977
  145MPD2    C4 2258   4.181   3.091   0.709  0.2898  0.1707 -0.3623
  145MPD2    C5 2259   4.162   3.151   0.589 -0.0588  0.0535 -0.4589
  145MPD2     H 2260   4.401   2.855   0.592 -0.5192 -0.8017  0.6707
  145MPD2    H1 2261   4.131   3.140   0.791 -1.5287 -1.9585 -0.1965
  145MPD2    H2 2262   4.215   3.173   0.385  0.0830  1.4674  1.5707
  145MPD2    H3 2263   4.104   3.242   0.576  0.2066  0.3904  0.8092
  145MPD2     N 2264   4.328   2.946   0.845  0.2793 -0.1331  0.2304
  145MPD2    H5 2265   4.287   3.001   0.920  2.0573  1.6463 -0.1268
  145MPD2    N1 2266   4.364   2.940   0.354  0.2338  0.2901  0.1258
  145MPD2    H7 2267   4.418   2.857   0.376 -0.3587  0.1422  1.0245
  146TMC2    C1 2268   1.007   2.647  12.749  0.2013 -0.1343  0.0366
  146TMC2    C2 2269   1.072   2.697  12.638 -0.4296  0.2706  0.2270
  146TMC2    C3 2270   1.091   2.608  12.527  0.1724  0.1630  0.1055
  146TMC2    C4 2271   0.937   2.527  12.744 -0.2809 -0.2341 -0.5533
  146TMC2    C5 2272   0.968   2.443  12.640 -0.0309  0.0579  0.3209
  146TMC2    C6 2273   1.039   2.481  12.531 -0.0542 -0.2124 -1.0486
  146TMC2     C 2274   1.017   2.704  12.882  0.8894  0.1484  0.0929
  146TMC2     O 2275   1.029   2.826  12.892  0.3345  0.0854  0.7305
  146TMC2     H 2276   1.121   2.793  12.653  0.7550 -0.3982  0.6793
  146TMC2    H1 2277   0.882   2.494  12.831 -1.7549  2.1594 -0.5730
  146TMC2    H2 2278   1.059   2.414  12.448 -1.7289 -2.7948  0.6570
  146TMC2    C7 2279   0.975   2.309  12.687  0.6678 -0.6873  0.2029
  146TMC2    C8 2280   1.199   2.630  12.434  0.0840  0.0401  0.4638
  146TMC2    O1 2281   0.978   2.289  12.808 -0.0748 -0.6608 -0.1249
  146TMC2    O2 2282   1.284   2.719  12.449  0.5946 -0.0589 -0.0178
  146TMC2    O5 2283   1.191   2.565  12.315  0.8240 -0.4025  0.2699
  146TMC2    H5 2284   1.120   2.498  12.301 -1.2983  2.2072 -1.5478
  147MPD2     C 2285   1.023   1.818  12.586 -0.0863  0.2300 -0.0524
  147MPD2    C1 2286   1.080   1.889  12.687 -0.0528 -0.5055  0.2027
  147MPD2    C2 2287   1.050   2.021  12.691 -0.2498 -0.4774 -0.4350
  147MPD2    C3 2288   0.977   2.084  12.590  0.4184  0.2157 -0.3914
  147MPD2    C4 2289   0.929   2.015  12.482  0.4474 -0.4902  0.1049
  147MPD2    C5 2290   0.947   1.883  12.494  0.0895  1.0029  0.0400
  147MPD2     H 2291   1.089   2.079  12.773  0.8937  0.6946 -1.8054
  147MPD2    H1 2292   0.872   2.056  12.399 -1.6146 -1.6251  0.9315
  147MPD2    H2 2293   1.048   1.713  12.573 -0.1222  0.1958  0.1483
  147MPD2    H3 2294   0.904   1.830  12.410  0.1541 -0.5372  0.9629
  147MPD2     N 2295   0.946   2.221  12.586 -0.0967  0.9035 -0.0976
  147MPD2    H5 2296   0.905   2.269  12.506 -0.6610  0.3575 -0.1404
  147MPD2    N1 2297   1.166   1.828  12.777  0.5916 -0.4025  0.0487
  147MPD2    H7 2298   1.182   1.728  12.773 -0.1161 -0.5419  0.8264
  148TMC2    C1 2299   1.281   1.202  10.640  0.3278 -0.2564  0.0672
  148TMC2    C2 2300   1.250   1.281  10.753 -0.3771  0.3837  0.3736
  148TMC2    C3 2301   1.293   1.241  10.880 -0.0295 -0.2638  0.0247
  148TMC2    C4 2302   1.347   1.084  10.661 -0.3681 -0.6327  0.1995
  148TMC2    C5 2303   1.384   1.045  10.794 -0.5065 -0.0898  0.7067
  148TMC2    C6 2304   1.364   1.129  10.902 -0.1493  0.0326  0.4813
  148TMC2     C 2305   1.203   1.226  10.520 -0.2736 -0.0669  0.0400
  148TMC2     O 2306   1.126   1.317  10.518  0.2142  0.0606 -0.2405
  148TMC2     H 2307   1.193   1.373  10.739  2.1114  1.6932 -1.0345
  148TMC2    H1 2308   1.379   1.020  10.579 -0.6785 -1.1537  0.4793
  148TMC2    H2 2309   1.387   1.091  11.001 -0.0259 -1.0862  0.0281
  148TMC2    C7 2310   1.477   0.935  10.798 -0.9157  0.4063  0.6841
  148TMC2    C8 2311   1.258   1.331  10.988  0.0323  0.7080 -0.0124
  148TMC2    O1 2312   1.504   0.879  10.688  0.0235 -0.0037  0.5840
  148TMC2    O2 2313   1.150   1.385  10.997 -0.0356 -0.1667 -0.6479
  148TMC2    O5 2314   1.355   1.324  11.082  0.1237 -0.1940 -0.0844
  148TMC2    H5 2315   1.438   1.281  11.052  0.0460  0.1266 -0.7465
  149MPD2     C 2316   1.023   1.185  10.285 -0.2909  0.3265  0.6145
  149MPD2    C1 2317   1.122   1.095  10.322  0.4135  0.5667  0.3588
  149MPD2    C2 2318   1.131   0.973  10.253 -0.0201 -0.3388  0.6168
  149MPD2    C3 2319   1.049   0.938  10.151  0.2641 -0.0364 -0.6717
  149MPD2    C4 2320   0.965   1.041  10.105  0.4723  1.0852 -0.6667
  149MPD2    C5 2321   0.938   1.150  10.182 -0.0796 -0.1806  0.0518
  149MPD2     H 2322   1.200   0.900  10.293  1.4850  0.7986  0.1213
  149MPD2    H1 2323   0.896   1.019  10.024  1.4493  2.6749 -1.9165
  149MPD2    H2 2324   0.987   1.269  10.342 -3.2705 -0.5969  0.0913
  149MPD2    H3 2325   0.847   1.207  10.175  0.6330  0.9352 -0.1675
  149MPD2     N 2326   1.043   0.807  10.095 -0.1932  0.1277 -0.6082
  149MPD2    H5 2327   1.000   0.793  10.004 -0.5282 -1.6654 -0.1710
  149MPD2    N1 2328   1.209   1.117  10.439 -0.4136  0.0753 -0.2128
  149MPD2    H7 2329   1.282   1.048  10.453 -0.3706 -0.3611 -2.5118
  150TMC2    C1 2330   3.741   0.037  11.715  0.0170 -0.6891 -0.1191
  150TMC2    C2 2331   3.735   0.122  11.601 -0.4683  0.7607  0.0166
  150TMC2    C3 2332   3.838   0.215  11.591  0.0686  0.4579 -0.1606
  150TMC2    C4 2333   3.842   0.041  11.809 -0.3057 -0.0168  0.6985
  150TMC2    C5 2334   3.938   0.139  11.789 -0.1162 -0.1636  0.7555
  150TMC2    C6 2335   3.934   0.228  11.684  0.3984 -0.0394  0.1372
  150TMC2     C 2336   3.656   4.661  11.720 -0.2199  0.0056 -0.0891
  150TMC2     O 2337   3.686   4.570  11.798  0.1270 -0.2551 -0.3527
  150TMC2     H 2338   3.659   0.117  11.524  1.1936  2.2404 -1.7366
  150TMC2    H1 2339   3.837   4.711  11.895 -0.5287 -1.3744 -0.3564
  150TMC2    H2 2340   4.011   0.302  11.665  0.1584 -0.7765 -3.7668
  150TMC2    C7 2341   4.047   0.164  11.886  0.6306  0.0248  0.5698
  150TMC2    C8 2342   3.867   0.286  11.470 -0.0714  0.1379  0.1344
  150TMC2    O1 2343   4.121   0.257  11.854 -0.1576  0.6109 -0.1281
  150TMC2    O2 2344   3.977   0.339  11.450  0.3491  0.0668  0.0294
  150TMC2    O5 2345   3.783   0.228  11.373  0.3492  0.2432  0.1829
  150TMC2    H5 2346   3.808   0.251  11.281  0.7956  0.8221  0.4500
  151MPD2     C 2347   3.211   4.433  11.632 -0.3758 -0.5304  0.5879
  151MPD2    C1 2348   3.190   4.569  11.619  0.3202 -0.1048 -0.4761
  151MPD2    C2 2349   3.305   4.644  11.621 -0.4178  0.9273 -0.5017
  151MPD2    C3 2350   3.427   4.589  11.654  0.0464 -0.4318  0.1238
  151MPD2    C4 2351   3.445   4.455  11.669  0.2034 -0.3329  0.4575
  151MPD2    C5 2352   3.330   4.376  11.654 -0.4203 -0.3626 -0.3520
  151MPD2     H 2353   3.291   0.016  11.611 -1.1423  0.9099  0.3292
  151MPD2    H1 2354   3.541   4.409  11.689  0.5007  0.8144  1.6788
  151MPD2    H2 2355   3.122   4.372  11.620 -2.1750  2.2732 -0.4842
  151MPD2    H3 2356   3.334   4.268  11.652  1.6295 -0.2583 -1.3728
  151MPD2     N 2357   3.530   4.686  11.670  0.4126 -0.1158  0.0453
  151MPD2    H5 2358   3.517   0.046  11.636 -0.5541 -1.3300 -2.9574
  151MPD2    N1 2359   3.056   4.621  11.609  0.1579 -0.2285 -0.5599
  151MPD2    H7 2360   2.979   4.555  11.607 -0.8173  0.8990 -0.2942
  152TMC2    C1 2361   3.679   0.165  12.297  0.1166  0.3131  0.5756
  152TMC2    C2 2362   3.745   0.216  12.190  0.4856  0.2521 -0.6211
  152TMC2    C3 2363   3.842   0.310  12.212  0.0347 -0.9649  0.3710
  152TMC2    C4 2364   3.704   0.221  12.425 -0.4495 -0.1491  0.1170
  152TMC2    C5 2365   3.812   0.300  12.439  0.0510  0.1017  0.1073
  152TMC2    C6 2366   3.875   0.359  12.331 -0.4138  0.7453 -0.1857
  152TMC2     C 2367   3.542   0.131  12.259  0.2871  0.2222 -0.4382
  152TMC2     O 2368   3.456   0.155  12.341 -0.2775  0.0179  0.5219
  152TMC2     H 2369   3.721   0.171  12.094  1.1545  1.3186 -1.2955
  152TMC2    H1 2370   3.633   0.197  12.504 -1.6397  1.8271 -0.3562
  152TMC2    H2 2371   3.941   0.443  12.347 -1.0615  1.0930  0.6711
  152TMC2    C7 2372   3.866   0.335  12.564  0.5325  0.0688 -0.2522
  152TMC2    C8 2373   3.883   0.375  12.092 -0.3121 -0.6302 -0.2873
  152TMC2    O1 2374   3.797   0.330  12.659 -0.0126 -0.0269 -0.0850
  152TMC2    O2 2375   3.820   0.374  11.992  0.2277 -0.3753 -0.1469
  152TMC2    O5 2376   3.987   0.461  12.118 -0.4365 -0.0665 -1.1696
  152TMC2    H5 2377   4.060   0.436  12.179 -1.2679  0.4869  0.0503
  153MPD2     C 2378   3.434   4.595  12.035  0.3403  0.1719 -0.1783
  153MPD2    C1 2379   3.420   4.712  12.106  0.4510  0.2919  0.7806
  153MPD2    C2 2380   3.297   0.046  12.109  0.4216 -0.3601  0.1652
  153MPD2    C3 2381   3.186   4.731  12.036  0.0505  0.4642 -0.3180
  153MPD2    C4 2382   3.204   4.602  11.979  0.1445 -0.4711  0.4389
  153MPD2    C5 2383   3.323   4.539  11.974  0.4796  0.0432  0.0842
  153MPD2     H 2384   3.293   0.140  12.163 -1.6447 -0.6205  0.4741
  153MPD2    H1 2385   3.123   4.550  11.929 -0.4487  1.8973 -1.0850
  153MPD2    H2 2386   3.526   4.538  12.037 -1.5298 -2.7865  0.2907
  153MPD2    H3 2387   3.322   4.444  11.921  1.5949 -0.6648  1.3317
  153MPD2     N 2388   3.065   0.066  12.036 -0.3065 -0.2087 -0.2641
  153MPD2    H5 2389   3.057   0.154  12.086  0.3146  0.0640 -0.6573
  153MPD2    N1 2390   3.539   0.037  12.159 -0.7576 -0.7181  0.1701
  153MPD2    H7 2391   3.629   4.729  12.143  0.0781  1.3835 -0.7249
  154TMC2    C1 2392   0.497   4.021   0.406  0.7574 -0.0116 -0.1643
  154TMC2    C2 2393   0.511   3.966   0.532 -0.2206  0.4308 -0.3120
  154TMC2    C3 2394   0.557   3.836   0.542  0.2713 -0.0941  0.0144
  154TMC2    C4 2395   0.505   3.949   0.290 -0.0927  0.1912 -0.6189
  154TMC2    C5 2396   0.535   3.811   0.306  0.1563 -0.1867  0.4307
  154TMC2    C6 2397   0.566   3.756   0.431  0.7858  0.0929 -0.6112
  154TMC2     C 2398   0.467   4.163   0.404  0.4466  0.1072  0.7599
  154TMC2     O 2399   0.456   4.212   0.514 -0.1824  0.5754  0.2559
  154TMC2     H 2400   0.509   4.018   0.627  1.3438  0.9075 -0.5311
  154TMC2    H1 2401   0.464   4.001   0.204  0.2340  0.6640 -0.4908
  154TMC2    H2 2402   0.601   3.654   0.438 -0.5327 -0.0899  3.0562
  154TMC2    C7 2403   0.553   3.720   0.192  0.3556  0.0692 -0.0307
  154TMC2    C8 2404   0.564   3.757   0.664 -0.5322  0.1205  0.1234
  154TMC2    O1 2405   0.572   3.601   0.220 -0.5969  0.4501 -0.2755
  154TMC2    O2 2406   0.650   3.669   0.675 -0.0118  0.4343 -0.2117
  154TMC2    O5 2407   0.439   3.735   0.696 -0.2186  0.2822 -0.3246
  154TMC2    H5 2408   0.374   3.790   0.648  0.2558 -0.0963 -1.4037
  155MPD2     C 2409   0.549   4.426   0.162 -0.2109  0.1335  0.3199
  155MPD2    C1 2410   0.484   4.361   0.267 -0.1011 -0.8769  0.0335
  155MPD2    C2 2411   0.398   4.433   0.347  0.3305 -0.7129  0.2190
  155MPD2    C3 2412   0.373   4.570   0.318 -0.0926  0.3884 -0.8373
  155MPD2    C4 2413   0.454   4.635   0.228  0.2610 -0.3098 -0.2994
  155MPD2    C5 2414   0.533   4.558   0.145  0.1622 -1.6407  0.5724
  155MPD2     H 2415   0.342   4.386   0.427  0.7263  1.2535  1.6783
  155MPD2    H1 2416   0.439   0.005   0.205  1.0086  0.4014  2.4725
  155MPD2    H2 2417   0.611   4.367   0.095 -0.4646 -0.6912  0.8114
  155MPD2    H3 2418   0.586   4.611   0.067 -0.5930  0.7080  1.6544
  155MPD2     N 2419   0.292   4.634   0.411 -0.1736 -0.4086  0.5501
  155MPD2    H5 2420   0.256   4.577   0.487 -0.7508 -0.2497  0.3936
  155MPD2    N1 2421   0.509   4.222   0.286 -0.1565  0.1689  0.4493
  155MPD2    H7 2422   0.556   4.165   0.216 -0.8020  0.6813 -0.3964
  156TMC2    C1 2423   4.151   1.960  12.001  0.3620 -0.1905 -0.6384
  156TMC2    C2 2424   4.285   1.968  12.035 -0.4934 -0.0503 -0.3224
  156TMC2    C3 2425   4.367   2.017  11.931  0.3543 -0.5061 -0.2101
  156TMC2    C4 2426   4.100   1.981  11.870  0.5264 -1.5150 -0.0614
  156TMC2    C5 2427   4.186   2.034  11.776 -0.6253 -0.0175 -0.0699
  156TMC2    C6 2428   4.315   2.063  11.810  0.0389 -0.2420 -0.9898
  156TMC2     C 2429   4.054   1.997  12.104  0.0812 -0.2658  0.0994
  156TMC2     O 2430   3.950   2.058  12.070  0.0036  0.1017 -0.4319
  156TMC2     H 2431   4.332   1.941  12.129  0.7906  1.1734 -0.6209
  156TMC2    H1 2432   3.994   1.979  11.846  0.1661  0.8782  1.4266
  156TMC2    H2 2433   4.383   2.110  11.740  1.5870 -0.1392  0.5676
  156TMC2    C7 2434   4.127   2.096  11.654 -0.2283 -0.3785  0.0071
  156TMC2    C8 2435   4.510   2.035  11.951 -0.7723 -0.4736  0.2509
  156TMC2    O1 2436   4.173   2.199  11.604 -0.1963 -0.1254  0.4518
  156TMC2    O2 2437   4.574   2.134  11.906  0.6143  0.4186 -0.4478
  156TMC2    O5 2438   4.558   1.912  11.969  0.0562 -0.5211  0.6967
  156TMC2    H5 2439   4.495   1.838  11.958 -0.3703 -0.1497  0.6292
  157MPD2     C 2440   4.090   1.902  12.452  0.2844 -0.2125  0.1857
  157MPD2    C1 2441   4.040   1.974  12.349 -0.0315 -0.7954 -0.1795
  157MPD2    C2 2442   3.941   2.065  12.373  0.3564  0.4974 -0.0267
  157MPD2    C3 2443   3.906   2.099  12.498 -0.2308  0.0034 -1.2557
  157MPD2    C4 2444   3.953   2.025  12.599  0.1090 -0.7187 -0.0155
  157MPD2    C5 2445   4.038   1.915  12.578  0.0581  0.0862  0.5580
  157MPD2     H 2446   3.886   2.108  12.290  1.1112  3.0288  0.7780
  157MPD2    H1 2447   3.927   2.054  12.701  0.6102 -1.6530  0.3812
  157MPD2    H2 2448   4.170   1.830  12.438 -0.7455 -1.2220 -0.4821
  157MPD2    H3 2449   4.079   1.871  12.668 -0.0457 -1.2197 -0.0388
  157MPD2     N 2450   3.799   2.192  12.516 -0.3609  0.1676  0.0143
  157MPD2    H5 2451   3.763   2.225  12.426  1.2406  0.5586 -0.4877
  157MPD2    N1 2452   4.092   1.936  12.224 -0.8928 -0.4858  0.2508
  157MPD2    H7 2453   4.171   1.874  12.219 -0.3943 -0.0842  3.1112
  158TMC2    C1 2454   4.491   0.934  13.292 -0.2306  0.2482  0.0010
  158TMC2    C2 2455   4.621   0.951  13.252 -0.7334  0.3132  0.1929
  158TMC2    C3 2456   4.657   1.079  13.217 -0.7016 -0.4301 -0.1040
  158TMC2    C4 2457   4.396   1.033  13.281  0.3189  0.6693  0.4802
  158TMC2    C5 2458   4.436   1.157  13.235 -0.1872  0.3790 -0.6434
  158TMC2    C6 2459   4.570   1.181  13.209 -0.3693 -0.1759  0.3928
  158TMC2     C 2460   4.441   0.804  13.335  0.5940  0.1193 -0.5300
  158TMC2     O 2461   4.505   0.706  13.297 -0.2190 -0.2704  0.2444
  158TMC2     H 2462   4.689   0.867  13.254  0.4846  1.3163  0.2815
  158TMC2    H1 2463   4.293   1.010  13.306  1.1386  0.0906  3.2537
  158TMC2    H2 2464   4.601   1.284  13.208 -0.6786 -0.0821  0.4331
  158TMC2    C7 2465   4.348   1.266  13.218  0.3444 -0.8831  0.0311
  158TMC2    C8 2466   0.063   1.107  13.212  0.1905 -0.0188 -0.1874
  158TMC2    O1 2467   4.391   1.371  13.173  0.1565  0.0062  0.1251
  158TMC2    O2 2468   0.092   1.201  13.141  0.0912 -0.4681 -0.8128
  158TMC2    O5 2469   0.124   1.057  13.321  0.2436 -0.3962 -0.1479
  158TMC2    H5 2470   0.073   1.003  13.385 -0.1630  1.1862  0.8559
  159MPD2     C 2471   4.195   0.507  13.681  0.4408 -0.5473  0.2497
  159MPD2    C1 2472   4.187   0.636  13.719  0.5493  0.0901 -0.0246
  159MPD2    C2 2473   4.231   0.736  13.629  0.5810  0.4105 -0.2443
  159MPD2    C3 2474   4.314   0.705  13.518 -0.2793 -0.1059  0.3333
  159MPD2    C4 2475   4.329   0.573  13.484 -0.3831 -0.5415  0.3770
  159MPD2    C5 2476   4.261   0.479  13.557  0.1535  0.9322  0.3037
  159MPD2     H 2477   4.220   0.842  13.650  2.9443  0.6903 -0.3979
  159MPD2    H1 2478   4.377   0.540  13.392 -0.0024  1.0824 -0.0110
  159MPD2    H2 2479   4.137   0.427  13.726 -0.0549  0.4185  1.3212
  159MPD2    H3 2480   4.247   0.380  13.515  0.6650  0.7340  0.6002
  159MPD2     N 2481   4.355   0.816  13.437  0.0612  0.2794 -0.1245
  159MPD2    H5 2482   4.324   0.906  13.474 -2.6228 -0.7416  0.1215
  159MPD2    N1 2483   4.109   0.657  13.836  0.9395  0.2469  0.1010
  159MPD2    H7 2484   4.095   0.573  13.890 -0.7408  0.6422  0.3012
  160TMC2    C1 2485   3.056   4.205   0.604  0.0868  0.0950 -0.2306
  160TMC2    C2 2486   2.955   4.144   0.528 -0.6462  0.3334  0.6300
  160TMC2    C3 2487   2.926   4.018   0.562  0.7946  0.0129 -0.1026
  160TMC2    C4 2488   3.123   4.147   0.707 -0.4841  0.3056 -0.6590
  160TMC2    C5 2489   3.086   4.014   0.730 -0.2539 -0.3774 -0.2495
  160TMC2    C6 2490   3.002   3.942   0.648 -0.4357  0.9405  0.6525
  160TMC2     C 2491   3.075   4.345   0.597 -0.0703 -0.2449 -0.4020
  160TMC2     O 2492   3.183   4.394   0.637 -0.2021  0.6120  0.4624
  160TMC2     H 2493   2.886   4.191   0.458 -0.4752 -0.5385 -0.1325
  160TMC2    H1 2494   3.199   4.202   0.761 -2.6963  1.6640  1.0848
  160TMC2    H2 2495   2.986   3.835   0.664  1.4737  0.5900  0.1766
  160TMC2    C7 2496   3.139   3.938   0.843  0.1756 -0.0021 -0.6584
  160TMC2    C8 2497   2.829   3.935   0.495 -0.2776  0.2440 -0.7003
  160TMC2    O1 2498   3.138   3.816   0.839  0.4681 -0.1951  0.8283
  160TMC2    O2 2499   2.822   3.815   0.501  0.2996 -0.6030 -0.1121
  160TMC2    O5 2500   2.719   4.006   0.473  0.6200 -0.2235  0.5764
  160TMC2    H5 2501   2.735   4.101   0.493 -1.8042  0.5042 -0.8725
  161MPD2     C 2502   3.025   4.636   0.550  0.0013  0.0188 -0.3570
  161MPD2    C1 2503   2.925   4.540   0.542 -0.2611  0.0554 -0.2364
  161MPD2    C2 2504   2.794   4.580   0.499  0.6709  0.2554  0.1490
  161MPD2    C3 2505   2.774   4.709   0.455  0.0377  0.5608 -0.4757
  161MPD2    C4 2506   2.886   0.057   0.442 -0.8037  0.2671 -1.1914
  161MPD2    C5 2507   3.002   0.018   0.496 -0.1611 -0.2229  0.1897
  161MPD2     H 2508   2.705   4.519   0.492  0.1743  1.2027 -1.6280
  161MPD2    H1 2509   2.895   0.152   0.389 -1.6338  1.5262  0.9231
  161MPD2    H2 2510   3.127   4.606   0.572  1.7253  3.8007 -3.2868
  161MPD2    H3 2511   3.090   0.082   0.495  1.8854 -3.1199 -2.6800
  161MPD2     N 2512   2.646   0.026   0.411 -0.0817 -0.0222 -0.0076
  161MPD2    H5 2513   2.657   0.124   0.385 -1.2244 -0.3171 -1.5956
  161MPD2    N1 2514   2.951   4.403   0.572 -0.3002  0.0874  0.2564
  161MPD2    H7 2515   2.874   4.337   0.576 -0.2510  0.0865  1.2553
  162TMC2    C1 2516   0.380   1.191   0.382 -1.1453  0.3452  0.7139
  162TMC2    C2 2517   0.399   1.310   0.445 -0.3624  0.3416  0.4717
  162TMC2    C3 2518   0.308   1.332   0.548  0.0760 -0.3797 -0.4456
  162TMC2    C4 2519   0.273   1.107   0.405  0.9587  0.1831  0.1745
  162TMC2    C5 2520   0.191   1.133   0.513 -0.3631 -0.1681  0.1289
  162TMC2    C6 2521   0.211   1.246   0.588  0.5017  0.2413  1.4499
  162TMC2     C 2522   0.490   1.141   0.298  0.2005  0.1107  0.6768
  162TMC2     O 2523   0.507   1.024   0.294  0.3756  0.1559 -0.4788
  162TMC2     H 2524   0.473   1.383   0.415 -0.3914 -0.8751 -2.5449
  162TMC2    H1 2525   0.266   1.015   0.347  1.7568  0.0432  0.3032
  162TMC2    H2 2526   0.133   1.269   0.660 -0.0530  2.0595  0.2726
  162TMC2    C7 2527   0.148   1.015   0.587 -0.4911  0.4659  0.4994
  162TMC2    C8 2528   0.328   1.450   0.632 -0.0271  0.2619 -0.1185
  162TMC2    O1 2529   0.130   0.912   0.521  0.0426 -0.1487  0.3444
  162TMC2    O2 2530   0.436   1.492   0.673  0.0904  0.5661 -0.0865
  162TMC2    O5 2531   0.217   1.529   0.623  0.5317  0.1749 -0.2904
  162TMC2    H5 2532   0.137   1.478   0.597  0.6849 -1.3503  2.1595
  163MPD2     C 2533   0.954   1.199   0.062  0.5559  0.2324 -0.0131
  163MPD2    C1 2534   0.890   1.078   0.104  0.0436 -0.1951  0.6548
  163MPD2    C2 2535   0.775   1.086   0.179  0.1453 -0.2134  0.5171
  163MPD2    C3 2536   0.706   1.214   0.182 -0.0735 -0.4390  0.4085
  163MPD2    C4 2537   0.770   1.330   0.141  0.7472 -0.7442 -0.1012
  163MPD2    C5 2538   0.893   1.321   0.079  0.0191 -0.4405 -0.2678
  163MPD2     H 2539   0.733   1.010   0.244 -0.5553 -0.8419 -0.6739
  163MPD2    H1 2540   0.720   1.425   0.155  1.0419 -0.9947  2.7539
  163MPD2    H2 2541   1.038   1.193  17.733  0.2536  0.3060 -0.3951
  163MPD2    H3 2542   0.933   1.401   0.018  0.5191 -1.8966 -1.8703
  163MPD2     N 2543   0.569   1.236   0.243  0.1644 -0.6969  0.1495
  163MPD2    H5 2544   0.534   1.331   0.241 -0.9868 -1.1065  0.3770
  163MPD2    N1 2545   0.955   0.959   0.086 -0.1822 -0.0904  0.2024
  163MPD2    H7 2546   1.037   0.967   0.027 -0.2057 -3.1068 -0.2164
  164TMC2    C1 2547   1.888   0.667  11.409  0.2147  0.2094  0.0574
  164TMC2    C2 2548   2.002   0.725  11.351  0.5089  0.0934 -0.3584
  164TMC2    C3 2549   2.005   0.858  11.339  0.5779  0.3964 -0.1170
  164TMC2    C4 2550   1.790   0.741  11.457 -0.1321  0.2904 -0.2354
  164TMC2    C5 2551   1.797   0.878  11.441  0.8339  0.0673  0.0290
  164TMC2    C6 2552   1.902   0.938  11.380 -0.7522  0.6338 -0.1974
  164TMC2     C 2553   1.898   0.536  11.469 -0.1419  0.1402  0.2906
  164TMC2     O 2554   1.849   0.520  11.579 -0.2247 -0.7513 -0.6048
  164TMC2     H 2555   2.082   0.660  11.317 -0.7741 -1.4774 -0.3942
  164TMC2    H1 2556   1.705   0.697  11.508  2.3606 -1.3764  2.4820
  164TMC2    H2 2557   1.912   1.043  11.357 -0.8072  0.5315 -0.6799
  164TMC2    C7 2558   1.666   0.939  11.423  0.7685 -0.5323  0.0165
  164TMC2    C8 2559   2.134   0.914  11.291  0.3393  0.4210  0.1898
  164TMC2    O1 2560   1.568   0.868  11.402 -0.2278  0.3904 -1.0212
  164TMC2    O2 2561   2.230   0.840  11.259 -0.2749  0.1951  0.3176
  164TMC2    O5 2562   2.146   1.046  11.323  0.3930 -0.2269 -0.5927
  164TMC2    H5 2563   2.074   1.087  11.376  0.6862 -0.5086  0.0294
  165TMC2    C1 2564   2.928   3.907   1.201  0.1921 -0.8519  0.3282
  165TMC2    C2 2565   2.903   4.039   1.172 -0.1546 -0.5681 -0.5346
  165TMC2    C3 2566   2.957   4.144   1.233  0.8900 -0.4317  0.4003
  165TMC2    C4 2567   3.014   3.888   1.315 -0.1666  0.3809  0.2063
  165TMC2    C5 2568   3.075   3.999   1.371  0.2029  0.1274  0.3398
  165TMC2    C6 2569   3.041   4.127   1.338 -0.2343 -1.1143 -0.0315
  165TMC2     C 2570   2.832   3.800   1.169  0.1210 -0.3963  0.7298
  165TMC2     O 2571   2.874   3.692   1.200 -0.0641  0.6122  0.2250
  165TMC2     H 2572   2.837   4.057   1.088  0.9791 -0.4050 -1.3904
  165TMC2    H1 2573   3.021   3.791   1.362 -1.5471  0.7440  1.1571
  165TMC2    H2 2574   3.102   4.209   1.373  0.7152 -0.3019 -3.6025
  165TMC2    C7 2575   3.167   3.972   1.486 -0.3335 -0.8997 -0.3367
  165TMC2    C8 2576   2.899   4.279   1.216  0.3345  0.3814 -0.8343
  165TMC2    O1 2577   3.208   3.858   1.497  0.0199  0.1085  0.0244
  165TMC2    O2 2578   2.820   4.315   1.128  1.2196 -0.4746  0.3719
  165TMC2    O5 2579   2.889   4.329   1.343  0.1337  0.4392 -0.2624
  165TMC2    H5 2580   2.943   4.281   1.409  2.1699  0.3581 -1.9994
  166MPD2     C 2581   2.415   3.597   0.951 -0.1832  0.0014  0.5916
  166MPD2    C1 2582   2.532   3.528   0.990 -0.3582 -0.3843  0.8006
  166MPD2    C2 2583   2.639   3.607   1.042  0.4730  0.4238  1.1825
  166MPD2    C3 2584   2.628   3.748   1.046  0.4757  0.0192  0.1181
  166MPD2    C4 2585   2.511   3.805   1.000  0.0643 -0.0483 -0.4457
  166MPD2    C5 2586   2.415   3.732   0.938  0.3753  0.0169  0.5286
  166MPD2     H 2587   2.738   3.565   1.054  0.7017 -0.0975 -2.5687
  166MPD2    H1 2588   2.499   3.913   1.001  2.0528  0.1860  1.0882
  166MPD2    H2 2589   2.323   3.547   0.922  0.2352 -1.5074  1.8532
  166MPD2    H3 2590   2.325   3.781   0.903 -1.6392 -5.6328 -2.0441
  166MPD2     N 2591   2.724   3.837   1.102 -0.1448 -0.0539  0.4018
  166MPD2    H5 2592   2.701   3.935   1.087  1.0578 -0.1323 -1.9251
  166MPD2    N1 2593   2.533   3.385   1.002 -0.1471 -0.1032  0.1854
  166MPD2    H7 2594   2.450   3.340   0.964 -0.2073  1.1609 -1.2078
  167TMC2    C1 2595   2.552   0.622  12.731 -0.1550 -0.6376  0.0415
  167TMC2    C2 2596   2.556   0.680  12.856 -0.1176 -0.2920 -0.4293
  167TMC2    C3 2597   2.510   0.611  12.966 -0.4075 -0.6176  0.5106
  167TMC2    C4 2598   2.501   0.492  12.714  0.7761 -0.5942 -0.5484
  167TMC2    C5 2599   2.457   0.429  12.832  0.6129  0.3634  0.1105
  167TMC2    C6 2600   2.459   0.484  12.960 -0.2745 -0.3615  0.2156
  167TMC2     C 2601   2.557   0.719  12.625 -0.3531  0.6415 -0.0220
  167TMC2     O 2602   2.620   0.819  12.649  0.4915  0.2287 -0.4081
  167TMC2     H 2603   2.585   0.784  12.869  1.3549 -0.7484 -0.0815
  167TMC2    H1 2604   2.496   0.437  12.621  1.4090 -0.8486 -0.4346
  167TMC2    H2 2605   2.434   0.429  13.050 -2.2300 -1.3673 -0.9279
  167TMC2    C7 2606   2.413   0.288  12.825  0.0185  0.3620  0.7273
  167TMC2    C8 2607   2.506   0.683  13.095  0.6024 -0.4742 -0.6131
  167TMC2    O1 2608   2.400   0.227  12.929 -0.2043  0.2258  0.8934
  167TMC2    O2 2609   2.585   0.769  13.125 -0.0007  0.0221  0.8501
  167TMC2    O5 2610   2.398   0.636  13.168  0.1365 -0.3627  0.1411
  167TMC2    H5 2611   2.330   0.589  13.115  1.2673  0.1613 -1.7841
  168MPD2     C 2612   2.524   0.898  12.384 -0.0574  0.0168  0.5814
  168MPD2    C1 2613   2.471   0.771  12.399  0.9714  0.3896  0.0723
  168MPD2    C2 2614   2.395   0.720  12.295  0.7211  0.2317 -0.3158
  168MPD2    C3 2615   2.363   0.801  12.188 -0.6267  0.0663  0.3142
  168MPD2    C4 2616   2.399   0.931  12.183  0.5992 -0.1086 -0.0261
  168MPD2    C5 2617   2.484   0.984  12.278  0.7137 -0.3891 -0.9492
  168MPD2     H 2618   2.364   0.617  12.282 -0.5357  0.3262  1.9448
  168MPD2    H1 2619   2.380   1.000  12.103 -0.3295 -0.3164  0.0119
  168MPD2    H2 2620   2.586   0.942  12.462  0.2092  0.7065 -0.0226
  168MPD2    H3 2621   2.520   1.084  12.254 -0.9563 -0.1008 -2.2735
  168MPD2     N 2622   2.273   0.743  12.090 -0.1012 -0.3254 -0.6809
  168MPD2    H5 2623   2.250   0.646  12.109  2.1530 -0.2420  2.4197
  168MPD2    N1 2624   2.486   0.680  12.510  0.5368  0.2682  0.2540
  168MPD2    H7 2625   2.427   0.597  12.501  0.6695  0.2636 -0.5819
  169MPD1     C 2626   2.992   0.807   9.101  0.5329  0.3685  0.4945
  169MPD1    C1 2627   3.127   0.816   9.089 -0.6916  0.4721  0.0696
  169MPD1    C2 2628   3.200   0.708   9.120 -0.7836 -0.0152  0.1726
  169MPD1    C3 2629   3.142   0.600   9.193  0.6048  0.3317  0.9565
  169MPD1    C4 2630   3.003   0.606   9.221 -1.0195 -0.6660 -0.6222
  169MPD1    C5 2631   2.927   0.706   9.166 -0.7299  0.6717 -0.2936
  169MPD1     H 2632   3.307   0.704   9.103 -1.0728 -0.2909 -1.5971
  169MPD1    H1 2633   2.951   0.523   9.266 -0.1791 -0.5866  0.4744
  169MPD1    H2 2634   2.924   0.880   9.056 -0.2675  0.9993  2.7135
  169MPD1    H3 2635   2.820   0.708   9.184 -0.5926  2.3766  0.3526
  169MPD1     N 2636   3.219   0.487   9.233  0.3496 -0.2643 -0.4928
  169MPD1    H5 2637   3.317   0.488   9.206  0.3137  0.7907 -0.6010
  169MPD1    N1 2638   3.173   0.904   8.988  0.0235  0.2697 -0.8415
  169MPD1    H6 2639   3.140   0.996   9.015 -0.2548 -0.7622  2.3399
  169MPD1    H7 2640   3.274   0.915   8.977  0.0437  2.2449  1.5175
  170MPD1     C 2641   2.345   2.187  13.078  0.0393  0.2812  0.5371
  170MPD1    C1 2642   2.371   2.126  13.200  0.1150 -0.0735 -0.2309
  170MPD1    C2 2643   2.360   2.208  13.306  0.2530  0.3115 -0.7815
  170MPD1    C3 2644   2.321   2.347  13.301 -0.2327  0.1666  0.1849
  170MPD1    C4 2645   2.284   2.403  13.183 -0.2367  0.0809  0.2747
  170MPD1    C5 2646   2.305   2.318  13.071  0.1016 -0.3485  0.0041
  170MPD1     H 2647   2.381   2.174  13.406  1.8762 -1.2830 -1.6806
  170MPD1    H1 2648   2.240   2.502  13.171 -0.6005 -0.2201 -0.8416
  170MPD1    H2 2649   2.359   2.131  12.986  1.6271  1.1034  0.2831
  170MPD1    H3 2650   2.279   2.367  12.978 -3.2066  2.1789  2.2660
  170MPD1     N 2651   2.328   2.421  13.419  0.1217  0.5080 -0.3769
  170MPD1    H5 2652   2.373   2.370  13.494 -1.5744 -1.2166 -0.5284
  170MPD1    N1 2653   2.412   1.997  13.203 -0.3358  0.5898  0.5916
  170MPD1    H6 2654   2.371   1.949  13.283  0.3087  1.8996  1.7088
  170MPD1    H7 2655   2.379   1.946  13.121 -1.3910 -1.3074  2.1844
  171MPD1     C 2656   0.479   3.782  15.380 -0.6198 -0.1525  0.1152
  171MPD1    C1 2657   0.590   3.842  15.437 -0.2785  0.2367  0.6282
  171MPD1    C2 2658   0.633   3.793  15.560 -0.7896 -0.1196  0.3969
  171MPD1    C3 2659   0.577   3.677  15.616 -0.8503  0.2775 -0.0320
  171MPD1    C4 2660   0.473   3.614  15.556  0.0733 -0.9089  0.5741
  171MPD1    C5 2661   0.416   3.678  15.446  0.6846  0.6202  0.1064
  171MPD1     H 2662   0.716   3.846  15.606 -0.9235 -0.5850  1.1623
  171MPD1    H1 2663   0.420   3.534  15.606 -1.6094  0.5662  1.1571
  171MPD1    H2 2664   0.443   3.800  15.280 -0.0436 -0.6308 -0.1758
  171MPD1    H3 2665   0.332   3.633  15.394  1.8925 -0.9150 -0.5046
  171MPD1     N 2666   0.622   3.621  15.737 -0.7059  0.3641 -0.3153
  171MPD1    H5 2667   0.570   3.544  15.777  0.5960 -0.1238  0.4502
  171MPD1    N1 2668   0.627   3.968  15.393  0.1684  0.5920  0.1328
  171MPD1    H6 2669   0.724   3.991  15.417  1.2408 -0.1175 -3.5058
  171MPD1    H7 2670   0.617   3.958  15.292 -4.0008  1.5128  0.4574
  172MPD1     C 2671   4.554   2.474   0.324 -0.0880  0.3268 -0.2223
  172MPD1    C1 2672   4.652   2.561   0.280 -0.1721 -0.0879 -0.0779
  172MPD1    C2 2673   4.680   2.672   0.360 -0.1418 -0.3603 -0.0181
  172MPD1    C3 2674   4.621   2.695   0.483 -0.0731 -0.3392  0.8516
  172MPD1    C4 2675   4.524   2.609   0.521  0.5381 -0.1385  0.2725
  172MPD1    C5 2676   4.489   2.498   0.440 -0.2004 -0.0032 -0.8160
  172MPD1     H 2677   0.021   2.744   0.329 -1.1599  0.5570 -0.3878
  172MPD1    H1 2678   4.473   2.634   0.614 -1.0943 -0.5150 -0.5103
  172MPD1    H2 2679   4.527   2.382   0.274 -0.8528  1.2988 -1.6026
  172MPD1    H3 2680   4.414   2.429   0.474 -1.3861  1.1524 -1.0741
  172MPD1     N 2681   4.659   2.805   0.573 -0.0210  0.8586 -0.0996
  172MPD1    H5 2682   4.599   2.806   0.655  1.8334 -1.2690  1.2653
  172MPD1    N1 2683   4.693   2.553   0.147 -0.0199  0.2734  0.3708
  172MPD1    H6 2684   4.693   2.453   0.126 -1.1465  0.4158 -0.3364
  172MPD1    H7 2685   0.052   2.588   0.131  0.0019 -0.0118 -0.1313
  173MPD1     C 2686   1.631   4.068  14.329 -0.3750 -0.0868 -0.0078
  173MPD1    C1 2687   1.673   3.966  14.409  0.5482  0.1939  0.0714
  173MPD1    C2 2688   1.600   3.845  14.400 -0.2361 -0.3698  0.2819
  173MPD1    C3 2689   1.492   3.835  14.318 -1.0575 -0.4373 -0.3406
  173MPD1    C4 2690   1.454   3.939  14.238  0.1899  0.0655 -0.6414
  173MPD1    C5 2691   1.523   4.054  14.246 -0.2590  0.4937  0.6040
  173MPD1     H 2692   1.625   3.758  14.460 -1.0138 -1.8233 -1.5034
  173MPD1    H1 2693   1.371   3.934  14.168  1.2773  2.0520 -2.0569
  173MPD1    H2 2694   1.677   4.166  14.328 -5.3873  2.2818 -0.6500
  173MPD1    H3 2695   1.487   4.138  14.188 -2.4235  0.5146  1.9964
  173MPD1     N 2696   1.421   3.715  14.333 -0.5243 -0.0156  0.5578
  173MPD1    H5 2697   1.453   3.661  14.413  0.0336 -1.8894 -0.9395
  173MPD1    N1 2698   1.800   3.971  14.461  0.1085 -0.4985  0.7224
  173MPD1    H6 2699   1.819   3.924  14.550  0.2819  0.9677  1.4549
  173MPD1    H7 2700   1.829   4.066  14.484  1.0226  0.0373 -2.6465
  174MPD1     C 2701   1.774   3.011  13.947  0.2825  0.0954 -0.1309
  174MPD1    C1 2702   1.650   2.957  13.967 -0.0973  0.4756  0.0551
  174MPD1    C2 2703   1.558   3.026  14.037 -0.3614  0.7117  0.8151
  174MPD1    C3 2704   1.565   3.161  14.047  0.7916 -0.1615 -0.2688
  174MPD1    C4 2705   1.689   3.220  14.019 -0.1148 -0.4652 -0.0251
  174MPD1    C5 2706   1.791   3.149  13.963  0.1447 -0.2820  0.4743
  174MPD1     H 2707   1.473   2.964  14.063 -0.3975  0.4528  0.0889
  174MPD1    H1 2708   1.709   3.324  14.044  1.0789 -0.2700 -1.7571
  174MPD1    H2 2709   1.857   2.953  13.908 -0.8438 -2.2505  0.9777
  174MPD1    H3 2710   1.883   3.199  13.936 -1.0370  0.9489 -1.2668
  174MPD1     N 2711   1.462   3.238  14.106 -0.5645 -0.4639  0.4705
  174MPD1    H5 2712   1.476   3.338  14.099  0.7272 -0.6937 -0.3081
  174MPD1    N1 2713   1.635   2.818  13.957 -0.1775 -0.0020 -0.0654
  174MPD1    H6 2714   1.536   2.798  13.941  0.0614 -1.9297  0.9574
  174MPD1    H7 2715   1.688   2.772  13.884 -0.9760 -0.7156 -0.1977
  175MPD1     C 2716   4.444   3.937  15.686  0.1683  0.5823  0.4574
  175MPD1    C1 2717   4.569   3.941  15.738  0.0885 -0.1286  1.3319
  175MPD1    C2 2718   4.594   3.864  15.852  0.4664 -0.3514  0.4996
  175MPD1    C3 2719   4.492   3.797  15.925 -0.3080 -0.5752 -0.4403
  175MPD1    C4 2720   4.366   3.800  15.869  0.1783 -0.4250 -0.8995
  175MPD1    C5 2721   4.343   3.870  15.747 -0.3085 -0.1794  0.3806
  175MPD1     H 2722   4.697   3.844  15.878 -0.0707 -0.5013  2.4681
  175MPD1    H1 2723   4.277   3.772  15.925  1.1779  1.7171  1.7704
  175MPD1    H2 2724   4.427   3.963  15.582  0.6290  1.1618  0.5246
  175MPD1    H3 2725   4.246   3.861  15.699 -0.8310  1.2778  1.1701
  175MPD1     N 2726   4.498   3.718  16.046 -0.3278 -0.0943 -0.2944
  175MPD1    H5 2727   4.410   3.674  16.073  0.1512 -0.4545  0.6895
  175MPD1    N1 2728   4.675   3.997  15.661  0.0072  0.0165 -0.0712
  175MPD1    H6 2729   0.028   4.005  15.711  0.0752  1.5759 -0.4323
  175MPD1    H7 2730   4.651   4.089  15.624  0.5532 -0.1491 -0.8125
  176MPD1     C 2731   1.580   1.582   0.338  0.8705 -0.4174  0.2345
  176MPD1    C1 2732   1.478   1.660   0.378 -0.4161 -0.9969 -1.0569
  176MPD1    C2 2733   1.483   1.792   0.332  0.4108 -0.6316 -0.1083
  176MPD1    C3 2734   1.585   1.829   0.242 -0.2009  0.4582  0.0097
  176MPD1    C4 2735   1.684   1.747   0.206 -0.4284  0.4274  0.2138
  176MPD1    C5 2736   1.677   1.619   0.249 -0.5968 -0.1626 -0.1018
  176MPD1     H 2737   1.406   1.863   0.359  0.9765 -0.3177  0.6663
  176MPD1    H1 2738   1.765   1.779   0.142 -0.7297  2.3750  0.7913
  176MPD1    H2 2739   1.588   1.477   0.363 -0.3876 -0.6277 -0.2367
  176MPD1    H3 2740   1.748   1.548   0.209  0.2878 -0.0280  1.2483
  176MPD1     N 2741   1.581   1.963   0.202 -0.1719  0.1018 -0.1157
  176MPD1    H5 2742   1.504   2.021   0.235  1.5638  2.9364 -1.1326
  176MPD1    N1 2743   1.399   1.625   0.487 -0.5707 -0.5953  0.2785
  176MPD1    H6 2744   1.379   1.526   0.499 -0.6154 -0.6425 -0.1911
  176MPD1    H7 2745   1.306   1.666   0.488 -1.2704 -2.2009  1.9988
  177MPD1     C 2746   0.166   1.182  10.087  0.0091 -0.1403  0.5309
  177MPD1    C1 2747   0.081   1.102  10.011  0.6214  0.2255  0.8299
  177MPD1    C2 2748   0.009   1.162   9.903  0.5107 -0.5478  1.3032
  177MPD1    C3 2749   0.010   1.296   9.884 -0.1455 -0.7854  0.1947
  177MPD1    C4 2750   0.108   1.365   9.949  0.0729  0.0990 -0.0097
  177MPD1    C5 2751   0.187   1.311  10.048 -0.3368  1.0619 -0.7117
  177MPD1     H 2752   4.678   1.097   9.848 -1.9107 -0.0613  3.6221
  177MPD1    H1 2753   0.123   1.471   9.935  1.0148  0.1309  1.2351
  177MPD1    H2 2754   0.225   1.142  10.168  2.1895 -1.6747 -1.7877
  177MPD1    H3 2755   0.265   1.370  10.095  0.5610 -0.9139  0.2824
  177MPD1     N 2756   4.674   1.354   9.774 -0.2198 -0.8824  0.6339
  177MPD1    H5 2757   4.620   1.286   9.720  1.3379 -0.8070 -1.0141
  177MPD1    N1 2758   0.071   0.962  10.026 -0.7911 -0.0870  0.1989
  177MPD1    H6 2759   4.717   0.917  10.003 -0.2380 -0.8116 -0.5322
  177MPD1    H7 2760   0.084   0.932  10.122  0.6114  0.2851  0.1217
  178MPD1     C 2761   2.715   1.939   0.351 -0.6035 -0.6018  0.1720
  178MPD1    C1 2762   2.599   2.000   0.302  0.6788  0.2484 -0.7544
  178MPD1    C2 2763   2.581   2.007   0.163 -0.0487 -0.3129 -0.8447
  178MPD1    C3 2764   2.682   1.958   0.075 -0.2994 -0.0478  0.2352
  178MPD1    C4 2765   2.798   1.911   0.134  0.4000 -0.2525  0.0890
  178MPD1    C5 2766   2.817   1.904   0.270  0.0814 -0.7215  0.2189
  178MPD1     H 2767   2.491   2.056   0.128  1.3062  0.9473 -2.5859
  178MPD1    H1 2768   2.879   1.873   0.073  1.5240  0.0937  1.3742
  178MPD1    H2 2769   2.736   1.928   0.456 -1.9141 -0.5780  0.4366
  178MPD1    H3 2770   2.912   1.874   0.313 -0.2633 -2.7510 -0.4641
  178MPD1     N 2771   2.668   1.958  17.676 -0.4618  0.0633  0.3063
  178MPD1    H5 2772   2.752   1.928  17.627  0.6025  0.5554  1.8221
  178MPD1    N1 2773   2.498   2.033   0.394  0.3638  0.2552 -0.1408
  178MPD1    H6 2774   2.431   2.103   0.363 -0.4079  0.9344  3.0485
  178MPD1    H7 2775   2.542   2.054   0.483 -0.5467 -3.5902  1.2337
  179MPD1     C 2776   2.002   0.426  15.485 -0.8619 -0.2657 -0.4960
  179MPD1    C1 2777   1.866   0.425  15.454  0.3951 -0.2766 -0.2840
  179MPD1    C2 2778   1.785   0.327  15.513  0.4503  0.5437  0.6835
  179MPD1    C3 2779   1.836   0.250  15.618  0.9167 -0.1225 -0.0745
  179MPD1    C4 2780   1.972   0.262  15.651 -0.6475 -0.1542  0.8974
  179MPD1    C5 2781   2.050   0.351  15.589  0.0313  1.0476  0.7894
  179MPD1     H 2782   1.683   0.323  15.475  0.1725 -2.2415  1.7131
  179MPD1    H1 2783   2.005   0.206  15.738  1.7180  2.0901  1.4569
  179MPD1    H2 2784   2.069   0.488  15.426  0.1657 -1.4907 -0.5976
  179MPD1    H3 2785   2.152   0.360  15.624  0.4729 -1.2849  0.0614
  179MPD1     N 2786   1.762   0.159  15.704  0.8525  0.7463 -0.4347
  179MPD1    H5 2787   1.809   0.113  15.781  0.5692 -0.6986 -1.1229
  179MPD1    N1 2788   1.815   0.478  15.335  0.1135  0.7266 -0.3002
  179MPD1    H6 2789   1.867   0.559  15.303  1.4378 -0.3643 -0.9010
  179MPD1    H7 2790   1.718   0.506  15.349 -0.0810 -0.8971  1.7013
  180MPD1     C 2791   2.147   1.554  15.754  0.2339  0.4286 -0.2541
  180MPD1    C1 2792   2.214   1.584  15.636  0.4515  0.3786  0.5264
  180MPD1    C2 2793   2.142   1.591  15.512 -0.0459 -0.0831  0.1948
  180MPD1    C3 2794   2.006   1.606  15.509  0.0132 -0.1558 -0.1625
  180MPD1    C4 2795   1.942   1.597  15.630  0.3380 -0.4294 -0.2797
  180MPD1    C5 2796   2.014   1.568  15.744 -0.3864 -0.4717  0.1293
  180MPD1     H 2797   2.197   1.582  15.419  1.2329  1.8913  0.7582
  180MPD1    H1 2798   1.836   1.613  15.641  0.0389 -1.6530 -1.4010
  180MPD1    H2 2799   2.188   1.522  15.849  0.2588  0.4306 -0.2642
  180MPD1    H3 2800   1.956   1.553  15.835 -0.7887 -1.8416 -0.3568
  180MPD1     N 2801   1.939   1.631  15.386 -0.6607 -0.0985 -0.5201
  180MPD1    H5 2802   2.005   1.648  15.311 -1.8612 -2.3217 -2.0732
  180MPD1    N1 2803   2.346   1.553  15.630 -0.0497 -0.1045 -0.0648
  180MPD1    H6 2804   2.383   1.549  15.725 -0.0281 -2.5141 -0.1788
  180MPD1    H7 2805   2.393   1.625  15.577 -2.3608  1.2263 -0.2929
  181MPD1     C 2806   3.085   2.834  10.077 -0.6008  0.1342 -0.1625
  181MPD1    C1 2807   3.063   2.951  10.155 -0.4565 -0.4558 -0.0666
  181MPD1    C2 2808   3.142   3.060  10.126 -0.6138  0.5478 -0.1663
  181MPD1    C3 2809   3.239   3.062  10.031  0.6959  0.1370  0.1887
  181MPD1    C4 2810   3.253   2.950   9.948 -0.3009 -0.0457  0.4629
  181MPD1    C5 2811   3.177   2.837   9.974 -0.1096 -0.3327  0.2474
  181MPD1     H 2812   3.127   3.144  10.193 -2.4394 -0.1144  0.2555
  181MPD1    H1 2813   3.325   2.958   9.867  1.6038 -4.3055  1.7047
  181MPD1    H2 2814   3.024   2.746  10.091  0.0941 -0.0729  1.6599
  181MPD1    H3 2815   3.167   2.749   9.911  2.6558  0.4562 -1.3075
  181MPD1     N 2816   3.333   3.168  10.020  0.2201  1.0205  0.4671
  181MPD1    H5 2817   3.402   3.152   9.947 -0.0346 -1.2589  0.7165
  181MPD1    N1 2818   2.962   2.952  10.252  0.2090  0.0062  0.0721
  181MPD1    H6 2819   2.975   2.875  10.317 -0.3455  0.6303  0.9188
  181MPD1    H7 2820   2.945   3.035  10.309  0.1523  0.4984 -0.6644
  182MPD1     C 2821   3.790   2.748   1.491  0.0603 -0.1749 -0.2210
  182MPD1    C1 2822   3.914   2.696   1.471  0.2968 -0.1972 -0.5968
  182MPD1    C2 2823   3.977   2.697   1.349 -0.6057  0.2438  0.5105
  182MPD1    C3 2824   3.904   2.754   1.242 -0.2978  0.2349 -0.2287
  182MPD1    C4 2825   3.778   2.809   1.272  0.8425  0.3670 -0.0515
  182MPD1    C5 2826   3.725   2.806   1.389  0.5403 -0.1085  0.2923
  182MPD1     H 2827   4.078   2.665   1.330 -0.6224 -0.8592  2.3204
  182MPD1    H1 2828   3.722   2.860   1.194 -0.6646 -0.8262  0.2525
  182MPD1    H2 2829   3.745   2.739   1.589  0.2229  0.6032 -0.0797
  182MPD1    H3 2830   3.624   2.846   1.395  0.3677 -0.4920 -0.0526
  182MPD1     N 2831   3.947   2.767   1.109 -0.8409 -0.5281  0.3005
  182MPD1    H5 2832   3.880   2.813   1.048  1.1039  2.3333  0.3199
  182MPD1    N1 2833   3.973   2.624   1.581 -0.1138  0.0048  0.9101
  182MPD1    H6 2834   3.938   2.636   1.675 -1.4895 -0.6117  0.4798
  182MPD1    H7 2835   4.063   2.669   1.591 -0.3970  0.1238  2.8411
  183MPD1     C 2836   0.731   3.715  10.099  0.1316 -0.4676 -0.3807
  183MPD1    C1 2837   0.696   3.787   9.983 -0.5385 -0.2776  0.5300
  183MPD1    C2 2838   0.575   3.760   9.923 -0.7124  0.8581  0.0135
  183MPD1    C3 2839   0.474   3.689   9.989  0.0624  0.4363  0.1654
  183MPD1    C4 2840   0.516   3.618  10.100  0.3277 -0.1072 -0.1288
  183MPD1    C5 2841   0.642   3.631  10.152  1.1441  0.6128 -0.5271
  183MPD1     H 2842   0.553   3.824   9.838  0.6845 -1.4789 -2.1152
  183MPD1    H1 2843   0.449   3.549  10.151  0.0695  0.3858  0.1995
  183MPD1    H2 2844   0.824   3.719  10.154 -0.0847 -0.4297 -0.0212
  183MPD1    H3 2845   0.676   3.575  10.238 -0.4626  2.0698  1.0495
  183MPD1     N 2846   0.347   3.669   9.926  0.2590  0.0901  0.1232
  183MPD1    H5 2847   0.332   3.713   9.836  0.0327 -0.6731 -0.2163
  183MPD1    N1 2848   0.802   3.857   9.921 -0.3310 -0.3410 -0.0978
  183MPD1    H6 2849   0.771   3.927   9.854 -0.6617 -0.7684 -0.3865
  183MPD1    H7 2850   0.851   3.902   9.999  1.9245  0.0146 -1.7192
  184MPD1     C 2851   3.769   0.965   9.476  0.2484  0.5148 -0.5783
  184MPD1    C1 2852   3.756   1.011   9.348 -0.1073  0.1367  0.1097
  184MPD1    C2 2853   3.822   1.124   9.307  0.5475  0.2706  0.5274
  184MPD1    C3 2854   3.873   1.209   9.404  0.2769  0.7170  0.6217
  184MPD1    C4 2855   3.874   1.172   9.531 -0.3696 -0.2745 -0.4107
  184MPD1    C5 2856   3.825   1.047   9.569 -0.2900 -0.4993 -0.1576
  184MPD1     H 2857   3.810   1.154   9.204 -2.0272 -1.0189  0.4318
  184MPD1    H1 2858   3.908   1.223   9.620 -1.5913  1.2937 -0.8513
  184MPD1    H2 2859   3.739   0.866   9.508 -0.3777  1.0417  0.4588
  184MPD1    H3 2860   3.825   1.012   9.672 -0.0383 -0.0916 -0.0212
  184MPD1     N 2861   3.922   1.335   9.379  0.3081 -0.8167 -0.0444
  184MPD1    H5 2862   3.986   1.374   9.447  1.8366  0.5505 -2.2564
  184MPD1    N1 2863   3.682   0.933   9.258  0.4976 -0.1108 -0.2502
  184MPD1    H6 2864   3.665   0.973   9.166 -0.4839  1.5607  0.6605
  184MPD1    H7 2865   3.600   0.883   9.292 -0.4771  1.1700 -0.7287
  185MPD1     C 2866   4.578   1.927   8.758 -0.4291 -0.6123 -0.3959
  185MPD1    C1 2867   4.554   1.791   8.750  0.1049  0.6365  0.5798
  185MPD1    C2 2868   4.432   1.748   8.805 -0.0239  0.0361  0.1375
  185MPD1    C3 2869   4.343   1.831   8.873  0.4364  0.0324  0.3278
  185MPD1    C4 2870   4.377   1.964   8.879  0.0979  0.8056 -0.0644
  185MPD1    C5 2871   4.492   2.012   8.825 -0.5356 -0.6857 -0.4326
  185MPD1     H 2872   4.420   1.640   8.800 -2.1466  0.2256  1.1535
  185MPD1    H1 2873   4.312   2.028   8.938 -0.1586  0.1419  0.3679
  185MPD1    H2 2874   4.667   1.970   8.712 -0.7868  0.4056 -0.1298
  185MPD1    H3 2875   4.501   2.120   8.828  2.5397 -0.9654 -0.3021
  185MPD1     N 2876   4.244   1.797   8.962 -0.0996 -0.5650 -0.0565
  185MPD1    H5 2877   4.203   1.868   9.022  0.5686 -0.9758  0.8888
  185MPD1    N1 2878   4.628   1.714   8.661  0.2330  0.0552 -0.7027
  185MPD1    H6 2879   4.644   1.622   8.701 -0.6710  0.4961  0.6793
  185MPD1    H7 2880   4.717   1.755   8.633  0.8944 -0.9827 -0.1177
  186MPD1     C 2881   2.841   0.363  15.738 -0.7513  0.3340 -0.6151
  186MPD1    C1 2882   2.805   0.319  15.864 -0.0684  1.1306 -0.3255
  186MPD1    C2 2883   2.700   0.387  15.924 -0.7690 -0.3813  0.0806
  186MPD1    C3 2884   2.659   0.510  15.881 -0.4465  0.5685  0.2181
  186MPD1    C4 2885   2.708   0.559  15.770 -0.5038 -0.2380  0.9065
  186MPD1    C5 2886   2.798   0.489  15.697  0.4516  1.1327  0.8991
  186MPD1     H 2887   2.642   0.341  16.003 -3.2654  0.0093 -1.5483
  186MPD1    H1 2888   2.673   0.652  15.727  0.3661 -0.5890 -0.5481
  186MPD1    H2 2889   2.921   0.315  15.682  1.3873  1.3320  1.5612
  186MPD1    H3 2890   2.815   0.520  15.594 -2.1624 -1.6178 -0.3625
  186MPD1     N 2891   2.560   0.587  15.940  0.0759 -0.2866 -0.3879
  186MPD1    H5 2892   2.539   0.679  15.903 -0.4966 -0.3463 -0.2163
  186MPD1    N1 2893   2.829   0.185  15.901 -0.1184  0.2902  0.0084
  186MPD1    H6 2894   2.924   0.151  15.888 -0.4114  0.3603 -2.2104
  186MPD1    H7 2895   2.820   0.184  16.003  2.2352  2.2112  0.2145
  187MPD1     C 2896   1.677   2.742   0.262 -0.2156 -0.2206  0.0930
  187MPD1    C1 2897   1.553   2.798   0.233  0.5760 -0.0256 -0.9024
  187MPD1    C2 2898   1.508   2.774   0.105 -0.3973 -0.0545  0.1114
  187MPD1    C3 2899   1.574   2.684   0.025  0.0058  0.8156  0.9035
  187MPD1    C4 2900   1.695   2.631   0.060 -0.0344 -0.2071 -0.4825
  187MPD1    C5 2901   1.750   2.662   0.177 -0.0614  0.2342  0.0463
  187MPD1     H 2902   1.421   2.826   0.065 -0.7380 -1.2592 -0.7267
  187MPD1    H1 2903   1.750   2.563  17.735  1.1165  0.4426 -0.1709
  187MPD1    H2 2904   1.734   2.767   0.350 -0.8376  1.1346  0.1083
  187MPD1    H3 2905   1.845   2.621   0.209  0.9529  1.2980 -1.6082
  187MPD1     N 2906   1.531   2.643  17.634  0.5475  0.4295  0.4194
  187MPD1    H5 2907   1.601   2.604  17.572  0.6809  0.4764  0.5387
  187MPD1    N1 2908   1.518   2.906   0.316 -0.2013 -0.5315  0.1027
  187MPD1    H6 2909   1.544   2.894   0.413 -1.1912 -1.3386  0.2620
  187MPD1    H7 2910   1.419   2.929   0.313 -0.1235 -0.0366  1.2487
  188MPD1     C 2911   1.326   2.535  10.864  0.0023  0.3250  0.5859
  188MPD1    C1 2912   1.230   2.543  10.768 -0.0362  0.1946  0.0124
  188MPD1    C2 2913   1.151   2.429  10.739  0.1782 -0.5721  0.0108
  188MPD1    C3 2914   1.199   2.304  10.774  0.4677 -0.2588  0.0513
  188MPD1    C4 2915   1.314   2.300  10.858  0.2980 -1.0106 -0.2244
  188MPD1    C5 2916   1.376   2.413  10.902 -0.3130  0.4582 -0.2910
  188MPD1     H 2917   1.067   2.432  10.669  0.6474  1.1724 -0.4831
  188MPD1    H1 2918   1.375   2.214  10.881 -1.1984 -1.9678  0.1929
  188MPD1    H2 2919   1.396   2.614  10.891 -0.4264  1.0423 -0.4376
  188MPD1    H3 2920   1.452   2.409  10.979 -2.8521  0.2756  2.1937
  188MPD1     N 2921   1.135   2.182  10.756 -0.4748  0.5640 -0.6230
  188MPD1    H5 2922   1.185   2.107  10.803  0.3387  1.3958 -0.1657
  188MPD1    N1 2923   1.184   2.664  10.726 -0.3607  0.3395  0.3437
  188MPD1    H6 2924   1.145   2.660  10.632 -0.0277 -1.2501  0.2828
  188MPD1    H7 2925   1.265   2.727  10.730 -2.1463  2.6225  0.3256
  189MPD1     C 2926   3.361   3.522   0.470  0.3302  1.1327 -0.0427
  189MPD1    C1 2927   3.343   3.649   0.420  0.4759  0.7059 -0.1953
  189MPD1    C2 2928   3.229   3.690   0.357  0.4507 -0.3902 -0.1024
  189MPD1    C3 2929   3.128   3.601   0.323 -0.5062 -0.1689 -0.6166
  189MPD1    C4 2930   3.148   3.471   0.371 -0.2587  0.6005  0.2943
  189MPD1    C5 2931   3.259   3.436   0.447 -0.9343  0.1145 -0.0692
  189MPD1     H 2932   3.222   3.796   0.336 -0.5504 -0.8178 -1.9480
  189MPD1    H1 2933   3.081   3.387   0.365  1.6747 -0.8156 -1.5306
  189MPD1    H2 2934   3.448   3.497   0.529  0.0355 -1.0349 -0.5095
  189MPD1    H3 2935   3.276   3.336   0.485  2.6063  1.2054  1.1285
  189MPD1     N 2936   3.014   3.643   0.256  0.5059 -0.7859 -0.6953
  189MPD1    H5 2937   3.029   3.735   0.217  0.7409 -1.0216 -1.1605
  189MPD1    N1 2938   3.431   3.749   0.447  0.2176 -0.4598 -0.2200
  189MPD1    H6 2939   3.526   3.712   0.450  0.1885 -0.6121 -1.0548
  189MPD1    H7 2940   3.425   3.826   0.380  1.2900  0.7650  1.0948
  190MPD1     C 2941   2.340   2.644  15.275 -0.2054 -0.0895 -0.3828
  190MPD1    C1 2942   2.447   2.557  15.293 -0.1076  0.3241 -0.3875
  190MPD1    C2 2943   2.419   2.435  15.357 -0.3179  0.4326 -0.0727
  190MPD1    C3 2944   2.316   2.422  15.441 -0.1523  0.3481  0.2812
  190MPD1    C4 2945   2.225   2.529  15.437 -0.1107  0.2474  0.2138
  190MPD1    C5 2946   2.228   2.625  15.347  0.0186 -0.3611 -0.3969
  190MPD1     H 2947   2.490   2.353  15.350 -0.4186  0.0057  3.9834
  190MPD1    H1 2948   2.125   2.517  15.477 -0.2142 -0.9398 -0.3855
  190MPD1    H2 2949   2.335   2.735  15.216 -0.5356 -0.2876 -0.6633
  190MPD1    H3 2950   2.139   2.687  15.345  1.4434  1.6963 -0.3753
  190MPD1     N 2951   2.301   2.296  15.513 -0.0708  0.4932  0.2015
  190MPD1    H5 2952   2.374   2.226  15.504 -0.1146  0.4122  0.4566
  190MPD1    N1 2953   2.556   2.569  15.201  0.0629  0.1907  0.0211
  190MPD1    H6 2954   2.567   2.667  15.179 -0.0019  0.2057  0.0540
  190MPD1    H7 2955   2.642   2.521  15.226  0.7448  1.9074  0.9654
  191MPD1     C 2956   1.490   3.006  13.548  0.7835  0.2073  0.4354
  191MPD1    C1 2957   1.584   3.087  13.486  0.2151  0.0479 -0.3226
  191MPD1    C2 2958   1.532   3.184  13.401  0.3016  0.8866 -0.1564
  191MPD1    C3 2959   1.395   3.198  13.367 -0.6390 -0.2818 -0.3212
  191MPD1    C4 2960   1.305   3.109  13.429 -0.4961  0.5057  0.1173
  191MPD1    C5 2961   1.356   3.012  13.511 -0.1301  0.8982 -0.2380
  191MPD1     H 2962   1.594   3.269  13.376  0.0063  0.7074 -1.5207
  191MPD1    H1 2963   1.199   3.102  13.408 -0.5326  0.1950  0.4070
  191MPD1    H2 2964   1.530   2.947  13.629 -1.1547  1.1976  2.1156
  191MPD1    H3 2965   1.300   2.936  13.564 -0.0141  1.4595  0.6816
  191MPD1     N 2966   1.354   3.294  13.273  0.3898 -0.1037  0.3702
  191MPD1    H5 2967   1.433   3.334  13.224 -0.1004  1.6757  1.0221
  191MPD1    N1 2968   1.714   3.098  13.527 -0.0035  0.1540  0.4913
  191MPD1    H6 2969   1.765   3.128  13.444 -0.8128 -3.0145 -1.1359
  191MPD1    H7 2970   1.750   3.006  13.550  1.3282  0.2453 -1.1806
  192MPD1     C 2971   0.657   3.129  12.630 -0.1030  0.2687  0.4571
  192MPD1    C1 2972   0.638   3.264  12.655 -0.2035 -0.2584  0.4577
  192MPD1    C2 2973   0.723   3.324  12.744 -0.5679  0.0160 -0.9222
  192MPD1    C3 2974   0.815   3.258  12.813  0.0288  0.5966  0.5695
  192MPD1    C4 2975   0.831   3.123  12.792 -0.5352 -0.1498  0.2672
  192MPD1    C5 2976   0.749   3.058  12.701 -0.4521  0.4870  0.1413
  192MPD1     H 2977   0.710   3.431  12.761 -1.2851  0.3803 -3.7247
  192MPD1    H1 2978   0.905   3.063  12.844  0.5996 -0.3664 -1.5943
  192MPD1    H2 2979   0.595   3.079  12.556  2.7799 -0.6851 -1.3347
  192MPD1    H3 2980   0.762   2.951  12.695 -4.1130 -0.0116  1.0489
  192MPD1     N 2981   0.910   3.328  12.897 -0.2951  0.0730  0.3216
  192MPD1    H5 2982   0.971   3.273  12.956  1.8230  1.7860 -0.2743
  192MPD1    N1 2983   0.559   3.335  12.560 -0.1215 -0.5534 -0.4962
  192MPD1    H6 2984   0.517   3.419  12.598 -0.3622 -0.6963 -0.4458
  192MPD1    H7 2985   0.492   3.279  12.507 -1.5138  0.7944 -0.1641
  193MPD1     C 2986   0.396   3.736  16.352 -0.2633  0.2910  0.6026
  193MPD1    C1 2987   0.421   3.873  16.351  0.5945  0.4099  0.3888
  193MPD1    C2 2988   0.527   3.913  16.425  0.2158  0.3242  0.1057
  193MPD1    C3 2989   0.619   3.828  16.493  0.1754 -0.0595 -0.0034
  193MPD1    C4 2990   0.589   3.692  16.485  0.0804 -0.1898 -0.3298
  193MPD1    C5 2991   0.480   3.651  16.414  0.1951 -0.4808 -0.2919
  193MPD1     H 2992   0.533   4.021  16.431  0.7255  0.3878 -1.5613
  193MPD1    H1 2993   0.651   3.619  16.535  0.9927  1.3255  0.7426
  193MPD1    H2 2994   0.315   3.700  16.290  0.4766 -0.8892  0.3094
  193MPD1    H3 2995   0.462   3.544  16.412  0.0028 -0.4475 -0.3767
  193MPD1     N 2996   0.728   3.878  16.566 -0.5456  0.4733  0.0884
  193MPD1    H5 2997   0.794   3.810  16.602 -2.0842 -1.0729 -0.0136
  193MPD1    N1 2998   0.359   3.958  16.253 -0.1453 -0.5322 -0.2162
  193MPD1    H6 2999   0.329   4.043  16.300 -1.4151  0.9937 -3.8584
  193MPD1    H7 3000   0.271   3.926  16.213 -0.0715  1.9304 -2.2917
  194MPD1     C 3001   4.656   1.041  17.001 -0.1764 -0.8246  0.7510
  194MPD1    C1 3002   4.646   0.905  16.978  0.0307 -0.6466  0.1927
  194MPD1    C2 3003   4.558   0.828  17.053  0.0659 -0.0715  0.1794
  194MPD1    C3 3004   4.477   0.889  17.148 -0.2538 -0.4016  0.3617
  194MPD1    C4 3005   4.507   1.026  17.179 -0.0023  0.7032 -0.3624
  194MPD1    C5 3006   4.593   1.099  17.103  0.3344  0.1750 -0.0969
  194MPD1     H 3007   4.554   0.721  17.039  0.9168 -0.3825  2.3617
  194MPD1    H1 3008   4.454   1.074  17.260 -0.9911 -1.1014  0.0595
  194MPD1    H2 3009   4.724   1.102  16.943 -2.4599  2.1043  1.1851
  194MPD1    H3 3010   4.603   1.205  17.124  0.1126  0.0185  0.7999
  194MPD1     N 3011   4.387   0.814  17.225  0.6859  0.0223  0.0665
  194MPD1    H5 3012   4.350   0.851  17.312 -0.2051  3.0419 -1.6010
  194MPD1    N1 3013   4.721   0.847  16.872 -0.1175  0.1220  0.3263
  194MPD1    H6 3014   0.003   0.749  16.893 -0.0131  0.0825  0.0666
  194MPD1    H7 3015   0.063   0.901  16.832  1.0181 -0.8957  1.1495
  195MPD1     C 3016   0.518   3.403   0.636 -0.5667 -0.3363  0.1917
  195MPD1    C1 3017   0.569   3.380   0.763  0.1685 -0.1708  0.2625
  195MPD1    C2 3018   0.629   3.259   0.793  0.2722  0.4198  0.2931
  195MPD1    C3 3019   0.643   3.164   0.689 -0.3225  0.1918  0.2821
  195MPD1    C4 3020   0.590   3.197   0.560  0.2118  0.4726 -0.6099
  195MPD1    C5 3021   0.529   3.313   0.534 -0.0009  0.2582 -0.2356
  195MPD1     H 3022   0.672   3.242   0.891  1.7849  2.0657 -0.0879
  195MPD1    H1 3023   0.607   3.122   0.484  2.4216 -0.5412  0.8812
  195MPD1    H2 3024   0.460   3.494   0.629  1.0755  0.8949  2.7679
  195MPD1    H3 3025   0.488   3.331   0.435 -0.0798 -1.7691 -0.5718
  195MPD1     N 3026   0.708   3.041   0.705 -0.1365 -0.1871  0.2489
  195MPD1    H5 3027   0.721   2.988   0.619 -1.6586 -0.0421 -0.0714
  195MPD1    N1 3028   0.552   3.469   0.869 -0.3332  0.2464  0.0451
  195MPD1    H6 3029   0.612   3.442   0.947 -0.0261 -0.1013 -0.3110
  195MPD1    H7 3030   0.582   3.558   0.830  2.4197 -1.0164 -0.7119
  196MPD1     C 3031   4.558   1.706   0.547 -0.3949 -0.2769  0.2980
  196MPD1    C1 3032   4.610   1.830   0.506  0.6345  0.2192  0.4900
  196MPD1    C2 3033   4.670   1.905   0.608  0.5058 -0.5413  1.2012
  196MPD1    C3 3034   4.667   1.866   0.735 -0.6727 -0.5925 -0.1418
  196MPD1    C4 3035   4.621   1.742   0.765  0.1625  0.1199  0.1973
  196MPD1    C5 3036   4.549   1.667   0.676 -0.2559  0.4931 -0.7140
  196MPD1     H 3037   4.717   1.998   0.579 -0.0452 -1.5170 -2.8499
  196MPD1    H1 3038   4.637   1.700   0.864 -1.6383 -0.0252  0.4209
  196MPD1    H2 3039   4.510   1.642   0.473  1.0354 -0.6137 -0.3487
  196MPD1    H3 3040   4.518   1.570   0.712  1.3527 -0.1332 -1.0061
  196MPD1     N 3041   4.711   1.941   0.846  0.0690  0.2203  0.0731
  196MPD1    H5 3042   4.675   1.907   0.935  2.2141 -0.7407  0.5765
  196MPD1    N1 3043   4.614   1.857   0.369  0.1356 -0.2171  0.1210
  196MPD1    H6 3044   4.606   1.957   0.348 -1.5356 -0.0285  1.6192
  196MPD1    H7 3045   4.535   1.811   0.325 -0.8753 -1.0933  2.8267
  197MPD1     C 3046   4.427   4.587   0.157 -0.2237 -0.2495  0.1741
  197MPD1    C1 3047   4.419   4.487   0.062 -0.0517 -0.0548 -0.2226
  197MPD1    C2 3048   4.438   4.518  17.664  0.5329 -0.0753 -0.4824
  197MPD1    C3 3049   4.452   4.655  17.626  0.5183  0.4621  0.2533
  197MPD1    C4 3050   4.453   0.019  17.724  0.4351 -0.1813 -0.1368
  197MPD1    C5 3051   4.447   4.718   0.116  0.0308  0.1948 -0.5345
  197MPD1     H 3052   4.429   4.440  17.590  2.1843 -0.0581 -0.6915
  197MPD1    H1 3053   4.476   0.122  17.703 -1.4522  0.0599 -0.9947
  197MPD1    H2 3054   4.431   4.569   0.264  2.5564 -1.3262 -0.1039
  197MPD1    H3 3055   4.462   0.065   0.186 -0.5926  0.3635 -0.5989
  197MPD1     N 3056   4.458   4.696  17.488  0.3682  0.0428  1.0147
  197MPD1    H5 3057   4.444   0.061  17.477  2.1903  0.4943  2.7937
  197MPD1    N1 3058   4.411   4.352   0.103  1.3113  0.1315 -0.2961
  197MPD1    H6 3059   4.332   4.328   0.162  1.2176  2.3256  0.4964
  197MPD1    H7 3060   4.408   4.283   0.028  0.2398  1.3914 -1.4288
  198MPD1     C 3061   1.468   3.064  15.369  0.2761  0.2216 -0.1213
  198MPD1    C1 3062   1.584   3.005  15.318  0.0598  0.0402  0.8234
  198MPD1    C2 3063   1.676   2.959  15.410  0.4938 -0.4288  0.1468
  198MPD1    C3 3064   1.650   2.970  15.543  0.1386 -0.4240 -0.0745
  198MPD1    C4 3065   1.538   3.032  15.587 -0.1559  0.5380 -0.4374
  198MPD1    C5 3066   1.446   3.079  15.500  0.1709 -0.1015 -0.2512
  198MPD1     H 3067   1.769   2.918  15.371 -1.0161 -1.5082 -2.3062
  198MPD1    H1 3068   1.526   3.077  15.685  2.6891  1.0810 -0.3417
  198MPD1    H2 3069   1.408   3.125  15.303  0.7528  0.2647 -0.5163
  198MPD1    H3 3070   1.355   3.135  15.517  0.2555 -0.0809  0.1510
  198MPD1     N 3071   1.750   2.921  15.628  0.2237 -0.3021 -0.4304
  198MPD1    H5 3072   1.827   2.863  15.596  2.0157  0.3600  2.6580
  198MPD1    N1 3073   1.623   3.032  15.184 -0.0571 -0.1527  0.1136
  198MPD1    H6 3074   1.547   3.042  15.117  0.2535 -0.8224 -0.3419
  198MPD1    H7 3075   1.676   2.949  15.158 -1.5182 -0.6930 -1.1476
  199MPD1     C 3076   4.527   4.089  10.346 -0.7166 -0.0770  0.2768
  199MPD1    C1 3077   4.428   4.187  10.342  0.2607 -0.2154  0.5541
  199MPD1    C2 3078   4.309   4.161  10.276  0.0927  0.7961 -0.0126
  199MPD1    C3 3079   4.297   4.048  10.197 -0.2606 -0.4797  0.2059
  199MPD1    C4 3080   4.403   3.957  10.200  0.3014 -0.3082  0.0518
  199MPD1    C5 3081   4.518   3.982  10.264  0.5767  0.0639  0.6406
  199MPD1     H 3082   4.239   4.243  10.266  0.8300  1.5512  0.9945
  199MPD1    H1 3083   4.396   3.871  10.135  0.1952 -0.1264 -0.1799
  199MPD1    H2 3084   4.620   4.105  10.400  0.6273 -0.4512 -1.9098
  199MPD1    H3 3085   4.603   3.916  10.254  0.1557 -0.8960  3.3425
  199MPD1     N 3086   4.186   4.020  10.101  0.4551 -0.4053  0.2141
  199MPD1    H5 3087   4.191   3.933  10.050  1.8488 -1.0958  1.5184
  199MPD1    N1 3088   4.455   4.320  10.401  0.1488  0.6458 -0.5800
  199MPD1    H6 3089   4.369   4.353  10.443  0.9184  0.7478  0.8984
  199MPD1    H7 3090   4.524   4.313  10.475 -1.0697  0.6099  0.5330
  200MPD1     C 3091   2.717   3.438  15.573  0.5485 -0.0208 -0.1290
  200MPD1    C1 3092   2.642   3.398  15.463  0.5502  0.3217  0.2530
  200MPD1    C2 3093   2.677   3.454  15.339 -0.1145  0.1494 -0.4199
  200MPD1    C3 3094   2.769   3.560  15.324  0.2894 -0.5963 -0.4526
  200MPD1    C4 3095   2.844   3.588  15.433 -0.0122  0.1304 -0.1356
  200MPD1    C5 3096   2.820   3.530  15.555  0.3190  0.2494  0.0534
  200MPD1     H 3097   2.616   3.427  15.253 -0.8334 -2.0163  0.7587
  200MPD1    H1 3098   2.917   3.667  15.427 -1.0159  1.0619 -0.0331
  200MPD1    H2 3099   2.696   3.409  15.675 -1.6808 -1.2496 -0.9299
  200MPD1    H3 3100   2.876   3.565  15.641 -0.1591  1.0393  0.0437
  200MPD1     N 3101   2.793   3.602  15.190 -0.1342 -1.0155  0.2230
  200MPD1    H5 3102   2.749   3.554  15.113 -0.3087  0.3887 -0.5520
  200MPD1    N1 3103   2.523   3.324  15.489  0.6112 -0.1840 -0.6887
  200MPD1    H6 3104   2.526   3.273  15.578 -1.7004 -1.0089 -1.0833
  200MPD1    H7 3105   2.498   3.255  15.419 -0.0637 -0.5719 -0.0686
  201MPD1     C 3106   0.742   3.573  13.163 -0.1447 -0.5606 -0.2385
  201MPD1    C1 3107   0.657   3.521  13.062 -0.3985 -0.1635  0.2738
  201MPD1    C2 3108   0.626   3.383  13.056 -0.3212  0.6656 -0.3791
  201MPD1    C3 3109   0.692   3.296  13.140 -0.2228 -0.1037  0.3765
  201MPD1    C4 3110   0.777   3.348  13.236 -0.0369  0.1209 -0.0112
  201MPD1    C5 3111   0.794   3.482  13.249 -0.7426 -0.1103 -0.0390
  201MPD1     H 3112   0.554   3.336  12.990  0.0854 -0.8722  0.2772
  201MPD1    H1 3113   0.833   3.288  13.306  0.0479  1.9003  1.4581
  201MPD1    H2 3114   0.744   3.678  13.191  2.3033 -0.5874 -0.2601
  201MPD1    H3 3115   0.864   3.509  13.327 -0.4165  0.3950 -0.5050
  201MPD1     N 3116   0.667   3.158  13.129 -0.0161  0.4302 -0.2129
  201MPD1    H5 3117   0.597   3.131  13.060 -0.3590  2.2188 -0.5804
  201MPD1    N1 3118   0.584   3.615  12.982 -0.2329 -1.3116  0.3659
  201MPD1    H6 3119   0.635   3.703  12.974  0.9518 -2.1652 -1.4308
  201MPD1    H7 3120   0.544   3.580  12.896 -1.0297  1.2110 -0.3031
  202MPD1     C 3121   0.348   2.825   9.095 -0.0016 -0.3524 -0.3626
  202MPD1    C1 3122   0.330   2.694   9.109  0.7457  0.1699  0.7783
  202MPD1    C2 3123   0.327   2.641   9.232 -0.1104  0.2286  0.2405
  202MPD1    C3 3124   0.277   2.713   9.337 -0.4067 -0.6980 -0.2687
  202MPD1    C4 3125   0.269   2.850   9.322 -0.4445 -0.2993  1.0018
  202MPD1    C5 3126   0.315   2.905   9.208  0.2728  0.1887 -0.2535
  202MPD1     H 3127   0.302   2.535   9.234  1.0279 -0.0576 -0.8947
  202MPD1    H1 3128   0.234   2.914   9.402 -3.7718  0.3319 -0.9681
  202MPD1    H2 3129   0.388   2.867   9.003 -0.4647 -1.7719 -1.2063
  202MPD1    H3 3130   0.333   3.011   9.194 -1.2176  0.3319 -1.0472
  202MPD1     N 3131   0.219   2.658   9.452  0.2408 -0.3600  0.1651
  202MPD1    H5 3132   0.177   2.716   9.524  0.8544 -0.7223  0.8256
  202MPD1    N1 3133   0.385   2.615   9.000  0.3684 -0.1071 -0.0006
  202MPD1    H6 3134   0.375   2.656   8.907  3.8466  1.6578  0.4002
  202MPD1    H7 3135   0.356   2.518   9.006  1.2012 -0.3916 -0.5875
  203MPD1     C 3136   3.787   2.932  12.174 -0.1545 -0.5628 -0.7874
  203MPD1    C1 3137   3.767   2.953  12.308 -0.8796 -0.0764  0.4380
  203MPD1    C2 3138   3.881   2.944  12.392  0.1759  1.0970 -1.0685
  203MPD1    C3 3139   4.004   2.911  12.342  0.2033  0.1359  0.0504
  203MPD1    C4 3140   4.024   2.898  12.210  0.2932  0.3546  0.7699
  203MPD1    C5 3141   3.912   2.911  12.125  0.4600  0.9544 -0.6568
  203MPD1     H 3142   3.867   2.970  12.497  1.9226 -1.0613 -0.2944
  203MPD1    H1 3143   4.123   2.884  12.167  0.4626 -0.8243  1.5512
  203MPD1    H2 3144   3.703   2.939  12.106 -1.7574 -1.1592  1.1284
  203MPD1    H3 3145   3.917   2.901  12.017  0.4360 -0.5126 -0.5296
  203MPD1     N 3146   4.121   2.896  12.424 -0.1295 -0.2849  0.2433
  203MPD1    H5 3147   4.207   2.863  12.381  1.6027  0.9042  2.8286
  203MPD1    N1 3148   3.636   2.972  12.359  0.3848  0.6582 -0.3686
  203MPD1    H6 3149   3.565   2.957  12.288  0.2631  2.5107 -0.6352
  203MPD1    H7 3150   3.619   2.905  12.433  1.4429  2.1981  1.2792
  204MPD1     C 3151   3.044   4.640  17.582 -0.3720 -0.3783 -0.7445
  204MPD1    C1 3152   3.144   4.658  17.500 -0.2775 -0.2959  0.2028
  204MPD1    C2 3153   3.231   4.554  17.482 -0.1170 -0.4588  0.1329
  204MPD1    C3 3154   3.202   4.433  17.541 -0.4266 -0.9311  0.5037
  204MPD1    C4 3155   3.092   4.409  17.619 -0.0680  0.2423  0.1544
  204MPD1    C5 3156   3.019   4.521  17.640 -0.5571  0.2307  0.4158
  204MPD1     H 3157   3.324   4.569  17.429 -1.6745 -0.8893 -2.7344
  204MPD1    H1 3158   3.055   4.324  17.674 -4.9349  1.2612 -1.5444
  204MPD1    H2 3159   2.971   4.718  17.604 -1.1528 -1.5754  0.9278
  204MPD1    H3 3160   2.929   4.515  17.699 -1.5651  1.4038 -0.9992
  204MPD1     N 3161   3.289   4.326  17.511 -0.3771 -0.5596  0.4169
  204MPD1    H5 3162   3.365   4.344  17.447 -1.8025 -1.2470 -1.4918
  204MPD1    N1 3163   3.184   0.050  17.458  0.0888 -0.6689  0.3569
  204MPD1    H6 3164   3.241   0.046  17.373  0.1090 -2.2490  0.4498
  204MPD1    H7 3165   3.096   0.094  17.433 -0.4270 -2.7601 -1.5018
  205MPD1     C 3166   3.841   2.639  16.846 -0.1824 -0.0289 -0.2583
  205MPD1    C1 3167   3.837   2.774  16.864 -0.5466  0.1052  0.1162
  205MPD1    C2 3168   3.782   2.823  16.979 -0.2509 -0.1468 -0.2015
  205MPD1    C3 3169   3.768   2.743  17.088  0.4364  0.0882  0.3427
  205MPD1    C4 3170   3.805   2.609  17.075 -0.0528 -0.3454 -0.2381
  205MPD1    C5 3171   3.829   2.563  16.956  0.7517  0.2189  0.1549
  205MPD1     H 3172   3.760   2.930  16.978  0.5931  0.0195 -1.4385
  205MPD1    H1 3173   3.807   2.544  17.162  2.1912  0.2818  0.1790
  205MPD1    H2 3174   3.876   2.581  16.761 -1.6233 -0.2873 -0.6847
  205MPD1    H3 3175   3.837   2.456  16.937  3.7023  0.3637  0.5595
  205MPD1     N 3176   3.724   2.784  17.211  0.0672  0.2463  0.4517
  205MPD1    H5 3177   3.721   2.714  17.285 -0.5396 -0.5686 -0.3395
  205MPD1    N1 3178   3.850   2.856  16.753  0.8029  0.3744 -0.0082
  205MPD1    H6 3179   3.917   2.832  16.680 -0.4695 -1.6215 -0.5367
  205MPD1    H7 3180   3.870   2.953  16.778 -0.0534  0.4637  0.3469
  206MPD1     C 3181   3.190   1.085  16.800 -0.3684 -0.1895 -0.0386
  206MPD1    C1 3182   3.215   0.953  16.783  0.6756  0.2155 -0.1405
  206MPD1    C2 3183   3.286   0.908  16.669  0.5444  0.7044 -0.0983
  206MPD1    C3 3184   3.329   0.997  16.573  0.4450  1.5363  0.8782
  206MPD1    C4 3185   3.310   1.129  16.601 -0.4951 -0.2092 -0.9482
  206MPD1    C5 3186   3.244   1.175  16.710  0.5983  0.1092 -0.6120
  206MPD1     H 3187   3.299   0.803  16.647  2.7484  0.6886  1.3074
  206MPD1    H1 3188   3.351   1.208  16.539  1.6243  0.4259  1.2501
  206MPD1    H2 3189   3.130   1.122  16.882  1.3003  0.1090  1.0348
  206MPD1    H3 3190   3.236   1.282  16.724 -1.6328 -0.0515 -0.6469
  206MPD1     N 3191   3.391   0.969  16.450 -0.2516 -0.1856 -0.3460
  206MPD1    H5 3192   3.411   1.049  16.390 -2.0803  0.0328 -0.6690
  206MPD1    N1 3193   3.183   0.858  16.881  0.2967 -0.3998  0.3358
  206MPD1    H6 3194   3.176   0.765  16.841  2.8238 -0.1875 -0.6059
  206MPD1    H7 3195   3.109   0.875  16.949  1.0189  0.6722  0.8508
  207MPD1     C 3196   2.111   3.499   9.632  0.5404 -0.3796 -0.7926
  207MPD1    C1 3197   2.176   3.622   9.618 -0.3724  0.0133  0.3917
  207MPD1    C2 3198   2.192   3.701   9.731  0.3777 -0.7290  0.8688
  207MPD1    C3 3199   2.154   3.654   9.855 -0.2335 -0.2612  0.4135
  207MPD1    C4 3200   2.104   3.528   9.870 -0.1195 -1.3397  0.7252
  207MPD1    C5 3201   2.085   3.452   9.760 -0.5001  0.3392  0.7898
  207MPD1     H 3202   2.226   3.801   9.709  0.1928 -0.9333 -0.3616
  207MPD1    H1 3203   2.081   3.479   9.964  0.5587  0.7884  2.0003
  207MPD1    H2 3204   2.089   3.442   9.542 -1.5267 -1.0582  0.1266
  207MPD1    H3 3205   2.048   3.350   9.762  0.4891 -0.0079  1.1577
  207MPD1     N 3206   2.188   3.719   9.975  0.0597  0.1388  0.2883
  207MPD1    H5 3207   2.184   3.666  10.061 -1.9245  0.4679  0.3984
  207MPD1    N1 3208   2.201   3.687   9.499 -0.2295  0.7456 -0.1070
  207MPD1    H6 3209   2.224   3.616   9.430 -1.3597 -0.7144  1.0478
  207MPD1    H7 3210   2.280   3.752   9.500 -1.1226  1.8895 -1.8755
  208MPD1     C 3211   4.058   2.679  17.493  0.2342  0.5261 -0.6043
  208MPD1    C1 3212   4.063   2.655  17.627  0.6308  0.0576  0.7061
  208MPD1    C2 3213   4.092   2.530  17.663 -0.4864 -0.2049  0.1082
  208MPD1    C3 3214   4.090   2.422  17.574 -0.7090  0.6402  0.0392
  208MPD1    C4 3215   4.085   2.444  17.439  0.0302  0.1156  0.5493
  208MPD1    C5 3216   4.063   2.575  17.400  0.2322 -0.0724  0.4404
  208MPD1     H 3217   4.099   2.512   0.030 -0.7546 -1.5308 -0.0991
  208MPD1    H1 3218   4.082   2.368  17.363 -0.1080  0.2670  0.4027
  208MPD1    H2 3219   4.039   2.782  17.466 -0.2137  0.8298  0.8376
  208MPD1    H3 3220   4.039   2.598  17.297  0.2250  0.7940  0.6310
  208MPD1     N 3221   4.095   2.292  17.628 -0.2666 -0.0116  0.0336
  208MPD1    H5 3222   4.090   2.288  17.730 -0.5949  0.2829  0.0275
  208MPD1    N1 3223   4.017   2.737  17.733  0.1847  0.1065 -0.1277
  208MPD1    H6 3224   4.023   2.835  17.707 -0.9618 -0.2758 -1.8744
  208MPD1    H7 3225   4.058   2.711   0.083 -0.6037 -0.1478  0.1618
  209MPD1     C 3226   1.441   2.934  11.238  0.2085 -0.0274  0.1365
  209MPD1    C1 3227   1.480   2.972  11.108  0.1814 -0.2927  0.0008
  209MPD1    C2 3228   1.577   3.065  11.089 -0.2245 -0.1268 -0.2324
  209MPD1    C3 3229   1.621   3.137  11.203  0.3542  0.4118 -0.4392
  209MPD1    C4 3230   1.580   3.111  11.327  0.7971  0.1130  0.0096
  209MPD1    C5 3231   1.490   3.004  11.342  0.9231 -0.0200 -0.1580
  209MPD1     H 3232   1.619   3.085  10.991 -2.6050 -2.5645 -1.7478
  209MPD1    H1 3233   1.616   3.157  11.418  0.5778  0.9366 -0.3239
  209MPD1    H2 3234   1.369   2.853  11.249  1.0572 -1.0171 -1.5080
  209MPD1    H3 3235   1.473   2.986  11.448 -0.8077 -0.7140 -0.5703
  209MPD1     N 3236   1.718   3.236  11.186 -0.4810 -0.9949 -0.4863
  209MPD1    H5 3237   1.748   3.257  11.092 -0.9692 -1.7269 -0.7967
  209MPD1    N1 3238   1.432   2.892  11.002  0.0536  0.1893  0.0032
  209MPD1    H6 3239   1.350   2.835  11.024  1.3933 -0.8316  2.3416
  209MPD1    H7 3240   1.424   2.940  10.913 -1.5290  0.0084  0.0514
  210MPD1     C 3241   2.502   3.952  11.497 -1.0490 -0.2616 -0.1269
  210MPD1    C1 3242   2.420   3.879  11.579 -0.6342 -0.6582  0.3431
  210MPD1    C2 3243   2.341   3.787  11.514 -0.4492 -0.3038  0.4303
  210MPD1    C3 3244   2.315   3.801  11.378 -0.2507 -0.0833 -0.0232
  210MPD1    C4 3245   2.377   3.903  11.314 -0.6677 -0.6899 -0.5650
  210MPD1    C5 3246   2.477   3.966  11.369  0.6428 -0.1948  0.0707
  210MPD1     H 3247   2.294   3.706  11.567  1.9825 -0.8010  1.8276
  210MPD1    H1 3248   2.343   3.919  11.212 -0.6274 -0.0826 -0.4876
  210MPD1    H2 3249   2.585   4.007  11.541  0.1331 -1.2158 -1.1386
  210MPD1    H3 3250   2.547   4.019  11.306  2.1224 -0.2704  1.6577
  210MPD1     N 3251   2.219   3.729  11.309  1.1100  0.1376  0.6651
  210MPD1    H5 3252   2.203   3.756  11.212  0.9987  0.8483  0.8877
  210MPD1    N1 3253   2.459   3.868  11.711  0.5310  0.3795 -0.3100
  210MPD1    H6 3254   2.482   3.959  11.751  0.4023 -0.0776  0.8077
  210MPD1    H7 3255   2.403   3.811  11.775 -2.2482  1.5589 -1.6786
  211MPD1     C 3256   4.314   2.837  16.015  0.0949  0.0318 -0.3763
  211MPD1    C1 3257   4.330   2.974  16.024  0.5295 -0.1841  0.5390
  211MPD1    C2 3258   4.224   3.048  16.080  0.4773  0.0667  0.3657
  211MPD1    C3 3259   4.107   2.982  16.117 -0.3155 -0.0960  0.0440
  211MPD1    C4 3260   4.098   2.845  16.104  0.4711  0.3165 -0.6022
  211MPD1    C5 3261   4.194   2.773  16.049 -0.5979  0.0203 -0.3767
  211MPD1     H 3262   4.229   3.156  16.082  0.7748  0.0399  1.0574
  211MPD1    H1 3263   4.011   2.790  16.137 -0.8034  2.2830 -0.6974
  211MPD1    H2 3264   4.394   2.781  15.967 -0.2514 -0.8418  0.0580
  211MPD1    H3 3265   4.186   2.665  16.052  0.9159 -0.0525  1.4273
  211MPD1     N 3266   3.997   3.061  16.158  0.2908  0.0750  0.4709
  211MPD1    H5 3267   4.009   3.161  16.156 -1.3315  0.2764  0.2638
  211MPD1    N1 3268   4.453   3.035  15.999 -0.4501  0.1833 -0.0565
  211MPD1    H6 3269   4.451   3.132  15.969  1.3117  0.5267  0.9338
  211MPD1    H7 3270   4.499   2.985  15.923  0.4477  0.0790  0.5551
  212MPD1     C 3271   3.292   1.400  16.248  1.0598  0.4212  0.8787
  212MPD1    C1 3272   3.261   1.483  16.353 -0.3211  0.0744 -0.1696
  212MPD1    C2 3273   3.158   1.444  16.434  0.3938  0.8607  0.5799
  212MPD1    C3 3274   3.085   1.327  16.417 -0.6188  0.2715 -0.8098
  212MPD1    C4 3275   3.132   1.247  16.315 -0.1888  0.0171 -0.0515
  212MPD1    C5 3276   3.238   1.278  16.235 -0.1354 -0.0933  0.5245
  212MPD1     H 3277   3.132   1.508  16.517  0.6496  0.1616  1.2000
  212MPD1    H1 3278   3.083   1.152  16.299 -0.9260  0.5938 -1.2681
  212MPD1    H2 3279   3.378   1.430  16.190  0.2968  0.6796 -0.1165
  212MPD1    H3 3280   3.284   1.214  16.160 -0.6990 -0.1377  0.2173
  212MPD1     N 3281   2.987   1.275  16.503  0.3304 -0.9052  0.1237
  212MPD1    H5 3282   2.957   1.180  16.485 -2.0540 -0.2850  0.8985
  212MPD1    N1 3283   3.322   1.615  16.356 -0.5189 -0.1366  0.8657
  212MPD1    H6 3284   3.329   1.639  16.454  0.0814 -0.8480  0.9978
  212MPD1    H7 3285   3.421   1.601  16.337 -1.1752 -0.5410 -2.2665
  213MPD1     C 3286   0.922   2.056  16.279  0.7706 -0.0763 -0.9563
  213MPD1    C1 3287   0.883   1.929  16.241  0.5854  0.4635  0.5365
  213MPD1    C2 3288   0.848   1.919  16.109  0.0850 -0.4185  0.1906
  213MPD1    C3 3289   0.892   2.013  16.015  0.3006  0.4816 -0.7090
  213MPD1    C4 3290   0.979   2.112  16.058  0.1945 -0.0589 -0.2776
  213MPD1    C5 3291   0.990   2.131  16.188 -0.1240 -0.1429  0.1070
  213MPD1     H 3292   0.792   1.834  16.072  0.7056 -1.4023  1.5308
  213MPD1    H1 3293   1.037   2.183  15.999  2.6740 -2.2040 -0.4297
  213MPD1    H2 3294   0.948   2.079  16.381 -1.7384 -0.0612 -0.3102
  213MPD1    H3 3295   1.056   2.211  16.222 -1.6406  0.7521  0.9278
  213MPD1     N 3296   0.862   1.982  15.880 -0.1019  0.8297  0.3643
  213MPD1    H5 3297   0.793   1.909  15.863 -0.6311  1.5625 -0.6180
  213MPD1    N1 3298   0.816   1.842  16.330 -0.7325 -0.5503  0.2789
  213MPD1    H6 3299   0.806   1.744  16.303 -1.3253 -0.6010  0.6745
  213MPD1    H7 3300   0.850   1.843  16.426  0.3909 -1.4042 -0.1162
  214MPD1     C 3301   0.649   1.218  15.289 -0.5260  0.8035  0.0723
  214MPD1    C1 3302   0.688   1.240  15.421  0.2065 -0.2646 -0.2349
  214MPD1    C2 3303   0.722   1.369  15.464  0.0035 -0.1250 -0.1979
  214MPD1    C3 3304   0.669   1.475  15.393 -0.8127  0.0359  0.3156
  214MPD1    C4 3305   0.612   1.454  15.269  0.6677  0.4909 -0.7902
  214MPD1    C5 3306   0.611   1.326  15.219  0.3953 -0.0374  0.6418
  214MPD1     H 3307   0.759   1.386  15.565  0.7864 -0.1402 -0.4854
  214MPD1    H1 3308   0.572   1.528  15.201 -0.9764  0.5022  0.1959
  214MPD1    H2 3309   0.630   1.122  15.243 -2.0783  0.4449  1.4326
  214MPD1    H3 3310   0.563   1.302  15.125  0.4007 -0.7932  0.8281
  214MPD1     N 3311   0.685   1.610  15.432 -1.0527  0.0197 -0.6395
  214MPD1    H5 3312   0.648   1.681  15.369 -2.7599  0.1934  0.5658
  214MPD1    N1 3313   0.744   1.126  15.491 -0.3738  0.9338  0.0114
  214MPD1    H6 3314   0.756   1.157  15.587  1.0910 -0.6032  0.3314
  214MPD1    H7 3315   0.683   1.045  15.483 -1.4156  1.8357 -1.2389
  215MPD1     C 3316   0.546   2.979  11.173 -0.3565 -0.2162 -0.2759
  215MPD1    C1 3317   0.584   3.101  11.218  0.1064 -0.2575  0.5148
  215MPD1    C2 3318   0.708   3.149  11.191 -0.5158 -0.3649 -0.1006
  215MPD1    C3 3319   0.795   3.075  11.108 -0.3552 -0.5120 -0.2304
  215MPD1    C4 3320   0.757   2.952  11.067  0.3212  0.6401 -0.0923
  215MPD1    C5 3321   0.635   2.904  11.101  0.2869 -0.9575  0.7783
  215MPD1     H 3322   0.742   3.245  11.229 -0.4559 -0.0115 -1.0519
  215MPD1    H1 3323   0.813   2.893  10.995 -2.2850 -2.1157  0.0940
  215MPD1    H2 3324   0.448   2.937  11.195 -0.1423 -0.6583 -0.1761
  215MPD1    H3 3325   0.608   2.801  11.078 -1.7877 -0.0708 -0.7972
  215MPD1     N 3326   0.917   3.137  11.074  0.0475  0.2049  0.7510
  215MPD1    H5 3327   0.931   3.231  11.111  0.2963 -0.3346  2.0016
  215MPD1    N1 3328   0.506   3.162  11.316 -0.5002 -0.3470  0.4595
  215MPD1    H6 3329   0.510   3.263  11.307  0.4478 -0.4660 -0.4286
  215MPD1    H7 3330   0.410   3.127  11.319 -1.1848  1.6087  1.2960
  216MPD1     C 3331   2.452   0.969  17.477  0.7392  0.1078  0.3805
  216MPD1    C1 3332   2.473   0.883  17.577 -0.4115 -0.4085 -0.8700
  216MPD1    C2 3333   2.595   0.813  17.582 -0.3860 -0.5269 -0.1448
  216MPD1    C3 3334   2.679   0.822  17.474  0.7317  0.1458 -0.0713
  216MPD1    C4 3335   2.649   0.897  17.370  0.3729 -0.7560  0.2222
  216MPD1    C5 3336   2.533   0.965  17.372 -0.0520 -0.1252  0.5082
  216MPD1     H 3337   2.618   0.760  17.674  0.3256 -2.1551 -1.2548
  216MPD1    H1 3338   2.712   0.914  17.283  0.7487 -0.9316  0.4579
  216MPD1    H2 3339   2.364   1.033  17.478  1.1097  0.5929  1.4677
  216MPD1    H3 3340   2.503   1.022  17.285  0.6403  0.4113  0.6159
  216MPD1     N 3341   2.808   0.762  17.481 -0.3554 -0.8440  0.1457
  216MPD1    H5 3342   2.837   0.717  17.567 -0.7528 -2.6489 -0.6632
  216MPD1    N1 3343   2.389   0.892  17.689 -0.5338  0.6605 -0.0906
  216MPD1    H6 3344   2.291   0.888  17.661 -0.4143  1.2279 -0.5935
  216MPD1    H7 3345   2.411   0.827   0.024 -0.0267 -0.0452 -0.8659
  217MPD1     C 3346   0.103   3.247   8.526  0.4636  0.1873 -0.4622
  217MPD1    C1 3347   0.167   3.123   8.506 -0.3543 -0.1076  0.5610
  217MPD1    C2 3348   0.123   3.022   8.590 -0.9927 -0.1831 -0.0896
  217MPD1    C3 3349   0.019   3.038   8.687 -0.2734 -0.0953  0.8874
  217MPD1    C4 3350   4.689   3.156   8.695  0.3930 -0.1339 -0.9080
  217MPD1    C5 3351   4.733   3.257   8.612 -0.1980 -0.0883 -0.2398
  217MPD1     H 3352   0.174   2.928   8.573  1.7801  1.1191  1.1626
  217MPD1    H1 3353   4.609   3.181   8.764  1.9024  0.4877  0.6266
  217MPD1    H2 3354   0.138   3.337   8.476  1.4034 -2.1387 -4.0458
  217MPD1    H3 3355   4.690   3.355   8.632  1.7446  0.1637  2.6660
  217MPD1     N 3356   4.728   2.948   8.791 -0.0513 -0.2619 -0.1822
  217MPD1    H5 3357   4.666   2.987   8.862  1.1804  1.6741 -0.1695
  217MPD1    N1 3358   0.278   3.112   8.433 -0.9655 -0.2175 -0.6197
  217MPD1    H6 3359   0.284   3.183   8.359 -0.0617  2.7725  2.3123
  217MPD1    H7 3360   0.287   3.019   8.393 -1.3213 -0.8907  0.8851
  218MPD1     C 3361   2.332   4.052  12.633 -0.2632 -0.0831  0.3070
  218MPD1    C1 3362   2.215   4.081  12.581 -0.4778 -0.3455  0.8308
  218MPD1    C2 3363   2.119   3.983  12.569  0.0427 -0.0597 -0.5506
  218MPD1    C3 3364   2.140   3.856  12.598 -0.2005  0.3260 -0.4522
  218MPD1    C4 3365   2.265   3.818  12.643 -0.2382  0.4725 -0.1385
  218MPD1    C5 3366   2.359   3.917  12.665  0.1760 -0.3689 -0.1808
  218MPD1     H 3367   2.017   4.007  12.540 -0.7380 -1.2120  1.2495
  218MPD1    H1 3368   2.300   3.718  12.666 -0.9154 -0.2822 -2.3971
  218MPD1    H2 3369   2.410   4.126  12.637  0.2090 -0.3795 -3.2886
  218MPD1    H3 3370   2.460   3.894  12.698 -0.0094 -1.9719 -0.7549
  218MPD1     N 3371   2.037   3.770  12.564  0.5512  0.7460 -0.1223
  218MPD1    H5 3372   1.949   3.808  12.530 -0.5741 -1.0794  0.7228
  218MPD1    N1 3373   2.183   4.219  12.582 -0.0538  0.2862  0.2230
  218MPD1    H6 3374   2.111   4.237  12.513  2.2323  0.7705 -2.0241
  218MPD1    H7 3375   2.264   4.280  12.585 -0.7400  1.1597  1.2799
  219MPD1     C 3376   2.048   3.239  11.906 -0.5015 -0.0444  0.0328
  219MPD1    C1 3377   1.979   3.162  11.998 -0.6963 -0.4167 -0.3282
  219MPD1    C2 3378   1.932   3.235  12.106 -0.4896  0.4867 -0.1295
  219MPD1    C3 3379   1.937   3.375  12.109  1.1544  0.5382  0.2978
  219MPD1    C4 3380   2.000   3.442  12.016  0.5261  0.3525  0.0746
  219MPD1    C5 3381   2.068   3.371  11.926 -0.7714  0.4546  0.0916
  219MPD1     H 3382   1.883   3.178  12.184 -0.8487  3.3424  1.7510
  219MPD1    H1 3383   2.007   3.550  12.015 -0.1494  0.4016  0.5288
  219MPD1    H2 3384   2.103   3.190  11.826  2.1432  1.8877  0.6684
  219MPD1    H3 3385   2.126   3.431  11.856  0.4019 -0.3258  0.3940
  219MPD1     N 3386   1.876   3.452  12.210  0.2016  0.2305  0.4896
  219MPD1    H5 3387   1.919   3.544  12.216  1.0081  0.0437 -2.5632
  219MPD1    N1 3388   1.985   3.025  11.977  0.2648 -0.1439  0.1934
  219MPD1    H6 3389   1.993   2.989  11.882  2.0869  0.0457  0.2663
  219MPD1    H7 3390   1.911   2.981  12.030 -1.1251 -0.3825 -1.9335
  220MPD1     C 3391   0.849   2.097  10.029  0.0752  0.0459 -0.1151
  220MPD1    C1 3392   0.870   2.158   9.909  0.4149 -0.3384  0.2500
  220MPD1    C2 3393   0.928   2.286   9.904  0.7702 -0.5620 -0.6229
  220MPD1    C3 3394   0.945   2.358  10.017 -0.2906 -1.1082 -0.8411
  220MPD1    C4 3395   0.922   2.294  10.141  0.2291 -0.5592 -0.4063
  220MPD1    C5 3396   0.888   2.162  10.141 -0.0121  0.1305 -0.3234
  220MPD1     H 3397   0.947   2.331   9.807  0.6956 -1.6557 -1.1467
  220MPD1    H1 3398   0.928   2.348  10.235 -0.6225 -0.0671 -0.6356
  220MPD1    H2 3399   0.807   1.997  10.031 -1.2813  0.6117 -0.1838
  220MPD1    H3 3400   0.864   2.110  10.233  1.4758  0.1019  0.0506
  220MPD1     N 3401   0.972   2.497  10.011  0.2042 -0.1338 -0.1933
  220MPD1    H5 3402   0.961   2.535   9.917 -0.8358  1.1232  0.4373
  220MPD1    N1 3403   0.849   2.083   9.791 -0.0135  0.4276 -0.1871
  220MPD1    H6 3404   0.837   2.152   9.718 -1.9370 -1.7697 -1.9601
  220MPD1    H7 3405   0.766   2.024   9.795 -1.1503  2.0987  0.6382
  221MPD1     C 3406   2.993   2.371  16.978  0.3563  0.4164  0.1484
  221MPD1    C1 3407   2.980   2.343  16.844  0.0376 -0.4955  0.4628
  221MPD1    C2 3408   3.096   2.358  16.769 -0.9497  0.5405 -0.7911
  221MPD1    C3 3409   3.217   2.410  16.810 -0.5517  0.2838 -0.9165
  221MPD1    C4 3410   3.230   2.446  16.943 -0.4550  0.0050  0.3424
  221MPD1    C5 3411   3.118   2.420  17.022 -0.8961 -0.0124 -0.3121
  221MPD1     H 3412   3.083   2.344  16.662  1.1483 -1.4985 -0.7712
  221MPD1    H1 3413   3.322   2.493  16.976 -0.4314  0.0197  0.2548
  221MPD1    H2 3414   2.919   2.346  17.053  1.3942 -2.9500  0.0594
  221MPD1    H3 3415   3.122   2.456  17.124 -0.7166 -1.1794  0.0894
  221MPD1     N 3416   3.335   2.423  16.725  0.5746  0.1891 -0.4700
  221MPD1    H5 3417   3.419   2.470  16.757 -0.9130  1.3093  1.7824
  221MPD1    N1 3418   2.861   2.298  16.782  0.0251  0.1550  0.0460
  221MPD1    H6 3419   2.784   2.351  16.822  0.2229 -0.9134  1.8839
  221MPD1    H7 3420   2.865   2.326  16.685 -1.2559  0.2183  0.0111
  222MPD1     C 3421   2.357   0.309   0.015 -0.0043  0.3362  0.6695
  222MPD1    C1 3422   2.447   0.410   0.020  0.3356  0.1549  0.0810
  222MPD1    C2 3423   2.411   0.531   0.081 -1.6799  0.1513  0.4712
  222MPD1    C3 3424   2.288   0.545   0.143  0.0430 -0.7501  0.5695
  222MPD1    C4 3425   2.193   0.447   0.125 -0.4301 -0.0070  0.0464
  222MPD1    C5 3426   2.238   0.324   0.079  0.7916  0.1942 -0.1818
  222MPD1     H 3427   2.487   0.606   0.098 -0.4051 -1.4741  1.9318
  222MPD1    H1 3428   2.091   0.446   0.161  0.2595 -0.9522  1.9651
  222MPD1    H2 3429   2.384   0.212  17.713  0.3786  0.4575  0.6331
  222MPD1    H3 3430   2.172   0.239   0.072 -1.1542  1.7549 -0.8437
  222MPD1     N 3431   2.237   0.650   0.222 -0.2372 -0.0309 -1.0987
  222MPD1    H5 3432   2.143   0.635   0.255  1.3576 -0.4978  3.1524
  222MPD1    N1 3433   2.567   0.398  17.686 -0.6032 -0.3549 -0.1979
  222MPD1    H6 3434   2.634   0.462  17.728 -1.3605  0.1628  0.2466
  222MPD1    H7 3435   2.591   0.299  17.683  0.4186 -0.1142  0.0571
  223MPD1     C 3436   1.472   0.856   0.736  0.3467  0.1258 -0.9906
  223MPD1    C1 3437   1.507   0.980   0.698  0.2443 -0.0677 -0.7644
  223MPD1    C2 3438   1.632   0.992   0.643 -0.2899  0.6122  0.0458
  223MPD1    C3 3439   1.727   0.893   0.645  0.3626 -0.2720 -0.0395
  223MPD1    C4 3440   1.691   0.774   0.703 -0.5509  0.0954 -0.5488
  223MPD1    C5 3441   1.561   0.753   0.751  0.8469  0.0034 -0.6739
  223MPD1     H 3442   1.665   1.086   0.601 -0.3603  0.3436 -0.6125
  223MPD1    H1 3443   1.772   0.702   0.709  1.0904  1.9343 -0.5390
  223MPD1    H2 3444   1.369   0.845   0.767  0.2917 -0.4972 -1.4095
  223MPD1    H3 3445   1.524   0.658   0.787 -2.1386  1.9010  1.2472
  223MPD1     N 3446   1.847   0.920   0.576 -0.4668 -0.1232 -0.9007
  223MPD1    H5 3447   1.863   1.012   0.537 -1.6597 -0.1080 -1.3540
  223MPD1    N1 3448   1.411   1.078   0.671  0.1391  0.0075 -0.1304
  223MPD1    H6 3449   1.463   1.163   0.690  0.0198  0.5206 -2.1194
  223MPD1    H7 3450   1.337   1.074   0.741  0.3029  0.6390  0.0812
  224MPD1     C 3451   0.018   3.285   9.285 -0.1923  0.2712  0.2889
  224MPD1    C1 3452   0.031   3.151   9.258 -0.4718  0.3520  0.8583
  224MPD1    C2 3453   4.697   3.058   9.335 -0.2773  1.0041  0.4390
  224MPD1    C3 3454   4.626   3.097   9.448 -0.3292 -0.2138 -0.1660
  224MPD1    C4 3455   4.620   3.229   9.483 -0.9416 -0.2332 -1.0654
  224MPD1    C5 3456   4.679   3.324   9.400 -0.5356 -0.0807  0.0777
  224MPD1     H 3457   4.699   2.954   9.305 -1.0220  1.1506 -0.1164
  224MPD1    H1 3458   4.570   3.266   9.571  0.4330  0.0347 -0.3893
  224MPD1    H2 3459   0.071   3.356   9.222  0.1394 -0.7258 -0.5384
  224MPD1    H3 3460   4.677   3.429   9.425  0.3405 -0.4834  1.8905
  224MPD1     N 3461   4.549   3.003   9.524  0.1448  0.2652 -0.1432
  224MPD1    H5 3462   4.488   3.048   9.591 -1.1795  0.1112 -1.2358
  224MPD1    N1 3463   0.078   3.099   9.131  0.1957 -0.3004 -0.3084
  224MPD1    H6 3464   0.106   3.002   9.141 -0.6743 -0.8488 -3.3051
  224MPD1    H7 3465   0.148   3.152   9.080  0.2730  1.1006  1.2563
  225MPD1     C 3466   1.081   4.188  12.436 -0.1513 -0.2620  0.0718
  225MPD1    C1 3467   1.022   4.061  12.456  0.3016 -0.0026 -0.0508
  225MPD1    C2 3468   0.887   4.053  12.439  0.1075  0.4617  0.9844
  225MPD1    C3 3469   0.816   4.171  12.419 -0.5931  0.3183 -0.9009
  225MPD1    C4 3470   0.874   4.291  12.424 -0.6632 -0.4578  0.0618
  225MPD1    C5 3471   1.005   4.301  12.414  0.2774  0.0321 -0.0092
  225MPD1     H 3472   0.837   3.957  12.437  0.7636  0.1618 -0.5616
  225MPD1    H1 3473   0.814   4.381  12.414 -0.7358 -0.7986 -2.6254
  225MPD1    H2 3474   1.188   4.205  12.436 -0.2183  0.1654  1.1147
  225MPD1    H3 3475   1.038   4.404  12.422 -1.8169  0.6757  0.2945
  225MPD1     N 3476   0.676   4.168  12.397  0.5459  0.2406 -0.4122
  225MPD1    H5 3477   0.633   4.260  12.399  1.0086  0.4528 -0.0132
  225MPD1    N1 3478   1.099   3.951  12.490 -0.1923 -0.2028  0.9265
  225MPD1    H6 3479   1.164   3.980  12.562 -0.5116 -1.6680  1.7980
  225MPD1    H7 3480   1.039   3.877  12.525 -0.8691 -0.6199 -1.1010
  226MPD1     C 3481   3.395   3.780   9.441 -0.5754  0.2214  0.4234
  226MPD1    C1 3482   3.392   3.887   9.350  0.1231  0.0470  0.0629
  226MPD1    C2 3483   3.494   3.984   9.361  0.0648 -0.0830 -0.6134
  226MPD1    C3 3484   3.613   3.954   9.431  0.8357  0.0409 -0.1701
  226MPD1    C4 3485   3.621   3.834   9.496 -0.4984 -0.2138  0.3909
  226MPD1    C5 3486   3.514   3.749   9.503  0.3355  0.2247 -0.1536
  226MPD1     H 3487   3.478   4.081   9.315 -0.8343  0.2428  0.3677
  226MPD1    H1 3488   3.710   3.797   9.545 -0.0629  0.6056  0.2180
  226MPD1    H2 3489   3.304   3.723   9.458 -1.3603  1.3643 -0.0086
  226MPD1    H3 3490   3.519   3.653   9.554 -0.1518  0.7719  0.9322
  226MPD1     N 3491   3.722   4.052   9.430  0.8930  0.0562 -0.0522
  226MPD1    H5 3492   3.710   4.137   9.375  0.1839  2.0486  3.1648
  226MPD1    N1 3493   3.267   3.913   9.282 -0.2201 -0.1952 -0.5365
  226MPD1    H6 3494   3.291   3.973   9.203  2.6729  1.4717  1.6274
  226MPD1    H7 3495   3.231   3.823   9.251 -0.9192 -0.9131  2.3865
  227MPD1     C 3496   3.605   0.103   9.103  0.1498 -0.5074 -0.3790
  227MPD1    C1 3497   3.533   4.724   9.137 -0.1847  0.0023  1.1861
  227MPD1    C2 3498   3.601   4.627   9.206  0.5436  0.0045 -0.4856
  227MPD1    C3 3499   3.725   4.644   9.271  0.0949 -0.5068  0.6447
  227MPD1    C4 3500   3.791   0.029   9.241  0.0494 -0.1623  0.8178
  227MPD1    C5 3501   3.735   0.120   9.156  0.5561  0.0353  0.1912
  227MPD1     H 3502   3.547   4.534   9.223  0.7354  0.3170  1.8977
  227MPD1    H1 3503   3.890   0.054   9.279  0.6942 -0.4292 -0.6676
  227MPD1    H2 3504   3.555   0.177   9.042 -1.4039 -0.0678  1.3906
  227MPD1    H3 3505   3.784   0.213   9.129  0.8319 -0.0512  0.3958
  227MPD1     N 3506   3.771   4.542   9.357  0.6287 -0.6897  0.5860
  227MPD1    H5 3507   3.720   4.454   9.358 -2.7280  1.2580  1.0212
  227MPD1    N1 3508   3.409   4.695   9.077  0.3371 -0.3044  0.8356
  227MPD1    H6 3509   3.347   0.037   9.053  0.9543 -0.6189 -1.7548
  227MPD1    H7 3510   3.350   4.628   9.127 -0.6364 -0.7883 -0.9434
  228MPD1     C 3511   1.987   2.133  13.323  0.3608  0.2255 -0.2126
  228MPD1    C1 3512   1.871   2.204  13.310  0.4194 -0.1844  0.4311
  228MPD1    C2 3513   1.766   2.140  13.254 -1.2493  0.1416 -0.2916
  228MPD1    C3 3514   1.784   2.017  13.196  0.0168  0.4842 -0.3312
  228MPD1    C4 3515   1.907   1.959  13.191 -0.0178  0.6820 -0.2846
  228MPD1    C5 3516   2.005   2.020  13.254 -1.0907  0.3209  0.2008
  228MPD1     H 3517   1.666   2.180  13.242 -1.2564 -0.1394 -1.1366
  228MPD1    H1 3518   1.929   1.860  13.154 -0.8032 -0.0831  1.3205
  228MPD1    H2 3519   2.075   2.176  13.369 -0.5072  2.7472 -0.9351
  228MPD1    H3 3520   2.100   1.968  13.249 -0.3458  2.0605 -3.1950
  228MPD1     N 3521   1.669   1.954  13.141  0.4005 -0.3757 -0.2208
  228MPD1    H5 3522   1.582   2.006  13.148  0.5716 -0.0775 -0.2840
  228MPD1    N1 3523   1.856   2.321  13.381 -0.2357 -1.4008  0.6639
  228MPD1    H6 3524   1.776   2.379  13.357 -0.9328 -2.0494  1.4442
  228MPD1    H7 3525   1.942   2.375  13.391 -1.1391 -0.1531  1.7517
  229MPD1     C 3526   1.770   0.623  14.776  0.6015  0.3582  0.0274
  229MPD1    C1 3527   1.828   0.544  14.680  0.3591 -0.6643 -0.7625
  229MPD1    C2 3528   1.905   0.437  14.719 -0.0737 -0.6630  0.5229
  229MPD1    C3 3529   1.939   0.432  14.856  0.7171 -0.4091  0.1586
  229MPD1    C4 3530   1.892   0.519  14.950 -0.0184  0.0851  0.7021
  229MPD1    C5 3531   1.801   0.610  14.911 -0.9742  0.5208 -0.8563
  229MPD1     H 3532   1.936   0.366  14.643 -1.3460 -0.7699  0.0999
  229MPD1    H1 3533   1.918   0.522  15.055  1.8870 -0.5276  0.2600
  229MPD1    H2 3534   1.683   0.682  14.748  0.1495 -0.0153  0.6429
  229MPD1    H3 3535   1.757   0.670  14.990  1.7750 -0.5391  1.4766
  229MPD1     N 3536   2.027   0.341  14.907  0.8019  0.1187 -0.0790
  229MPD1    H5 3537   2.016   0.325  15.007 -0.9505 -1.0953 -0.4660
  229MPD1    N1 3538   1.782   0.560  14.546  0.3407 -0.0287 -0.2694
  229MPD1    H6 3539   1.857   0.535  14.483 -0.0458  1.7518 -1.4249
  229MPD1    H7 3540   1.759   0.658  14.528  0.3840 -0.3259 -1.8933
  230MPD1     C 3541   2.365   4.617  15.727 -0.4217 -0.0601  0.1134
  230MPD1    C1 3542   2.420   4.530  15.637  0.6272  0.0412 -0.1541
  230MPD1    C2 3543   2.390   4.557  15.502 -0.2271 -0.2017  0.3334
  230MPD1    C3 3544   2.339   4.676  15.458 -0.5018  0.1932  0.4604
  230MPD1    C4 3545   2.301   0.035  15.552 -0.0735  0.0814  0.3307
  230MPD1    C5 3546   2.313   0.000  15.685 -0.2317 -0.1575 -0.3118
  230MPD1     H 3547   2.410   4.486  15.422 -0.5758 -1.2148  1.1394
  230MPD1    H1 3548   2.265   0.133  15.524  0.3903  0.6098  1.6195
  230MPD1    H2 3549   2.375   4.601  15.834  1.0389 -0.3309 -0.0626
  230MPD1    H3 3550   2.277   0.067  15.762  0.2368 -0.7882  0.4518
  230MPD1     N 3551   2.319   4.686  15.320 -0.1788  0.1336 -1.2317
  230MPD1    H5 3552   2.360   4.615  15.260  1.2051  0.2857 -0.4644
  230MPD1    N1 3553   2.479   4.404  15.678 -0.2595  0.5109 -0.4267
  230MPD1    H6 3554   2.560   4.409  15.739 -0.0252  0.0431 -0.7009
  230MPD1    H7 3555   2.513   4.355  15.596 -0.2764  1.7958 -1.2094
  231MPD1     C 3556   0.568   2.025  15.511  0.5170 -0.3738  0.1069
  231MPD1    C1 3557   0.556   1.997  15.381  0.1284 -0.0441 -0.1685
  231MPD1    C2 3558   0.620   2.073  15.289 -0.2037  0.1246 -0.2786
  231MPD1    C3 3559   0.665   2.199  15.320  0.4503  0.0020  0.0247
  231MPD1    C4 3560   0.660   2.234  15.456  0.2110 -0.8099  0.1326
  231MPD1    C5 3561   0.609   2.147  15.549 -0.9491  0.2228 -0.0274
  231MPD1     H 3562   0.620   2.045  15.184 -1.0970  1.7851 -0.7229
  231MPD1    H1 3563   0.705   2.329  15.482  0.3332 -0.8225 -0.0383
  231MPD1    H2 3564   0.529   1.952  15.581 -3.1443  0.2417 -1.3053
  231MPD1    H3 3565   0.592   2.171  15.654 -0.6701 -0.1456  0.1001
  231MPD1     N 3566   0.731   2.272  15.214 -0.7317 -0.8586  0.0203
  231MPD1    H5 3567   0.730   2.234  15.120 -1.3027  0.0174 -0.3163
  231MPD1    N1 3568   0.525   1.859  15.344  0.9627  0.3458 -0.1826
  231MPD1    H6 3569   0.476   1.858  15.255 -0.0831 -0.1399  0.4057
  231MPD1    H7 3570   0.454   1.821  15.405  1.6590  1.1649  1.1545
  232MPD1     C 3571   1.802   0.256   0.189  0.3202 -0.4623  0.1000
  232MPD1    C1 3572   1.777   0.285   0.057 -0.0693 -0.5301 -0.2443
  232MPD1    C2 3573   1.785   0.189  17.696  0.3359 -0.4140 -0.0225
  232MPD1    C3 3574   1.804   0.060  17.733 -0.3911  0.3720 -0.7090
  232MPD1    C4 3575   1.821   0.025   0.127 -0.4849 -0.3097  0.7046
  232MPD1    C5 3576   1.816   0.126   0.215 -0.6561  0.8246 -0.2262
  232MPD1     H 3577   1.772   0.211  17.591  0.0078  1.5835  0.4544
  232MPD1    H1 3578   1.812   4.658   0.162 -0.3712 -0.1329  1.2416
  232MPD1    H2 3579   1.823   0.327   0.268  0.7154  0.6377 -0.9818
  232MPD1    H3 3580   1.827   0.085   0.315 -1.7752 -0.7032 -0.7311
  232MPD1     N 3581   1.786   4.693  17.635 -0.5632 -0.5773 -0.1738
  232MPD1    H5 3582   1.769   4.734  17.544 -1.9172 -3.2098 -1.1033
  232MPD1    N1 3583   1.742   0.412   0.019  0.0841 -0.4179  0.2731
  232MPD1    H6 3584   1.717   0.477   0.094  0.1989 -0.5608  0.4366
  232MPD1    H7 3585   1.653   0.400  17.712  0.1014  0.8599 -0.0927
  233MPD1     C 3586   2.837   2.382   0.210 -0.7135  0.2601 -0.0054
  233MPD1    C1 3587   2.780   2.406   0.330 -0.3427 -1.4039  0.7353
  233MPD1    C2 3588   2.818   2.518   0.400 -0.1161  0.1013 -0.3860
  233MPD1    C3 3589   2.886   2.621   0.330  0.8429  0.4492  0.2306
  233MPD1    C4 3590   2.920   2.605   0.199 -0.6356 -0.4123 -0.3930
  233MPD1    C5 3591   2.905   2.483   0.140  0.3285  0.0533  0.1213
  233MPD1     H 3592   2.784   2.537   0.501  1.2831  1.5312 -0.1693
  233MPD1    H1 3593   2.961   2.687   0.140 -1.6221  0.7001  0.4869
  233MPD1    H2 3594   2.833   2.283   0.166  1.3170  0.5025 -0.7249
  233MPD1    H3 3595   2.960   2.457   0.051  1.7036  0.4844  0.8532
  233MPD1     N 3596   2.927   2.725   0.409  0.1403  0.1636 -0.0143
  233MPD1    H5 3597   2.911   2.720   0.509  0.4277 -3.2204 -0.1493
  233MPD1    N1 3598   2.715   2.307   0.409 -0.4862 -0.1319  0.1270
  233MPD1    H6 3599   2.648   2.343   0.477 -0.7973 -1.2624  0.4317
  233MPD1    H7 3600   2.655   2.245   0.354  0.8351 -0.5894 -0.8099
  234MPD1     C 3601   0.055   1.256   9.313  0.3934  0.0165  0.9606
  234MPD1    C1 3602   0.008   1.381   9.264 -0.0630 -0.2674 -0.0569
  234MPD1    C2 3603   0.057   1.495   9.325  0.8135 -0.1857  0.5126
  234MPD1    C3 3604   0.136   1.485   9.441 -0.2164  0.3827 -0.0474
  234MPD1    C4 3605   0.172   1.361   9.491 -0.0990 -1.0877 -0.1687
  234MPD1    C5 3606   0.135   1.247   9.428  0.0539  0.0375 -0.0775
  234MPD1     H 3607   0.044   1.595   9.284  3.3078  0.4052  1.1091
  234MPD1    H1 3608   0.231   1.361   9.582  0.9065  0.2418 -0.8207
  234MPD1    H2 3609   0.039   1.166   9.255  3.5704  0.3925 -0.4588
  234MPD1    H3 3610   0.174   1.154   9.468 -0.3392  0.1017  0.4515
  234MPD1     N 3611   0.183   1.614   9.492 -0.5438  0.1239  0.5826
  234MPD1    H5 3612   0.152   1.692   9.435 -1.2819 -1.6853 -1.4969
  234MPD1    N1 3613   4.669   1.391   9.150 -0.6657 -0.2550  0.0492
  234MPD1    H6 3614   4.629   1.307   9.109 -0.6368 -0.0014 -0.4982
  234MPD1    H7 3615   4.608   1.472   9.142  1.6772  1.5044  0.0337
  235MPD1     C 3616   1.745   3.912  10.221 -0.3732 -0.3102  0.2694
  235MPD1    C1 3617   1.750   3.991  10.109 -0.4825 -0.3264  0.2454
  235MPD1    C2 3618   1.775   4.123  10.125  0.6057  0.2302  0.1989
  235MPD1    C3 3619   1.831   4.167  10.243  0.1426  0.3324  0.0736
  235MPD1    C4 3620   1.842   4.087  10.354  0.9348 -0.2960  0.0543
  235MPD1    C5 3621   1.788   3.963  10.343  0.4050  0.1014 -0.2032
  235MPD1     H 3622   1.748   4.184  10.039 -2.2861  0.5638  1.3486
  235MPD1    H1 3623   1.879   4.124  10.449 -1.0681  2.7478 -0.3419
  235MPD1    H2 3624   1.717   3.808  10.210 -0.3440 -0.4070  1.0917
  235MPD1    H3 3625   1.800   3.900  10.431  0.0571  0.7155  0.2771
  235MPD1     N 3626   1.878   4.302  10.247  0.0767  0.7780 -0.3370
  235MPD1    H5 3627   1.874   4.347  10.156 -2.4617 -0.5164 -0.8884
  235MPD1    N1 3628   1.681   3.966   9.991  0.5176 -0.3239 -0.5002
  235MPD1    H6 3629   1.725   4.022   9.918 -1.8128  2.2277  0.0695
  235MPD1    H7 3630   1.685   3.873   9.950  1.9058 -0.4389 -0.1304
  236MPD1     C 3631   0.688   0.520   9.364  0.4006  0.7585 -0.4130
  236MPD1    C1 3632   0.638   0.429   9.461 -0.8859 -0.0832  0.2684
  236MPD1    C2 3633   0.690   0.428   9.586  0.5026 -0.0732 -0.7633
  236MPD1    C3 3634   0.784   0.516   9.627  0.0060 -0.0440  0.2659
  236MPD1    C4 3635   0.830   0.609   9.535 -0.1124 -0.0400 -0.1800
  236MPD1    C5 3636   0.781   0.613   9.404  0.1238  0.3298 -0.1319
  236MPD1     H 3637   0.658   0.348   9.653  1.0530 -1.0369 -1.6533
  236MPD1    H1 3638   0.912   0.673   9.565  0.0917  0.0763 -0.9893
  236MPD1    H2 3639   0.664   0.507   9.259  2.1090 -0.0067 -0.6943
  236MPD1    H3 3640   0.820   0.689   9.338 -1.1741  1.4556  0.4181
  236MPD1     N 3641   0.844   0.500   9.759  0.0177 -0.0278 -0.0716
  236MPD1    H5 3642   0.911   0.570   9.790  1.7065 -2.7158  2.2426
  236MPD1    N1 3643   0.561   0.319   9.418 -0.2051 -0.3784  0.0207
  236MPD1    H6 3644   0.512   0.333   9.330 -0.0109  0.2386  0.0089
  236MPD1    H7 3645   0.506   0.283   9.495 -0.3800 -0.4119 -0.1216
  237MPD1     C 3646   0.879   4.046  15.082  0.3876 -0.5296  0.3783
  237MPD1    C1 3647   0.923   3.946  15.168 -1.1109 -1.0028  0.0871
  237MPD1    C2 3648   0.846   3.824  15.184  0.2225 -0.4679  0.2008
  237MPD1    C3 3649   0.729   3.810  15.106 -0.3382 -0.0559 -0.1775
  237MPD1    C4 3650   0.693   3.912  15.020 -0.8042 -0.0680 -0.4027
  237MPD1    C5 3651   0.770   4.021  15.003  0.0924 -0.0199  0.1249
  237MPD1     H 3652   0.882   3.750  15.254 -3.2137 -0.3166  2.1315
  237MPD1    H1 3653   0.619   3.892  14.943  0.1369 -1.3741 -0.9723
  237MPD1    H2 3654   0.931   4.138  15.060 -0.0247 -0.3127  0.3107
  237MPD1    H3 3655   0.731   4.092  14.930  2.0798  1.3330  0.3893
  237MPD1     N 3656   0.648   3.694  15.104  0.3581 -0.3020  0.1916
  237MPD1    H5 3657   0.561   3.705  15.052 -0.3066 -0.8225  1.1898
  237MPD1    N1 3658   1.046   3.956  15.228 -0.3140 -0.2207 -0.4816
  237MPD1    H6 3659   1.065   4.053  15.253 -1.3956 -0.4186  1.1361
  237MPD1    H7 3660   1.065   3.892  15.305 -0.1878 -0.1264 -0.4342
  238MPD1     C 3661   2.434   1.560  15.105 -0.5483 -0.4051  0.4637
  238MPD1    C1 3662   2.430   1.620  15.231 -0.9289 -0.1698  0.0833
  238MPD1    C2 3663   2.354   1.732  15.258  0.1023 -0.6955  0.3485
  238MPD1    C3 3664   2.300   1.802  15.157  0.1662 -0.0031 -0.5817
  238MPD1    C4 3665   2.321   1.763  15.025  0.5098  0.4557  1.4715
  238MPD1    C5 3666   2.393   1.643  14.996 -0.2854  0.8770 -0.0644
  238MPD1     H 3667   2.352   1.771  15.359 -0.6593  1.0224 -0.3255
  238MPD1    H1 3668   2.288   1.827  14.944 -0.6877  0.5303  2.0272
  238MPD1    H2 3669   2.479   1.463  15.088 -0.1371  0.1172 -1.4363
  238MPD1    H3 3670   2.410   1.606  14.895 -2.2006 -3.9908  1.3791
  238MPD1     N 3671   2.228   1.917  15.180  0.5618 -0.7044  0.6297
  238MPD1    H5 3672   2.162   1.943  15.109  1.3428  2.3870  1.0423
  238MPD1    N1 3673   2.505   1.559  15.330 -0.2964 -0.3598  0.1131
  238MPD1    H6 3674   2.554   1.633  15.381 -2.0679  0.6523  0.3339
  238MPD1    H7 3675   2.578   1.500  15.291 -0.8373  0.3004 -1.8632
  239MPD1     C 3676   2.120   3.757  15.259  0.4317 -0.7216 -0.1612
  239MPD1    C1 3677   2.041   3.641  15.266  0.1442  0.9157 -0.1697
  239MPD1    C2 3678   2.052   3.550  15.163 -0.0522 -0.1349  0.3322
  239MPD1    C3 3679   2.136   3.573  15.059 -0.6295  1.0093  0.4154
  239MPD1    C4 3680   2.210   3.686  15.054  0.3236 -0.7179  0.3339
  239MPD1    C5 3681   2.203   3.774  15.153  0.1133 -0.0259  0.2984
  239MPD1     H 3682   1.992   3.460  15.175 -0.8871  0.2782 -0.7797
  239MPD1    H1 3683   2.276   3.708  14.970  0.5279  1.5562  1.0680
  239MPD1    H2 3684   2.106   3.836  15.332 -2.4938 -0.3634 -1.1081
  239MPD1    H3 3685   2.257   3.868  15.148 -0.5082  0.3073 -0.1339
  239MPD1     N 3686   2.147   3.483  14.946 -0.0425 -0.0018 -0.2535
  239MPD1    H5 3687   2.216   3.502  14.875 -1.1101  0.0499 -1.2704
  239MPD1    N1 3688   1.944   3.634  15.367 -0.2531 -0.3233  0.2830
  239MPD1    H6 3689   1.906   3.542  15.387  0.7953 -0.9433 -0.5662
  239MPD1    H7 3690   1.967   3.674  15.458 -0.3513  0.5558 -0.0774
  240MPD1     C 3691   2.229   2.863  14.285  0.4733 -0.0550 -0.0971
  240MPD1    C1 3692   2.103   2.856  14.226  0.1075 -0.5204  0.2192
  240MPD1    C2 3693   1.995   2.842  14.306 -0.0466 -0.6029  0.4436
  240MPD1    C3 3694   2.002   2.833  14.439  0.9651  0.2193 -0.1907
  240MPD1    C4 3695   2.129   2.826  14.501 -0.3656  0.8312  0.5392
  240MPD1    C5 3696   2.238   2.852  14.423  0.1886  0.4201 -0.4162
  240MPD1     H 3697   1.898   2.856  14.261  1.0341 -0.8733 -2.0172
  240MPD1    H1 3698   2.148   2.824  14.608  0.8760  1.3558  0.3374
  240MPD1    H2 3699   2.316   2.859  14.221  1.1032  1.9452  0.6054
  240MPD1    H3 3700   2.338   2.845  14.463 -0.7699  0.4315  1.9903
  240MPD1     N 3701   1.875   2.829  14.509 -0.3286 -0.1614  0.6254
  240MPD1    H5 3702   1.797   2.836  14.445 -0.7554  0.5959  1.2370
  240MPD1    N1 3703   2.105   2.867  14.084  0.1101  0.0496  0.3016
  240MPD1    H6 3704   2.201   2.869  14.050 -0.3897  0.2215 -1.1425
  240MPD1    H7 3705   2.079   2.774  14.050  1.1830  0.0810 -0.6063
  241MPD1     C 3706   1.450   2.427  15.423  0.0936 -0.6078  0.6162
  241MPD1    C1 3707   1.478   2.560  15.418 -0.5667  0.0681  0.0311
  241MPD1    C2 3708   1.509   2.611  15.295 -0.4285  0.2145 -0.2988
  241MPD1    C3 3709   1.532   2.530  15.182  0.8130  0.0775  0.0730
  241MPD1    C4 3710   1.504   2.393  15.196 -0.0150  0.6510 -0.5034
  241MPD1    C5 3711   1.454   2.353  15.311  0.5169 -0.7499 -0.9329
  241MPD1     H 3712   1.521   2.719  15.292  1.5795  0.0497  2.0155
  241MPD1    H1 3713   1.514   2.324  15.113 -1.4520 -0.7767  0.5146
  241MPD1    H2 3714   1.417   2.377  15.513 -2.6911  1.2767  0.6366
  241MPD1    H3 3715   1.433   2.246  15.310 -0.9191 -0.4644 -2.0622
  241MPD1     N 3716   1.568   2.575  15.050  0.1058  0.0978  0.2875
  241MPD1    H5 3717   1.571   2.512  14.971  1.3080  0.0781  0.3549
  241MPD1    N1 3718   1.430   2.642  15.516 -0.8005 -0.1140 -0.1134
  241MPD1    H6 3719   1.429   2.607  15.612  2.3751  0.0845 -0.0058
  241MPD1    H7 3720   1.475   2.733  15.513  0.3398 -0.7345 -2.0754
  242MPD1     C 3721   1.398   1.532  15.884 -0.0209 -0.2392 -0.2612
  242MPD1    C1 3722   1.489   1.441  15.931 -0.3757 -1.0830  0.0052
  242MPD1    C2 3723   1.588   1.394  15.841 -0.3868 -0.3048  0.2891
  242MPD1    C3 3724   1.584   1.423  15.708  0.4980  0.0614 -0.2358
  242MPD1    C4 3725   1.494   1.519  15.665  0.4075  0.0458  0.6704
  242MPD1    C5 3726   1.402   1.564  15.753 -0.1799  0.3933  0.0805
  242MPD1     H 3727   1.654   1.324  15.890  0.0702 -2.4966 -3.4325
  242MPD1    H1 3728   1.492   1.560  15.565 -2.6721 -1.8025 -0.0196
  242MPD1    H2 3729   1.322   1.572  15.950  0.3717 -2.1816  1.3751
  242MPD1    H3 3730   1.335   1.640  15.714 -0.8973 -0.1347  0.2917
  242MPD1     N 3731   1.665   1.363  15.613 -0.1326 -0.1860  0.1620
  242MPD1    H5 3732   1.671   1.417  15.527  0.7853 -0.4084  0.0883
  242MPD1    N1 3733   1.496   1.406  16.065 -0.5149 -0.5012  0.2688
  242MPD1    H6 3734   1.532   1.315  16.093  2.9086 -0.4620 -3.9587
  242MPD1    H7 3735   1.398   1.407  16.093 -0.4630 -0.5290  0.4501
  243MPD1     C 3736   2.540   4.697  17.736  0.3404 -0.2613  0.3498
  243MPD1    C1 3737   2.644   4.713  17.645  0.7680 -0.0411 -0.0926
  243MPD1    C2 3738   2.669   4.615  17.559 -0.2589  0.4287 -0.0949
  243MPD1    C3 3739   2.617   4.487  17.565  0.4808  0.1068 -0.7495
  243MPD1    C4 3740   2.521   4.468  17.663 -0.1693  0.0689  0.1828
  243MPD1    C5 3741   2.471   4.575  17.733 -0.1756  0.1994 -0.0874
  243MPD1     H 3742   2.749   4.630  17.487 -0.2098 -0.7906 -0.3036
  243MPD1    H1 3743   2.476   4.370  17.669  0.2699 -0.0736  1.2491
  243MPD1    H2 3744   2.505   0.044   0.058 -1.0765 -0.1865 -0.5663
  243MPD1    H3 3745   2.394   4.564   0.068 -2.1351  1.6932 -1.9127
  243MPD1     N 3746   2.673   4.397  17.475  0.0365 -0.6257 -0.0902
  243MPD1    H5 3747   2.751   4.429  17.419 -0.3612 -2.1934 -1.5351
  243MPD1    N1 3748   2.698   0.110  17.631  1.1743  0.7094 -0.5041
  243MPD1    H6 3749   2.697   0.162  17.718 -0.3490  1.9361 -1.2413
  243MPD1    H7 3750   2.787   0.111  17.582  1.6878 -1.9177  0.3635
  244MPD1     C 3751   3.202   3.470  17.604  0.1386  0.0225  1.1965
  244MPD1    C1 3752   3.241   3.524  17.482 -0.8874  0.1791  0.0785
  244MPD1    C2 3753   3.196   3.646  17.437 -0.2398  0.1742  1.0384
  244MPD1    C3 3754   3.108   3.721  17.520 -0.5002 -0.1655  0.1223
  244MPD1    C4 3755   3.075   3.668  17.646 -0.5945  0.1071  0.1399
  244MPD1    C5 3756   3.126   3.549  17.690 -0.2906 -0.2351  0.5214
  244MPD1     H 3757   3.219   3.686  17.339  0.8724  0.8049  1.5518
  244MPD1    H1 3758   3.019   3.724  17.721  0.7412  1.0826  0.3967
  244MPD1    H2 3759   3.226   3.369  17.636  1.1878  0.3006  1.2896
  244MPD1    H3 3760   3.101   3.521   0.052 -0.4064  3.0781  1.4110
  244MPD1     N 3761   3.060   3.844  17.476  0.0336 -0.6664  0.5681
  244MPD1    H5 3762   3.066   3.863  17.377 -0.3565 -1.2554  0.4272
  244MPD1    N1 3763   3.313   3.444  17.394 -0.0541 -0.0523  0.2414
  244MPD1    H6 3764   3.371   3.495  17.327  1.2028 -0.9238  0.6468
  244MPD1    H7 3765   3.365   3.373  17.444  0.0568 -1.1040 -1.3552
  245MPD1     C 3766   0.699   4.687  12.927 -0.2444 -0.2177  0.2740
  245MPD1    C1 3767   0.805   4.728  13.002 -0.1997 -0.1808  0.0280
  245MPD1    C2 3768   0.811   0.122  13.040  0.1077  0.4695 -0.3010
  245MPD1    C3 3769   0.706   0.202  13.014  0.6762  0.2364  0.5769
  245MPD1    C4 3770   0.595   0.167  12.947 -0.4737 -0.0971  0.0663
  245MPD1    C5 3771   0.598   0.042  12.897  0.0842 -0.7356 -0.4732
  245MPD1     H 3772   0.902   0.156  13.087  1.5912 -2.4635 -1.0026
  245MPD1    H1 3773   0.496   0.209  12.931 -0.5987 -0.5609 -0.4041
  245MPD1    H2 3774   0.700   4.589  12.881  0.5515  1.2134 -2.7761
  245MPD1    H3 3775   0.517   0.009  12.834 -0.4780  0.2322 -0.2480
  245MPD1     N 3776   0.712   0.333  13.061  0.2368  0.4726  0.6587
  245MPD1    H5 3777   0.793   0.367  13.112  0.0431  1.9280 -0.0120
  245MPD1    N1 3778   0.914   4.639  13.015 -0.6804  0.2548 -0.4133
  245MPD1    H6 3779   0.890   4.540  13.018  2.3997 -0.4553  0.1935
  245MPD1    H7 3780   0.960   4.656  13.104 -1.1678  1.5972 -0.4133
  246MPD1     C 3781   1.407   2.758   9.883  0.4124  0.0955 -0.2980
  246MPD1    C1 3782   1.457   2.714  10.003  0.1870 -0.3036  0.3198
  246MPD1    C2 3783   1.413   2.587  10.051  0.4163 -0.9647 -0.3435
  246MPD1    C3 3784   1.342   2.493   9.977 -0.1239 -0.5231 -0.7279
  246MPD1    C4 3785   1.290   2.551   9.861  0.1187  0.8121  0.1632
  246MPD1    C5 3786   1.327   2.673   9.818 -0.3836 -0.5741  0.8656
  246MPD1     H 3787   1.436   2.541  10.146 -1.8156 -2.9569 -0.7801
  246MPD1    H1 3788   1.232   2.496   9.788  0.9639  1.8628 -1.2949
  246MPD1    H2 3789   1.433   2.856   9.843  2.4241  0.0797  0.9885
  246MPD1    H3 3790   1.283   2.705   9.724  0.2914  0.4003  0.8788
  246MPD1     N 3791   1.327   2.364  10.024 -0.6745 -0.0801 -0.2426
  246MPD1    H5 3792   1.356   2.344  10.119 -2.6364  0.0308  0.3861
  246MPD1    N1 3793   1.525   2.804  10.089 -0.0081 -0.2829  0.8633
  246MPD1    H6 3794   1.587   2.763  10.159  0.3983  0.6867  1.0760
  246MPD1    H7 3795   1.567   2.886  10.046 -1.2862 -1.3770 -2.4821
  247MPD1     C 3796   4.198   0.031  16.860  0.9277 -0.6855  0.6447
  247MPD1    C1 3797   4.236   4.635  16.853  0.6956 -1.1403 -0.4302
  247MPD1    C2 3798   4.264   4.576  16.732  0.1977  0.4721 -0.4411
  247MPD1    C3 3799   4.255   4.645  16.612 -0.2537  0.4439 -0.0179
  247MPD1    C4 3800   4.218   0.044  16.618 -0.2481  0.4705 -0.8610
  247MPD1    C5 3801   4.198   0.102  16.744 -0.4586 -0.3511  0.6631
  247MPD1     H 3802   4.297   4.473  16.741  0.8692  0.7192 -0.0493
  247MPD1    H1 3803   4.204   0.106  16.531 -0.6505  1.9347  0.2420
  247MPD1    H2 3804   4.182   0.076  16.957 -0.8723  1.8015 -0.8169
  247MPD1    H3 3805   4.175   0.208  16.752  0.5464  0.0936 -2.6251
  247MPD1     N 3806   4.290   4.588  16.486 -0.1892 -0.1394 -0.3735
  247MPD1    H5 3807   4.292   4.657  16.412  0.3819  1.9988  1.6492
  247MPD1    N1 3808   4.213   4.554  16.969  0.3323 -0.1699  0.2634
  247MPD1    H6 3809   4.256   4.603  17.047 -0.1970  0.2078  0.3233
  247MPD1    H7 3810   4.248   4.459  16.959  0.2919 -0.1186 -0.4015
  248MPD1     C 3811   0.671   3.606  17.451 -0.5811  0.3162 -0.3037
  248MPD1    C1 3812   0.709   3.731  17.473 -0.3329  0.8118  0.0295
  248MPD1    C2 3813   0.682   3.796  17.595  0.3575 -0.2226  0.1354
  248MPD1    C3 3814   0.618   3.725  17.698 -1.0725 -0.3401 -0.1674
  248MPD1    C4 3815   0.582   3.594  17.670  0.2931  0.4176 -0.3511
  248MPD1    C5 3816   0.615   3.532  17.551 -0.3183 -0.0072 -0.7524
  248MPD1     H 3817   0.717   3.897  17.605 -0.2509 -0.2733  2.7009
  248MPD1    H1 3818   0.528   3.540   0.007  1.2350  0.3260  0.2536
  248MPD1    H2 3819   0.686   3.559  17.354 -2.2177 -2.1737  0.6560
  248MPD1    H3 3820   0.596   3.425  17.539 -1.2628 -0.1841  2.2893
  248MPD1     N 3821   0.579   3.789   0.080 -0.0647  0.6422 -0.0042
  248MPD1    H5 3822   0.593   3.889   0.096  3.6636 -0.4509  3.5453
  248MPD1    N1 3823   0.767   3.795  17.369 -0.1489  0.1284 -0.3165
  248MPD1    H6 3824   0.813   3.881  17.398  2.0835 -0.7237 -1.3927
  248MPD1    H7 3825   0.828   3.733  17.317  1.2632  1.4780 -0.2583
  249MPD1     C 3826   2.527   2.741  10.051  0.4610 -0.8638  0.4029
  249MPD1    C1 3827   2.627   2.828  10.087 -0.4076 -0.2616 -0.3177
  249MPD1    C2 3828   2.603   2.961  10.068 -0.0071  0.3934  0.3316
  249MPD1    C3 3829   2.481   3.008  10.024 -0.1429 -0.5822 -0.9252
  249MPD1    C4 3830   2.377   2.916  10.012 -0.3843  0.6832  0.4434
  249MPD1    C5 3831   2.404   2.786  10.029 -0.5704 -0.2303  0.0850
  249MPD1     H 3832   2.684   3.031  10.083 -0.1900  0.7137 -0.1830
  249MPD1    H1 3833   2.280   2.958   9.988 -0.9137 -1.1170 -0.5252
  249MPD1    H2 3834   2.549   2.635  10.037 -0.6046 -0.8916 -1.1426
  249MPD1    H3 3835   2.324   2.719  10.000  1.0977 -1.1443 -2.4232
  249MPD1     N 3836   2.466   3.146   9.981 -0.1122  0.2230  0.1902
  249MPD1    H5 3837   2.534   3.216  10.010  0.9868 -0.6222 -0.3438
  249MPD1    N1 3838   2.755   2.778  10.109  0.4337 -0.1685  0.1597
  249MPD1    H6 3839   2.749   2.680  10.137  0.0205 -0.3552 -0.5586
  249MPD1    H7 3840   2.811   2.836  10.170  1.0599  1.5216 -2.0162
  250MPD2     C 3841   3.077   3.760  13.357  0.3165  0.5065 -0.4902
  250MPD2    C1 3842   3.113   3.779  13.227  0.2401  0.0391  0.1510
  250MPD2    C2 3843   3.081   3.676  13.139 -1.0165 -0.5789  1.0851
  250MPD2    C3 3844   3.007   3.562  13.176  0.1426  0.1219 -0.0041
  250MPD2    C4 3845   2.981   3.553  13.309 -1.2176  0.9016  0.5514
  250MPD2    C5 3846   3.025   3.641  13.406  0.4568  0.1773 -0.4642
  250MPD2     H 3847   3.097   3.689  13.032  1.3473 -1.5299  1.3158
  250MPD2    H1 3848   2.922   3.471  13.349 -2.2027  0.6392 -1.4173
  250MPD2    H2 3849   3.104   3.835  13.430  0.3706 -0.0462  0.0504
  250MPD2    H3 3850   3.001   3.639  13.512  0.5349 -0.4699 -0.4648
  250MPD2     N 3851   2.976   3.454  13.088  0.0153  0.3849 -0.0672
  250MPD2    H5 3852   2.955   3.364  13.130  0.0436 -0.1717 -1.2578
  250MPD2    N1 3853   3.169   3.899  13.185  0.9231  0.4650  0.2122
  250MPD2    H7 3854   3.186   3.969  13.256 -0.9379 -0.0314  1.1310
  251TMC3    C1 3855   3.301   4.052  13.051  0.1224  0.3217 -0.1584
  251TMC3    C2 3856   3.285   4.151  13.141 -0.5090 -0.9964  0.1264
  251TMC3    C3 3857   3.380   4.245  13.149 -0.3703  0.2738 -0.0513
  251TMC3    C4 3858   3.410   4.045  12.968 -0.0411 -0.0415  0.0226
  251TMC3    C5 3859   3.504   4.147  12.978  0.4393 -0.0646 -0.2473
  251TMC3    C6 3860   3.493   4.249  13.062  0.9755  0.2718 -0.6447
  251TMC3     C 3861   3.220   3.928  13.058  0.3014  0.5431 -0.5408
  251TMC3     O 3862   3.221   3.853  12.961  0.0466 -0.1524  0.0781
  251TMC3     H 3863   3.201   4.159  13.208 -0.9745  2.3808 -0.8692
  251TMC3    H1 3864   3.424   3.959  12.904  0.3528 -0.6429  0.9092
  251TMC3    H2 3865   3.558   4.335  13.066 -0.4961  1.4348 -1.7798
  251TMC3    C7 3866   3.637   4.091  12.986  0.2658 -0.1165 -0.5586
  251TMC3    C8 3867   3.363   4.355  13.246  0.2168 -0.2095  0.2686
  251TMC3    O1 3868   3.636   3.969  13.004 -0.0630 -0.3094 -0.1382
  251TMC3    O2 3869   3.295   4.323  13.345  0.2569  0.0495 -0.4507
  252TMC3    C1 3870   3.296   0.288   9.343  0.4013  0.0725  0.0408
  252TMC3    C2 3871   3.420   0.344   9.344 -0.0011  0.4335  0.7999
  252TMC3    C3 3872   3.523   0.270   9.404 -0.0179  0.3611  0.3927
  252TMC3    C4 3873   3.270   0.159   9.386 -0.2415  0.0403 -0.4687
  252TMC3    C5 3874   3.372   0.092   9.429  0.1524  0.8042 -0.5864
  252TMC3    C6 3875   3.502   0.135   9.436 -0.2988  0.2348 -0.3547
  252TMC3     C 3876   3.182   0.372   9.306 -0.1532  1.0966  0.0427
  252TMC3     O 3877   3.072   0.338   9.356  0.7416  0.3195 -0.5833
  252TMC3     H 3878   3.436   0.452   9.345 -1.7600  0.7138 -0.8632
  252TMC3    H1 3879   3.170   0.120   9.368  0.8263 -1.4366 -3.1709
  252TMC3    H2 3880   3.586   0.070   9.461  1.0754  1.2558 -2.2889
  252TMC3    C7 3881   3.337   4.689   9.465 -0.5097  0.9110 -1.0106
  252TMC3    C8 3882   3.649   0.334   9.427  1.3228 -0.2761  0.1609
  252TMC3    O1 3883   3.221   4.660   9.456  0.2204 -0.2866  0.2904
  252TMC3    O2 3884   3.675   0.431   9.362 -0.2290 -0.3536 -0.1727
  253MPD2     C 3885   0.045   3.536  15.051 -0.5140  0.1345 -0.4344
  253MPD2    C1 3886   4.651   3.510  15.049  0.5380 -0.7146 -0.5156
  253MPD2    C2 3887   4.583   3.495  15.169  0.0961 -0.0162  0.4070
  253MPD2    C3 3888   4.644   3.510  15.288 -0.3648 -0.0957 -0.8744
  253MPD2    C4 3889   0.046   3.525  15.288  0.1451  0.0203  0.4297
  253MPD2    C5 3890   0.118   3.543  15.167 -0.4363 -0.1156 -0.2437
  253MPD2     H 3891   4.481   3.458  15.166  0.6805 -1.4784 -1.3809
  253MPD2    H1 3892   0.098   3.526  15.383  0.6368 -0.1939  0.1616
  253MPD2    H2 3893   0.104   3.549  14.961  1.5906 -1.5416  0.6820
  253MPD2    H3 3894   0.223   3.572  15.173 -0.5968  0.1412  1.4416
  253MPD2     N 3895   4.577   3.490  15.411 -0.1530  0.2961 -0.3711
  253MPD2    H5 3896   4.635   3.492  15.494  2.5439 -0.4128 -2.2104
  253MPD2    N1 3897   4.562   3.503  14.940 -0.0165 -0.2090 -0.8325
  253MPD2    H7 3898   4.462   3.498  14.957  0.2553 -0.3967  0.7162
  254TMC3    C1 3899   4.388   3.482  15.560 -0.5212  0.2672  0.1008
  254TMC3    C2 3900   4.253   3.481  15.576 -0.3029  0.6438  0.2339
  254TMC3    C3 3901   4.200   3.435  15.697 -0.0513 -0.3512  0.4503
  254TMC3    C4 3902   4.474   3.431  15.653 -0.2013  0.0878  0.0615
  254TMC3    C5 3903   4.419   3.400  15.774  0.0714 -0.8408  0.8184
  254TMC3    C6 3904   4.287   3.386  15.790 -0.3356 -0.4890 -0.3823
  254TMC3     C 3905   4.440   3.502  15.427  0.0027 -0.4425  0.2316
  254TMC3     O 3906   4.366   3.539  15.337 -0.7971 -0.0033  0.2693
  254TMC3     H 3907   4.185   3.514  15.499  1.8533 -0.1560 -2.0317
  254TMC3    H1 3908   4.575   3.402  15.626 -0.6644 -1.1564 -0.3120
  254TMC3    H2 3909   4.245   3.339  15.879 -0.3815 -0.6244 -0.4762
  254TMC3    C7 3910   4.503   3.388  15.887 -0.4250  0.1949 -0.4773
  254TMC3    C8 3911   4.087   3.495  15.763  0.0125  0.5058  0.3914
  254TMC3    O1 3912   4.450   3.328  15.979  0.0125  0.8109 -0.1325
  254TMC3    O2 3913   4.084   3.469  15.886 -0.3669  0.3984 -0.2352
  255MPD2     C 3914   3.094   1.062  10.318 -0.4021  0.7169  0.3019
  255MPD2    C1 3915   3.100   1.081  10.180  0.2642  0.4004 -0.3383
  255MPD2    C2 3916   3.085   0.971  10.101 -0.6956 -0.8796 -0.2577
  255MPD2    C3 3917   3.069   0.847  10.163 -0.0203  0.0262  0.1700
  255MPD2    C4 3918   3.079   0.831  10.300 -0.7653 -0.1554  0.4647
  255MPD2    C5 3919   3.073   0.943  10.377 -0.0519  0.0686  0.2633
  255MPD2     H 3920   3.071   0.986   9.994  2.1919 -0.7532 -0.6103
  255MPD2    H1 3921   3.075   0.739  10.358 -0.4472 -1.0328 -0.9129
  255MPD2    H2 3922   3.117   1.146  10.382  0.5851  0.4228  0.3360
  255MPD2    H3 3923   3.079   0.939  10.485 -0.1842 -0.9056  0.2383
  255MPD2     N 3924   3.045   0.734  10.084 -0.5280 -0.1500 -0.1054
  255MPD2    H5 3925   3.014   0.648  10.127  1.1767  0.7386  2.8335
  255MPD2    N1 3926   3.140   1.212  10.140  0.2813  0.0584 -1.0817
  255MPD2    H7 3927   3.163   1.282  10.210  0.9133  0.3177 -1.5485
  256TMC3    C1 3928   3.205   1.386  10.007 -0.1206 -0.5021  0.3462
  256TMC3    C2 3929   3.317   1.431   9.935 -0.0885 -0.6369  0.4230
  256TMC3    C3 3930   3.353   1.563   9.948 -0.2721  0.5033 -0.3238
  256TMC3    C4 3931   3.128   1.477  10.071 -0.5643  0.7495 -0.0144
  256TMC3    C5 3932   3.161   1.606  10.066 -0.3712  0.0787  0.3177
  256TMC3    C6 3933   3.276   1.658  10.015 -0.0189 -0.1089  0.5006
  256TMC3     C 3934   3.177   1.248  10.010 -0.1156 -0.0265  0.4014
  256TMC3     O 3935   3.193   1.176   9.906 -0.3096  0.2828  0.3823
  256TMC3     H 3936   3.374   1.362   9.874  3.3600  3.0035 -0.4313
  256TMC3    H1 3937   3.033   1.442  10.109 -0.6733  0.1078 -0.8862
  256TMC3    H2 3938   3.288   1.763   9.992 -1.0835  0.2388  1.5213
  256TMC3    C7 3939   3.065   1.701  10.101  0.1569 -0.7703  0.0850
  256TMC3    C8 3940   3.480   1.593   9.885 -0.6817 -0.2811  0.2922
  256TMC3    O1 3941   2.950   1.680  10.072 -0.0304 -0.1817  0.2808
  256TMC3    O2 3942   3.552   1.496   9.857  0.4025  0.0866  0.2733
  257MPD2     C 3943   2.197   3.366  13.683 -0.5259  0.0209 -0.0276
  257MPD2    C1 3944   2.249   3.308  13.563 -0.3285 -0.4301 -0.2720
  257MPD2    C2 3945   2.293   3.177  13.569 -0.1554  0.1157  0.4734
  257MPD2    C3 3946   2.273   3.097  13.687 -0.5015  0.3176  0.6176
  257MPD2    C4 3947   2.207   3.148  13.798 -0.4389 -0.0965  1.2261
  257MPD2    C5 3948   2.173   3.285  13.794 -0.3180  0.5001 -0.2059
  257MPD2     H 3949   2.329   3.129  13.479 -0.9986 -0.8923  0.6698
  257MPD2    H1 3950   2.181   3.080  13.878 -1.0940 -0.8914  0.3257
  257MPD2    H2 3951   2.181   3.474  13.679  1.3048  0.1987 -2.5376
  257MPD2    H3 3952   2.122   3.330  13.879 -1.8699 -1.5909 -0.0323
  257MPD2     N 3953   2.308   2.962  13.676  0.3547 -0.2937 -0.0477
  257MPD2    H5 3954   2.350   2.933  13.589  3.5704  0.4149  1.2619
  257MPD2    N1 3955   2.280   3.392  13.457 -0.0429 -0.1279  0.3674
  257MPD2    H7 3956   2.248   3.488  13.470 -0.6494 -0.1101 -1.1844
  258TMC3    C1 3957   2.344   2.742  13.717 -0.6449  0.0838 -0.0911
  258TMC3    C2 3958   2.277   2.699  13.603  0.6954  0.2927  0.1490
  258TMC3    C3 3959   2.262   2.569  13.581 -0.2237  0.8864 -0.9722
  258TMC3    C4 3960   2.381   2.645  13.811 -0.4817  0.0289 -0.3207
  258TMC3    C5 3961   2.361   2.514  13.789 -0.4906 -0.3681 -0.2628
  258TMC3    C6 3962   2.299   2.474  13.671  0.1802  0.6722  1.2469
  258TMC3     C 3963   2.306   2.866  13.773  0.0642 -0.1135  0.3062
  258TMC3     O 3964   2.281   2.876  13.888 -0.2574  0.2215  0.1089
  258TMC3     H 3965   2.239   2.766  13.526 -0.7229 -1.0826 -0.3634
  258TMC3    H1 3966   2.405   2.682  13.910 -0.8182 -2.1062  0.5544
  258TMC3    H2 3967   2.288   2.367  13.669 -0.4767  0.7145  2.8635
  258TMC3    C7 3968   2.373   2.423  13.893 -0.0143 -0.6874  0.4929
  258TMC3    C8 3969   2.258   2.537  13.441  0.3475  0.0092 -0.6197
  258TMC3    O1 3970   2.306   2.318  13.891 -0.1367  0.2503  0.0705
  258TMC3    O2 3971   2.218   2.622  13.364 -0.6615 -0.4295  0.0028
  259MPD2     C 3972   0.758   0.421   0.699 -0.0301  0.1321  0.1174
  259MPD2    C1 3973   0.838   0.319   0.743 -0.0168 -0.2107 -0.8273
  259MPD2    C2 3974   0.929   0.260   0.656 -0.1428  0.4445  1.0889
  259MPD2    C3 3975   0.950   0.306   0.527 -0.0399 -0.4215 -0.3801
  259MPD2    C4 3976   0.876   0.414   0.481  0.0849  0.3057  0.2825
  259MPD2    C5 3977   0.790   0.473   0.570  0.6372  0.5233  0.1281
  259MPD2     H 3978   0.995   0.178   0.683  0.7351  0.2849 -1.4975
  259MPD2    H1 3979   0.892   0.458   0.384 -1.7615 -2.5410 -1.3041
  259MPD2    H2 3980   0.680   0.458   0.763  0.0031 -0.0596  0.2692
  259MPD2    H3 3981   0.737   0.560   0.533  1.1661  0.6106 -0.4436
  259MPD2     N 3982   1.047   0.247   0.447  0.1289 -0.6780  0.7324
  259MPD2    H5 3983   1.087   0.159   0.480  0.6445 -0.8376 -0.3427
  259MPD2    N1 3984   0.833   0.288   0.882  0.0129  0.0852  0.3126
  259MPD2    H7 3985   0.769   0.334   0.946  0.3792  0.8809  0.1089
  260TMC3    C1 3986   1.216   0.217   0.274 -0.6003  0.9087 -0.5716
  260TMC3    C2 3987   1.291   0.298   0.191 -0.5314  0.3098 -0.3897
  260TMC3    C3 3988   1.405   0.243   0.141 -0.8297 -0.1222  0.8835
  260TMC3    C4 3989   1.252   0.095   0.310 -0.2946  0.6118 -0.8451
  260TMC3    C5 3990   1.365   0.041   0.255  1.0245  0.0079 -0.2639
  260TMC3    C6 3991   1.449   0.117   0.178  0.0797  0.7026 -0.3873
  260TMC3     C 3992   1.089   0.286   0.326  0.0576 -0.0995 -0.1792
  260TMC3     O 3993   1.053   0.379   0.258 -0.0147  0.1474 -0.5502
  260TMC3     H 3994   1.254   0.396   0.162 -0.5776  0.4361  0.0988
  260TMC3    H1 3995   1.182   0.042   0.373 -0.0788  2.2175  0.7399
  260TMC3    H2 3996   1.543   0.078   0.143  0.2212  0.4300  0.2880
  260TMC3    C7 3997   1.362   4.643   0.199 -0.3675 -0.0476  0.5900
  260TMC3    C8 3998   1.429   0.275  17.734  0.6622  0.6957  0.3060
  260TMC3    O1 3999   1.419   4.639   0.095 -0.6547  0.3867  0.5435
  260TMC3    O2 4000   1.410   0.391  17.702  0.0766  0.3216 -0.1012
  261MPD2     C 4001   2.775   3.263  12.280  0.8762 -0.2830  0.3149
  261MPD2    C1 4002   2.838   3.360  12.364  0.0805  0.7121  1.3196
  261MPD2    C2 4003   2.884   3.472  12.302 -0.1331 -0.2633  0.1889
  261MPD2    C3 4004   2.879   3.487  12.163  0.6868 -1.0874 -0.2756
  261MPD2    C4 4005   2.825   3.388  12.082  0.0552  0.5796 -0.2038
  261MPD2    C5 4006   2.773   3.277  12.139  0.1146  0.0857  0.2572
  261MPD2     H 4007   2.933   3.560  12.343  0.4702 -0.0832 -0.9159
  261MPD2    H1 4008   2.813   3.403  11.975  0.9030 -1.7957 -0.6203
  261MPD2    H2 4009   2.726   3.175  12.321  2.5749 -1.6748 -0.6454
  261MPD2    H3 4010   2.733   3.196  12.079 -0.0499  0.2296  0.1711
  261MPD2     N 4011   2.933   3.599  12.094 -0.0643  0.5861 -0.8639
  261MPD2    H5 4012   2.977   3.671  12.152  0.5184 -2.0353  1.9581
  261MPD2    N1 4013   2.858   3.344  12.504 -0.2599  0.4520 -0.3527
  261MPD2    H7 4014   2.898   3.419  12.559  1.5025 -0.8169  0.1117
  262TMC3    C1 4015   3.014   3.723  11.908  0.4251  0.1390  0.8215
  262TMC3    C2 4016   2.953   3.837  11.956  0.7394 -0.2212 -0.5751
  262TMC3    C3 4017   2.980   3.956  11.891 -0.3539 -0.8492  0.3905
  262TMC3    C4 4018   3.100   3.722  11.803  0.1661 -0.3547  0.3356
  262TMC3    C5 4019   3.127   3.849  11.745  0.1719  0.3723  0.5917
  262TMC3    C6 4020   3.067   3.961  11.785  0.0438  0.0044  0.1654
  262TMC3     C 4021   2.967   3.598  11.962  1.0824  0.7884  0.3447
  262TMC3     O 4022   2.970   3.514  11.876  0.3456 -0.4326 -0.5412
  262TMC3     H 4023   2.882   3.832  12.037  1.7441  0.3716  0.3382
  262TMC3    H1 4024   3.131   3.623  11.772 -0.7761  0.4376 -3.1001
  262TMC3    H2 4025   3.092   4.055  11.737  0.3159 -0.0665  0.1636
  262TMC3    C7 4026   3.211   3.856  11.627 -0.4891  0.5358 -0.0019
  262TMC3    C8 4027   2.903   4.079  11.922  0.4082 -0.1329 -0.7322
  262TMC3    O1 4028   3.216   3.966  11.565 -0.6664  0.2903  0.4096
  262TMC3    O2 4029   2.966   4.184  11.920 -0.5267  0.4156  0.8062
  263MPD2     C 4030   4.113   2.368  11.212 -0.3362  0.0668 -0.0969
  263MPD2    C1 4031   4.175   2.474  11.273 -0.0659 -0.6846 -0.4390
  263MPD2    C2 4032   4.141   2.600  11.227  0.0155 -0.2155  0.2006
  263MPD2    C3 4033   4.050   2.619  11.123  0.3550  0.4091 -0.3468
  263MPD2    C4 4034   3.984   2.511  11.068  0.3066  0.8531  0.2148
  263MPD2    C5 4035   4.013   2.392  11.116 -0.6060 -0.2647  0.6698
  263MPD2     H 4036   4.191   2.683  11.275 -0.4436 -0.9895  2.0275
  263MPD2    H1 4037   3.902   2.524  10.998 -0.4241  1.7198  1.2253
  263MPD2    H2 4038   4.129   2.266  11.243 -0.5557  0.4940  1.4232
  263MPD2    H3 4039   3.957   2.305  11.085 -1.4035  0.5428 -0.1419
  263MPD2     N 4040   4.030   2.749  11.073 -0.4894  0.1196  0.0500
  263MPD2    H5 4041   4.089   2.819  11.118  0.0059  0.3073 -0.9084
  263MPD2    N1 4042   4.279   2.453  11.368 -0.0608  0.2275 -0.0130
  263MPD2    H7 4043   4.319   2.360  11.373 -1.6600 -0.4510 -0.0763
  264TMC3    C1 4044   3.981   2.934  10.920 -0.5843  0.8487 -0.4957
  264TMC3    C2 4045   3.953   3.040  11.002 -0.2607 -0.2555 -0.0304
  264TMC3    C3 4046   3.952   3.166  10.946  0.3502  0.6400  0.4322
  264TMC3    C4 4047   3.994   2.952  10.786  0.2407  0.3400 -0.1911
  264TMC3    C5 4048   3.989   3.077  10.730 -0.0142  0.0096  0.1313
  264TMC3    C6 4049   3.970   3.184  10.812 -0.4537 -0.2944 -0.0648
  264TMC3     C 4050   3.960   2.792  10.958 -0.9654  0.5178  0.2688
  264TMC3     O 4051   3.886   2.730  10.882 -0.4351  0.0286 -0.3455
  264TMC3     H 4052   3.951   3.033  11.110  0.6314 -1.7132 -0.1158
  264TMC3    H1 4053   4.019   2.865  10.726  0.4550  0.9569 -1.0086
  264TMC3    H2 4054   3.959   3.283  10.769 -3.3623 -2.1570 -3.6048
  264TMC3    C7 4055   4.093   3.096  10.632  0.1782  0.1071 -0.3739
  264TMC3    C8 4056   4.024   3.273  11.013 -0.2967  0.1097 -0.3039
  264TMC3    O1 4057   4.138   3.003  10.570  0.5703 -0.8616 -0.1460
  264TMC3    O2 4058   4.098   3.328  10.928  0.7504  0.0214  0.1018
  265MPD2     C 4059   0.980   3.006  15.855  0.4803 -0.5521  0.1614
  265MPD2    C1 4060   0.964   3.119  15.773 -0.3293  0.2003 -0.3841
  265MPD2    C2 4061   1.000   3.100  15.638  0.0395 -0.5103 -0.2853
  265MPD2    C3 4062   1.044   2.978  15.591 -0.4253 -0.3999 -0.5832
  265MPD2    C4 4063   1.043   2.872  15.673  0.5538  0.2155  0.0992
  265MPD2    C5 4064   1.028   2.884  15.808 -0.3980  0.6199 -0.3885
  265MPD2     H 4065   0.989   3.185  15.572  0.8028 -0.6425 -0.5887
  265MPD2    H1 4066   1.064   2.772  15.637 -0.9699 -0.6804  1.6954
  265MPD2    H2 4067   0.954   3.009  15.960 -0.4147 -1.0564 -0.0406
  265MPD2    H3 4068   1.024   2.791  15.864  1.0886  1.1952  0.6403
  265MPD2     N 4069   1.083   2.947  15.459  0.3150  0.5968  0.6346
  265MPD2    H5 4070   1.086   2.849  15.432  1.4866  0.7041  0.3646
  265MPD2    N1 4071   0.932   3.247  15.824  0.3460  0.1959  0.7183
  265MPD2    H7 4072   0.926   3.318  15.752 -1.4000 -0.6304  0.0410
  266TMC3    C1 4073   0.899   3.425  15.982  0.3268 -0.1853  0.0210
  266TMC3    C2 4074   0.944   3.489  16.089 -0.2995 -0.1378  0.7226
  266TMC3    C3 4075   0.882   3.612  16.116  0.4331  0.2181  1.1233
  266TMC3    C4 4076   0.798   3.477  15.906  0.5615  0.1642 -0.4059
  266TMC3    C5 4077   0.739   3.594  15.934 -0.2255 -0.6743 -0.0809
  266TMC3    C6 4078   0.785   3.666  16.043  0.7399  0.3527  0.5548
  266TMC3     C 4079   0.954   3.291  15.955 -1.1194  0.6796  0.4090
  266TMC3     O 4080   1.023   3.242  16.044  0.4148  0.0114 -0.4072
  266TMC3     H 4081   1.029   3.447  16.142  1.1368 -0.4356 -1.7958
  266TMC3    H1 4082   0.757   3.425  15.820 -2.2423 -0.5809  1.3995
  266TMC3    H2 4083   0.756   3.770  16.051 -0.3744 -0.0420  1.6249
  266TMC3    C7 4084   0.711   3.673  15.822 -0.1662  0.9174 -0.4467
  266TMC3    C8 4085   0.949   3.696  16.219  0.6824 -0.8324  0.0403
  266TMC3    O1 4086   0.790   3.769  15.803 -0.2399  0.7228  0.1646
  266TMC3    O2 4087   1.047   3.640  16.256  1.0617  0.2625 -0.2551
  267MPD2     C 4088   3.207   0.584   0.446  0.7481  0.1333 -0.2307
  267MPD2    C1 4089   3.293   0.522   0.359 -0.2982  0.6389  0.0679
  267MPD2    C2 4090   3.276   0.515   0.224  0.0960 -0.0197  0.0713
  267MPD2    C3 4091   3.173   0.591   0.170 -0.1537 -0.4098 -0.2809
  267MPD2    C4 4092   3.088   0.669   0.252  0.6904 -0.1232  0.2494
  267MPD2    C5 4093   3.114   0.669   0.386 -0.1928  0.3303  0.6015
  267MPD2     H 4094   3.346   0.453   0.169  0.1840  0.1329  0.0119
  267MPD2    H1 4095   3.003   0.721   0.208 -1.7044 -1.7268  3.0160
  267MPD2    H2 4096   3.203   0.584   0.554 -1.6605 -0.2405 -0.3344
  267MPD2    H3 4097   3.039   0.722   0.443 -1.1933 -0.0261 -0.3936
  267MPD2     N 4098   3.145   0.611   0.033  0.7707 -0.1347  0.4094
  267MPD2    H5 4099   3.076   0.682   0.012  3.1674  1.9640 -0.4286
  267MPD2    N1 4100   3.395   0.457   0.433  0.3354  0.4225 -0.7870
  267MPD2    H7 4101   3.410   0.473   0.532  0.2048  0.8754 -0.8431
  268TMC3    C1 4102   3.593   0.329   0.475  0.1967 -0.2558 -0.0929
  268TMC3    C2 4103   3.726   0.324   0.436 -0.3031 -0.6251 -0.4611
  268TMC3    C3 4104   3.820   0.282   0.524 -0.3265  0.5075  0.6026
  268TMC3    C4 4105   3.560   0.282   0.604 -0.6521 -0.2554 -0.4912
  268TMC3    C5 4106   3.653   0.270   0.699  0.1326 -0.2742  0.5250
  268TMC3    C6 4107   3.786   0.253   0.653 -0.3269 -0.4913 -0.0309
  268TMC3     C 4108   3.496   0.378   0.380 -0.1649  0.5693 -0.0649
  268TMC3     O 4109   3.517   0.362   0.260  0.0990  0.6069  0.3129
  268TMC3     H 4110   3.753   0.367   0.340  0.7396  0.8943  0.5069
  268TMC3    H1 4111   3.454   0.285   0.628 -0.1197 -0.1057  1.8815
  268TMC3    H2 4112   3.859   0.216   0.724  0.1284  1.9635  0.7823
  268TMC3    C7 4113   3.622   0.215   0.828  0.1905 -0.6020  0.8473
  268TMC3    C8 4114   3.960   0.318   0.500  0.2479  0.4064  0.0273
  268TMC3    O1 4115   3.720   0.167   0.888 -0.0952 -0.3329 -0.4919
  268TMC3    O2 4116   4.038   0.326   0.594 -0.3260  0.6633  0.0899
  269MPD2     C 4117   3.738   3.790  15.407 -0.5813  0.2036  0.1005
  269MPD2    C1 4118   3.651   3.820  15.510  0.2464  0.5879 -0.0930
  269MPD2    C2 4119   3.569   3.936  15.498  0.0648 -0.3615  0.3424
  269MPD2    C3 4120   3.588   4.024  15.393  0.0152 -0.7240  0.0687
  269MPD2    C4 4121   3.669   3.986  15.286 -0.0463  0.4305 -0.1699
  269MPD2    C5 4122   3.733   3.868  15.290  0.3370  0.5339 -0.5037
  269MPD2     H 4123   3.501   3.967  15.577  1.9263 -1.6136  2.4291
  269MPD2    H1 4124   3.683   4.048  15.198  0.5664 -1.7860 -1.6555
  269MPD2    H2 4125   3.799   3.700  15.406 -1.9712 -0.7464  0.5004
  269MPD2    H3 4126   3.795   3.832  15.209  2.5073  0.1966  1.3081
  269MPD2     N 4127   3.506   4.139  15.388 -0.1297  0.3829  0.1209
  269MPD2    H5 4128   3.440   4.149  15.465 -0.9810  1.5521 -0.7626
  269MPD2    N1 4129   3.644   3.730  15.627 -0.4914 -0.4636 -0.5194
  269MPD2    H7 4130   3.694   3.642  15.617  0.4075  0.0760 -0.8092
  270TMC3    C1 4131   3.515   3.616  15.779  0.1582  0.1569 -0.2890
  270TMC3    C2 4132   3.386   3.583  15.779 -0.1705 -0.3268  0.7132
  270TMC3    C3 4133   3.349   3.447  15.781 -0.2697  0.0586  0.1404
  270TMC3    C4 4134   3.617   3.530  15.794 -0.1552  0.0606 -0.1323
  270TMC3    C5 4135   3.582   3.397  15.799  0.8251  0.0601  1.2098
  270TMC3    C6 4136   3.452   3.356  15.783  0.0433  0.0313 -0.1111
  270TMC3     C 4137   3.548   3.740  15.716 -0.5973 -0.8271  0.1099
  270TMC3     O 4138   3.464   3.827  15.730 -0.2371  0.3004  0.4790
  270TMC3     H 4139   3.308   3.652  15.749  0.2767 -0.6707 -1.2496
  270TMC3    H1 4140   3.719   3.556  15.820 -0.6224  1.2497  0.5344
  270TMC3    H2 4141   3.429   3.251  15.780  2.1233 -0.3850 -1.1932
  270TMC3    C7 4142   3.683   3.301  15.808 -0.1650 -0.3227  0.2972
  270TMC3    C8 4143   3.251   3.415  15.681  1.1010  0.2321  0.1826
  270TMC3    O1 4144   3.792   3.333  15.769  0.1773  0.0458 -0.8960
  270TMC3    O2 4145   3.152   3.484  15.680 -0.2046 -0.0584 -0.2403
  271MPD2     C 4146   2.872   3.794  14.169 -0.1711  0.1917  0.6007
  271MPD2    C1 4147   2.775   3.697  14.166  0.3855 -0.7875  0.2290
  271MPD2    C2 4148   2.647   3.732  14.131 -0.0985  0.8655  0.0144
  271MPD2    C3 4149   2.603   3.863  14.112 -0.6202 -0.6186  0.3958
  271MPD2    C4 4150   2.699   3.960  14.115  0.1625 -0.0739 -0.5823
  271MPD2    C5 4151   2.832   3.923  14.141  0.0685 -0.4929  0.0934
  271MPD2     H 4152   2.575   3.652  14.147 -0.5540  1.7005  2.1194
  271MPD2    H1 4153   2.668   4.061  14.091 -0.5808 -0.3053 -0.5919
  271MPD2    H2 4154   2.977   3.780  14.193 -0.7920 -0.7724  2.7463
  271MPD2    H3 4155   2.897   4.008  14.152 -3.0724  1.7268  1.4067
  271MPD2     N 4156   2.472   3.898  14.067 -0.3390  0.1618  0.0093
  271MPD2    H5 4157   2.451   3.997  14.053 -0.1091  0.3118  0.7502
  271MPD2    N1 4158   2.811   3.563  14.206 -0.6405 -0.0841  0.4544
  271MPD2    H7 4159   2.733   3.502  14.228 -0.5514 -0.7298 -1.0060
  272TMC3    C1 4160   2.943   3.366  14.225 -0.2331  0.2578 -0.3100
  272TMC3    C2 4161   3.062   3.306  14.202  0.7934  0.4868  0.2827
  272TMC3    C3 4162   3.101   3.209  14.287 -0.2297 -0.0893  0.3853
  272TMC3    C4 4163   2.860   3.326  14.335  0.4673 -0.5731 -1.1894
  272TMC3    C5 4164   2.912   3.233  14.419 -0.6257 -0.2108 -0.0585
  272TMC3    C6 4165   3.033   3.171  14.394 -0.3901  0.5007 -0.4786
  272TMC3     C 4166   2.928   3.500  14.173  0.0447  0.3956  1.0527
  272TMC3     O 4167   3.012   3.535  14.089 -0.0114  0.7060 -0.0283
  272TMC3     H 4168   3.109   3.321  14.105  1.0801 -2.0012  0.0197
  272TMC3    H1 4169   2.764   3.371  14.354  0.6094 -1.2634  1.1080
  272TMC3    H2 4170   3.072   3.111  14.475  0.0647  0.4866 -0.7084
  272TMC3    C7 4171   2.847   3.249  14.548  0.0332  0.0772  0.2532
  272TMC3    C8 4172   3.246   3.183  14.273 -0.7579  0.1799  0.1481
  272TMC3    O1 4173   2.726   3.265  14.554 -0.1589 -0.2536 -0.1756
  272TMC3    O2 4174   3.299   3.235  14.178  0.2053  0.5573  0.2977
  273MPD2     C 4175   3.989   0.938  11.393 -0.4674  0.5050  0.3063
  273MPD2    C1 4176   4.104   0.969  11.459 -0.0525  0.5126  0.2945
  273MPD2    C2 4177   4.169   1.091  11.432 -0.8960 -0.1967 -0.0961
  273MPD2    C3 4178   4.128   1.172  11.333 -0.4226  0.3022 -0.3993
  273MPD2    C4 4179   4.031   1.126  11.249 -0.0752 -0.4743  0.6512
  273MPD2    C5 4180   3.951   1.020  11.292 -0.7288  0.6506 -0.4085
  273MPD2     H 4181   4.257   1.114  11.491 -0.1939 -0.8839 -0.8755
  273MPD2    H1 4182   3.994   1.182  11.164  1.5674 -0.5876 -0.1283
  273MPD2    H2 4183   3.929   0.851  11.418 -0.7041  0.4906 -0.2984
  273MPD2    H3 4184   3.854   1.012  11.245 -0.7075 -0.4697 -0.2625
  273MPD2     N 4185   4.181   1.291  11.298 -0.3570 -0.2107  0.6961
  273MPD2    H5 4186   4.155   1.315  11.203 -0.8973  0.5416  1.0349
  273MPD2    N1 4187   4.153   0.874  11.555 -0.2990 -0.0858  0.2708
  273MPD2    H7 4188   4.099   0.790  11.572 -0.3941  0.0100  0.4414
  274TMC3    C1 4189   4.298   1.489  11.310 -0.3584  0.0469 -0.2033
  274TMC3    C2 4190   4.209   1.548  11.226  0.0876 -0.2210 -0.1620
  274TMC3    C3 4191   4.256   1.638  11.139  0.3152  0.3102 -0.3204
  274TMC3    C4 4192   4.426   1.541  11.331  0.3652  0.2093  0.6305
  274TMC3    C5 4193   4.461   1.649  11.249 -0.2296 -0.3954  0.4334
  274TMC3    C6 4194   4.383   1.691  11.144 -0.1363  1.0419  0.4313
  274TMC3     C 4195   4.269   1.366  11.379  0.8104  0.2446 -0.4137
  274TMC3     O 4196   4.316   1.341  11.487  0.6285  0.5238  0.2678
  274TMC3     H 4197   4.114   1.502  11.204  0.1701 -0.0831 -0.8169
  274TMC3    H1 4198   4.493   1.498  11.404 -0.0212  1.0569  1.4788
  274TMC3    H2 4199   4.405   1.788  11.101  2.5433  0.0093 -0.4986
  274TMC3    C7 4200   4.571   1.734  11.279 -0.2309 -0.6969  0.1449
  274TMC3    C8 4201   4.173   1.662  11.025  0.4690 -0.2054 -0.4924
  274TMC3    O1 4202   4.569   1.847  11.232 -0.5167 -0.2564  0.6303
  274TMC3    O2 4203   4.061   1.609  11.023  0.3345  0.6429 -0.6416
  275MPD2     C 4204   3.943   4.610  15.143  0.1181  0.1772  0.3231
  275MPD2    C1 4205   3.980   4.565  15.026  0.5357 -0.3456 -0.2350
  275MPD2    C2 4206   3.901   4.480  14.958  0.2377  0.4991  0.2639
  275MPD2    C3 4207   3.790   4.428  15.021 -0.0846  0.0965  0.2897
  275MPD2    C4 4208   3.746   4.477  15.137  0.3882  0.5486 -0.5621
  275MPD2    C5 4209   3.822   4.570  15.198  0.2151 -0.4569 -0.3329
  275MPD2     H 4210   3.940   4.444  14.864  0.9691  2.5202 -0.1872
  275MPD2    H1 4211   3.656   4.444  15.188  0.7855  0.0532 -0.1802
  275MPD2    H2 4212   4.007   4.677  15.199 -0.8449  1.6895 -0.3890
  275MPD2    H3 4213   3.791   4.595  15.299  2.8030 -0.7001  0.5069
  275MPD2     N 4214   3.719   4.318  14.971  0.3090  0.6298  0.2567
  275MPD2    H5 4215   3.638   4.287  15.023 -1.1573  2.2050 -1.1040
  275MPD2    N1 4216   4.097   4.609  14.958 -0.0002 -0.1537 -0.1600
  275MPD2    H7 4217   4.116   4.562  14.870  2.5441  1.2738 -0.3696
  276TMC3    C1 4218   4.304   4.711  14.915 -0.7908  0.2806  0.5580
  276TMC3    C2 4219   4.336   4.604  14.838 -0.1876  0.0596 -0.1259
  276TMC3    C3 4220   4.461   4.604  14.786 -0.1564 -0.5639 -0.8082
  276TMC3    C4 4221   4.396   0.066  14.951  0.6210 -0.4628  0.1868
  276TMC3    C5 4222   4.524   0.063  14.899  0.4369  0.4619 -1.1441
  276TMC3    C6 4223   4.555   4.702  14.800 -0.0773  0.2506  0.8193
  276TMC3     C 4224   4.187   4.700  15.002  0.1170  0.3033  0.0578
  276TMC3     O 4225   4.199   0.014  15.113 -0.1579  0.3304 -0.3565
  276TMC3     H 4226   4.264   4.529  14.804  0.9832 -1.1535  0.0626
  276TMC3    H1 4227   4.381   0.138  15.030 -0.1669  1.4291 -1.6640
  276TMC3    H2 4228   4.648   4.696  14.744  0.1987  0.1801  1.2788
  276TMC3    C7 4229   4.626   0.089  15.000 -0.5699  0.2723 -0.1941
  276TMC3    C8 4230   4.489   4.519  14.677 -0.0160 -0.5415 -0.5927
  276TMC3    O1 4231   4.600   0.171  15.090 -0.1471  0.3125  0.3352
  276TMC3    O2 4232   4.549   4.568  14.585  0.1652  0.0762  0.8886
  277MPD2     C 4233   1.506   3.672  13.309 -0.3806  0.1705  0.2290
  277MPD2    C1 4234   1.375   3.700  13.332 -0.3704 -0.8211  0.2719
  277MPD2    C2 4235   1.314   3.635  13.437 -0.0284 -0.1234  0.2745
  277MPD2    C3 4236   1.384   3.550  13.518 -0.2686 -0.3156 -0.0182
  277MPD2    C4 4237   1.515   3.522  13.493  0.2821 -0.0829 -0.6177
  277MPD2    C5 4238   1.577   3.590  13.399 -0.0790 -0.0557  0.2183
  277MPD2     H 4239   1.214   3.650  13.474 -0.2650 -0.8410 -0.0785
  277MPD2    H1 4240   1.564   3.446  13.553  0.7197  0.9338  0.3175
  277MPD2    H2 4241   1.561   3.718  13.228 -1.6671  1.0236 -0.1615
  277MPD2    H3 4242   1.683   3.579  13.380 -0.3046 -0.7381 -0.6482
  277MPD2     N 4243   1.313   3.488  13.621 -0.1662  0.1843 -0.1742
  277MPD2    H5 4244   1.212   3.493  13.619 -0.1565  0.8090  0.9924
  277MPD2    N1 4245   1.304   3.782  13.242 -0.7113  0.2654 -0.2253
  277MPD2    H7 4246   1.368   3.818  13.171 -1.2610 -1.4971 -1.5860
  278TMC3    C1 4247   1.262   3.312  13.775  0.8556  0.1127 -0.4214
  278TMC3    C2 4248   1.293   3.188  13.808 -0.3501 -0.4337 -0.0166
  278TMC3    C3 4249   1.195   3.106  13.863 -0.3596 -0.4819 -0.3965
  278TMC3    C4 4250   1.134   3.351  13.771  0.4167 -0.2735  0.0351
  278TMC3    C5 4251   1.038   3.277  13.831 -0.2213 -0.1517 -0.3955
  278TMC3    C6 4252   1.065   3.157  13.884  0.0074  0.8219  0.2214
  278TMC3     C 4253   1.363   3.405  13.720 -0.4575 -0.0159 -0.2453
  278TMC3     O 4254   1.477   3.371  13.745 -0.1815 -0.0947  0.5336
  278TMC3     H 4255   1.389   3.142  13.789  0.0536  1.4893 -2.5450
  278TMC3    H1 4256   1.097   3.438  13.718  1.1558  0.2500  0.3623
  278TMC3    H2 4257   0.998   3.088  13.934  0.0720 -0.6794 -1.7178
  278TMC3    C7 4258   0.926   3.260  13.749 -0.1790 -0.6011 -0.0026
  278TMC3    C8 4259   1.210   2.963  13.837 -0.0522  0.0533  0.0761
  278TMC3    O1 4260   0.936   3.165  13.675  0.6037  0.4008  0.0401
  278TMC3    O2 4261   1.308   2.892  13.853  0.1555  0.5903 -0.5574
  279MPD2     C 4262   0.319   3.049   0.201 -0.2865 -0.3544  0.1537
  279MPD2    C1 4263   0.279   3.166   0.255 -0.0659  0.4186  0.2913
  279MPD2    C2 4264   0.275   3.286   0.180  0.3802  0.0614  0.5789
  279MPD2    C3 4265   0.309   3.285   0.045  0.3413 -0.4688  0.0551
  279MPD2    C4 4266   0.344   3.167  17.731 -0.7563  0.7137 -0.2197
  279MPD2    C5 4267   0.338   3.049   0.060  0.4170 -0.7990  0.5015
  279MPD2     H 4268   0.247   3.373   0.237  1.0494 -0.0995  1.1530
  279MPD2    H1 4269   0.352   3.155  17.624  0.5893 -0.0594 -0.0334
  279MPD2    H2 4270   0.319   2.954   0.254 -0.5478 -0.7472 -0.5500
  279MPD2    H3 4271   0.358   2.953   0.013  2.1491  1.0673 -2.5696
  279MPD2     N 4272   0.291   3.395  17.692 -0.0324 -0.2718  0.2529
  279MPD2    H5 4273   0.322   3.368  17.599 -1.6712 -0.3481 -0.2631
  279MPD2    N1 4274   0.255   3.158   0.399  0.3828 -0.1302 -0.0273
  279MPD2    H7 4275   0.265   3.066   0.440 -2.4051 -0.6304 -0.4612
  280TMC3    C1 4276   0.141   3.202   0.600  0.4036 -0.1369  0.0226
  280TMC3    C2 4277   0.158   3.067   0.624 -0.6833 -0.2753 -0.1150
  280TMC3    C3 4278   0.042   2.996   0.654 -0.1615  0.2816  1.1128
  280TMC3    C4 4279   0.038   3.275   0.637  0.1831 -0.2772 -0.3727
  280TMC3    C5 4280   4.665   3.199   0.680  0.7314 -0.1649 -0.0808
  280TMC3    C6 4281   4.666   3.059   0.681 -0.2444  0.7030  0.1003
  280TMC3     C 4282   0.210   3.256   0.487 -0.2528 -0.0435  0.1169
  280TMC3     O 4283   0.184   3.369   0.453  0.2697 -0.4276  0.4399
  280TMC3     H 4284   0.250   3.013   0.604 -0.1122  0.3644  0.8104
  280TMC3    H1 4285   0.019   3.378   0.607  0.2431  0.4237  1.9947
  280TMC3    H2 4286   4.573   3.009   0.705 -0.0911  1.1224  1.5939
  280TMC3    C7 4287   4.537   3.260   0.702  0.2673 -0.2293  0.3576
  280TMC3    C8 4288   0.028   2.890   0.558  0.1577  0.1981  0.2770
  280TMC3    O1 4289   4.495   3.264   0.817  0.1809 -0.3491 -0.1875
  280TMC3    O2 4290   0.121   2.885   0.481  0.1706  0.5383  0.0017
  281TMC3    C1 4291   3.825   3.832  13.276 -0.4071 -0.5755  0.4711
  281TMC3    C2 4292   3.934   3.846  13.194 -0.7537  0.1616  0.7378
  281TMC3    C3 4293   3.960   3.751  13.091 -0.0421  0.6352 -0.4301
  281TMC3    C4 4294   3.751   3.719  13.274  0.6457  0.1292  0.2090
  281TMC3    C5 4295   3.804   3.615  13.198  0.3843  0.6893  0.3892
  281TMC3    C6 4296   3.892   3.630  13.094 -0.6366 -0.1694 -0.3235
  281TMC3     C 4297   3.784   3.937  13.370 -0.5398 -0.0536  0.3223
  281TMC3     O 4298   3.728   3.891  13.471 -0.2596 -0.0001  0.1259
  281TMC3     H 4299   3.999   3.932  13.198  0.8802 -1.0551  0.5955
  281TMC3    H1 4300   3.667   3.701  13.341  1.1367  1.3161  1.1459
  281TMC3    H2 4301   3.930   3.543  13.042 -0.3473 -0.1442 -0.1561
  281TMC3    C7 4302   3.742   3.491  13.213  0.3238 -0.4072  0.0080
  281TMC3    C8 4303   4.072   3.762  12.996 -0.2029  0.1501 -0.3051
  281TMC3    O1 4304   3.739   3.422  13.113  0.3460 -0.0407 -0.3670
  281TMC3    O2 4305   4.125   3.656  12.968  0.0688 -0.0777 -0.0527
  282MPD2     C 4306   1.080   0.607  15.045  0.9055  0.7557  0.7298
  282MPD2    C1 4307   0.973   0.588  15.129 -0.3236  0.2515  0.1679
  282MPD2    C2 4308   0.861   0.532  15.067 -0.2891 -0.1185  0.6388
  282MPD2    C3 4309   0.857   0.492  14.935  0.3510  0.8798 -0.1812
  282MPD2    C4 4310   0.966   0.518  14.853 -0.0580  0.2928 -0.0702
  282MPD2    C5 4311   1.075   0.579  14.910  0.3862  0.1214  0.4278
  282MPD2     H 4312   0.768   0.522  15.121  0.4122 -0.6275  1.7602
  282MPD2    H1 4313   0.972   0.494  14.748 -1.5914  0.4072 -0.1923
  282MPD2    H2 4314   1.175   0.652  15.074  1.7780 -0.2754 -0.4898
  282MPD2    H3 4315   1.162   0.606  14.852 -0.4875 -0.1738 -1.0126
  282MPD2     N 4316   0.739   0.431  14.870  0.0424  0.0790 -0.3007
  282MPD2    H5 4317   0.662   0.419  14.935 -0.2296  0.6514 -0.5120
  282MPD2    N1 4318   0.980   0.602  15.272  0.1523 -0.3384  0.4110
  282MPD2    H7 4319   0.903   0.566  15.327  0.3207  1.4052  1.7932
  283TMC3    C1 4320   1.040   0.663  15.485 -0.6868  0.4414 -0.1363
  283TMC3    C2 4321   1.077   0.785  15.543 -0.1082  0.3045  0.0337
  283TMC3    C3 4322   1.031   0.820  15.662  0.3554  0.0268  0.2826
  283TMC3    C4 4323   0.964   0.569  15.549  0.6046 -0.8215 -0.2087
  283TMC3    C5 4324   0.928   0.607  15.679 -0.1775  0.7801  0.6620
  283TMC3    C6 4325   0.961   0.723  15.733 -0.2723 -0.0222  0.3622
  283TMC3     C 4326   1.078   0.660  15.346  0.5469  0.2499 -0.2525
  283TMC3     O 4327   1.158   0.742  15.305 -0.1049  0.4905 -0.3516
  283TMC3     H 4328   1.133   0.859  15.485  2.4853  0.7644  3.1019
  283TMC3    H1 4329   0.946   0.474  15.501 -3.8926 -0.1691  0.1937
  283TMC3    H2 4330   0.924   0.745  15.832 -1.0964 -0.6473  0.1854
  283TMC3    C7 4331   0.867   0.506  15.763  0.3506  0.1176 -0.4694
  283TMC3    C8 4332   1.046   0.956  15.707  0.0768 -0.1889 -0.9744
  283TMC3    O1 4333   0.825   0.535  15.877 -0.6325 -0.7395 -0.4061
  283TMC3    O2 4334   1.036   0.983  15.827  0.4001  0.4242  0.9685
  284MPD2     C 4335   4.074   4.581  11.633  0.4709  0.1663  1.0107
  284MPD2    C1 4336   4.184   4.620  11.706 -0.7044  0.9350 -0.4151
  284MPD2    C2 4337   4.206   4.576  11.834  0.6130 -0.4742  0.0822
  284MPD2    C3 4338   4.116   4.495  11.900 -1.1101 -0.9680  0.0429
  284MPD2    C4 4339   4.005   4.460  11.829 -0.7873 -0.4366 -0.3602
  284MPD2    C5 4340   3.982   4.498  11.700 -0.4177 -0.5807 -0.5466
  284MPD2     H 4341   4.302   4.593  11.881  0.5874 -0.3293  0.0812
  284MPD2    H1 4342   3.932   4.390  11.869 -1.0961  0.2118  0.2169
  284MPD2    H2 4343   4.072   4.606  11.528  2.7015  0.7571  1.1145
  284MPD2    H3 4344   3.901   4.461  11.638 -1.3995 -1.1873  1.0833
  284MPD2     N 4345   4.143   4.450  12.029  0.5970 -0.5122  0.3286
  284MPD2    H5 4346   4.242   4.454  12.052  0.5435 -1.9681  0.8218
  284MPD2    N1 4347   4.293   4.685  11.645 -0.0451  0.5163  0.3952
  284MPD2    H7 4348   4.381   4.679  11.695  0.4865 -1.2262 -0.7391
  285TMC3    C1 4349   4.442   0.022  11.492 -0.3272  0.3164 -0.9214
  285TMC3    C2 4350   4.512   4.638  11.503 -0.1737  0.1815 -0.0830
  285TMC3    C3 4351   4.630   4.626  11.431  0.8578 -0.4369  0.1816
  285TMC3    C4 4352   4.473   0.112  11.386 -0.1276  0.1019 -0.0804
  285TMC3    C5 4353   4.580   0.092  11.309  0.5078 -0.3072 -0.1089
  285TMC3    C6 4354   4.664   4.723  11.335  0.0961 -0.3703 -0.2427
  285TMC3     C 4355   4.302   0.006  11.522  0.1107 -0.3638 -0.3791
  285TMC3     O 4356   4.204   0.068  11.473 -0.0551 -0.3865  0.0550
  285TMC3     H 4357   4.499   4.565  11.582  1.1970  0.4632  0.4149
  285TMC3    H1 4358   4.396   0.183  11.359 -0.1575  0.7743  1.7878
  285TMC3    H2 4359   0.008   4.717  11.261  0.8474  2.2548  0.3615
  285TMC3    C7 4360   4.614   0.193  11.214 -0.3296  0.3526  0.1273
  285TMC3    C8 4361   4.686   4.494  11.417  0.2359  1.1795 -0.4982
  285TMC3    O1 4362   4.729   0.214  11.182 -0.0834  0.2193 -0.1418
  285TMC3    O2 4363   4.614   4.406  11.457  0.2827  0.0852 -0.5049
  286MPD2     C 4364   3.915   3.202   1.852  0.2009  0.1168 -0.5290
  286MPD2    C1 4365   4.006   3.262   1.768 -0.4981  0.2617 -0.7305
  286MPD2    C2 4366   4.113   3.191   1.722 -0.2053  0.1380 -0.3589
  286MPD2    C3 4367   4.120   3.059   1.741  0.5388  0.0689  0.2716
  286MPD2    C4 4368   4.029   2.995   1.823  0.5625 -0.5376 -0.4350
  286MPD2    C5 4369   3.934   3.073   1.885 -1.1127  0.1401 -0.0663
  286MPD2     H 4370   4.184   3.244   1.659 -0.2900  0.4406 -0.2006
  286MPD2    H1 4371   4.031   2.889   1.847  2.7214 -0.4096 -0.0562
  286MPD2    H2 4372   3.835   3.261   1.898  1.6811  2.2872 -0.7233
  286MPD2    H3 4373   3.875   3.029   1.964 -0.3080  0.2379  0.5989
  286MPD2     N 4374   4.233   2.988   1.694 -0.4615 -0.3078  0.1244
  286MPD2    H5 4375   4.301   3.043   1.643 -1.8763  0.4072 -0.9856
  286MPD2    N1 4376   4.012   3.403   1.752  0.8982 -0.1606 -0.7763
  286MPD2    H7 4377   4.082   3.428   1.683  0.1926  1.2962 -0.9721
  287TMC3    C1 4378   4.385   2.804   1.637  0.3117  0.0802  0.0448
  287TMC3    C2 4379   4.395   2.704   1.542 -0.3235  0.1667  0.7212
  287TMC3    C3 4380   4.514   2.696   1.476  0.7996  0.4654 -0.1973
  287TMC3    C4 4381   4.492   2.884   1.668  0.5848 -0.2457 -0.4009
  287TMC3    C5 4382   4.604   2.872   1.591 -0.3126  0.1834  0.9269
  287TMC3    C6 4383   4.621   2.782   1.492 -0.3836  0.7479 -0.5770
  287TMC3     C 4384   4.254   2.852   1.682 -0.3061 -0.3248 -0.4706
  287TMC3     O 4385   4.173   2.766   1.700  0.6451 -0.5408 -0.1895
  287TMC3     H 4386   4.310   2.639   1.523 -0.0503 -0.5080  1.7746
  287TMC3    H1 4387   4.493   2.946   1.757 -1.5418 -0.1882 -0.4186
  287TMC3    H2 4388   4.712   2.773   1.434 -1.2343 -0.9802 -1.6101
  287TMC3    C7 4389   4.717   2.943   1.640 -0.2024  0.1020 -0.2024
  287TMC3    C8 4390   4.510   2.610   1.359  0.1912  0.1766  0.4004
  287TMC3    O1 4391   4.683   3.051   1.689  0.7778 -0.3870  0.5607
  287TMC3    O2 4392   4.427   2.521   1.349  0.1071  0.2011 -0.0814
  288TMC3    C1 4393   1.270   3.299  14.213  0.2336  0.4284 -0.4793
  288TMC3    C2 4394   1.219   3.263  14.337  0.2453 -0.0009 -0.1856
  288TMC3    C3 4395   1.205   3.364  14.426 -0.6441 -0.0696 -0.1238
  288TMC3    C4 4396   1.295   3.431  14.174 -0.3098 -0.0287 -0.0049
  288TMC3    C5 4397   1.281   3.531  14.271 -0.6740 -0.6882  0.2519
  288TMC3    C6 4398   1.238   3.498  14.398  0.3700 -0.1970 -0.2010
  288TMC3     C 4399   1.334   3.193  14.144  0.2035 -0.5013 -0.4971
  288TMC3     O 4400   1.284   3.083  14.150  0.7887  0.6028 -0.3266
  288TMC3     H 4401   1.258   3.168  14.370 -2.0976 -1.1800 -0.7456
  288TMC3    H1 4402   1.338   3.451  14.077  2.3118 -0.9559  0.9810
  288TMC3    H2 4403   1.243   3.573  14.476 -0.8100  1.5558 -1.8167
  288TMC3    C7 4404   1.333   3.664  14.243 -0.4685  0.2547  0.1394
  288TMC3    C8 4405   1.152   3.337  14.561  0.0685  0.9417 -0.4709
  288TMC3    O1 4406   1.287   3.712  14.140 -0.4231  0.1352  0.1127
  288TMC3    O2 4407   1.146   3.436  14.628 -0.1890 -0.7527  0.3071
  289MPD2     C 4408   1.379   2.240  14.680  0.5354  0.5342 -0.3861
  289MPD2    C1 4409   1.387   2.351  14.603  0.5396  0.2083  0.2339
  289MPD2    C2 4410   1.321   2.357  14.482  0.5819  0.6768  0.3832
  289MPD2    C3 4411   1.238   2.253  14.439  0.4592  0.2686 -0.3775
  289MPD2    C4 4412   1.232   2.141  14.513  0.5729  0.6283  0.2790
  289MPD2    C5 4413   1.301   2.136  14.634  0.0796  0.0084 -0.6664
  289MPD2     H 4414   1.324   2.446  14.419  1.7896  0.5910  0.3137
  289MPD2    H1 4415   1.176   2.052  14.489  0.8633  1.0839 -2.1353
  289MPD2    H2 4416   1.410   2.243  14.784  0.5305 -0.9584 -0.3395
  289MPD2    H3 4417   1.277   2.048  14.692 -4.1263  0.7599 -1.2009
  289MPD2     N 4418   1.165   2.256  14.315  0.0749  0.5766  0.6453
  289MPD2    H5 4419   1.109   2.174  14.296 -0.4042  0.6765  1.6140
  289MPD2    N1 4420   1.455   2.462  14.657 -0.2338 -0.3448 -0.4196
  289MPD2    H7 4421   1.491   2.454  14.752  0.1677 -0.8313 -0.6098
  290TMC3    C1 4422   1.058   2.339  14.118 -0.1658  0.3408  0.3156
  290TMC3    C2 4423   0.999   2.453  14.075  0.7153 -0.5713 -0.3821
  290TMC3    C3 4424   0.890   2.438  13.990  0.1524 -0.3443  0.6111
  290TMC3    C4 4425   1.014   2.209  14.083  0.0844  1.4907 -0.0306
  290TMC3    C5 4426   0.918   2.203  13.983 -0.6024 -0.2039 -0.2117
  290TMC3    C6 4427   0.858   2.316  13.942 -0.4830 -0.5582 -0.1841
  290TMC3     C 4428   1.155   2.359  14.227 -0.6242 -0.5677 -0.3978
  290TMC3     O 4429   1.182   2.474  14.251  0.4524 -0.2680  0.0967
  290TMC3     H 4430   1.036   2.551  14.101 -2.9103  1.1081 -1.4936
  290TMC3    H1 4431   1.077   2.130  14.123 -0.6531  0.5183 -0.8039
  290TMC3    H2 4432   0.778   2.320  13.869  0.2799  2.3460 -0.8506
  290TMC3    C7 4433   0.902   2.090  13.898 -0.2129  1.0192 -0.4988
  290TMC3    C8 4434   0.824   2.561  13.932  0.6733  0.3104  0.2666
  290TMC3    O1 4435   0.845   2.106  13.789 -0.3192 -0.0616  0.0745
  290TMC3    O2 4436   0.756   2.549  13.835  0.4343 -0.3046  0.0706
  291MPD2     C 4437   0.282   2.442   0.309  0.3175 -0.7075 -0.1990
  291MPD2    C1 4438   0.361   2.368   0.400 -1.0545  0.4124 -0.5141
  291MPD2    C2 4439   0.466   2.430   0.468  0.3082  0.3463 -0.4694
  291MPD2    C3 4440   0.490   2.564   0.452  1.5791  0.1816  0.3803
  291MPD2    C4 4441   0.415   2.635   0.363 -0.5052  0.8360 -0.2799
  291MPD2    C5 4442   0.317   2.573   0.295  0.0852  0.4013  0.7565
  291MPD2     H 4443   0.510   2.367   0.545  0.3570  0.0181 -0.7664
  291MPD2    H1 4444   0.431   2.740   0.341 -1.4057  1.1291  0.4447
  291MPD2    H2 4445   0.194   2.401   0.262 -0.4118  0.0240  0.5532
  291MPD2    H3 4446   0.255   2.630   0.227  0.0307  0.3144  0.7336
  291MPD2     N 4447   0.594   2.634   0.514  0.3799  0.1817 -0.1080
  291MPD2    H5 4448   0.599   2.734   0.500  0.1928  0.5069  2.1052
  291MPD2    N1 4449   0.324   2.238   0.438  0.3294  0.5788 -0.7230
  291MPD2    H7 4450   0.379   2.192   0.511 -0.0971  1.2147  0.0018
  292TMC3    C1 4451   0.217   2.037   0.462  0.0556  0.4896  0.4339
  292TMC3    C2 4452   0.285   2.026   0.582  0.1558 -0.4000 -0.0715
  292TMC3    C3 4453   0.332   1.905   0.625 -0.8344  0.7888  0.2560
  292TMC3    C4 4454   0.205   1.929   0.380  0.1050  0.6778 -0.6037
  292TMC3    C5 4455   0.255   1.810   0.430  0.0421 -0.6568  0.1733
  292TMC3    C6 4456   0.325   1.798   0.544 -0.5828  0.1362  0.0269
  292TMC3     C 4457   0.219   2.159   0.387  0.1401 -1.0688 -0.1059
  292TMC3     O 4458   0.150   2.174   0.284  0.0437 -0.7095 -0.0428
  292TMC3     H 4459   0.286   2.112   0.648  0.5509 -0.0246 -0.5667
  292TMC3    H1 4460   0.165   1.932   0.279  3.4962 -2.5884 -2.0538
  292TMC3    H2 4461   0.387   1.712   0.566 -0.6617  0.0308 -0.1624
  292TMC3    C7 4462   0.242   1.682   0.352 -0.5528  0.4914 -0.0288
  292TMC3    C8 4463   0.314   1.889   0.769  0.6887  0.2229 -0.8962
  292TMC3    O1 4464   0.326   1.593   0.368 -0.2751  0.3735  1.0102
  292TMC3    O2 4465   0.349   1.981   0.839 -0.4501 -0.0504  0.3031
  293MPD2     C 4466   2.677   2.909  12.929 -0.1432 -0.2084  0.3988
  293MPD2    C1 4467   2.590   3.017  12.943  0.1467 -0.0314  0.4186
  293MPD2    C2 4468   2.575   3.070  13.072 -0.0665  0.1366 -0.7126
  293MPD2    C3 4469   2.646   3.006  13.173 -0.4692  0.0301  0.0299
  293MPD2    C4 4470   2.736   2.907  13.153  0.1049  0.5424 -0.4140
  293MPD2    C5 4471   2.747   2.854  13.028  0.5473 -0.0355  0.1097
  293MPD2     H 4472   2.501   3.144  13.100 -1.2320 -0.7114 -1.5778
  293MPD2    H1 4473   2.816   2.887  13.223  1.3002  1.1662 -1.6036
  293MPD2    H2 4474   2.694   2.854  12.838  1.3412  0.1564  0.4601
  293MPD2    H3 4475   2.818   2.774  13.015  0.0515 -0.4717  0.0998
  293MPD2     N 4476   2.619   3.050  13.304 -0.4956  0.0974  0.6549
  293MPD2    H5 4477   2.540   3.110  13.322  1.5784  3.4460 -1.2987
  293MPD2    N1 4478   2.536   3.060  12.820 -0.0705  0.0332  0.0844
  293MPD2    H7 4479   2.554   3.001  12.739 -0.5581 -0.7548  0.5497
  294TMC3    C1 4480   2.374   3.169  12.678  0.7377  0.3597 -0.1719
  294TMC3    C2 4481   2.246   3.206  12.671  0.0841  0.3591 -0.1666
  294TMC3    C3 4482   2.177   3.193  12.554  0.5642 -0.4146  0.2566
  294TMC3    C4 4483   2.448   3.139  12.565  0.1331 -0.5322  1.5001
  294TMC3    C5 4484   2.379   3.138  12.442  0.7930 -0.2332  0.1921
  294TMC3    C6 4485   2.239   3.159  12.441  0.6209 -0.1439 -0.7918
  294TMC3     C 4486   2.443   3.162  12.808  0.1797 -0.6528 -0.2471
  294TMC3     O 4487   2.383   3.221  12.896  0.0159  0.7878 -0.0933
  294TMC3     H 4488   2.188   3.224  12.761 -0.0653 -0.7336 -0.0491
  294TMC3    H1 4489   2.555   3.120  12.568  0.0203 -1.4817 -0.1810
  294TMC3    H2 4490   2.191   3.170  12.345 -0.0869 -2.9343 -0.7713
  294TMC3    C7 4491   2.437   3.076  12.324  0.4428 -0.5543  0.0665
  294TMC3    C8 4492   2.032   3.176  12.574  0.2115 -0.1701  0.0049
  294TMC3    O1 4493   2.534   3.004  12.342 -0.1670 -0.3856  0.2848
  294TMC3    O2 4494   1.990   3.249  12.663 -0.4259  0.1413  0.3225
  295MPD2     C 4495   1.756   1.994   1.102 -0.2825 -0.1040  0.4255
  295MPD2    C1 4496   1.851   2.091   1.089  0.1184  0.1468  0.0996
  295MPD2    C2 4497   1.832   2.208   1.165 -0.0791 -0.5715 -1.0204
  295MPD2    C3 4498   1.716   2.225   1.243  0.2252 -0.0251  0.0266
  295MPD2    C4 4499   1.627   2.124   1.251 -0.0328  0.5947  0.4025
  295MPD2    C5 4500   1.639   2.003   1.177 -0.9781 -0.3559 -0.1155
  295MPD2     H 4501   1.891   2.299   1.162  0.1739 -0.7319 -0.9059
  295MPD2    H1 4502   1.538   2.127   1.312 -0.7729 -0.0779 -0.6329
  295MPD2    H2 4503   1.756   1.901   1.046  1.3785 -1.2417  2.3426
  295MPD2    H3 4504   1.583   1.911   1.190  1.3682 -2.4591 -4.5413
  295MPD2     N 4505   1.688   2.333   1.329 -0.6305  0.3199  0.4872
  295MPD2    H5 4506   1.601   2.328   1.382 -0.2965  0.7806  1.0883
  295MPD2    N1 4507   1.963   2.081   1.000  0.6215 -0.2190 -0.7115
  295MPD2    H7 4508   2.026   2.160   0.989  1.2320 -0.7546 -1.0742
  296TMC3    C1 4509   1.691   2.545   1.445 -0.3097 -0.5438  0.2275
  296TMC3    C2 4510   1.774   2.647   1.499  0.1188  0.3406 -0.4107
  296TMC3    C3 4511   1.726   2.732   1.592 -0.3947 -0.7347 -0.6196
  296TMC3    C4 4512   1.559   2.536   1.476  0.1388 -0.2999 -0.3809
  296TMC3    C5 4513   1.517   2.621   1.571 -0.0518 -0.5758 -0.0819
  296TMC3    C6 4514   1.597   2.722   1.624  0.2065  0.8294 -0.6708
  296TMC3     C 4515   1.761   2.454   1.350 -0.1972 -0.1535 -1.0885
  296TMC3     O 4516   1.862   2.489   1.294 -0.3018  0.0095 -0.4308
  296TMC3     H 4517   1.881   2.643   1.485  0.2516 -0.3220  0.8251
  296TMC3    H1 4518   1.484   2.470   1.435 -0.5815  0.2400  0.0816
  296TMC3    H2 4519   1.550   2.780   1.702  1.0865 -0.5425  0.8845
  296TMC3    C7 4520   1.373   2.619   1.608 -0.3776 -0.4598 -0.4306
  296TMC3    C8 4521   1.790   2.856   1.610 -0.2297 -0.1981 -0.2234
  296TMC3    O1 4522   1.332   2.724   1.658 -0.3390  0.5446  0.3298
  296TMC3    O2 4523   1.739   2.932   1.691  0.4024 -0.5570 -0.1375
  297MPD2     C 4524   0.132   3.860  16.750  0.0295  0.4283  0.3041
  297MPD2    C1 4525   0.103   3.878  16.615  0.3282 -0.1390 -1.0306
  297MPD2    C2 4526   0.132   3.999  16.552 -0.3192  0.2170 -0.2590
  297MPD2    C3 4527   0.184   4.101  16.629  0.2957 -0.9913 -0.6027
  297MPD2    C4 4528   0.199   4.090  16.767  0.3286 -0.0284  0.2045
  297MPD2    C5 4529   0.164   3.972  16.820 -1.4692  0.1863 -0.1405
  297MPD2     H 4530   0.118   4.019  16.446 -1.4186  0.1585 -0.1226
  297MPD2    H1 4531   0.229   4.168  16.836  1.2429  1.2062 -1.5762
  297MPD2    H2 4532   0.127   3.769  16.808  0.9401  0.2184  0.0661
  297MPD2    H3 4533   0.180   3.949  16.925  1.6256  2.2873 -0.1859
  297MPD2     N 4534   0.224   4.216  16.554  0.4737 -0.5178  0.0964
  297MPD2    H5 4535   0.218   4.204  16.454 -0.0073 -0.1584  0.0806
  297MPD2    N1 4536   0.046   3.780  16.533 -0.3246  0.2775 -0.4597
  297MPD2    H7 4537   0.019   3.813  16.441 -0.6984  0.3295 -0.3318
  298TMC3    C1 4538   4.666   3.594  16.465 -0.0051 -0.2029  0.1482
  298TMC3    C2 4539   4.700   3.621  16.332 -0.3751  0.4469 -0.3604
  298TMC3    C3 4540   4.596   3.615  16.245  0.2202 -0.2846  0.0739
  298TMC3    C4 4541   4.540   3.589  16.509  0.5054  0.4119 -0.1298
  298TMC3    C5 4542   4.444   3.601  16.416  0.2000  0.0024 -0.3243
  298TMC3    C6 4543   4.465   3.598  16.279  0.0951 -0.5610  0.0777
  298TMC3     C 4544   0.010   3.654  16.568  0.8782 -0.5001  1.3584
  298TMC3     O 4545   4.727   3.597  16.676 -0.0987  1.0241  0.6498
  298TMC3     H 4546   0.065   3.623  16.291  0.0669 -1.0364  0.6390
  298TMC3    H1 4547   4.517   3.592  16.615 -0.4070 -1.6453 -0.2659
  298TMC3    H2 4548   4.388   3.572  16.206  0.9031 -1.3646 -0.4885
  298TMC3    C7 4549   4.349   3.708  16.443 -0.0354  0.7724 -0.0364
  298TMC3    C8 4550   4.616   3.690  16.113  0.2525  0.6593 -0.3327
  298TMC3    O1 4551   4.357   3.752  16.554 -0.0251  0.5606  0.0709
  298TMC3    O2 4552   4.731   3.728  16.093  0.1840 -0.2157 -0.9523
  299MPD2     C 4553   0.901   3.978  10.680  0.0949 -0.3467  0.2599
  299MPD2    C1 4554   0.951   3.997  10.552 -0.2276 -0.6394 -0.1967
  299MPD2    C2 4555   0.873   4.001  10.439 -0.9317  0.1459 -0.4975
  299MPD2    C3 4556   0.738   3.992  10.457  0.4347 -0.0925 -0.2143
  299MPD2    C4 4557   0.691   3.960  10.587 -0.5072 -0.1080 -0.0797
  299MPD2    C5 4558   0.770   3.952  10.697  0.2807  0.5591 -0.1953
  299MPD2     H 4559   0.920   4.005  10.342 -0.4467 -1.2137 -0.3086
  299MPD2    H1 4560   0.584   3.949  10.600 -0.7647  1.7383 -0.5927
  299MPD2    H2 4561   0.965   3.973  10.768 -1.0426 -0.3867  1.0906
  299MPD2    H3 4562   0.734   3.926  10.796  1.5837 -1.5471 -0.2993
  299MPD2     N 4563   0.638   4.012  10.360 -0.0284  0.3057  0.3309
  299MPD2    H5 4564   0.544   4.004  10.397  0.0240  0.4779  0.5007
  299MPD2    N1 4565   1.091   4.015  10.543 -0.5104 -0.0665  0.1312
  299MPD2    H7 4566   1.148   3.993  10.624 -0.6915 -1.2694 -0.0730
  300TMC3    C1 4567   0.545   4.022  10.153 -0.0793 -0.7197 -0.3156
  300TMC3    C2 4568   0.534   4.108  10.038  0.4311  0.7213 -0.5041
  300TMC3    C3 4569   0.412   4.127   9.977 -0.2293 -0.8494  0.0828
  300TMC3    C4 4570   0.433   3.961  10.199 -0.0733 -0.0634  0.0218
  300TMC3    C5 4571   0.317   3.985  10.134  0.1730 -0.0360  0.2743
  300TMC3    C6 4572   0.302   4.061  10.023 -0.7507 -0.0818 -0.1354
  300TMC3     C 4573   0.668   4.025  10.227  0.4280 -0.0954  0.0789
  300TMC3     O 4574   0.762   4.070  10.168  0.5412  1.1819 -0.2077
  300TMC3     H 4575   0.611   4.178  10.008 -1.0302  2.9898  1.0028
  300TMC3    H1 4576   0.434   3.884  10.275 -1.1335 -1.8047 -1.7235
  300TMC3    H2 4577   0.199   4.077   9.993 -0.5991  0.8943 -0.1291
  300TMC3    C7 4578   0.196   3.921  10.175 -0.0952 -0.8678  0.7529
  300TMC3    C8 4579   0.388   4.256   9.907 -0.4392  0.2410  0.0125
  300TMC3    O1 4580   0.104   3.903  10.095  0.3200 -0.0617 -0.3617
  300TMC3    O2 4581   0.431   4.267   9.794 -0.1363 -0.4752 -0.1404
  301MPD2     C 4582   2.468   0.784   0.652  0.0437  0.4173  0.1572
  301MPD2    C1 4583   2.342   0.724   0.681  0.3262  0.1681 -1.0651
  301MPD2    C2 4584   2.325   0.590   0.638 -0.2482  0.1912  0.9694
  301MPD2    C3 4585   2.422   0.518   0.560  0.5708 -0.5160  0.0973
  301MPD2    C4 4586   2.538   0.584   0.536  0.3977 -0.0954  0.0811
  301MPD2    C5 4587   2.560   0.712   0.578 -0.0781 -0.1249 -0.4383
  301MPD2     H 4588   2.225   0.554   0.658 -0.3151  0.3443  0.9136
  301MPD2    H1 4589   2.618   0.536   0.482 -0.3744 -1.4531  0.1475
  301MPD2    H2 4590   2.492   0.884   0.686 -0.1081  0.4996  0.0195
  301MPD2    H3 4591   2.653   0.764   0.560  0.5027 -0.2383  2.2438
  301MPD2     N 4592   2.400   0.391   0.505  0.5966 -0.3925  0.5169
  301MPD2    H5 4593   2.484   0.349   0.465  0.6722  0.3851 -0.1359
  301MPD2    N1 4594   2.242   0.775   0.764  0.8264 -0.1737  0.0736
  301MPD2    H7 4595   2.168   0.712   0.792 -0.2546  0.7623 -0.6642
  302TMC3    C1 4596   2.292   0.194   0.435  0.3687 -1.1452  0.0889
  302TMC3    C2 4597   2.408   0.156   0.369  0.0029 -0.4837  0.6798
  302TMC3    C3 4598   2.417   0.026   0.319  0.1851  0.6411 -0.4059
  302TMC3    C4 4599   2.180   0.118   0.439  0.7498 -0.1395  0.0377
  302TMC3    C5 4600   2.200   4.725   0.385 -0.0699  1.0195 -0.2094
  302TMC3    C6 4601   2.310   4.678   0.321 -0.0823 -0.0880  0.7601
  302TMC3     C 4602   2.284   0.321   0.512  0.5831  0.0026  0.3207
  302TMC3     O 4603   2.174   0.335   0.569  0.1371 -0.3320 -0.2820
  302TMC3     H 4604   2.489   0.225   0.347 -1.2924  1.1889  1.1367
  302TMC3    H1 4605   2.081   0.164   0.442  1.4233  1.3462 -0.3892
  302TMC3    H2 4606   2.313   4.573   0.295  0.6530 -0.0615  0.7450
  302TMC3    C7 4607   2.097   4.634   0.399 -0.4930  0.3176  0.0883
  302TMC3    C8 4608   2.531   4.692   0.379 -0.2875 -0.1338 -0.1552
  302TMC3    O1 4609   2.081   4.553   0.308  0.0916  0.4702 -0.3933
  302TMC3    O2 4610   2.516   4.570   0.384 -0.4069  0.9068  0.5801
  303MPD2     C 4611   2.866   3.205  10.520 -0.2996 -0.1934 -0.3164
  303MPD2    C1 4612   2.768   3.178  10.432  0.7537  0.4089 -0.0338
  303MPD2    C2 4613   2.789   3.229  10.303 -0.4562  0.2364 -0.1046
  303MPD2    C3 4614   2.895   3.313  10.272 -0.1384  0.2359 -0.1925
  303MPD2    C4 4615   2.988   3.336  10.369 -0.0673 -0.1316  0.5697
  303MPD2    C5 4616   2.967   3.288  10.493 -0.1817 -0.5065  0.2779
  303MPD2     H 4617   2.716   3.215  10.224 -1.4609  2.7239  0.3639
  303MPD2    H1 4618   3.078   3.389  10.341 -0.6098  1.4963  1.8836
  303MPD2    H2 4619   2.855   3.173  10.623 -0.6386 -1.1006 -0.6374
  303MPD2    H3 4620   3.044   3.302  10.567  0.2995  1.3847 -0.5713
  303MPD2     N 4621   2.920   3.354  10.137  0.4059 -0.4146  0.0030
  303MPD2    H5 4622   3.010   3.394  10.113  0.6725 -0.4673  0.9410
  303MPD2    N1 4623   2.664   3.097  10.474 -0.0659 -0.3736  0.3742
  303MPD2    H7 4624   2.666   3.052  10.565  0.5375 -1.8247 -0.3773
  304TMC3    C1 4625   2.487   2.958  10.451  0.1976 -1.0381 -0.4737
  304TMC3    C2 4626   2.348   2.961  10.417 -0.1933  0.0491 -0.1891
  304TMC3    C3 4627   2.282   2.848  10.447  0.2430 -0.6438 -0.5631
  304TMC3    C4 4628   2.562   2.848  10.482 -0.1212  0.5258 -0.2300
  304TMC3    C5 4629   2.484   2.732  10.495 -1.2000  0.6356 -0.5195
  304TMC3    C6 4630   2.352   2.733  10.487 -1.0001 -0.2607  0.4059
  304TMC3     C 4631   2.554   3.072  10.396  0.5411  0.0321  1.0003
  304TMC3     O 4632   2.504   3.141  10.307  0.1245  0.4263  0.4688
  304TMC3     H 4633   2.303   3.056  10.391 -0.9278 -0.3659 -0.4539
  304TMC3    H1 4634   2.670   2.857  10.475 -0.1570 -0.0844 -1.4934
  304TMC3    H2 4635   2.300   2.641  10.510 -1.1972 -0.4517 -0.7797
  304TMC3    C7 4636   2.529   2.625  10.414 -0.3262 -0.7453  0.0179
  304TMC3    C8 4637   2.173   2.826  10.353  0.1063 -0.3493  0.0487
  304TMC3    O1 4638   2.439   2.571  10.349 -0.5883  0.5349  0.5268
  304TMC3    O2 4639   2.094   2.913  10.314 -0.2037  0.0031  0.2540
  305MPD2     C 4640   1.048   0.805  14.134  0.3886  0.1317 -0.6959
  305MPD2    C1 4641   1.148   0.888  14.085 -0.7866  0.3948  0.0442
  305MPD2    C2 4642   1.188   0.902  13.957 -0.4388 -0.1317 -0.6273
  305MPD2    C3 4643   1.112   0.825  13.867 -0.5149  0.3154 -0.5177
  305MPD2    C4 4644   1.006   0.747  13.909 -0.2919 -0.5931 -0.0163
  305MPD2    C5 4645   0.972   0.737  14.042 -0.0181  0.2934 -0.0274
  305MPD2     H 4646   1.275   0.960  13.927 -0.0720 -0.7259 -0.7298
  305MPD2    H1 4647   0.950   0.688  13.838  0.1468 -0.2732 -0.6310
  305MPD2    H2 4648   1.046   0.789  14.241 -1.8630  3.8755 -0.1849
  305MPD2    H3 4649   0.892   0.668  14.069 -0.1009  0.3551 -0.1135
  305MPD2     N 4650   1.142   0.824  13.728  0.5809 -0.3471  0.0088
  305MPD2    H5 4651   1.069   0.783  13.671 -0.0951  1.5457 -0.4931
  305MPD2    N1 4652   1.234   0.932  14.189  0.2185 -0.4727 -0.6445
  305MPD2    H7 4653   1.206   0.917  14.285 -1.1772  0.1506 -0.9599
  306TMC3    C1 4654   1.415   0.992  14.324  0.8570 -0.4885 -0.2238
  306TMC3    C2 4655   1.383   0.888  14.416 -0.5342  0.7028  0.8699
  306TMC3    C3 4656   1.453   0.884  14.536 -0.5275 -0.1452  0.0134
  306TMC3    C4 4657   1.514   1.081  14.358 -0.1214  0.2198  0.2518
  306TMC3    C5 4658   1.563   1.084  14.490  0.4420  0.3512  0.4035
  306TMC3    C6 4659   1.530   0.988  14.584 -0.2500 -0.0717  0.6223
  306TMC3     C 4660   1.352   0.991  14.186 -0.2731  0.4375  0.0857
  306TMC3     O 4661   1.408   1.029  14.085 -0.0610  0.2565 -0.0429
  306TMC3     H 4662   1.322   0.803  14.388  1.0739  0.2067 -1.1247
  306TMC3    H1 4663   1.538   1.150  14.278 -0.9933  0.5575  0.2855
  306TMC3    H2 4664   1.589   0.979  14.675 -1.2143  1.3059  1.3878
  306TMC3    C7 4665   1.663   1.187  14.536 -0.1461  0.2957 -0.9225
  306TMC3    C8 4666   1.407   0.786  14.634  0.5378 -0.1822 -0.4797
  306TMC3    O1 4667   1.731   1.242  14.449 -0.3462 -0.1884  0.3911
  306TMC3    O2 4668   1.379   0.671  14.604 -0.5656 -0.0584 -0.2970
  307MPD2     C 4669   3.979   3.235   0.270 -0.3246  0.3531 -0.3970
  307MPD2    C1 4670   3.939   3.364   0.268  0.0582 -0.0345  0.0473
  307MPD2    C2 4671   3.864   3.410   0.379  0.4752  0.4851  0.0807
  307MPD2    C3 4672   3.816   3.329   0.479 -0.0202 -0.5746 -0.7206
  307MPD2    C4 4673   3.843   3.195   0.464  0.4629 -0.3429  0.3433
  307MPD2    C5 4674   3.928   3.147   0.365 -0.3346 -0.0581 -0.0255
  307MPD2     H 4675   3.842   3.516   0.375  0.5246  0.4397 -1.5545
  307MPD2    H1 4676   3.812   3.114   0.529  0.5436 -0.5939  0.0684
  307MPD2    H2 4677   4.044   3.189   0.197  0.4162 -0.7709  0.9667
  307MPD2    H3 4678   3.959   3.044   0.369  0.0917 -0.0098 -1.9225
  307MPD2     N 4679   3.740   3.382   0.585  0.0095  0.1211  0.4659
  307MPD2    H5 4680   3.713   3.479   0.572 -1.8867 -0.6222 -1.0495
  307MPD2    N1 4681   3.941   3.448   0.153  0.2272 -0.3707  0.7937
  307MPD2    H7 4682   3.926   3.546   0.173 -0.9948  0.0856 -2.4219
  308TMC3    C1 4683   3.371   3.460   0.808  0.4243  0.4067 -0.0115
  308TMC3    C2 4684   3.386   3.599   0.787  0.2981 -0.5404 -0.1182
  308TMC3    C3 4685   3.515   3.639   0.765  0.1289  0.2550 -0.6379
  308TMC3    C4 4686   3.472   3.371   0.791  0.4291  0.2914  0.7570
  308TMC3    C5 4687   3.597   3.419   0.767  0.9419 -0.1245  0.1194
  308TMC3    C6 4688   3.621   3.551   0.763  0.2770  0.1821  0.4537
  308TMC3     C 4689   3.240   3.408   0.839  0.2003  0.0411  0.1003
  308TMC3     O 4690   3.237   3.300   0.892  0.2680  0.1571  0.6471
  308TMC3     H 4691   3.303   3.667   0.801  2.2251  2.0580 -1.3867
  308TMC3    H1 4692   3.465   3.264   0.805  1.6296  0.0901 -0.1523
  308TMC3    H2 4693   3.727   3.573   0.760 -0.6335  4.3965 -0.1129
  308TMC3    C7 4694   3.694   3.322   0.700 -0.7791 -0.0237 -0.2261
  308TMC3    C8 4695   3.555   3.777   0.789 -0.6318 -0.4490 -0.1676
  308TMC3    O1 4696   3.698   3.202   0.723 -0.1187 -0.2639  0.0913
  308TMC3    O2 4697   3.648   3.801   0.866  0.0907 -0.1087 -0.1935
  309MPD2     C 4698   2.837   3.787  17.264 -0.7448 -0.4391 -0.6034
  309MPD2    C1 4699   2.808   3.881  17.173  0.1974 -0.3447 -0.2872
  309MPD2    C2 4700   2.686   3.941  17.181 -0.0107 -0.1087 -0.7602
  309MPD2    C3 4701   2.587   3.913  17.273 -0.5818 -0.5502  0.8652
  309MPD2    C4 4702   2.628   3.823  17.374 -0.7695  0.5646  0.4507
  309MPD2    C5 4703   2.746   3.764  17.364  0.0612 -0.0163 -0.1699
  309MPD2     H 4704   2.669   4.020  17.109 -1.6395  0.9651  0.8167
  309MPD2    H1 4705   2.569   3.798  17.462 -1.3173 -1.3936 -0.4738
  309MPD2    H2 4706   2.926   3.727  17.261 -0.6088 -0.3834  2.2435
  309MPD2    H3 4707   2.777   3.695  17.441 -0.3052 -1.0471 -0.9602
  309MPD2     N 4708   2.462   3.975  17.281 -0.3911  0.1130 -0.8075
  309MPD2    H5 4709   2.398   3.945  17.354  1.4792 -1.0794  0.3464
  309MPD2    N1 4710   2.896   3.902  17.065 -0.4919  0.0300 -0.1617
  309MPD2    H7 4711   2.838   3.948  16.996 -3.4613 -2.7122  0.5352
  310TMC3    C1 4712   3.088   3.921  16.936 -0.3943 -0.2370 -0.1344
  310TMC3    C2 4713   3.008   3.996  16.854  0.7566  0.0311 -0.0266
  310TMC3    C3 4714   3.057   4.031  16.729  0.0567  0.1459 -0.5782
  310TMC3    C4 4715   3.218   3.882  16.903  0.2675 -0.4910  1.1343
  310TMC3    C5 4716   3.259   3.921  16.777  0.4548  0.6136  0.4295
  310TMC3    C6 4717   3.182   3.990  16.689 -0.1584 -0.2281  1.1492
  310TMC3     C 4718   3.031   3.875  17.065  0.0348  0.0344 -0.0821
  310TMC3     O 4719   3.104   3.857  17.159  0.3622 -0.4683 -0.1200
  310TMC3     H 4720   2.923   4.051  16.891  2.1333  1.1547  1.4789
  310TMC3    H1 4721   3.270   3.813  16.968  1.2006 -1.0627 -0.2448
  310TMC3    H2 4722   3.226   4.005  16.591 -0.8012 -0.1383  0.8780
  310TMC3    C7 4723   3.384   3.866  16.720 -0.6749  0.8686 -0.0038
  310TMC3    C8 4724   2.959   4.061  16.622  0.3747  0.9721  0.3128
  310TMC3    O1 4725   3.388   3.858  16.601  0.1375 -0.2483  0.4990
  310TMC3    O2 4726   2.841   4.047  16.649 -0.6285  0.7807  0.5482
  311MPD2     C 4727   0.628   0.553  12.157  0.0687 -0.4073  0.1294
  311MPD2    C1 4728   0.644   0.529  12.291 -0.2102 -0.5453  0.3518
  311MPD2    C2 4729   0.537   0.491  12.372  0.6995 -0.0492  0.1551
  311MPD2    C3 4730   0.421   0.457  12.312  0.0229 -0.5449  0.4089
  311MPD2    C4 4731   0.403   0.481  12.177  0.0529  0.2774 -0.8242
  311MPD2    C5 4732   0.504   0.535  12.102  0.4187 -0.3871  0.0062
  311MPD2     H 4733   0.556   0.474  12.477  0.0304 -0.0211  0.2783
  311MPD2    H1 4734   0.313   0.452  12.124 -1.1382  0.7772  0.9261
  311MPD2    H2 4735   0.707   0.568  12.085 -0.6269 -1.7705 -0.9125
  311MPD2    H3 4736   0.497   0.537  11.994  0.4467  1.1718  0.0397
  311MPD2     N 4737   0.325   0.386  12.392  0.6621 -0.1823  0.4818
  311MPD2    H5 4738   0.359   0.369  12.486  3.5120 -1.4812 -0.7811
  311MPD2    N1 4739   0.770   0.555  12.357  0.3187  0.1445  0.2934
  311MPD2    H7 4740   0.771   0.560  12.458  2.0029  1.3419  0.2247
  312TMC3    C1 4741   0.122   0.300  12.459  0.7571 -0.0346  0.6990
  312TMC3    C2 4742   4.722   0.323  12.462 -0.2565  0.5830  0.6795
  312TMC3    C3 4743   4.649   0.265  12.565  0.4919 -0.4195  0.0605
  312TMC3    C4 4744   0.179   0.223  12.557  0.5437 -0.4971  0.4633
  312TMC3    C5 4745   0.106   0.178  12.661  0.2919  0.3201  0.8014
  312TMC3    C6 4746   4.706   0.201  12.675  0.3301  0.9792 -0.6285
  312TMC3     C 4747   0.204   0.352  12.347  0.0374  0.5554  0.0866
  312TMC3     O 4748   0.142   0.401  12.256  0.0913 -0.2566 -0.5836
  312TMC3     H 4749   4.673   0.389  12.391  0.8274  0.3671 -0.2738
  312TMC3    H1 4750   0.277   0.182  12.535 -0.0331 -1.6576  0.0501
  312TMC3    H2 4751   4.642   0.154  12.749  1.1385 -0.9455 -1.1485
  312TMC3    C7 4752   0.185   0.134  12.772  0.0326  0.1211  0.3477
  312TMC3    C8 4753   4.509   0.296  12.570  0.1273 -0.4072 -0.0764
  312TMC3    O1 4754   0.306   0.130  12.744 -0.6716  0.0303  0.4096
  312TMC3    O2 4755   4.459   0.336  12.465 -0.3651 -0.3940  0.2240
  313MPD2     C 4756   3.863   4.045  11.309 -0.7700  0.1787  0.4457
  313MPD2    C1 4757   3.945   4.133  11.241  0.3150  0.3887  0.3809
  313MPD2    C2 4758   4.029   4.088  11.141 -0.4089 -0.0545  0.9344
  313MPD2    C3 4759   4.030   3.952  11.101  0.2159 -0.3172 -0.3946
  313MPD2    C4 4760   3.933   3.872  11.163 -0.2040  0.2946 -0.1975
  313MPD2    C5 4761   3.866   3.918  11.271  0.3274 -0.2153 -0.0222
  313MPD2     H 4762   4.094   4.162  11.095  0.1343 -0.3397  1.2315
  313MPD2    H1 4763   3.928   3.767  11.138  1.0500 -0.1182  1.2405
  313MPD2    H2 4764   3.799   4.080  11.389  2.2138  0.8518  2.5662
  313MPD2    H3 4765   3.803   3.846  11.322 -0.0473  0.2015  0.1006
  313MPD2     N 4766   4.119   3.917  10.995 -0.0425  0.3208 -0.3425
  313MPD2    H5 4767   4.176   3.995  10.963  0.2500 -0.8595 -2.7058
  313MPD2    N1 4768   3.949   4.268  11.263  0.0675  0.2002 -0.2170
  313MPD2    H7 4769   4.021   4.316  11.210  1.3517  0.0654  1.3835
  314TMC3    C1 4770   3.881   4.483  11.320 -0.0162 -0.2716  0.1141
  314TMC3    C2 4771   4.016   4.510  11.304  0.0534  0.4068  0.0064
  314TMC3    C3 4772   4.063   4.615  11.230 -0.0474 -0.6363  0.1962
  314TMC3    C4 4773   3.795   4.554  11.239  0.2009 -0.7475 -0.3862
  314TMC3    C5 4774   3.851   4.650  11.154  0.0392 -0.0343 -0.3768
  314TMC3    C6 4775   3.979   4.694  11.161  0.1319  0.4873 -1.0383
  314TMC3     C 4776   3.842   4.339  11.326  0.1956  0.1090  0.4713
  314TMC3     O 4777   3.727   4.296  11.327 -0.0652  0.2745  0.2911
  314TMC3     H 4778   4.075   4.448  11.370  0.6981  1.5894  0.5472
  314TMC3    H1 4779   3.698   4.514  11.211  0.2824  0.0924 -1.8889
  314TMC3    H2 4780   4.011   0.041  11.098  0.8305  1.8319  1.0803
  314TMC3    C7 4781   3.785   4.689  11.039 -0.0230  0.1600 -0.6729
  314TMC3    C8 4782   4.204   4.633  11.198 -0.1389  0.4421 -0.0014
  314TMC3    O1 4783   3.660   4.702  11.048  0.1014  0.1290  0.0604
  314TMC3    O2 4784   4.218   4.725  11.119  0.1247 -0.1170  0.0800
  315MPD2     C 4785   4.331   3.122  17.371  0.4075  0.0412 -0.1273
  315MPD2    C1 4786   4.327   3.122  17.504 -0.0116 -0.5582 -0.0682
  315MPD2    C2 4787   4.309   3.239  17.577  0.6530  0.0883  0.4846
  315MPD2    C3 4788   4.298   3.360  17.514 -0.1826 -0.6574  0.9318
  315MPD2    C4 4789   4.294   3.358  17.373 -0.5525  0.2867 -0.7597
  315MPD2    C5 4790   4.307   3.240  17.305  0.2474  0.3542 -0.0695
  315MPD2     H 4791   4.301   3.233  17.684  0.8613  1.4144  0.5789
  315MPD2    H1 4792   4.277   3.447  17.315 -0.5290  0.3069 -0.7355
  315MPD2    H2 4793   4.346   3.028  17.319 -0.6110 -2.3290  3.8701
  315MPD2    H3 4794   4.297   3.232  17.198  1.1711  1.3044 -0.2272
  315MPD2     N 4795   4.286   3.473  17.602 -0.3742  0.0891 -0.3775
  315MPD2    H5 4796   4.297   3.458  17.701  2.2398 -3.3295 -1.2115
  315MPD2    N1 4797   4.348   3.011  17.581  0.1395  0.1308  0.3800
  315MPD2    H7 4798   4.362   3.028  17.680 -0.3880  1.3172  0.2496
  316TMC3    C1 4799   4.241   3.698  17.664 -0.3284  0.1550  0.0912
  316TMC3    C2 4800   4.222   3.653   0.053  0.1378 -0.3005  0.1765
  316TMC3    C3 4801   4.172   3.744   0.144 -0.3969 -0.2944  0.2181
  316TMC3    C4 4802   4.212   3.828  17.632 -0.4140 -0.5572 -0.5411
  316TMC3    C5 4803   4.152   3.913  17.723 -0.1869 -0.0960 -0.0928
  316TMC3    C6 4804   4.136   3.872   0.117 -0.2602  0.3431  0.0617
  316TMC3     C 4805   4.267   3.602  17.554 -0.0804  0.0321  0.1908
  316TMC3     O 4806   4.256   3.645  17.442 -0.1854  0.2489  0.5224
  316TMC3     H 4807   4.219   3.547   0.075  2.9679 -0.2191  0.9695
  316TMC3    H1 4808   4.230   3.857  17.529  1.1700 -0.4314 -0.2317
  316TMC3    H2 4809   4.112   3.945   0.193 -0.7699  0.0220  0.2116
  316TMC3    C7 4810   4.126   4.048  17.697 -0.5088 -0.5761  0.4865
  316TMC3    C8 4811   4.147   3.703   0.282  0.0544  0.0409 -0.7441
  316TMC3    O1 4812   4.119   4.124   0.054  0.3896  0.7130 -0.6800
  316TMC3    O2 4813   4.064   3.773   0.345 -0.1394 -0.4518  0.0240
  317MPD2     C 4814   1.060   2.761  13.163 -0.0504 -0.5765  0.2844
  317MPD2    C1 4815   1.076   2.636  13.106  0.0937 -1.1689  0.5990
  317MPD2    C2 4816   1.126   2.533  13.183  0.0828  0.8471 -0.3989
  317MPD2    C3 4817   1.183   2.561  13.306 -0.1359 -0.1525  0.0949
  317MPD2    C4 4818   1.178   2.689  13.359  0.1010 -0.1927  0.8772
  317MPD2    C5 4819   1.114   2.790  13.287 -0.0579  0.1929  0.5784
  317MPD2     H 4820   1.131   2.432  13.146 -0.5414 -0.0765  2.0741
  317MPD2    H1 4821   1.225   2.721  13.452 -1.0550  0.2460  1.3114
  317MPD2    H2 4822   1.027   2.850  13.110  1.0755  0.4252  1.2746
  317MPD2    H3 4823   1.122   2.888  13.332 -1.7552  1.0110 -0.9044
  317MPD2     N 4824   1.237   2.451  13.377  0.0597  0.2831  0.3300
  317MPD2    H5 4825   1.207   2.360  13.342 -1.0887  0.5756  0.5353
  317MPD2    N1 4826   1.038   2.603  12.974  0.3317 -0.5854  0.5607
  317MPD2    H7 4827   1.051   2.507  12.943  1.2312 -0.7969  1.6168
  318TMC3    C1 4828   1.383   2.340  13.519 -0.3409 -0.2990  0.2655
  318TMC3    C2 4829   1.349   2.225  13.453 -0.0701  0.6917  0.3825
  318TMC3    C3 4830   1.427   2.109  13.477  0.1838 -0.6824 -0.4979
  318TMC3    C4 4831   1.494   2.345  13.600 -0.0181 -0.4094 -0.6788
  318TMC3    C5 4832   1.575   2.233  13.614  0.1632  0.1202  0.0415
  318TMC3    C6 4833   1.539   2.111  13.561 -0.8543  0.0374  0.2609
  318TMC3     C 4834   1.316   2.470  13.489  0.8219 -0.7528 -0.4308
  318TMC3     O 4835   1.360   2.573  13.542 -0.0940 -0.4543  0.3291
  318TMC3     H 4836   1.254   2.216  13.402  1.6738 -2.5237 -2.2964
  318TMC3    H1 4837   1.524   2.440  13.643 -2.2513 -0.2856  0.6110
  318TMC3    H2 4838   1.591   2.017  13.574  1.4074  1.5185  1.7920
  318TMC3    C7 4839   1.676   2.245  13.712  0.5895 -0.1171 -0.0896
  318TMC3    C8 4840   1.370   1.978  13.451 -0.2623  0.1006 -0.5212
  318TMC3    O1 4841   1.676   2.345  13.782 -0.4702  0.3560  0.0645
  318TMC3    O2 4842   1.393   1.899  13.538  0.1781 -0.6032  0.3594
  319MPD2     C 4843   2.410   3.271  16.500 -0.0130  0.1485  0.2333
  319MPD2    C1 4844   2.329   3.190  16.577  0.3177 -0.1701 -0.7124
  319MPD2    C2 4845   2.208   3.146  16.526  0.1032  0.3306 -0.8543
  319MPD2    C3 4846   2.166   3.174  16.402 -0.4081 -0.0504  0.5004
  319MPD2    C4 4847   2.249   3.252  16.322  0.1265  0.3969 -0.0124
  319MPD2    C5 4848   2.367   3.304  16.369  0.0492  0.6654  0.5015
  319MPD2     H 4849   2.143   3.106  16.603 -0.7317 -0.2472 -1.8639
  319MPD2    H1 4850   2.225   3.273  16.218  1.2780  1.1043 -0.1322
  319MPD2    H2 4851   2.489   3.329  16.546 -2.6082  2.2025  2.0613
  319MPD2    H3 4852   2.407   3.385  16.308  1.5892  0.2642  0.9661
  319MPD2     N 4853   2.050   3.125  16.343  0.7989 -0.1184  0.3767
  319MPD2    H5 4854   2.034   3.164  16.250  0.5228 -0.4464  0.2831
  319MPD2    N1 4855   2.335   3.179  16.720 -0.7060  0.0070  0.0048
  319MPD2    H7 4856   2.256   3.139  16.769  0.3244  1.0960  2.5895
  320TMC3    C1 4857   1.828   3.029  16.315  0.6439 -0.5571  0.0420
  320TMC3    C2 4858   1.794   3.116  16.215 -0.2076  0.1893  0.3817
  320TMC3    C3 4859   1.670   3.106  16.161  0.0051 -0.3079  0.2180
  320TMC3    C4 4860   1.751   2.930  16.356 -0.7793  0.6481 -0.0312
  320TMC3    C5 4861   1.621   2.925  16.302 -0.4838 -0.4964  0.1734
  320TMC3    C6 4862   1.580   3.015  16.206  0.4777  0.6701  0.5729
  320TMC3     C 4863   1.950   3.040  16.393 -0.0002  0.7110 -0.1481
  320TMC3     O 4864   1.947   2.991  16.504  0.2959  0.1380  0.6996
  320TMC3     H 4865   1.850   3.200  16.175 -0.5966 -1.0101 -2.7295
  320TMC3    H1 4866   1.783   2.862  16.434 -2.0833  0.2813  0.1750
  320TMC3    H2 4867   1.477   3.020  16.175  0.3867  2.0480  1.1115
  320TMC3    C7 4868   1.538   2.804  16.321 -0.7349 -0.4469  0.2717
  320TMC3    C8 4869   1.605   3.231  16.109 -0.3273  0.0892  0.2888
  320TMC3    O1 4870   1.412   2.814  16.319 -0.0493  0.4091 -0.8479
  320TMC3    O2 4871   1.625   3.336  16.168  0.1793  0.0562 -0.1886
  321TMC3    C1 4872   2.414   3.235  16.934 -0.2654 -0.1859 -0.4174
  321TMC3    C2 4873   2.346   3.133  16.998 -0.2008  0.3967  0.8634
  321TMC3    C3 4874   2.305   3.161  17.122  0.9768  0.8762 -0.4930
  321TMC3    C4 4875   2.453   3.354  16.999 -0.5048 -0.4958 -0.2644
  321TMC3    C5 4876   2.397   3.372  17.125 -0.4224  0.0152 -0.0355
  321TMC3    C6 4877   2.315   3.280  17.192  0.1178  0.0840  0.0799
  321TMC3     C 4878   2.441   3.231  16.795 -0.0810  0.1438 -0.7221
  321TMC3     O 4879   2.546   3.278  16.757 -0.2537 -0.0354  0.3904
  321TMC3     H 4880   2.337   3.032  16.958 -1.0949  0.7464  0.1841
  321TMC3    H1 4881   2.522   3.428  16.962 -0.8869  1.0881  2.1756
  321TMC3    H2 4882   2.273   3.293  17.291 -0.6052 -0.5504 -0.1441
  321TMC3    C7 4883   2.499   3.426  17.218  0.2039 -0.4589  0.4766
  321TMC3    C8 4884   2.318   3.057  17.217 -0.2556  0.1057 -0.4297
  321TMC3    O1 4885   2.584   3.509  17.188  0.6305  0.7348 -0.1253
  321TMC3    O2 4886   2.350   3.094  17.328  0.1542  0.6574  0.0468
  322MPD2     C 4887   1.044   0.104  13.361  0.5410  0.3590  0.4460
  322MPD2    C1 4888   1.045   0.032  13.479 -0.4651  0.7288  0.3552
  322MPD2    C2 4889   1.092   4.641  13.477  0.0836  0.0018 -0.0743
  322MPD2    C3 4890   1.144   4.588  13.361  0.0425  0.1329 -0.0043
  322MPD2    C4 4891   1.147   4.669  13.247 -0.4588 -0.5264 -0.2609
  322MPD2    C5 4892   1.099   0.058  13.249 -0.2618  0.2706  0.1756
  322MPD2     H 4893   1.095   4.575  13.563 -4.5708  0.9605  0.7960
  322MPD2    H1 4894   1.187   4.638  13.151 -2.6749 -0.9902 -1.0165
  322MPD2    H2 4895   1.008   0.205  13.367  0.3641  0.2876  0.5906
  322MPD2    H3 4896   1.089   0.123  13.164 -2.3633  0.4287  0.5303
  322MPD2     N 4897   1.183   4.454  13.360 -0.1038 -0.2564 -0.1551
  322MPD2    H5 4898   1.168   4.397  13.442  0.4301  0.3642  0.3674
  322MPD2    N1 4899   0.999   0.101  13.597  0.1555  0.0867 -0.4697
  322MPD2    H7 4900   0.966   0.195  13.579 -1.9626 -0.5898 -0.1012
  323TMC3    C1 4901   0.952   0.148  13.825 -1.0406 -0.1665  0.1988
  323TMC3    C2 4902   0.984   0.282  13.805 -0.0008  0.2858  0.3399
  323TMC3    C3 4903   1.007   0.366  13.915  0.5197 -0.2006 -0.3097
  323TMC3    C4 4904   0.932   0.102  13.954  0.8976  0.4681 -0.0781
  323TMC3    C5 4905   0.947   0.192  14.059  0.0685  0.6336  1.3117
  323TMC3    C6 4906   0.976   0.325  14.040 -0.5879 -0.3017  0.5664
  323TMC3     C 4907   0.988   0.052  13.725  0.2282  0.7770  0.2210
  323TMC3     O 4908   1.016   4.675  13.770  0.0369  0.6786  0.0261
  323TMC3     H 4909   1.017   0.305  13.704 -1.9056 -0.7739 -0.5228
  323TMC3    H1 4910   0.923   4.731  13.977 -0.2375  0.3100 -1.2721
  323TMC3    H2 4911   0.995   0.382  14.130 -0.2055  0.4656  0.0057
  323TMC3    C7 4912   1.011   0.134  14.169  0.2799  0.0945 -0.8429
  323TMC3    C8 4913   1.143   0.418  13.919 -0.7817 -0.0398 -1.4910
  323TMC3    O1 4914   0.963   0.030  14.212 -0.1310  0.1519 -1.2801
  323TMC3    O2 4915   1.193   0.424  14.030  0.4474  0.4188  0.4911
  324MPD2     C 4916   2.719   1.044  14.244 -0.5082  0.7782 -0.6507
  324MPD2    C1 4917   2.747   1.179  14.220  0.3571 -0.4081  0.5150
  324MPD2    C2 4918   2.645   1.268  14.188 -0.3481  0.2840 -0.2917
  324MPD2    C3 4919   2.512   1.233  14.199  0.1242  1.1078  0.8441
  324MPD2    C4 4920   2.487   1.096  14.225 -0.1048 -0.0702 -0.9553
  324MPD2    C5 4921   2.592   1.011  14.250 -0.2978  0.7367 -0.0270
  324MPD2     H 4922   2.668   1.370  14.161 -1.7331  0.8560  0.7078
  324MPD2    H1 4923   2.386   1.058  14.225 -1.3466  3.2250  0.6295
  324MPD2    H2 4924   2.791   0.971  14.280 -0.4897 -0.3635 -2.9778
  324MPD2    H3 4925   2.574   0.908  14.279 -1.9250  1.1562  0.4798
  324MPD2     N 4926   2.399   1.312  14.186  0.0132  0.0847 -0.4861
  324MPD2    H5 4927   2.310   1.267  14.207  0.6876 -0.3763  1.4021
  324MPD2    N1 4928   2.882   1.228  14.221 -0.0291  0.3511  0.2085
  324MPD2    H7 4929   2.889   1.329  14.221  0.2645  0.3305 -0.0330
  325TMC3    C1 4930   2.275   1.515  14.202 -0.1249  0.3816 -0.5750
  325TMC3    C2 4931   2.156   1.474  14.150 -0.1151 -0.1845  0.2270
  325TMC3    C3 4932   2.052   1.569  14.129 -0.3911 -0.0341 -0.2811
  325TMC3    C4 4933   2.293   1.648  14.219 -0.1726  0.1752  0.0581
  325TMC3    C5 4934   2.193   1.737  14.196  0.2391  0.0367  0.8872
  325TMC3    C6 4935   2.072   1.698  14.165 -0.5203  0.1983 -0.1917
  325TMC3     C 4936   2.397   1.449  14.165 -0.0676  0.1393  0.0435
  325TMC3     O 4937   2.494   1.522  14.150 -0.5071  0.1565 -0.2696
  325TMC3     H 4938   2.145   1.371  14.118  1.0355  0.2781 -1.6687
  325TMC3    H1 4939   2.390   1.683  14.252  0.3795 -1.7945  0.4990
  325TMC3    H2 4940   1.998   1.777  14.162  0.9576  1.5718 -0.4298
  325TMC3    C7 4941   2.198   1.845  14.286 -0.3028 -0.4571  0.0795
  325TMC3    C8 4942   1.952   1.529  14.032 -0.2799 -0.0762 -0.1452
  325TMC3    O1 4943   2.276   1.939  14.277 -0.1448 -0.0069  0.3076
  325TMC3    O2 4944   1.962   1.420  13.978  0.7049 -0.3660 -0.1778
  326MPD2     C 4945   3.836   1.865  11.117 -0.2139  0.1914  0.3438
  326MPD2    C1 4946   3.867   1.906  10.989  0.0719 -0.6072 -0.0283
  326MPD2    C2 4947   3.998   1.954  10.962 -0.1505  0.3139 -0.2862
  326MPD2    C3 4948   4.077   1.987  11.076  0.1375 -0.6843  0.5376
  326MPD2    C4 4949   4.049   1.937  11.208 -0.4476 -0.0031  0.3283
  326MPD2    C5 4950   3.922   1.876  11.234  0.0808  0.3047  0.5764
  326MPD2     H 4951   4.025   1.976  10.860  0.1235 -0.0824 -0.3013
  326MPD2    H1 4952   4.133   1.936  11.276 -0.0610  1.2501 -0.1191
  326MPD2    H2 4953   3.742   1.819  11.142 -1.0808  1.5249 -0.4246
  326MPD2    H3 4954   3.895   1.819  11.322  1.6332  0.8399  1.4131
  326MPD2     N 4955   4.205   2.045  11.059  0.1515  0.5351 -0.2598
  326MPD2    H5 4956   4.269   2.044  11.139  0.0902  1.4367 -0.1991
  326MPD2    N1 4957   3.772   1.882  10.884 -0.8448  0.2327  0.4021
  326MPD2    H7 4958   3.801   1.900  10.789  1.0644  0.9754  1.1360
  327TMC3    C1 4959   3.586   1.823  10.776 -0.0838 -0.2973  0.2008
  327TMC3    C2 4960   3.520   1.936  10.743  0.0943 -0.0433  0.2104
  327TMC3    C3 4961   3.534   1.968  10.611  0.1216  0.3509 -0.0783
  327TMC3    C4 4962   3.679   1.770  10.698 -0.0937 -0.1669  1.0931
  327TMC3    C5 4963   3.696   1.799  10.566  0.1472  0.1168 -0.0958
  327TMC3    C6 4964   3.613   1.903  10.519  0.2609 -0.2098 -0.1831
  327TMC3     C 4965   3.643   1.837  10.903 -0.1621  0.6257  0.3802
  327TMC3     O 4966   3.570   1.837  10.999  0.0157 -0.0524 -0.1032
  327TMC3     H 4967   3.462   1.987  10.819 -0.8482 -1.0735  0.1987
  327TMC3    H1 4968   3.720   1.677  10.734  1.6082  0.3513  0.5336
  327TMC3    H2 4969   3.629   1.944  10.420 -0.7596  3.1324  1.0544
  327TMC3    C7 4970   3.839   1.806  10.516  0.0491 -0.0581 -0.1529
  327TMC3    C8 4971   3.457   2.079  10.555  0.5183  0.2821 -0.5248
  327TMC3    O1 4972   3.860   1.887  10.429 -0.1448  0.3024  0.5120
  327TMC3    O2 4973   3.503   2.130  10.454 -0.1599  0.4318 -0.0642
  328MPD2     C 4974   1.624   2.310  17.227 -0.3592  0.7942  0.1180
  328MPD2    C1 4975   1.514   2.291  17.300  0.0310  0.3313 -0.0187
  328MPD2    C2 4976   1.393   2.271  17.237  0.1060 -0.1410  0.0076
  328MPD2    C3 4977   1.377   2.290  17.100  0.0852  0.8287  0.4315
  328MPD2    C4 4978   1.495   2.335  17.025  0.1465 -0.2258 -0.0071
  328MPD2    C5 4979   1.614   2.343  17.091  0.5145 -0.1769 -0.9315
  328MPD2     H 4980   1.311   2.232  17.296 -0.3817  0.8610 -0.0074
  328MPD2    H1 4981   1.483   2.376  16.926 -2.1282 -0.4290  0.1907
  328MPD2    H2 4982   1.725   2.308  17.267 -0.0511 -2.8079 -0.7802
  328MPD2    H3 4983   1.709   2.373  17.048  1.0627  0.5520  0.7737
  328MPD2     N 4984   1.253   2.267  17.036 -0.3899  0.1110  0.5186
  328MPD2    H5 4985   1.241   2.302  16.942  1.3730 -1.1337 -0.1566
  328MPD2    N1 4986   1.522   2.278  17.444 -0.0002 -0.4115  0.8376
  328MPD2    H7 4987   1.615   2.306  17.476 -0.3296  0.2449  1.2236
  329TMC3    C1 4988   1.472   2.265  17.664  0.4379 -0.0485 -0.3095
  329TMC3    C2 4989   1.411   2.347   0.019  0.5947  0.5846 -0.3361
  329TMC3    C3 4990   1.462   2.334   0.146 -0.7051 -0.3440  0.2183
  329TMC3    C4 4991   1.577   2.182  17.694  0.3102 -0.3467  0.1709
  329TMC3    C5 4992   1.617   2.164   0.084  0.7402 -0.0535  0.1458
  329TMC3    C6 4993   1.559   2.243   0.182  0.1551  0.6164 -0.0013
  329TMC3     C 4994   1.419   2.270  17.532  0.3150  0.4823  0.2821
  329TMC3     O 4995   1.299   2.273  17.515  0.4320  0.7336 -0.1669
  329TMC3     H 4996   1.331   2.414  17.730  0.0744 -0.1906 -0.6758
  329TMC3    H1 4997   1.600   2.103  17.623 -1.9193 -0.8173 -0.0163
  329TMC3    H2 4998   1.578   2.218   0.286  2.7023 -0.6667 -0.7637
  329TMC3    C7 4999   1.659   2.028   0.104 -0.4924 -0.3656  0.2360
  329TMC3    C8 5000   1.392   2.404   0.255  0.4339  0.0199 -0.5699
  329TMC3    O1 5001   1.761   1.988   0.039  0.0594  0.1791  0.2039
  329TMC3    O2 5002   1.284   2.455   0.239 -0.3925  0.1754 -0.3837
  330TMC3    C1 5003   4.539   1.674   9.456 -0.4266  0.7758  0.0470
  330TMC3    C2 5004   4.441   1.596   9.400 -0.4100  0.2300 -1.3624
  330TMC3    C3 5005   4.425   1.472   9.458  0.5655  0.8505 -0.4187
  330TMC3    C4 5006   4.602   1.635   9.569  0.9128 -0.4254 -0.5125
  330TMC3    C5 5007   4.583   1.513   9.621 -0.3691  0.3271  0.3297
  330TMC3    C6 5008   4.489   1.430   9.570 -0.2461 -0.3264  0.3274
  330TMC3     C 5009   4.580   1.797   9.394 -0.2718 -1.1596  0.2686
  330TMC3     O 5010   4.697   1.822   9.391  0.4975 -0.2303 -0.0349
  330TMC3     H 5011   4.414   1.614   9.296  1.4854  0.2063 -1.8643
  330TMC3    H1 5012   4.670   1.708   9.611  0.7832 -1.1974  1.0410
  330TMC3    H2 5013   4.480   1.330   9.609  0.9605 -1.2650 -1.7989
  330TMC3    C7 5014   4.665   1.483   9.739  0.3418  0.3829  1.0829
  330TMC3    C8 5015   4.360   1.373   9.372  0.0370  0.0487  0.4192
  330TMC3    O1 5016   4.714   1.582   9.795 -0.0018 -0.0992 -0.5962
  330TMC3    O2 5017   4.352   1.385   9.250  0.0680  0.1625  0.4369
  331MPD2     C 5018   2.846   0.350  12.764  0.8101 -0.2411 -1.3739
  331MPD2    C1 5019   2.848   0.447  12.670 -0.0297 -0.3072  0.0054
  331MPD2    C2 5020   2.818   0.417  12.541 -0.1058 -0.5444 -0.0621
  331MPD2    C3 5021   2.772   0.292  12.503  0.3529  0.3023  0.0235
  331MPD2    C4 5022   2.769   0.190  12.599  0.1847 -0.4032 -0.0756
  331MPD2    C5 5023   2.805   0.219  12.731 -0.4459  0.4331  0.4756
  331MPD2     H 5024   2.824   0.497  12.468  1.5070 -2.0744 -1.5972
  331MPD2    H1 5025   2.742   0.087  12.577  1.3939 -0.3615 -1.7771
  331MPD2    H2 5026   2.892   0.356  12.862 -1.5032 -2.3209 -0.1360
  331MPD2    H3 5027   2.819   0.139  12.803  2.7389 -1.8022 -2.6319
  331MPD2     N 5028   2.729   0.288  12.370  0.1168  0.1228  0.2992
  331MPD2    H5 5029   2.757   0.371  12.318 -1.0162  0.1461 -0.2850
  331MPD2    N1 5030   2.896   0.579  12.697 -0.5333 -0.7488 -0.7207
  331MPD2    H7 5031   2.905   0.646  12.620 -0.2620  0.6597  0.5315
  332TMC3    C1 5032   2.695   0.193  12.168  0.3480 -0.1207 -0.5297
  332TMC3    C2 5033   2.694   0.318  12.113 -0.0029 -0.4559 -0.0116
  332TMC3    C3 5034   2.787   0.339  12.011 -0.4168  0.4546 -0.1179
  332TMC3    C4 5035   2.748   0.085  12.099 -0.0857  0.7525  0.4954
  332TMC3    C5 5036   2.836   0.113  12.005 -0.1445 -0.1927  0.2172
  332TMC3    C6 5037   2.857   0.241  11.947  0.1607  0.1222 -0.5984
  332TMC3     C 5038   2.673   0.178  12.311 -0.0944  0.3306 -0.5915
  332TMC3     O 5039   2.640   0.073  12.359 -0.2542  0.3568  0.0647
  332TMC3     H 5040   2.656   0.410  12.154 -1.2485 -0.9400 -0.0977
  332TMC3    H1 5041   2.722   4.717  12.121  0.0362  0.2360 -1.7969
  332TMC3    H2 5042   2.939   0.245  11.875  0.7351 -0.9361 -0.0028
  332TMC3    C7 5043   2.943   0.014  12.005 -0.5954 -0.0038 -0.3824
  332TMC3    C8 5044   2.839   0.469  11.980 -0.6227  0.6949  0.5642
  332TMC3    O1 5045   2.904   4.635  11.989  0.1080  0.2518  0.1735
  332TMC3    O2 5046   2.947   0.476  11.926  0.7215  0.2299 -0.4017
  333MPD2     C 5047   2.526   0.570  11.026 -0.3013  0.0926  0.2138
  333MPD2    C1 5048   2.618   0.498  10.955  0.8540  0.4836 -0.0957
  333MPD2    C2 5049   2.656   0.369  10.996  0.1457 -0.0254  0.3100
  333MPD2    C3 5050   2.599   0.319  11.113 -0.1332 -0.4901  0.1559
  333MPD2    C4 5051   2.513   0.396  11.189 -0.6163  0.3654 -0.0686
  333MPD2    C5 5052   2.484   0.520  11.142 -0.4750 -0.4053 -0.4078
  333MPD2     H 5053   2.713   0.301  10.933  1.0001 -0.3070  1.3980
  333MPD2    H1 5054   2.457   0.370  11.278 -0.7005 -0.0689 -0.2455
  333MPD2    H2 5055   2.481   0.662  10.991  1.6689  0.8898 -0.2275
  333MPD2    H3 5056   2.407   0.580  11.191  0.8430  0.0636  1.0952
  333MPD2     N 5057   2.629   0.187  11.153  0.3318 -0.3006 -0.2353
  333MPD2    H5 5058   2.711   0.145  11.111 -1.8928 -3.1701 -1.6298
  333MPD2    N1 5059   2.673   0.565  10.838 -0.1179 -0.1701  0.8247
  333MPD2    H7 5060   2.613   0.640  10.802  0.3643 -0.7420 -1.1663
  334TMC3    C1 5061   2.789   0.603  10.645 -0.0023 -0.9048  0.1799
  334TMC3    C2 5062   2.840   0.519  10.544  0.3773 -0.5065 -1.0912
  334TMC3    C3 5063   2.846   0.569  10.421  0.0533 -0.0563 -0.2549
  334TMC3    C4 5064   2.749   0.730  10.622 -0.1458  0.4269  0.1100
  334TMC3    C5 5065   2.755   0.769  10.488  0.6700  0.0426  0.4306
  334TMC3    C6 5066   2.795   0.690  10.387 -0.0842  0.1400  0.1460
  334TMC3     C 5067   2.789   0.539  10.774 -0.2675 -0.4977 -0.0957
  334TMC3     O 5068   2.867   0.448  10.798  0.0835  0.3029  0.3485
  334TMC3     H 5069   2.856   0.413  10.557  0.8048 -0.6250 -2.6726
  334TMC3    H1 5070   2.720   0.797  10.703 -0.3328  0.7933 -0.2593
  334TMC3    H2 5071   2.804   0.727  10.286 -0.4428 -0.9686 -0.2921
  334TMC3    C7 5072   2.750   0.913  10.466 -0.0274 -0.2216  0.9787
  334TMC3    C8 5073   2.910   0.485  10.324 -0.1207 -0.2989 -0.7129
  334TMC3    O1 5074   2.734   0.986  10.565 -0.6155  0.1699 -0.1109
  334TMC3    O2 5075   2.873   0.517  10.212  0.1693 -0.4733  0.0377
  335TMC3    C1 5076   2.590   1.980  17.466 -0.3606  0.6851  0.0827
  335TMC3    C2 5077   2.502   1.922  17.379 -0.2643  0.1726  0.0551
  335TMC3    C3 5078   2.527   1.926  17.248 -0.5835 -0.3410  0.4658
  335TMC3    C4 5079   2.703   2.047  17.424  0.2172 -0.1186  0.4831
  335TMC3    C5 5080   2.732   2.039  17.290  0.7112 -0.0566 -0.6942
  335TMC3    C6 5081   2.642   1.982  17.199 -0.1205  0.5942 -0.3427
  335TMC3     C 5082   2.556   1.979  17.606 -0.3284 -0.0052 -0.1842
  335TMC3     O 5083   2.438   1.958  17.634 -0.0476  0.4826  0.1036
  335TMC3     H 5084   2.414   1.875  17.420 -0.7762 -2.3683 -3.9268
  335TMC3    H1 5085   2.761   2.097  17.500 -0.5992  0.6252  0.6135
  335TMC3    H2 5086   2.666   1.980  17.093 -1.2471 -2.3518 -0.5627
  335TMC3    C7 5087   2.857   2.082  17.233  0.9482 -0.1342  0.0298
  335TMC3    C8 5088   2.430   1.882  17.150 -0.0711 -0.1176  0.0651
  335TMC3    O1 5089   2.870   2.044  17.116  0.3514  0.4606  0.1053
  335TMC3    O2 5090   2.451   1.915  17.037  0.3145  0.3185 -0.1963
  336MPD2     C 5091   1.783   4.415  16.280  0.0436 -0.4091 -0.1480
  336MPD2    C1 5092   1.738   4.349  16.165  0.3539  0.6117 -0.8696
  336MPD2    C2 5093   1.756   4.217  16.144  0.3972  0.3327 -0.8174
  336MPD2    C3 5094   1.819   4.152  16.249 -0.5600  0.6251 -0.4718
  336MPD2    C4 5095   1.853   4.210  16.367  0.0758 -0.0382 -0.4633
  336MPD2    C5 5096   1.847   4.349  16.378  0.2180 -0.1901  0.6059
  336MPD2     H 5097   1.735   4.177  16.046  1.3120 -2.9680  0.3184
  336MPD2    H1 5098   1.905   4.150  16.440 -0.7071  1.9922  1.7846
  336MPD2    H2 5099   1.766   4.522  16.289  1.2044 -0.0839 -1.9563
  336MPD2    H3 5100   1.873   4.411  16.463  0.8502  1.2109 -0.6084
  336MPD2     N 5101   1.841   4.013  16.245  0.3719 -0.2552  0.4438
  336MPD2    H5 5102   1.878   3.966  16.327  1.0996 -0.7561 -0.1725
  336MPD2    N1 5103   1.684   4.424  16.056 -0.2231  0.2738 -0.0818
  336MPD2    H7 5104   1.645   4.368  15.981 -1.4896 -1.0389  1.5444
  337TMC3    C1 5105   1.603   4.604  15.934 -0.3369  0.4174 -0.1655
  337TMC3    C2 5106   1.482   4.547  15.897 -0.3618  0.1789  0.0773
  337TMC3    C3 5107   1.413   4.604  15.797  1.2042 -0.3402  0.0420
  337TMC3    C4 5108   1.653   4.711  15.866  0.2647  0.3247  0.1812
  337TMC3    C5 5109   1.583   0.026  15.762  0.4984  0.1747  0.7679
  337TMC3    C6 5110   1.464   4.702  15.721 -0.5664 -0.4940  0.1245
  337TMC3     C 5111   1.690   4.561  16.045  0.3540  0.1018  0.3040
  337TMC3     O 5112   1.751   4.648  16.100 -0.0073 -0.5123  0.4614
  337TMC3     H 5113   1.428   4.488  15.970 -1.0630  1.7023  0.7830
  337TMC3    H1 5114   1.733   0.038  15.905 -0.8033  2.4443 -1.0116
  337TMC3    H2 5115   1.412   0.001  15.632 -0.7226 -0.5019  0.2115
  337TMC3    C7 5116   1.632   0.138  15.681 -0.1818  0.7214 -0.3149
  337TMC3    C8 5117   1.282   4.547  15.773 -0.0072 -0.3227 -0.1329
  337TMC3    O1 5118   1.546   0.205  15.622 -0.1599  0.6140 -0.0200
  337TMC3    O2 5119   1.248   4.447  15.835  0.3942 -0.0493 -0.1248
  338MPD2     C 5120   2.217   4.151   0.881 -0.1586  0.6860 -0.8661
  338MPD2    C1 5121   2.166   4.101   0.763  0.4112  0.5344  0.2780
  338MPD2    C2 5122   2.036   4.126   0.733  0.2168 -0.0243 -0.5790
  338MPD2    C3 5123   1.944   4.192   0.811 -0.0230 -0.2005 -0.4077
  338MPD2    C4 5124   1.998   4.240   0.932  0.0191  0.2943 -0.1624
  338MPD2    C5 5125   2.127   4.222   0.963  0.7687 -0.1756  0.0340
  338MPD2     H 5126   1.987   4.093   0.642  0.6501  2.3618 -1.6839
  338MPD2    H1 5127   1.942   4.302   1.000 -1.6956 -0.5036 -0.8377
  338MPD2    H2 5128   2.315   4.119   0.914 -1.1469 -0.2733  1.1294
  338MPD2    H3 5129   2.166   4.259   1.057  1.9063  2.4458 -1.4649
  338MPD2     N 5130   1.810   4.189   0.764  0.1488 -0.1874 -0.6780
  338MPD2    H5 5131   1.788   4.133   0.683  0.5328 -0.6124 -0.4885
  338MPD2    N1 5132   2.243   4.014   0.685  0.3270 -0.4083  0.3273
  338MPD2    H7 5133   2.197   3.973   0.605 -2.7121  2.7581  0.4960
  339TMC3    C1 5134   1.585   4.189   0.765  0.0868  0.7680  0.2498
  339TMC3    C2 5135   1.515   4.094   0.827 -0.4913  0.4655  0.5132
  339TMC3    C3 5136   1.419   4.031   0.752 -0.5624  0.4967  0.5352
  339TMC3    C4 5137   1.567   4.202   0.631 -0.6968  0.3633 -0.5160
  339TMC3    C5 5138   1.483   4.123   0.556  0.0519 -0.1209  0.2718
  339TMC3    C6 5139   1.402   4.034   0.618 -0.9057 -0.6482  0.3361
  339TMC3     C 5140   1.700   4.240   0.827  0.3276 -0.4009  0.1347
  339TMC3     O 5141   1.703   4.275   0.944  0.8648  0.3918  0.6162
  339TMC3     H 5142   1.526   4.070   0.932  0.3746 -0.4836  0.2187
  339TMC3    H1 5143   1.627   4.273   0.574  0.8233 -1.2028 -0.8661
  339TMC3    H2 5144   1.315   3.981   0.582 -0.9731 -0.4216  0.1652
  339TMC3    C7 5145   1.509   4.119   0.413 -0.4021 -0.0411 -0.0982
  339TMC3    C8 5146   1.357   3.915   0.808  0.2160 -0.1718  0.8602
  339TMC3    O1 5147   1.553   4.221   0.359 -0.0276 -0.3320 -0.7500
  339TMC3    O2 5148   1.345   3.808   0.743  0.1590 -0.0198  0.1145
  340MPD2     C 5149   2.940   2.124  10.371  0.4611 -0.3692 -0.7025
  340MPD2    C1 5150   2.863   2.043  10.293 -0.2399 -0.0161 -0.3903
  340MPD2    C2 5151   2.925   1.926  10.247  0.1786 -0.3408  0.2085
  340MPD2    C3 5152   3.057   1.901  10.251  0.3245  0.0452 -0.1651
  340MPD2    C4 5153   3.133   1.989  10.327  0.2354 -0.2101 -0.2501
  340MPD2    C5 5154   3.068   2.088  10.400 -0.0533 -0.9366 -0.0890
  340MPD2     H 5155   2.859   1.857  10.197 -0.0712 -0.2986  0.4837
  340MPD2    H1 5156   3.239   1.982  10.350 -0.1209 -1.5749  0.9659
  340MPD2    H2 5157   2.898   2.209  10.424 -1.3551 -1.0246 -1.0955
  340MPD2    H3 5158   3.133   2.160  10.449  1.2994 -0.0925 -3.0988
  340MPD2     N 5159   3.117   1.793  10.187 -0.6983  0.3544  0.7572
  340MPD2    H5 5160   3.215   1.777  10.206  0.0290  3.5666 -0.3935
  340MPD2    N1 5161   2.725   2.086  10.273 -0.0482  0.1013  0.4540
  340MPD2    H7 5162   2.699   2.156  10.342 -0.7973 -0.0515  0.3251
  341TMC3    C1 5163   2.663   1.950  10.071  0.2359  0.2877  0.2501
  341TMC3    C2 5164   2.590   1.836  10.056  0.3721  0.7321 -0.8064
  341TMC3    C3 5165   2.626   1.758   9.946 -0.2963  0.0090 -0.3975
  341TMC3    C4 5166   2.776   1.982   9.990 -0.6525 -0.3985  0.0859
  341TMC3    C5 5167   2.797   1.900   9.878  0.3657  0.4199  0.7391
  341TMC3    C6 5168   2.730   1.782   9.868  0.3240  0.2363 -0.0625
  341TMC3     C 5169   2.627   2.029  10.188  0.1986  0.5370  0.1944
  341TMC3     O 5170   2.507   2.040  10.200  0.4306 -0.4146 -0.0325
  341TMC3     H 5171   2.518   1.812  10.133 -1.3361  2.0675 -1.9893
  341TMC3    H1 5172   2.844   2.061  10.019 -2.4907  0.3429  2.3985
  341TMC3    H2 5173   2.752   1.711   9.789 -1.2097  1.3127 -1.4538
  341TMC3    C7 5174   2.926   1.919   9.802 -1.0776 -0.5272  0.7101
  341TMC3    C8 5175   2.561   1.628   9.923 -0.0870  0.6041 -0.7240
  341TMC3    O1 5176   2.977   1.817   9.760 -0.6068  0.9126  0.2796
  341TMC3    O2 5177   2.636   1.542   9.876 -0.4603 -0.0951 -0.0188
  342MPD2     C 5178   0.012   0.238   0.092 -0.6670  0.5832 -0.2149
  342MPD2    C1 5179   0.115   0.266   0.006 -0.0662 -0.9965  0.3056
  342MPD2    C2 5180   0.171   0.391  17.737 -0.1486 -0.1637  0.7791
  342MPD2    C3 5181   0.118   0.492   0.074 -0.3946  0.1551  1.1498
  342MPD2    C4 5182   0.018   0.468   0.160  0.3807 -0.0689 -0.1289
  342MPD2    C5 5183   4.697   0.342   0.171  0.6726  0.5548  0.9363
  342MPD2     H 5184   0.248   0.409  17.663 -1.3876 -0.0671 -0.5110
  342MPD2    H1 5185   4.720   0.544   0.230  0.1206 -2.0155  1.8709
  342MPD2    H2 5186   4.690   0.146   0.099 -1.2640  0.9247 -0.5626
  342MPD2    H3 5187   4.618   0.331   0.243  0.0924  1.0954  0.3794
  342MPD2     N 5188   0.162   0.625   0.062 -0.2057 -0.7500  0.5122
  342MPD2    H5 5189   0.120   0.694   0.123 -1.2018 -2.3998  1.6665
  342MPD2    N1 5190   0.167   0.164  17.651  0.2045 -0.7881 -0.1230
  342MPD2    H7 5191   0.226   0.202  17.577  1.0774  0.3619  1.1743
  343TMC3    C1 5192   0.170   4.687  17.530 -1.5190 -0.2056  1.1715
  343TMC3    C2 5193   0.281   4.713  17.460 -0.5920 -0.4100  0.1119
  343TMC3    C3 5194   0.339   4.611  17.385 -1.2114 -0.7835 -0.1653
  343TMC3    C4 5195   0.106   4.569  17.529  0.7627  0.4618  0.0989
  343TMC3    C5 5196   0.160   4.476  17.438 -0.3439  0.1513 -0.0530
  343TMC3    C6 5197   0.265   4.498  17.352 -0.5056  0.0135  0.8226
  343TMC3     C 5198   0.146   0.028  17.660 -0.1300 -0.2081 -0.1641
  343TMC3     O 5199   0.109   4.706   0.021 -0.5935  0.1410  0.3627
  343TMC3     H 5200   0.335   0.070  17.478 -0.3043 -0.7872  1.1750
  343TMC3    H1 5201   0.017   4.552  17.587  1.7873  0.9967  1.8347
  343TMC3    H2 5202   0.311   4.422  17.290 -3.4672 -0.9835 -0.1530
  343TMC3    C7 5203   0.111   4.344  17.445 -0.2674  0.3348 -0.4384
  343TMC3    C8 5204   0.478   4.640  17.330 -0.7558 -0.1873 -0.0891
  343TMC3    O1 5205   0.119   4.274  17.345 -0.4625  0.4075  0.0199
  343TMC3    O2 5206   0.536   0.005  17.369 -0.0229  0.6704  0.3424
  344MPD2     C 5207   1.582   4.404  10.863  0.1462  0.0304  0.0905
  344MPD2    C1 5208   1.587   4.406  10.728 -0.3035  0.4809  0.3381
  344MPD2    C2 5209   1.613   4.531  10.666 -0.0405 -0.5526  0.0397
  344MPD2    C3 5210   1.628   4.647  10.743  0.5398  0.3075 -0.0533
  344MPD2    C4 5211   1.629   4.636  10.876  0.1235 -0.0949 -0.5517
  344MPD2    C5 5212   1.604   4.515  10.936 -0.0534 -0.8933 -0.4585
  344MPD2     H 5213   1.617   4.553  10.560  2.0363 -0.4983  0.1210
  344MPD2    H1 5214   1.651   4.722  10.938  1.0453  0.3338 -1.4681
  344MPD2    H2 5215   1.563   4.315  10.921  1.0968 -0.2363 -0.0016
  344MPD2    H3 5216   1.609   4.510  11.044 -2.0235 -0.6730 -0.3477
  344MPD2     N 5217   1.647   0.044  10.692 -0.2107 -0.0180 -0.6354
  344MPD2    H5 5218   1.651   0.112  10.767  1.6723  0.9917 -1.6813
  344MPD2    N1 5219   1.562   4.290  10.658  0.2212 -0.6059  0.1371
  344MPD2    H7 5220   1.550   4.208  10.717  2.2931 -0.1839  1.1270
  345TMC3    C1 5221   1.673   0.220  10.532  0.8146  0.4018 -0.3168
  345TMC3    C2 5222   1.741   0.290  10.628 -0.1064 -0.2218  0.1368
  345TMC3    C3 5223   1.797   0.409  10.589  0.3331 -0.1138 -0.1687
  345TMC3    C4 5224   1.652   0.261  10.405 -0.0332  0.2024 -0.1886
  345TMC3    C5 5225   1.699   0.388  10.373  0.5251 -0.7365  0.8332
  345TMC3    C6 5226   1.787   0.450  10.462  0.1901 -0.1984 -0.3023
  345TMC3     C 5227   1.664   0.080  10.557  0.7982  0.8070  0.2434
  345TMC3     O 5228   1.665   0.008  10.460 -0.1104 -0.0223  0.2054
  345TMC3     H 5229   1.763   0.247  10.725  0.7938  0.2402  0.1401
  345TMC3    H1 5230   1.578   0.206  10.348 -2.3799  1.5796  1.5487
  345TMC3    H2 5231   1.833   0.547  10.444  2.4700 -1.4735 -1.4480
  345TMC3    C7 5232   1.641   0.483  10.277  0.4360  0.6856  0.0303
  345TMC3    C8 5233   1.766   0.528  10.674  0.2957  0.1279 -0.1006
  345TMC3    O1 5234   1.671   0.603  10.282 -0.3186  0.2549 -0.6147
  345TMC3    O2 5235   1.752   0.641  10.625  0.6297 -0.1109  0.0988
  346MPD2     C 5236   1.211   1.384  14.612 -0.3283  0.2030  0.3964
  346MPD2    C1 5237   1.337   1.412  14.555 -0.1286 -0.1092  0.0217
  346MPD2    C2 5238   1.433   1.467  14.639  0.3289 -0.9481 -0.2930
  346MPD2    C3 5239   1.409   1.501  14.771 -0.1291 -0.5065 -0.9321
  346MPD2    C4 5240   1.283   1.475  14.819 -0.1226 -0.0820 -0.0573
  346MPD2    C5 5241   1.193   1.413  14.742  0.2777  0.0684 -0.2044
  346MPD2     H 5242   1.532   1.474  14.595 -0.3909  0.3314 -1.6967
  346MPD2    H1 5243   1.248   1.497  14.919  2.8277 -1.1691  1.1939
  346MPD2    H2 5244   1.127   1.353  14.552  0.7063 -3.5635  0.8926
  346MPD2    H3 5245   1.092   1.405  14.781 -0.9851 -0.7736 -3.6223
  346MPD2     N 5246   1.513   1.554  14.850 -0.5469 -0.2852 -0.2149
  346MPD2    H5 5247   1.597   1.574  14.797  0.1389 -2.3469  0.0890
  346MPD2    N1 5248   1.370   1.396  14.425  0.2813 -0.6625 -0.2352
  346MPD2    H7 5249   1.459   1.433  14.394  0.8801 -1.9124 -0.0222
  347TMC3    C1 5250   1.637   1.635  15.041  0.1772  0.9204  0.4895
  347TMC3    C2 5251   1.719   1.716  14.960  0.4828 -0.0372 -0.2955
  347TMC3    C3 5252   1.835   1.764  15.020  0.4705 -0.0556 -0.5920
  347TMC3    C4 5253   1.668   1.606  15.171 -0.6334 -0.4302 -0.1833
  347TMC3    C5 5254   1.787   1.654  15.216  0.3796 -0.5347  0.3872
  347TMC3    C6 5255   1.879   1.717  15.140 -0.1901 -0.2052 -0.4527
  347TMC3     C 5256   1.517   1.573  14.993  0.2428  0.8591  0.5009
  347TMC3     O 5257   1.428   1.533  15.072  0.5534  0.0314  0.6711
  347TMC3     H 5258   1.673   1.767  14.876  2.1081  1.7768 -0.0989
  347TMC3    H1 5259   1.598   1.561  15.240 -0.3275  0.0498  0.4406
  347TMC3    H2 5260   1.960   1.773  15.186  0.1300 -0.0186 -1.2393
  347TMC3    C7 5261   1.806   1.630  15.357 -0.3020  0.8269 -0.0496
  347TMC3    C8 5262   1.902   1.862  14.944 -0.6012 -0.0479 -0.1381
  347TMC3    O1 5263   1.714   1.597  15.432  0.5357 -0.5664  1.1955
  347TMC3    O2 5264   1.980   1.931  15.006 -0.0997 -0.1079  0.4973
  348MPD2     C 5265   4.413   0.319  11.671  0.5856 -0.7368 -0.1055
  348MPD2    C1 5266   4.532   0.376  11.634 -0.1114  0.0221 -0.3865
  348MPD2    C2 5267   4.550   0.462  11.523 -0.8575  0.2317 -0.1815
  348MPD2    C3 5268   4.433   0.496  11.460 -0.1867 -0.9545  0.0566
  348MPD2    C4 5269   4.319   0.437  11.495  0.1626  0.5544  0.0158
  348MPD2    C5 5270   4.308   0.350  11.603 -0.8228  0.2022  0.3760
  348MPD2     H 5271   4.648   0.506  11.506 -0.3887 -0.5377  0.4917
  348MPD2    H1 5272   4.226   0.463  11.446 -0.0305 -0.7567 -0.3293
  348MPD2    H2 5273   4.395   0.255  11.757 -2.1561  1.8814  1.2495
  348MPD2    H3 5274   4.211   0.314  11.636  1.3000 -3.2315  2.7809
  348MPD2     N 5275   4.426   0.596  11.366 -0.4261  0.1917 -0.0382
  348MPD2    H5 5276   4.508   0.655  11.365 -1.1719  1.2488  0.3745
  348MPD2    N1 5277   4.654   0.328  11.685 -0.9604 -0.3761 -0.0461
  348MPD2    H7 5278   0.003   0.371  11.647  0.1046 -5.1034 -2.9136
  349TMC3    C1 5279   0.059   0.174  11.784  0.5318 -0.0424  0.2001
  349TMC3    C2 5280   0.103   0.189  11.912  0.4479  0.2511 -0.3168
  349TMC3    C3 5281   0.234   0.220  11.924  0.1787 -0.4217 -0.7131
  349TMC3    C4 5282   0.132   0.188  11.665  0.7830  0.5282 -0.1716
  349TMC3    C5 5283   0.261   0.215  11.688  0.4146 -0.7938 -0.0692
  349TMC3    C6 5284   0.311   0.235  11.813  0.8787  1.1334 -0.5555
  349TMC3     C 5285   4.661   0.221  11.774  0.7732  0.2000 -0.1206
  349TMC3     O 5286   4.579   0.196  11.857  0.7480 -0.1164  0.7880
  349TMC3     H 5287   0.036   0.195  11.997  0.8964  2.6178 -0.1347
  349TMC3    H1 5288   0.092   0.164  11.566 -0.8909 -2.6203  1.2747
  349TMC3    H2 5289   0.418   0.253  11.820  0.8696  0.7316  0.6790
  349TMC3    C7 5290   0.298   0.315  11.589 -0.5912  0.2101 -0.0462
  349TMC3    C8 5291   0.309   0.185  12.043 -1.1433  0.6605 -0.1953
  349TMC3    O1 5292   0.205   0.374  11.532 -0.2699 -0.0152 -0.4448
  349TMC3    O2 5293   0.418   0.227  12.041 -0.1286  0.1652  0.3032
  350MPD2     C 5294   3.711   3.924  10.321  0.2385  0.0302 -0.1756
  350MPD2    C1 5295   3.786   3.813  10.297 -0.1277  0.6935  0.4735
  350MPD2    C2 5296   3.923   3.806  10.325  0.4806 -0.1980  1.0806
  350MPD2    C3 5297   3.982   3.914  10.388 -0.2001 -0.5761  0.8608
  350MPD2    C4 5298   3.904   4.018  10.423  0.6564  0.6062 -0.3763
  350MPD2    C5 5299   3.774   4.034  10.374  0.3386  0.6175 -0.5043
  350MPD2     H 5300   3.965   3.706  10.326  1.1162  0.0667  0.0241
  350MPD2    H1 5301   3.949   4.110  10.461 -0.7107  1.5711 -1.0856
  350MPD2    H2 5302   3.615   3.931  10.273 -0.3505 -1.8657  0.7045
  350MPD2    H3 5303   3.726   4.131  10.368 -1.0392 -0.1740 -2.3916
  350MPD2     N 5304   4.108   3.887  10.446 -0.4319  0.0954 -0.0209
  350MPD2    H5 5305   4.152   3.797  10.429  0.1315  0.5679 -1.0429
  350MPD2    N1 5306   3.743   3.691  10.232 -0.1063  0.3054  0.2993
  350MPD2    H7 5307   3.814   3.624  10.205  2.0711  3.0061 -0.6833
  351TMC3    C1 5308   3.610   3.518  10.162  0.1397 -0.7329 -0.8527
  351TMC3    C2 5309   3.725   3.438  10.141 -0.4886  1.3310  0.4261
  351TMC3    C3 5310   3.710   3.312  10.098  0.1607 -0.1812  0.6050
  351TMC3    C4 5311   3.483   3.461  10.143 -0.3009 -0.7491 -0.4759
  351TMC3    C5 5312   3.478   3.336  10.101 -0.2455  0.0406 -1.4802
  351TMC3    C6 5313   3.589   3.257  10.079  0.6264 -0.0897 -0.5788
  351TMC3     C 5314   3.615   3.654  10.199 -0.1752  0.5587  0.3742
  351TMC3     O 5315   3.509   3.715  10.227  0.2719 -0.2520 -0.3445
  351TMC3     H 5316   3.827   3.471  10.154 -0.4197  0.1620  2.7544
  351TMC3    H1 5317   3.398   3.526  10.159 -0.0470 -0.4484 -0.3440
  351TMC3    H2 5318   3.578   3.156  10.041 -0.0125 -0.7597  1.3755
  351TMC3    C7 5319   3.348   3.274  10.110  0.6974 -0.3741 -0.0597
  351TMC3    C8 5320   3.816   3.227  10.091 -0.9784 -1.2703 -0.1974
  351TMC3    O1 5321   3.268   3.328  10.185  0.1874  0.0048  0.5606
  351TMC3    O2 5322   3.916   3.269  10.036  0.7366 -0.7638  0.5534
  352MPD2     C 5323   1.405   1.430   0.883 -1.0137 -0.1488 -0.7173
  352MPD2    C1 5324   1.530   1.474   0.855  0.2364 -0.8399  0.6665
  352MPD2    C2 5325   1.635   1.382   0.874 -0.4270  0.0020  0.2338
  352MPD2    C3 5326   1.619   1.252   0.921  0.1373 -0.3600  0.4380
  352MPD2    C4 5327   1.490   1.214   0.949 -0.7072 -0.6237  0.2484
  352MPD2    C5 5328   1.387   1.300   0.921  0.8727  0.0612 -0.0675
  352MPD2     H 5329   1.732   1.414   0.838 -1.0734  0.8428 -0.7561
  352MPD2    H1 5330   1.468   1.112   0.978  5.2677 -1.3234  2.3625
  352MPD2    H2 5331   1.309   1.481   0.877 -0.4631  1.0016  0.1910
  352MPD2    H3 5332   1.288   1.269   0.953  0.4492  2.0804  0.5811
  352MPD2     N 5333   1.724   1.161   0.940 -0.4216 -0.2953  0.0851
  352MPD2    H5 5334   1.689   1.070   0.970 -1.8744  0.6419  1.2278
  352MPD2    N1 5335   1.552   1.604   0.799  0.0902 -0.2929 -0.9352
  352MPD2    H7 5336   1.472   1.658   0.768 -0.2543  0.5765  1.4388
  353TMC3    C1 5337   1.935   1.065   0.935  0.3705  0.1937  1.1137
  353TMC3    C2 5338   2.050   1.047   0.863  0.4765 -0.4985 -0.4082
  353TMC3    C3 5339   2.115   0.933   0.874 -0.3726  0.8777 -0.0256
  353TMC3    C4 5340   1.887   0.969   1.025  0.6062  0.0736 -0.6003
  353TMC3    C5 5341   1.962   0.857   1.046 -0.6812 -0.3603 -0.3946
  353TMC3    C6 5342   2.072   0.833   0.961  0.2093  0.3136 -0.2645
  353TMC3     C 5343   1.854   1.177   0.905 -0.7430 -0.2135 -0.0657
  353TMC3     O 5344   1.908   1.267   0.847 -0.2596 -0.7360  0.4360
  353TMC3     H 5345   2.078   1.119   0.786 -0.2194  1.5183  1.2341
  353TMC3    H1 5346   1.799   0.987   1.085  0.8575  1.6350 -0.7185
  353TMC3    H2 5347   2.130   0.743   0.970 -1.9989 -0.8775  1.9253
  353TMC3    C7 5348   1.898   0.732   1.089  0.2227 -0.2206  0.2783
  353TMC3    C8 5349   2.236   0.909   0.802 -0.3390 -1.0936 -0.2259
  353TMC3    O1 5350   1.776   0.722   1.078  0.1877  0.1693  0.5764
  353TMC3    O2 5351   2.292   1.009   0.756  0.1039  0.0169 -0.1748
  354TMC3    C1 5352   4.418   2.226  13.657  0.0274  0.4411 -0.3949
  354TMC3    C2 5353   4.384   2.356  13.648  0.0599 -0.1359 -0.6862
  354TMC3    C3 5354   4.392   2.418  13.523 -0.2495  0.8867 -0.1091
  354TMC3    C4 5355   4.486   2.157  13.566  0.6004  0.2125  0.8448
  354TMC3    C5 5356   4.496   2.224  13.448  0.0445  0.1907  0.1310
  354TMC3    C6 5357   4.455   2.355  13.421  0.7863 -0.7053  0.6353
  354TMC3     C 5358   4.347   2.152  13.760  0.5422 -0.2262  1.3205
  354TMC3     O 5359   4.236   2.196  13.789 -0.3222  0.5603 -0.4971
  354TMC3     H 5360   4.328   2.403  13.728  0.1036  0.0975 -0.7921
  354TMC3    H1 5361   4.492   2.049  13.569 -0.3525  0.0581 -4.3119
  354TMC3    H2 5362   4.447   2.383  13.317 -1.1755 -2.4888  0.3120
  354TMC3    C7 5363   4.563   2.145  13.344 -0.4066  0.6429 -0.3754
  354TMC3    C8 5364   4.311   2.532  13.503  0.0635 -0.0836  0.8842
  354TMC3    O1 5365   4.542   2.027  13.329  0.0486  0.4579 -0.0613
  354TMC3    O2 5366   4.245   2.567  13.599  0.1742 -0.0415  0.1864
  355MPD2     C 5367   4.103   2.950  11.436 -0.3186  0.8181 -0.1863
  355MPD2    C1 5368   4.155   3.080  11.412 -0.2264  0.7273  0.1485
  355MPD2    C2 5369   4.134   3.173  11.506  0.5294  0.0727 -0.2999
  355MPD2    C3 5370   4.097   3.138  11.631 -0.1628  0.5336 -0.1677
  355MPD2    C4 5371   4.045   3.020  11.656 -0.7425  0.2319 -0.0200
  355MPD2    C5 5372   4.045   2.919  11.559  0.3699 -0.1029 -0.1332
  355MPD2     H 5373   4.157   3.276  11.481  0.3002  0.4948  1.2669
  355MPD2    H1 5374   4.007   2.995  11.754 -2.0175  0.3069 -0.5001
  355MPD2    H2 5375   4.111   2.876  11.357 -0.9380  2.1993 -1.5507
  355MPD2    H3 5376   3.996   2.826  11.585 -1.2864  0.1946 -2.2105
  355MPD2     N 5377   4.109   3.232  11.727 -0.7631  0.1720 -0.4849
  355MPD2    H5 5378   4.142   3.325  11.702  0.3874 -0.6860 -2.0805
  355MPD2    N1 5379   4.226   3.106  11.297 -0.7864 -0.3856 -0.1506
  355MPD2    H7 5380   4.280   3.190  11.308 -1.5386  0.0661  0.1083
  356TMC3    C1 5381   4.275   3.280  11.871  0.2013 -0.3288 -0.3119
  356TMC3    C2 5382   4.380   3.279  11.778 -0.2964  0.5615 -0.6310
  356TMC3    C3 5383   4.490   3.348  11.817  0.6981  0.8583 -0.3015
  356TMC3    C4 5384   4.300   3.326  11.998  0.5864 -0.8449 -0.6657
  356TMC3    C5 5385   4.412   3.395  12.027 -0.1764  0.1181 -0.0706
  356TMC3    C6 5386   4.509   3.412  11.933  0.0718 -0.5374 -0.3482
  356TMC3     C 5387   4.159   3.197  11.848  0.3046  0.6876 -0.9071
  356TMC3     O 5388   4.142   3.093  11.905 -0.1436  0.8615  0.5355
  356TMC3     H 5389   4.388   3.214  11.692 -1.2085 -0.1702 -0.1641
  356TMC3    H1 5390   4.226   3.312  12.076  1.0967 -0.9628 -0.2061
  356TMC3    H2 5391   4.605   3.452  11.963  0.0229  0.5493 -1.6416
  356TMC3    C7 5392   4.430   3.444  12.161  0.5973  0.3454 -0.0254
  356TMC3    C8 5393   4.603   3.332  11.723 -0.1819 -0.1949  0.8306
  356TMC3    O1 5394   4.362   3.383  12.245 -0.5301 -0.0313 -0.6670
  356TMC3    O2 5395   4.613   3.219  11.678  0.3921 -0.6441 -0.2400
  357MPD2     C 5396   3.759   2.787   0.295 -0.0780  0.1355 -0.1298
  357MPD2    C1 5397   3.758   2.834   0.422 -0.6405 -0.2155 -0.2440
  357MPD2    C2 5398   3.645   2.910   0.464  0.5887 -0.1964 -0.0915
  357MPD2    C3 5399   3.539   2.946   0.375  0.2374  0.2604  0.8647
  357MPD2    C4 5400   3.556   2.900   0.244  0.3969  0.3287  0.6301
  357MPD2    C5 5401   3.655   2.812   0.209 -0.1327 -0.3930 -0.1062
  357MPD2     H 5402   3.636   2.940   0.568  0.0226  0.6911 -0.3978
  357MPD2    H1 5403   3.475   2.911   0.174  3.3173  2.6579 -2.3861
  357MPD2    H2 5404   3.840   2.726   0.256  2.6287  2.5975  1.5688
  357MPD2    H3 5405   3.663   2.800   0.101  0.3989  4.3162 -0.6151
  357MPD2     N 5406   3.413   3.011   0.399 -0.0660 -0.3031 -0.0235
  357MPD2    H5 5407   3.358   3.025   0.315 -0.3279  0.1603  0.2210
  357MPD2    N1 5408   3.874   2.813   0.501 -0.2309  0.5586  0.2251
  357MPD2    H7 5409   3.955   2.780   0.449  1.7752  0.8465  3.1819
  358TMC3    C1 5410   4.005   2.797   0.705  0.0522 -0.1767 -0.4916
  358TMC3    C2 5411   4.075   2.696   0.642 -0.1173  0.0131 -0.6868
  358TMC3    C3 5412   4.129   2.598   0.710  0.4369  0.0000 -0.5446
  358TMC3    C4 5413   3.995   2.807   0.838 -0.3098 -0.6239  0.4301
  358TMC3    C5 5414   4.061   2.706   0.908  0.4244  0.2665 -0.3290
  358TMC3    C6 5415   4.120   2.601   0.846  0.1141 -0.0492  0.4297
  358TMC3     C 5416   3.880   2.841   0.637  0.6427  0.3225 -0.2263
  358TMC3     O 5417   3.801   2.901   0.712 -0.6955  0.1457 -0.0416
  358TMC3     H 5418   4.092   2.690   0.535 -0.6378  1.8138 -0.8628
  358TMC3    H1 5419   3.955   2.894   0.887  0.7824  0.8121 -1.2426
  358TMC3    H2 5420   4.199   2.549   0.900 -0.0221 -1.0840 -0.3724
  358TMC3    C7 5421   4.060   2.705   1.054  0.3724 -0.1413 -0.2040
  358TMC3    C8 5422   4.125   2.471   0.645 -0.2374 -0.0661 -0.5154
  358TMC3    O1 5423   4.148   2.640   1.108  0.1884 -0.4339  0.1369
  358TMC3    O2 5424   4.156   2.464   0.532 -0.1073  0.3187  0.4037
  359MPD2     C 5425   4.079   1.002  12.272 -0.2675  0.5244 -0.8164
  359MPD2    C1 5426   4.208   0.966  12.239 -0.4831 -0.1408 -0.2880
  359MPD2    C2 5427   4.303   1.028  12.315 -0.3894 -0.1077 -0.0393
  359MPD2    C3 5428   4.277   1.123  12.413 -0.5025 -0.1042  0.0203
  359MPD2    C4 5429   4.148   1.143  12.449 -0.2718 -0.2511 -0.0034
  359MPD2    C5 5430   4.051   1.084  12.377  0.3419 -0.8576 -0.5686
  359MPD2     H 5431   4.406   1.015  12.284 -1.1071 -1.1224 -2.0497
  359MPD2    H1 5432   4.117   1.222  12.516  3.2251 -1.1323  2.6880
  359MPD2    H2 5433   4.000   0.954  12.215  0.6859  0.8666 -2.4267
  359MPD2    H3 5434   3.948   1.114  12.390  0.1097 -0.8897 -2.3579
  359MPD2     N 5435   4.366   1.193  12.493  0.7913 -0.0597 -0.0399
  359MPD2    H5 5436   4.328   1.267  12.552  0.1141 -0.4587  0.0143
  359MPD2    N1 5437   4.251   0.881  12.131 -0.8414 -0.1787 -0.2618
  359MPD2    H7 5438   4.351   0.867  12.117 -0.9238  0.0406 -1.0207
  360TMC3    C1 5439   4.234   0.745  11.947  0.6117 -0.0575 -0.1342
  360TMC3    C2 5440   4.355   0.686  11.967  0.1271 -0.6532  0.5160
  360TMC3    C3 5441   4.442   0.680  11.859 -0.0553  0.6857 -0.7474
  360TMC3    C4 5442   4.200   0.783  11.823 -0.0742  0.3941  0.2475
  360TMC3    C5 5443   4.283   0.774  11.714 -0.0915  0.3157 -0.1083
  360TMC3    C6 5444   4.407   0.714  11.728  0.2574 -0.0858 -0.1403
  360TMC3     C 5445   4.167   0.817  12.046 -0.9142 -0.2151 -0.5574
  360TMC3     O 5446   4.042   0.819  12.034 -0.2077 -0.3958 -0.6037
  360TMC3     H 5447   4.393   0.654  12.063 -0.5036 -0.7240  0.7398
  360TMC3    H1 5448   4.107   0.838  11.817 -0.8104 -0.9019 -0.2368
  360TMC3    H2 5449   4.468   0.696  11.640  1.3411 -0.8871  0.7708
  360TMC3    C7 5450   4.277   0.879  11.613 -0.7144 -0.4740 -0.7102
  360TMC3    C8 5451   4.579   0.649  11.885 -0.0682  0.3087  0.4194
  360TMC3    O1 5452   4.380   0.939  11.579  0.0343  0.8089  0.0733
  360TMC3    O2 5453   4.614   0.578  11.981  0.1647  0.3238  0.4039
  361MPD2     C 5454   0.953   0.543  16.951 -0.8840  0.7256  0.3464
  361MPD2    C1 5455   1.024   0.644  17.018  0.0214 -0.4859 -0.5100
  361MPD2    C2 5456   1.162   0.629  17.035  0.4963  0.7078  0.0330
  361MPD2    C3 5457   1.230   0.522  16.970 -1.0529  0.4585 -0.4705
  361MPD2    C4 5458   1.157   0.432  16.900 -0.1477  0.3062  0.0153
  361MPD2    C5 5459   1.019   0.437  16.896  0.4696 -0.4706  0.1672
  361MPD2     H 5460   1.212   0.693  17.107 -1.7115 -0.8370  2.9557
  361MPD2    H1 5461   1.196   0.339  16.862 -0.7118 -0.8327  2.2647
  361MPD2    H2 5462   0.845   0.549  16.940 -0.8427 -1.0500 -0.9801
  361MPD2    H3 5463   0.957   0.366  16.843 -0.7665  1.8185 -1.4573
  361MPD2     N 5464   1.366   0.497  16.971 -0.4676 -0.3715 -0.0126
  361MPD2    H5 5465   1.391   0.416  16.916  0.7490  0.3716 -0.5720
  361MPD2    N1 5466   0.956   0.757  17.064  0.5849 -0.6851  0.7694
  361MPD2    H7 5467   1.004   0.845  17.080  0.8448 -0.5569 -0.7203
  362TMC3    C1 5468   0.771   0.891  17.126  0.2459 -1.4251  0.6281
  362TMC3    C2 5469   0.674   0.900  17.219  0.7127 -0.1438 -0.4554
  362TMC3    C3 5470   0.603   1.016  17.232  0.4583 -0.2584  0.0639
  362TMC3    C4 5471   0.780   0.983  17.027  0.9297 -0.0644 -0.4049
  362TMC3    C5 5472   0.692   1.087  17.024 -0.2008 -0.4810  0.2926
  362TMC3    C6 5473   0.610   1.111  17.132  0.7851  0.1808 -1.0465
  362TMC3     C 5474   0.832   0.755  17.117 -0.7900  0.3466  0.1481
  362TMC3     O 5475   0.779   0.657  17.166  1.1434 -0.2876 -0.3493
  362TMC3     H 5476   0.665   0.827  17.299  0.4277  2.6940  2.1420
  362TMC3    H1 5477   0.854   0.973  16.949 -0.1670 -1.1186 -1.3071
  362TMC3    H2 5478   0.532   1.186  17.123 -0.1339 -0.6049  0.4007
  362TMC3    C7 5479   0.647   1.146  16.896  0.7709  0.0114 -0.0624
  362TMC3    C8 5480   0.468   0.995  17.282 -0.0900  0.6636 -0.3191
  362TMC3    O1 5481   0.562   1.234  16.904  0.1758  0.0770  0.4055
  362TMC3    O2 5482   0.431   0.880  17.285 -0.8034 -0.1592  0.5583
  363TMC3    C1 5483   0.122   3.586   9.902 -0.4471  0.7412  0.4651
  363TMC3    C2 5484   0.053   3.466   9.901  0.6841 -0.3544  0.5936
  363TMC3    C3 5485   4.662   3.467   9.850  0.2657 -0.1693 -0.3856
  363TMC3    C4 5486   0.061   3.700   9.852 -0.1280 -0.0887  0.0395
  363TMC3    C5 5487   4.661   3.695   9.825  0.6134  0.3557 -0.1757
  363TMC3    C6 5488   4.596   3.577   9.819  0.5232 -0.7351 -0.6790
  363TMC3     C 5489   0.246   3.594   9.977  0.6303  0.4556  0.0388
  363TMC3     O 5490   0.237   3.515  10.068  0.7065 -0.7553 -0.0965
  363TMC3     H 5491   0.097   3.378   9.948 -1.0699 -1.3631  0.3530
  363TMC3    H1 5492   0.125   3.788   9.855 -0.6045  0.1972  2.0536
  363TMC3    H2 5493   4.491   3.567   9.796  0.3203 -0.0682 -0.0809
  363TMC3    C7 5494   4.581   3.811   9.803  0.1882  0.4030 -0.1367
  363TMC3    C8 5495   4.586   3.351   9.878 -0.2405 -0.6386  0.0137
  363TMC3    O1 5496   4.486   3.805   9.721  0.3740 -0.5686  0.1110
  363TMC3    O2 5497   4.469   3.373   9.915  0.2120  0.3524  0.9560
  364MPD2     C 5498   3.133   2.464  10.625 -0.4607 -0.1948 -0.2539
  364MPD2    C1 5499   3.226   2.452  10.524  0.0004 -0.1726  0.2386
  364MPD2    C2 5500   3.310   2.345  10.536  0.5825 -0.2535 -0.1632
  364MPD2    C3 5501   3.296   2.249  10.640  0.0073  0.0387 -0.4844
  364MPD2    C4 5502   3.200   2.265  10.736  0.0095 -0.0556 -0.6067
  364MPD2    C5 5503   3.128   2.378  10.733 -0.1967 -0.8123 -0.1156
  364MPD2     H 5504   3.390   2.337  10.464 -0.1146 -2.7750 -0.6516
  364MPD2    H1 5505   3.183   2.186  10.808 -0.2979 -0.0508 -0.6721
  364MPD2    H2 5506   3.071   2.553  10.634  0.3146  0.2649  0.4507
  364MPD2    H3 5507   3.054   2.375  10.812 -0.8639 -0.4064 -0.7231
  364MPD2     N 5508   3.371   2.124  10.653 -0.7843 -0.1319 -0.1608
  364MPD2    H5 5509   3.340   2.064  10.728  0.5180 -1.2176 -0.4964
  364MPD2    N1 5510   3.226   2.554  10.428 -0.1470 -0.9297 -0.1647
  364MPD2    H7 5511   3.174   2.638  10.453  1.0002  0.0240 -0.9762
  365TMC3    C1 5512   3.335   2.675  10.251  1.0372 -0.4132  0.2503
  365TMC3    C2 5513   3.410   2.661  10.135 -0.6477 -0.3641 -0.0071
  365TMC3    C3 5514   3.515   2.750  10.114  0.8561  0.8131 -0.0041
  365TMC3    C4 5515   3.359   2.780  10.334 -1.1866 -0.1319  0.9832
  365TMC3    C5 5516   3.453   2.872  10.299 -0.7062 -0.2553  0.1787
  365TMC3    C6 5517   3.529   2.863  10.184  0.1901  0.2020  0.5297
  365TMC3     C 5518   3.297   2.550  10.314 -0.2443 -0.1272 -0.2293
  365TMC3     O 5519   3.336   2.447  10.251  0.2416  0.1195 -0.4562
  365TMC3     H 5520   3.403   2.567  10.080  1.5831 -0.7319  0.2992
  365TMC3    H1 5521   3.319   2.778  10.434 -0.0443 -1.8681  1.4136
  365TMC3    H2 5522   3.627   2.906  10.166  0.2494  0.2496  0.9533
  365TMC3    C7 5523   3.520   2.962  10.392  0.5215 -0.2853  0.7293
  365TMC3    C8 5524   3.627   2.701  10.044  0.1659  0.1840  0.2298
  365TMC3    O1 5525   3.560   3.067  10.339 -0.0870  0.6186  0.0428
  365TMC3    O2 5526   3.687   2.783   9.971  0.3390  0.0597 -0.5829
  366MPD2     C 5527   1.034   3.866  15.535 -0.6831  0.0656 -0.0080
  366MPD2    C1 5528   1.171   3.880  15.537  0.1001 -0.0894 -0.0022
  366MPD2    C2 5529   1.251   3.786  15.481  0.9049 -0.4384 -0.3059
  366MPD2    C3 5530   1.195   3.670  15.422  0.4587  0.1860  0.1681
  366MPD2    C4 5531   1.059   3.656  15.424  0.1741  0.1145  0.6045
  366MPD2    C5 5532   0.979   3.752  15.493 -0.0146 -0.3272  0.2922
  366MPD2     H 5533   1.355   3.815  15.476  1.1226 -1.2270 -0.3453
  366MPD2    H1 5534   1.019   3.562  15.387  2.2449 -0.4672 -0.1216
  366MPD2    H2 5535   0.964   3.935  15.583 -0.4809  0.9816 -1.0233
  366MPD2    H3 5536   0.871   3.747  15.494 -0.0142 -0.1926  1.1254
  366MPD2     N 5537   1.286   3.577  15.374 -0.0628  0.0551 -0.1036
  366MPD2    H5 5538   1.379   3.579  15.415 -1.2040  0.1733  2.4763
  366MPD2    N1 5539   1.239   3.996  15.574 -0.0330 -0.4659  0.5112
  366MPD2    H7 5540   1.340   3.992  15.567 -0.1136  0.1342 -0.9349
  367TMC3    C1 5541   1.278   4.227  15.607 -0.4028  0.1974  0.0095
  367TMC3    C2 5542   1.407   4.196  15.638 -0.2258 -0.0569  0.5275
  367TMC3    C3 5543   1.503   4.283  15.592  0.3574  0.6667 -0.2954
  367TMC3    C4 5544   1.258   4.308  15.503 -0.2020 -0.1644  0.7486
  367TMC3    C5 5545   1.355   4.372  15.434 -0.1579  0.3941 -0.4198
  367TMC3    C6 5546   1.478   4.369  15.485  0.0670  0.0939  0.2282
  367TMC3     C 5547   1.185   4.115  15.599 -0.5007 -0.1590  0.3236
  367TMC3     O 5548   1.064   4.140  15.602 -0.1587 -0.1224 -0.2375
  367TMC3     H 5549   1.440   4.114  15.700  1.1014 -0.7822 -1.1454
  367TMC3    H1 5550   1.162   4.309  15.453  1.1083 -0.6724 -1.7753
  367TMC3    H2 5551   1.567   4.411  15.440  1.5399 -0.9444  2.1644
  367TMC3    C7 5552   1.320   4.445  15.311  0.3337  0.5780  0.1794
  367TMC3    C8 5553   1.613   4.301  15.680 -0.1023  0.2713  0.5757
  367TMC3    O1 5554   1.204   4.470  15.282 -0.2734 -0.2240  0.6588
  367TMC3    O2 5555   1.613   4.234  15.784  0.1628 -0.4969 -0.3145
  368MPD2     C 5556   3.013   0.868  13.188 -0.7187 -0.1675 -0.9433
  368MPD2    C1 5557   3.073   0.987  13.154  0.0029  1.3264  0.1041
  368MPD2    C2 5558   3.186   0.983  13.083 -0.5350  0.5027 -0.2046
  368MPD2    C3 5559   3.248   0.866  13.039 -0.4235 -0.5398  0.3100
  368MPD2    C4 5560   3.189   0.752  13.078 -0.4205  0.0132 -0.4752
  368MPD2    C5 5561   3.068   0.751  13.145  0.3887 -0.8437  0.0810
  368MPD2     H 5562   3.243   1.070  13.055  0.2855  0.5897  1.6933
  368MPD2    H1 5563   3.225   0.656  13.042  0.6060  0.3033 -0.2148
  368MPD2    H2 5564   2.919   0.866  13.242 -0.1698 -2.1336 -0.0831
  368MPD2    H3 5565   3.019   0.657  13.168 -1.1038  0.5526  2.7130
  368MPD2     N 5566   3.368   0.864  12.958 -0.1221  0.3413  0.3195
  368MPD2    H5 5567   3.403   0.774  12.927 -1.5336  0.1938 -0.8279
  368MPD2    N1 5568   3.010   1.104  13.189 -0.3861  0.7594  0.8320
  368MPD2    H7 5569   2.924   1.092  13.240 -0.5316  0.7277  0.5783
  369TMC3    C1 5570   2.964   1.333  13.202 -0.3335 -0.0261 -0.5223
  369TMC3    C2 5571   3.012   1.449  13.146  0.0300 -0.4161  0.2915
  369TMC3    C3 5572   2.930   1.525  13.064 -0.8535 -0.4173  0.4081
  369TMC3    C4 5573   2.840   1.308  13.175  0.3084 -0.0416  0.0617
  369TMC3    C5 5574   2.763   1.379  13.097  0.2705  0.7256  0.5709
  369TMC3    C6 5575   2.802   1.492  13.037 -0.6982 -0.2571  0.2256
  369TMC3     C 5576   3.064   1.229  13.183 -0.0923 -0.4644  0.2751
  369TMC3     O 5577   3.171   1.266  13.138  0.4882 -0.1620 -0.3034
  369TMC3     H 5578   3.116   1.477  13.160  0.1806 -1.8199  2.1024
  369TMC3    H1 5579   2.794   1.218  13.214 -0.7110  0.7666  0.7414
  369TMC3    H2 5580   2.740   1.554  12.975 -0.1752  0.5094  0.4704
  369TMC3    C7 5581   2.624   1.333  13.093  0.8837  0.0305 -0.0530
  369TMC3    C8 5582   2.993   1.618  12.969 -0.6366 -1.2665 -0.2755
  369TMC3    O1 5583   2.570   1.276  13.188 -0.0203  0.4231 -0.3111
  369TMC3    O2 5584   2.914   1.691  12.909 -0.1381  0.1412 -0.5833
  370TMC3    C1 5585   2.407   1.650  16.116  0.7521  0.0659 -0.8226
  370TMC3    C2 5586   2.315   1.590  16.197  0.0775 -0.3872 -0.2597
  370TMC3    C3 5587   2.311   1.456  16.197 -1.0377 -0.9269  0.7542
  370TMC3    C4 5588   2.486   1.583  16.023 -0.6975  0.4526  0.0599
  370TMC3    C5 5589   2.459   1.447  16.012  0.5990  0.2098  0.3277
  370TMC3    C6 5590   2.380   1.379  16.104 -0.1803  0.8357 -0.6456
  370TMC3     C 5591   2.415   1.798  16.132  0.2465 -0.0448  0.0654
  370TMC3     O 5592   2.309   1.848  16.171  0.3905  0.0188  1.0058
  370TMC3     H 5593   2.263   1.645  16.275  3.7978  0.2224  1.7677
  370TMC3    H1 5594   2.544   1.635  15.948  0.8393 -2.7785 -1.0032
  370TMC3    H2 5595   2.353   1.275  16.092  1.8949  0.4835 -2.2798
  370TMC3    C7 5596   2.527   1.389  15.903  0.3884  0.3910  0.2896
  370TMC3    C8 5597   2.278   1.382  16.323  0.1466  0.7266  0.2805
  370TMC3    O1 5598   2.575   1.463  15.817  0.3537  0.3053  0.3060
  370TMC3    O2 5599   2.271   1.263  16.311 -0.7292  0.5058  0.0403
  371TMC3    C1 5600   3.409   4.345  15.315  0.5022 -0.6096 -0.6364
  371TMC3    C2 5601   3.383   4.376  15.443 -0.0083  0.6081  0.3004
  371TMC3    C3 5602   3.337   4.501  15.468  0.8580  0.0783 -0.6743
  371TMC3    C4 5603   3.414   4.443  15.221 -0.2333  0.2207  0.1899
  371TMC3    C5 5604   3.389   4.576  15.255 -0.0034  0.8992 -0.0463
  371TMC3    C6 5605   3.360   4.607  15.385  0.0757 -0.2722 -0.1028
  371TMC3     C 5606   3.503   4.232  15.283  0.0082 -0.5918  0.3969
  371TMC3     O 5607   3.542   4.224  15.167  0.2981  0.3150 -0.4029
  371TMC3     H 5608   3.373   4.295  15.514 -2.0244  1.0999  0.5909
  371TMC3    H1 5609   3.415   4.406  15.119 -3.4109 -0.0668  0.2685
  371TMC3    H2 5610   3.345   4.713  15.404 -0.9131 -0.2841 -0.8186
  371TMC3    C7 5611   3.433   4.683  15.168  0.0062 -0.1321  0.0504
  371TMC3    C8 5612   3.321   4.537  15.609  0.0308 -0.7402 -0.3390
  371TMC3    O1 5613   3.436   0.060  15.218 -0.1128  0.4260 -0.1566
  371TMC3    O2 5614   3.366   4.460  15.690 -0.4898  0.2216  0.7222
  372MPD2     C 5615   4.105   1.436  13.183 -0.4734 -0.8522  0.5724
  372MPD2    C1 5616   4.102   1.311  13.241 -0.3317 -0.6562  1.1308
  372MPD2    C2 5617   3.986   1.247  13.275  0.3485  0.2047 -0.5909
  372MPD2    C3 5618   3.868   1.315  13.263 -0.5752 -0.0998  0.4263
  372MPD2    C4 5619   3.866   1.448  13.224  0.1756 -0.2228 -0.4851
  372MPD2    C5 5620   3.980   1.498  13.174 -1.2186 -0.3294 -0.3388
  372MPD2     H 5621   3.985   1.150  13.323  2.0963  2.0496  3.2040
  372MPD2    H1 5622   3.774   1.501  13.199  0.7968  0.6634 -0.8759
  372MPD2    H2 5623   4.199   1.487  13.163  0.6905 -2.0328  2.9051
  372MPD2    H3 5624   3.970   1.587  13.113  0.1803  0.6017  0.7725
  372MPD2     N 5625   3.749   1.239  13.291  0.1590 -0.2127  0.3253
  372MPD2    H5 5626   3.764   1.141  13.315 -0.1392 -0.2769  0.2487
  372MPD2    N1 5627   4.220   1.232  13.258  0.5714  0.6477 -0.2752
  372MPD2    H7 5628   4.216   1.139  13.298  3.1920 -0.6038 -2.9238
  373TMC3    C1 5629   3.522   1.176  13.314  0.7768 -0.3315 -0.1772
  373TMC3    C2 5630   3.410   1.205  13.391 -0.8485 -0.2974 -0.2877
  373TMC3    C3 5631   3.319   1.104  13.397  0.7272 -0.2021  0.7412
  373TMC3    C4 5632   3.549   1.055  13.259 -1.1125  0.7164 -0.4049
  373TMC3    C5 5633   3.464   0.953  13.301  0.2425 -0.1794  0.2240
  373TMC3    C6 5634   3.340   0.977  13.351 -0.9533  0.1731 -0.9245
  373TMC3     C 5635   3.619   1.285  13.304 -0.7076  0.0280  0.6692
  373TMC3     O 5636   3.573   1.397  13.315 -0.3158 -0.0429 -0.5055
  373TMC3     H 5637   3.391   1.293  13.450  1.8555 -1.0741  1.7173
  373TMC3    H1 5638   3.623   1.030  13.183 -1.4135 -0.4965 -0.3049
  373TMC3    H2 5639   3.269   0.900  13.381  0.7232 -0.4264  1.4071
  373TMC3    C7 5640   3.521   0.821  13.289  0.2743  0.5043 -0.3809
  373TMC3    C8 5641   3.252   1.093  13.524 -0.2732 -0.2287 -0.1299
  373TMC3    O1 5642   3.632   0.808  13.246 -0.2928 -0.0409 -0.3287
  373TMC3    O2 5643   3.131   1.096  13.523  0.3331 -0.0418  0.1934
  374TMC3    C1 5644   4.017   1.504   9.247  0.8072  0.3469 -0.7025
  374TMC3    C2 5645   4.033   1.583   9.362  0.1235  0.0795  0.5036
  374TMC3    C3 5646   4.115   1.700   9.350  0.9910 -0.7067  0.1749
  374TMC3    C4 5647   4.060   1.543   9.125 -0.0938 -0.0342 -0.6256
  374TMC3    C5 5648   4.132   1.658   9.114 -0.0463 -0.8195  0.2909
  374TMC3    C6 5649   4.167   1.731   9.230  0.5558  0.4776 -0.3518
  374TMC3     C 5650   3.922   1.396   9.259 -0.2277 -0.5005  0.1553
  374TMC3     O 5651   3.849   1.371   9.159 -0.0590 -0.3894 -0.1897
  374TMC3     H 5652   3.984   1.572   9.459  0.4559 -0.2344  0.6371
  374TMC3    H1 5653   4.036   1.495   9.030 -3.1741  2.3599 -1.0382
  374TMC3    H2 5654   4.229   1.819   9.215  1.0882  0.2028  0.2284
  374TMC3    C7 5655   4.205   1.671   8.988 -0.9784 -0.5710  0.1958
  374TMC3    C8 5656   4.158   1.777   9.464  0.3532 -0.2832  0.3089
  374TMC3    O1 5657   4.227   1.572   8.915  0.1558 -0.0665  0.4780
  374TMC3    O2 5658   4.208   1.889   9.444  0.5401 -0.6754 -0.0087
  375MPD2     C 5659   4.047   1.988  16.540  0.0729 -0.3592  0.3487
  375MPD2    C1 5660   3.965   1.879  16.568  0.2939 -0.5813  0.4533
  375MPD2    C2 5661   3.986   1.760  16.507 -0.4219  0.2018 -0.7002
  375MPD2    C3 5662   4.098   1.740  16.435  0.0813  0.1785  0.0616
  375MPD2    C4 5663   4.171   1.849  16.395 -0.1095  0.3541  0.2469
  375MPD2    C5 5664   4.151   1.972  16.451  0.2062  0.2563  0.2950
  375MPD2     H 5665   3.923   1.679  16.541 -0.8135  1.0122  0.5133
  375MPD2    H1 5666   4.261   1.837  16.336 -0.5252  0.2284 -0.3572
  375MPD2    H2 5667   4.041   2.079  16.599 -0.2393 -0.4270  0.4197
  375MPD2    H3 5668   4.227   2.048  16.438  1.1037 -0.1366  3.1301
  375MPD2     N 5669   4.134   1.611  16.381  0.1383 -0.5759 -0.1395
  375MPD2    H5 5670   4.213   1.618  16.318  0.3465 -4.0035 -0.2674
  375MPD2    N1 5671   3.842   1.889  16.640 -0.2010  0.2117  0.4079
  375MPD2    H7 5672   3.779   1.810  16.650 -0.2614  0.1812 -0.2092
  376TMC3    C1 5673   4.163   1.373  16.347 -0.1834 -0.6091  0.3547
  376TMC3    C2 5674   4.201   1.265  16.417 -0.3343  0.5380 -0.6914
  376TMC3    C3 5675   4.296   1.182  16.361 -0.8667 -0.8289 -0.1575
  376TMC3    C4 5676   4.220   1.398  16.220 -0.3072 -0.3943 -1.1859
  376TMC3    C5 5677   4.307   1.306  16.171 -0.3395  0.6922 -0.6317
  376TMC3    C6 5678   4.345   1.196  16.239  0.0760 -0.0459  0.3921
  376TMC3     C 5679   4.099   1.483  16.423  0.4391 -0.5719  0.0341
  376TMC3     O 5680   4.042   1.455  16.528 -0.3730 -0.2440 -0.0819
  376TMC3     H 5681   4.177   1.249  16.522  1.8031  0.5808 -0.1851
  376TMC3    H1 5682   4.192   1.478  16.152  1.9439  1.6848  0.3094
  376TMC3    H2 5683   4.415   1.122  16.200 -0.7233 -0.4306 -0.3081
  376TMC3    C7 5684   4.341   1.322  16.037 -0.0238 -0.3476 -0.2227
  376TMC3    C8 5685   4.373   1.082  16.437 -0.0596 -0.3225 -0.2135
  376TMC3    O1 5686   4.367   1.439  16.003  0.6953  0.3379  0.1777
  376TMC3    O2 5687   4.349   0.965  16.404 -0.4871  0.2358 -0.2813
  377MPD2     C 5688   2.393   1.741  13.026  0.3834 -0.8881  1.0294
  377MPD2    C1 5689   2.366   1.796  12.901 -0.9747 -0.4491 -0.0147
  377MPD2    C2 5690   2.233   1.794  12.864  1.1627  0.1218  0.2690
  377MPD2    C3 5691   2.137   1.730  12.951 -0.4274 -0.1517 -0.4471
  377MPD2    C4 5692   2.172   1.681  13.076  0.3284  0.1001  0.3733
  377MPD2    C5 5693   2.300   1.698  13.115  0.1378  0.2342 -0.2209
  377MPD2     H 5694   2.202   1.824  12.764 -1.7494  1.1283  1.4869
  377MPD2    H1 5695   2.099   1.640  13.144 -0.0503 -0.7096 -0.5209
  377MPD2    H2 5696   2.495   1.735  13.061  0.6019 -0.3678  0.5047
  377MPD2    H3 5697   2.331   1.656  13.210  1.8556  1.8004 -0.0827
  377MPD2     N 5698   2.007   1.708  12.903 -0.2403 -0.1588 -0.0916
  377MPD2    H5 5699   1.944   1.656  12.964  0.1656 -1.6161 -0.9000
  377MPD2    N1 5700   2.473   1.820  12.818  0.0278 -0.2254 -0.1730
  377MPD2    H7 5701   2.564   1.806  12.860 -0.8900 -1.6726  1.3316
  378TMC3    C1 5702   2.657   1.782  12.385  0.0476  0.8223  0.5598
  378TMC3    C2 5703   2.569   1.847  12.473 -0.1594 -0.1093  0.4541
  378TMC3    C3 5704   2.573   1.806  12.605 -0.1837 -0.9811 -0.4922
  378TMC3    C4 5705   2.742   1.687  12.430  0.3984 -0.6586 -0.2463
  378TMC3    C5 5706   2.742   1.649  12.564 -0.5468 -0.0364  0.0476
  378TMC3    C6 5707   2.659   1.709  12.655 -0.1224  0.0090 -0.6656
  378TMC3     C 5708   2.658   1.816  12.245  0.7829  0.0291  0.4176
  378TMC3     O 5709   2.553   1.862  12.206  0.7935 -0.4123  0.1185
  378TMC3     H 5710   2.499   1.923  12.440 -0.9782 -1.1741 -0.2452
  378TMC3    H1 5711   2.811   1.639  12.362 -0.1577  0.7698 -1.8045
  378TMC3    H2 5712   2.660   1.681  12.759 -0.5680  4.7414  0.5829
  378TMC3    C7 5713   2.820   1.533  12.611 -0.6621  0.2715  0.4544
  378TMC3    C8 5714   2.456   1.839  12.679 -0.1664 -0.4446 -0.0847
  378TMC3    O1 5715   2.783   1.488  12.718  0.1468  0.3212 -0.5014
  378TMC3    O2 5716   2.360   1.867  12.607  0.6669  0.1833 -0.3857
  379MPD2     C 5717   2.829   4.233  16.159  0.0264  1.1249 -0.2042
  379MPD2    C1 5718   2.752   4.171  16.256 -0.0084  0.6327  0.4058
  379MPD2    C2 5719   2.815   4.108  16.360  0.5946 -0.2338  0.0399
  379MPD2    C3 5720   2.947   4.136  16.384 -0.6834  0.1148  0.2475
  379MPD2    C4 5721   3.028   4.204  16.287  0.4553 -1.0674  1.3487
  379MPD2    C5 5722   2.968   4.246  16.174 -0.0946 -0.0593  0.4004
  379MPD2     H 5723   2.769   4.041  16.433 -2.0918 -0.9549 -2.3130
  379MPD2    H1 5724   3.134   4.223  16.301  0.5642 -0.4497 -0.2886
  379MPD2    H2 5725   2.788   4.278  16.070  1.7320  0.9186 -1.0949
  379MPD2    H3 5726   3.028   4.289  16.095 -0.7200  0.6614  0.3146
  379MPD2     N 5727   3.016   4.101  16.506  0.9943 -0.0414 -0.3689
  379MPD2    H5 5728   3.117   4.110  16.503  1.0262 -0.2596  0.1190
  379MPD2    N1 5729   2.609   4.159  16.224 -0.0470 -0.1768 -0.0751
  379MPD2    H7 5730   2.579   4.204  16.138  0.0387 -0.3493 -0.1957
  380TMC3    C1 5731   2.379   4.091  16.256  0.2912 -0.5585  0.0893
  380TMC3    C2 5732   2.309   3.969  16.260  0.4575 -0.2745  0.7824
  380TMC3    C3 5733   2.201   3.956  16.170 -0.7700 -0.1467 -0.9791
  380TMC3    C4 5734   2.340   4.194  16.177  0.3740 -0.1200  0.0671
  380TMC3    C5 5735   2.223   4.179  16.101  0.0335 -0.5902 -0.4661
  380TMC3    C6 5736   2.155   4.056  16.091  0.3857  0.0323  0.3687
  380TMC3     C 5737   2.518   4.083  16.301 -0.5022 -0.4705 -0.7625
  380TMC3     O 5738   2.537   4.002  16.389  0.5989 -0.1822 -0.0998
  380TMC3     H 5739   2.344   3.891  16.326  0.9596  1.3307  2.4289
  380TMC3    H1 5740   2.393   4.288  16.168  0.4986 -0.2309 -0.3756
  380TMC3    H2 5741   2.071   4.044  16.024  1.0481  1.5899 -0.7381
  380TMC3    C7 5742   2.191   4.280  16.005  0.6671  0.1356 -0.0901
  380TMC3    C8 5743   2.202   3.830  16.103  0.0062 -0.0415  0.1875
  380TMC3    O1 5744   2.284   4.346  15.969 -0.3875  0.0586 -0.6202
  380TMC3    O2 5745   2.191   3.726  16.175 -0.0327 -0.5208  0.2697
  381TMC3    C1 5746   2.425   0.660  16.107 -0.3910  0.5461 -0.2303
  381TMC3    C2 5747   2.508   0.763  16.125 -0.6206 -0.4318  0.1151
  381TMC3    C3 5748   2.478   0.851  16.227 -0.2900  0.6779  0.7621
  381TMC3    C4 5749   2.317   0.636  16.181 -0.0008  0.1521 -0.5816
  381TMC3    C5 5750   2.292   0.718  16.287  0.3141  0.1181 -0.4060
  381TMC3    C6 5751   2.375   0.824  16.309 -0.1207 -0.0439  0.2418
  381TMC3     C 5752   2.469   0.549  16.033  0.2989 -0.6103  0.7401
  381TMC3     O 5753   2.439   0.438  16.067 -0.1191  0.6565 -0.5041
  381TMC3     H 5754   2.598   0.768  16.065 -0.2561  2.9531  0.9659
  381TMC3    H1 5755   2.244   0.556  16.172  2.2961 -1.8364 -1.5141
  381TMC3    H2 5756   2.355   0.892  16.391 -0.0613 -2.1904  2.0397
  381TMC3    C7 5757   2.224   0.651  16.396  0.2623 -0.4265 -0.2820
  381TMC3    C8 5758   2.589   0.951  16.248 -0.0334 -0.3064 -0.6187
  381TMC3    O1 5759   2.207   0.532  16.388  0.7330 -0.2005 -0.1443
  381TMC3    O2 5760   2.686   0.942  16.176  0.1797 -0.0254 -0.3086
  382MPD2     C 5761   1.586   2.958  16.718  0.7539  0.2486 -0.2979
  382MPD2    C1 5762   1.630   2.983  16.848 -0.9378 -0.1856 -0.0942
  382MPD2    C2 5763   1.583   2.900  16.948 -0.1830 -0.2728 -0.0147
  382MPD2    C3 5764   1.496   2.798  16.921  0.5672 -0.9306 -0.7491
  382MPD2    C4 5765   1.449   2.786  16.793  0.2971  0.4844  0.8512
  382MPD2    C5 5766   1.509   2.853  16.688 -0.6623 -0.7276  0.3551
  382MPD2     H 5767   1.608   2.929  17.050 -1.5812 -1.4482  0.6655
  382MPD2    H1 5768   1.380   2.704  16.776 -1.0117  1.4113  1.6750
  382MPD2    H2 5769   1.613   3.019  16.633 -1.4217  1.7952  0.1020
  382MPD2    H3 5770   1.483   2.832  16.584 -1.6264 -0.7603  0.6009
  382MPD2     N 5771   1.455   2.705  17.019 -0.0883 -0.4903 -0.3023
  382MPD2    H5 5772   1.377   2.647  16.988  0.4879 -2.5804  2.1399
  382MPD2    N1 5773   1.693   3.105  16.894 -0.3899 -0.0080 -0.7394
  382MPD2    H7 5774   1.724   3.109  16.991 -1.6503  0.0287 -0.3456
  383TMC3    C1 5775   1.436   2.613  17.237 -0.1290  0.2951 -0.3695
  383TMC3    C2 5776   1.305   2.588  17.204  0.0986  0.4168 -0.2429
  383TMC3    C3 5777   1.220   2.555  17.302  0.2038 -0.3263  0.1271
  383TMC3    C4 5778   1.476   2.627  17.371  0.2843 -0.4795  0.0145
  383TMC3    C5 5779   1.382   2.607  17.466 -0.4573 -0.2010  0.7311
  383TMC3    C6 5780   1.257   2.567  17.433 -0.3732  0.0817  0.0064
  383TMC3     C 5781   1.513   2.688  17.145 -1.1613  0.9556 -0.1782
  383TMC3     O 5782   1.620   2.736  17.181  0.0547  0.1472  0.0125
  383TMC3     H 5783   1.276   2.568  17.101 -2.5461 -0.4935  0.6751
  383TMC3    H1 5784   1.574   2.670  17.389  0.6630 -1.6475  0.7458
  383TMC3    H2 5785   1.183   2.550  17.510  0.4971 -1.8135  0.4391
  383TMC3    C7 5786   1.403   2.651  17.600  0.4729 -0.2556 -0.6618
  383TMC3    C8 5787   1.090   2.500  17.266  0.0456  0.5256 -1.0744
  383TMC3    O1 5788   1.307   2.659  17.675  0.3141  0.4111  0.5068
  383TMC3    O2 5789   1.031   2.541  17.165 -0.0074  0.5900  0.1234
  384MPD2     C 5790   3.314   4.087  11.994 -0.1125  0.3128 -0.6096
  384MPD2    C1 5791   3.270   3.977  12.073  0.1238 -1.0634 -0.6868
  384MPD2    C2 5792   3.326   3.852  12.039 -0.1423 -0.3132 -0.1504
  384MPD2    C3 5793   3.428   3.837  11.943  0.7626  0.0499 -0.0068
  384MPD2    C4 5794   3.470   3.946  11.877 -0.1413  0.0860  0.4496
  384MPD2    C5 5795   3.411   4.061  11.897  0.6405 -0.6212  0.3383
  384MPD2     H 5796   3.289   3.770  12.100 -1.1333  0.9071  0.8808
  384MPD2    H1 5797   3.547   3.939  11.801  3.1442  1.1776  3.6721
  384MPD2    H2 5798   3.271   4.186  12.004 -0.9687  0.1005 -2.2568
  384MPD2    H3 5799   3.450   4.142  11.837  1.5583 -1.2695  0.0561
  384MPD2     N 5800   3.498   3.715  11.914  0.3574 -0.2158 -0.5325
  384MPD2    H5 5801   3.586   3.714  11.863  0.5476 -2.0883 -0.1963
  384MPD2    N1 5802   3.192   4.005  12.188  0.0839  0.2460  0.6593
  384MPD2    H7 5803   3.204   4.097  12.228 -0.4705  0.4164  0.4441
  385TMC3    C1 5804   3.550   3.502  11.995  0.6148  0.2362 -0.5597
  385TMC3    C2 5805   3.517   3.368  11.980  0.5938 -0.2214 -0.5417
  385TMC3    C3 5806   3.519   3.278  12.085  0.3871 -0.3560 -0.1844
  385TMC3    C4 5807   3.599   3.546  12.118  0.3574 -0.1312 -0.4909
  385TMC3    C5 5808   3.596   3.461  12.225 -0.1464  0.2390  0.2372
  385TMC3    C6 5809   3.559   3.327  12.207  0.8752 -0.1908  0.8994
  385TMC3     C 5810   3.449   3.593  11.960 -0.1647  0.2418 -0.1992
  385TMC3     O 5811   3.334   3.565  11.975 -0.1623 -0.1997 -0.0902
  385TMC3     H 5812   3.488   3.341  11.879 -0.0856 -1.0302 -0.1251
  385TMC3    H1 5813   3.609   3.651  12.143  0.0740 -0.2626  0.1790
  385TMC3    H2 5814   3.545   3.262  12.292  1.3802 -0.4395  0.7918
  385TMC3    C7 5815   3.528   3.529  12.332  0.0012  0.2314  0.2660
  385TMC3    C8 5816   3.468   3.145  12.074  0.2705 -0.9892  0.0524
  385TMC3    O1 5817   3.447   3.613  12.300  0.2223 -0.6556 -0.2625
  385TMC3    O2 5818   3.442   3.083  12.174  0.2260  0.1207  0.1470
  386TMC3    C1 5819   3.694   1.551  11.456  0.6584 -0.7805 -0.0728
  386TMC3    C2 5820   3.629   1.506  11.355  0.3849  0.4427  0.1529
  386TMC3    C3 5821   3.502   1.550  11.324  0.9996  0.3903 -0.0285
  386TMC3    C4 5822   3.628   1.624  11.546  0.8228 -0.3972  0.3336
  386TMC3    C5 5823   3.507   1.668  11.521  0.2279 -0.2087  0.4111
  386TMC3    C6 5824   3.431   1.617  11.413 -0.3086 -0.4687  0.1100
  386TMC3     C 5825   3.814   1.485  11.505  0.4642  0.1302  0.4119
  386TMC3     O 5826   3.899   1.565  11.534 -0.7185  0.4102  0.2914
  386TMC3     H 5827   3.669   1.430  11.288 -2.2022 -0.2502 -0.6189
  386TMC3    H1 5828   3.675   1.645  11.641  1.9863 -0.2189 -0.2877
  386TMC3    H2 5829   3.334   1.658  11.388 -0.6487 -1.6394 -0.4683
  386TMC3    C7 5830   3.452   1.772  11.603 -0.4965  0.5751 -0.5428
  386TMC3    C8 5831   3.436   1.529  11.202 -0.0306 -0.2453 -0.5017
  386TMC3    O1 5832   3.500   1.796  11.715  0.5460  0.5005 -0.2066
  386TMC3    O2 5833   3.315   1.536  11.195  0.3511  0.2767  0.2103
  387MPD2     C 5834   0.847   1.729  10.122  0.1499  0.2656 -0.5361
  387MPD2    C1 5835   0.897   1.654  10.225  0.2007 -0.0065 -0.2415
  387MPD2    C2 5836   0.969   1.542  10.184  0.8372  0.3964  0.6162
  387MPD2    C3 5837   0.974   1.504  10.053  0.1937 -0.3369 -0.1129
  387MPD2    C4 5838   0.906   1.574   9.960  0.3432  0.8114 -0.1781
  387MPD2    C5 5839   0.839   1.686   9.988 -0.1759  0.0256 -1.3251
  387MPD2     H 5840   1.028   1.500  10.265 -2.1701  0.0960  2.6561
  387MPD2    H1 5841   0.898   1.539   9.857 -0.3669 -0.9611  0.4848
  387MPD2    H2 5842   0.783   1.814  10.139 -1.1222 -0.9046  0.5220
  387MPD2    H3 5843   0.780   1.734   9.911 -0.6669  1.0764 -0.2940
  387MPD2     N 5844   1.058   1.399  10.023  0.0379 -0.0922 -0.5863
  387MPD2    H5 5845   1.115   1.358  10.096 -0.1210  0.5447 -0.1060
  387MPD2    N1 5846   0.898   1.695  10.359  0.1294  1.1413  0.8992
  387MPD2    H7 5847   0.938   1.625  10.420 -1.0759  0.6392  1.1080
  388TMC3    C1 5848   0.913   1.834  10.546 -0.3698 -0.2504  0.1438
  388TMC3    C2 5849   0.911   1.963  10.595 -0.4168 -0.1026  1.6692
  388TMC3    C3 5850   1.011   2.010  10.670 -0.2203 -0.3112 -0.0672
  388TMC3    C4 5851   1.012   1.748  10.574 -0.6998  0.0372  0.0629
  388TMC3    C5 5852   1.107   1.799  10.657  0.7114 -0.1115 -0.5286
  388TMC3    C6 5853   1.115   1.928  10.708 -0.0696 -0.1117 -0.3015
  388TMC3     C 5854   0.869   1.818  10.407 -0.0776  0.3457 -0.8310
  388TMC3     O 5855   0.810   1.913  10.350 -0.3542  0.3991  0.4294
  388TMC3     H 5856   0.835   2.034  10.563 -1.1435 -2.1659 -1.1925
  388TMC3    H1 5857   1.020   1.641  10.557 -1.1574  0.0706 -0.3655
  388TMC3    H2 5858   1.197   1.950  10.774  0.4845 -0.8730 -0.7308
  388TMC3    C7 5859   1.221   1.712  10.672  0.1965 -0.1104 -0.5006
  388TMC3    C8 5860   1.027   2.157  10.685 -0.5772  0.6897  0.3228
  388TMC3    O1 5861   1.258   1.664  10.780 -0.2758 -0.1477  0.2025
  388TMC3    O2 5862   0.944   2.233  10.630 -0.1505  0.4701 -0.0974
  389MPD2     C 5863   0.914   4.368  11.221 -0.4631  0.2067  0.9572
  389MPD2    C1 5864   0.811   4.297  11.162 -0.5104 -0.3698 -0.1103
  389MPD2    C2 5865   0.712   4.246  11.245  0.1422 -0.3288 -0.1825
  389MPD2    C3 5866   0.717   4.261  11.381 -0.0565  0.1028  1.0692
  389MPD2    C4 5867   0.830   4.321  11.437  0.3558  0.1999 -0.1051
  389MPD2    C5 5868   0.923   4.374  11.358  0.2695  0.2343  0.0251
  389MPD2     H 5869   0.622   4.211  11.196 -0.9777 -0.7268  2.1207
  389MPD2    H1 5870   0.849   4.336  11.543  0.9388  2.7799 -0.5722
  389MPD2    H2 5871   0.980   4.439  11.173 -1.5700 -0.6862 -1.9282
  389MPD2    H3 5872   1.000   4.439  11.400  0.1110  2.3336 -2.9104
  389MPD2     N 5873   0.622   4.199  11.464  0.2249  0.2916  0.0438
  389MPD2    H5 5874   0.625   4.214  11.565 -0.1416 -0.9831  0.2514
  389MPD2    N1 5875   0.798   4.305  11.015 -0.3832  0.0978  0.0028
  389MPD2    H7 5876   0.862   4.362  10.960 -0.6232  0.0749 -0.2969
  390TMC3    C1 5877   0.433   4.068  11.511 -0.2254 -0.8038  0.1569
  390TMC3    C2 5878   0.357   3.966  11.468  0.1940  0.1156  0.0183
  390TMC3    C3 5879   0.253   3.931  11.538 -0.0064 -0.8508 -0.4188
  390TMC3    C4 5880   0.408   4.137  11.626  0.1787 -0.2125 -0.3046
  390TMC3    C5 5881   0.294   4.105  11.693 -0.3710 -0.2839  0.0131
  390TMC3    C6 5882   0.213   4.000  11.649  0.1639 -0.1456 -0.7501
  390TMC3     C 5883   0.536   4.104  11.413  0.3809  0.0585 -0.0554
  390TMC3     O 5884   0.545   4.040  11.310  0.4668 -0.1706 -0.2914
  390TMC3     H 5885   0.373   3.928  11.368  1.1661  2.3062 -0.6423
  390TMC3    H1 5886   0.463   4.228  11.646 -1.2599  0.3362  1.1593
  390TMC3    H2 5887   0.121   3.972  11.698  0.3727  0.7514  0.1717
  390TMC3    C7 5888   0.266   4.193  11.809  0.4386  0.6995 -0.4824
  390TMC3    C8 5889   0.160   3.840  11.473  0.5912  0.1820 -0.5546
  390TMC3    O1 5890   0.338   4.292  11.817 -0.1351  0.1267 -0.5224
  390TMC3    O2 5891   0.195   3.785  11.369  0.0431  0.0118  0.1989
  391MPD2     C 5892   4.194   0.750  10.604 -0.1214 -0.5514  0.0951
  391MPD2    C1 5893   4.276   0.826  10.675  0.2681  0.1531  0.5377
  391MPD2    C2 5894   4.354   0.915  10.603 -0.0728  0.2245  0.2850
  391MPD2    C3 5895   4.341   0.938  10.468 -0.2643 -1.1142 -0.0108
  391MPD2    C4 5896   4.248   0.858  10.400 -0.3688 -0.1269 -0.1492
  391MPD2    C5 5897   4.170   0.772  10.468 -0.1665 -0.3497  0.7034
  391MPD2     H 5898   4.428   0.974  10.655  0.6493  1.0077 -1.6511
  391MPD2    H1 5899   4.221   0.869  10.296  1.2705  2.7914 -0.2623
  391MPD2    H2 5900   4.136   0.673  10.653  0.8099 -0.7836  0.8317
  391MPD2    H3 5901   4.098   0.710  10.415 -1.5311  0.6697  1.3738
  391MPD2     N 5902   4.429   1.034  10.414 -0.3709 -0.1951 -0.0142
  391MPD2    H5 5903   4.488   1.083  10.480 -0.6927 -0.2792  0.3376
  391MPD2    N1 5904   4.274   0.809  10.816  0.8209  0.0093 -0.6022
  391MPD2    H7 5905   4.215   0.735  10.855  0.2989  0.3921 -0.6608
  392TMC3    C1 5906   4.472   1.184  10.240 -0.0518  0.0187  0.4543
  392TMC3    C2 5907   4.415   1.246  10.132  0.3064 -1.0696  0.1136
  392TMC3    C3 5908   4.456   1.375  10.110 -0.6936 -0.0076 -0.0646
  392TMC3    C4 5909   4.577   1.235  10.312 -0.0229  0.1400  0.0256
  392TMC3    C5 5910   4.612   1.363  10.288 -0.9242  0.5021 -0.0321
  392TMC3    C6 5911   4.553   1.435  10.184  0.4706  0.1486  0.5193
  392TMC3     C 5912   4.425   1.060  10.277  0.0265 -0.2171 -0.2549
  392TMC3     O 5913   4.362   1.008  10.186 -0.9106  0.0110  0.4639
  392TMC3     H 5914   4.353   1.195  10.060  1.3491 -1.8832 -0.2119
  392TMC3    H1 5915   4.645   1.169  10.364 -0.6417  0.6688  1.4954
  392TMC3    H2 5916   4.579   1.540  10.189  0.6618  0.0505  1.5702
  392TMC3    C7 5917   4.718   1.425  10.371 -0.0823  0.4668 -0.6389
  392TMC3    C8 5918   4.385   1.448  10.006  0.7932 -0.6117 -0.5762
  392TMC3    O1 5919   0.004   1.373  10.479 -0.0761 -0.0818  0.1432
  392TMC3    O2 5920   4.286   1.393   9.962 -0.2169 -0.2158 -0.2596
  393TMC3    C1 5921   3.291   3.825  10.489 -0.4938 -0.2764 -0.3965
  393TMC3    C2 5922   3.165   3.790  10.523  0.3745  0.3038 -0.5182
  393TMC3    C3 5923   3.139   3.672  10.593  0.6410  0.7533  0.2775
  393TMC3    C4 5924   3.398   3.756  10.529  0.0966  0.7519 -0.0152
  393TMC3    C5 5925   3.379   3.633  10.587 -0.3602 -0.4199  0.6032
  393TMC3    C6 5926   3.245   3.583  10.612 -0.4996 -0.3761  1.1465
  393TMC3     C 5927   3.306   3.947  10.420 -0.6282  0.0440  0.0641
  393TMC3     O 5928   3.236   3.963  10.320  0.4848  0.0242 -0.4235
  393TMC3     H 5929   3.081   3.851  10.493 -0.1246  0.1351  0.5534
  393TMC3    H1 5930   3.489   3.775  10.474  1.5054 -3.0049  1.0567
  393TMC3    H2 5931   3.233   3.479  10.638 -0.8791 -0.3991  0.8742
  393TMC3    C7 5932   3.486   3.535  10.563  0.1808  0.2159 -0.3227
  393TMC3    C8 5933   3.008   3.622  10.599  0.4034 -0.0749 -0.1336
  393TMC3    O1 5934   3.441   3.424  10.535  0.2109  0.2460  0.1659
  393TMC3    O2 5935   2.928   3.651  10.510 -0.4734 -0.4392  0.1034
  394TMC3    C1 5936   0.695   4.281  10.811 -0.6685 -0.2387 -0.2839
  394TMC3    C2 5937   0.581   4.277  10.732 -0.5713  0.4119 -0.0713
  394TMC3    C3 5938   0.589   4.304  10.601 -1.0689  0.2999 -0.1456
  394TMC3    C4 5939   0.817   4.301  10.747  0.0396 -0.1741  0.3584
  394TMC3    C5 5940   0.815   4.331  10.613  0.5083  0.1978 -0.3074
  394TMC3    C6 5941   0.705   4.330  10.540  0.1659  0.7511 -0.5621
  394TMC3     C 5942   0.691   4.240  10.947 -0.4580 -0.0599  0.3373
  394TMC3     O 5943   0.602   4.162  10.979 -0.4531 -0.0709  0.2460
  394TMC3     H 5944   0.487   4.273  10.785 -1.6336  0.2587 -1.9858
  394TMC3    H1 5945   0.913   4.299  10.797  0.1544 -2.6891  0.0314
  394TMC3    H2 5946   0.726   4.313  10.435  1.2514 -1.9891  0.1035
  394TMC3    C7 5947   0.940   4.375  10.562  0.1639 -0.2837  1.0232
  394TMC3    C8 5948   0.461   4.297  10.534  0.0816 -0.5771  0.0221
  394TMC3    O1 5949   1.040   4.343  10.624 -0.1490  0.1571  0.1219
  394TMC3    O2 5950   0.375   4.251  10.609 -0.3006 -0.1443 -0.2451
  395TMC3    C1 5951   0.446   1.460  14.575  0.4165 -0.1710  0.3539
  395TMC3    C2 5952   0.351   1.487  14.485 -0.2681  0.4042  0.8022
  395TMC3    C3 5953   0.344   1.612  14.430 -0.4966  0.6043  0.3481
  395TMC3    C4 5954   0.529   1.556  14.621  0.1013  0.1310  0.1234
  395TMC3    C5 5955   0.522   1.679  14.565 -0.3493 -0.0034  0.3513
  395TMC3    C6 5956   0.424   1.711  14.470 -0.9442  0.5716  0.7224
  395TMC3     C 5957   0.395   1.375  14.682  1.0870  0.3727  0.4397
  395TMC3     O 5958   0.370   1.437  14.785  0.2553 -0.4171  0.6966
  395TMC3     H 5959   0.298   1.398  14.452 -0.9231  0.8031  0.7811
  395TMC3    H1 5960   0.607   1.538  14.694 -0.7764 -2.6457  0.3686
  395TMC3    H2 5961   0.402   1.817  14.458 -0.9006  0.4808 -0.1472
  395TMC3    C7 5962   0.607   1.785  14.611  0.6483  0.7613 -0.1783
  395TMC3    C8 5963   0.224   1.656  14.372 -0.2551  0.2123 -0.2271
  395TMC3    O1 5964   0.622   1.803  14.731 -0.4548  0.1907  0.1108
  395TMC3    O2 5965   0.212   1.772  14.335 -0.2136  0.5587  0.2166
  396MPD2     C 5966   4.272   2.647  16.991  0.9143 -0.0470 -0.1657
  396MPD2    C1 5967   4.396   2.665  17.056 -0.1410 -0.1877 -0.2009
  396MPD2    C2 5968   4.488   2.747  16.992 -0.1199  0.8078  0.0457
  396MPD2    C3 5969   4.473   2.805  16.868  0.1721 -0.4858  0.1384
  396MPD2    C4 5970   4.350   2.776  16.803  0.1568 -0.2198  0.0544
  396MPD2    C5 5971   4.252   2.703  16.864 -0.4085 -0.2228  0.2593
  396MPD2     H 5972   4.571   2.774  17.057 -0.8304 -0.2127  1.3814
  396MPD2    H1 5973   4.331   2.809  16.702  6.1907  1.0453 -0.6479
  396MPD2    H2 5974   4.188   2.596  17.036 -2.5105  6.3234  0.7510
  396MPD2    H3 5975   4.159   2.677  16.814  0.3994 -2.6078 -0.0016
  396MPD2     N 5976   4.566   2.898  16.816  0.7863  0.2552  0.4505
  396MPD2    H5 5977   4.636   2.925  16.884  1.9890 -0.3496 -0.5369
  396MPD2    N1 5978   4.432   2.609  17.180 -0.2449  0.1420 -1.0091
  396MPD2    H7 5979   4.519   2.641  17.220  1.0644 -1.1974 -2.7867
  397TMC3    C1 5980   4.405   2.475  17.376  0.2645 -0.4592 -0.2790
  397TMC3    C2 5981   4.517   2.533  17.415 -0.6614  0.5243 -0.4438
  397TMC3    C3 5982   4.603   2.460  17.492  0.1878 -0.1005 -0.2151
  397TMC3    C4 5983   4.381   2.340  17.404 -0.1935  0.5024  0.2239
  397TMC3    C5 5984   4.465   2.276  17.483 -0.0906  0.1503  0.5026
  397TMC3    C6 5985   4.576   2.331  17.538 -0.4306 -0.1826 -0.3428
  397TMC3     C 5986   4.345   2.521  17.248  0.0839 -0.0004 -0.8624
  397TMC3     O 5987   4.255   2.454  17.204 -0.0030 -0.2271  0.3472
  397TMC3     H 5988   4.550   2.630  17.381 -0.9679 -0.0510 -2.3577
  397TMC3    H1 5989   4.293   2.291  17.364  0.1769  0.7184 -0.8601
  397TMC3    H2 5990   4.650   2.267  17.584 -0.3481  1.2436  1.4916
  397TMC3    C7 5991   4.431   2.142  17.532 -0.5177  0.5126 -0.0379
  397TMC3    C8 5992   0.001   2.500  17.452  0.5012 -0.1794  0.3598
  397TMC3    O1 5993   4.380   2.059  17.460  0.0188  0.0668 -0.1092
  397TMC3    O2 5994   0.056   2.585  17.519  0.5251  0.1833 -0.4038
  398MPD2     C 5995   2.707   4.266   0.200 -0.0300  0.3555 -1.0304
  398MPD2    C1 5996   2.811   4.178   0.171 -0.2170  0.5092  0.0517
  398MPD2    C2 5997   2.938   4.223   0.190 -0.1606  0.0077 -0.0446
  398MPD2    C3 5998   2.968   4.355   0.216  0.0423 -0.0338 -0.0867
  398MPD2    C4 5999   2.862   4.447   0.228 -0.1983  0.0906 -0.6597
  398MPD2    C5 6000   2.735   4.400   0.224  0.9757 -0.1149  0.7095
  398MPD2     H 6001   3.016   4.149   0.174  0.7802  1.2995 -1.4868
  398MPD2    H1 6002   2.886   4.548   0.256  0.8742 -0.6889  1.2435
  398MPD2    H2 6003   2.606   4.229   0.193  0.1857 -0.4218 -0.1793
  398MPD2    H3 6004   2.652   4.469   0.238  0.7342 -0.1355 -0.6018
  398MPD2     N 6005   3.105   4.395   0.222 -0.2850 -0.8536  0.3038
  398MPD2    H5 6006   3.172   4.319   0.223  0.7197  0.0356 -0.0288
  398MPD2    N1 6007   2.796   4.040   0.140  0.2477 -0.3217 -0.8578
  398MPD2    H7 6008   2.878   3.981   0.139  0.3629 -0.2119  0.7827
  399TMC3    C1 6009   2.693   3.835   0.108 -0.1091 -0.6478  0.9311
  399TMC3    C2 6010   2.794   3.774   0.173 -0.0013  0.0509 -0.0131
  399TMC3    C3 6011   2.792   3.637   0.172  0.5386 -0.9297  0.4395
  399TMC3    C4 6012   2.586   3.765   0.054 -0.3807  0.0104  0.4377
  399TMC3    C5 6013   2.585   3.625   0.067  0.6437 -0.7078 -0.1707
  399TMC3    C6 6014   2.685   3.556   0.129  0.6796  0.1652 -0.4194
  399TMC3     C 6015   2.672   3.977   0.115 -0.1238 -0.0112 -0.1632
  399TMC3     O 6016   2.559   4.023   0.095  0.7260  0.6966  0.6392
  399TMC3     H 6017   2.868   3.833   0.227 -0.1539 -0.8220  1.1535
  399TMC3    H1 6018   2.490   3.813   0.038 -0.7780 -0.6353  0.9027
  399TMC3    H2 6019   2.689   3.451   0.155  0.3524 -0.2383 -2.0124
  399TMC3    C7 6020   2.488   3.547  17.728 -0.3844 -0.7925 -0.5048
  399TMC3    C8 6021   2.899   3.566   0.246  0.0611 -0.2314 -0.5851
  399TMC3    O1 6022   2.493   3.429   0.015 -0.5912 -0.1968 -0.2062
  399TMC3    O2 6023   2.876   3.446   0.258 -0.0413  0.0573 -0.3450
  400TMC3    C1 6024   1.021   2.219  17.005  0.5159 -0.0326  0.7611
  400TMC3    C2 6025   0.914   2.136  17.024  0.3748 -0.1572 -0.2681
  400TMC3    C3 6026   0.800   2.162  16.951  0.0207  0.4863  0.2583
  400TMC3    C4 6027   1.000   2.338  16.933  0.1272 -0.2233  0.0038
  400TMC3    C5 6028   0.879   2.362  16.875 -0.2175  0.3502  1.2812
  400TMC3    C6 6029   0.777   2.273  16.868  0.3291  0.1842 -0.0421
  400TMC3     C 6030   1.141   2.201  17.088 -0.2271 -0.3795 -0.5120
  400TMC3     O 6031   1.136   2.120  17.178  0.6212  0.1602 -0.1929
  400TMC3     H 6032   0.928   2.043  17.077  2.2597  0.8908  1.0697
  400TMC3    H1 6033   1.077   2.415  16.937  0.9688 -1.1002  0.6733
  400TMC3    H2 6034   0.687   2.296  16.812 -0.0507 -0.1519  0.4347
  400TMC3    C7 6035   0.857   2.492  16.823  0.0411 -0.3010 -0.5021
  400TMC3    C8 6036   0.690   2.077  16.988  0.4352 -0.6399  0.3285
  400TMC3    O1 6037   0.797   2.516  16.717 -0.7789  0.5427  0.3305
  400TMC3    O2 6038   0.693   2.032  17.101 -0.1871 -0.4821  0.4643
  401MPD2     C 6039   4.502   0.766   0.575 -0.0400  0.7753 -0.8531
  401MPD2    C1 6040   4.510   0.740   0.710  0.0750 -0.0090 -0.0219
  401MPD2    C2 6041   4.537   0.606   0.738 -0.5869 -0.5928  0.9000
  401MPD2    C3 6042   4.565   0.509   0.637  0.8267 -0.7573 -0.3555
  401MPD2    C4 6043   4.572   0.549   0.510 -0.0531 -0.0137 -0.3270
  401MPD2    C5 6044   4.531   0.673   0.474  0.1184  0.2165  0.1876
  401MPD2     H 6045   4.542   0.570   0.840  0.2252 -0.3314  0.9503
  401MPD2    H1 6046   4.609   0.485   0.430  1.8013  1.3827 -0.5900
  401MPD2    H2 6047   4.494   0.864   0.529  3.8531  0.9470 -1.1612
  401MPD2    H3 6048   4.517   0.699   0.370 -0.5959 -0.1501  0.1907
  401MPD2     N 6049   4.609   0.377   0.667  0.0488  1.0639  0.0052
  401MPD2    H5 6050   4.650   0.363   0.759 -1.0722  1.3577  0.5451
  401MPD2    N1 6051   4.511   0.836   0.808 -0.3299  0.1551  0.3335
  401MPD2    H7 6052   4.513   0.802   0.904  1.9330  0.0369  0.2636
  402TMC3    C1 6053   0.001   0.203   0.602  0.4816 -0.4874  0.2738
  402TMC3    C2 6054   0.013   0.143   0.724  0.5812 -0.2003 -0.2627
  402TMC3    C3 6055   0.114   0.054   0.741  0.2633 -0.7008 -0.0846
  402TMC3    C4 6056   0.086   0.163   0.493  0.3113 -0.1712 -0.1826
  402TMC3    C5 6057   0.178   0.065   0.519 -0.1635  0.0179  0.6851
  402TMC3    C6 6058   0.195   0.012   0.644 -0.8495 -0.1001 -0.8301
  402TMC3     C 6059   4.621   0.274   0.572  0.3226 -0.0119 -0.3018
  402TMC3     O 6060   4.579   0.257   0.456  0.1480  0.0925  0.0647
  402TMC3     H 6061   4.666   0.151   0.795 -1.1221  1.0235 -2.3968
  402TMC3    H1 6062   0.066   0.188   0.389  1.7176 -2.2755 -0.9548
  402TMC3    H2 6063   0.276   4.677   0.662 -1.3305 -0.5516 -0.4021
  402TMC3    C7 6064   0.262   0.029   0.415 -0.2073  0.3226  0.0883
  402TMC3    C8 6065   0.144   0.003   0.877 -0.5808 -0.8269  0.3038
  402TMC3    O1 6066   0.291   0.116   0.332  0.2724  0.0664 -0.5203
  402TMC3    O2 6067   0.212   4.641   0.892  0.3609  0.1980 -0.1662
  403MPD2     C 6068   2.645   3.690  13.412 -0.4589  0.7052  0.0244
  403MPD2    C1 6069   2.675   3.618  13.526  0.5818  0.3840 -0.6177
  403MPD2    C2 6070   2.751   3.687  13.623  0.8945  0.9739  0.2763
  403MPD2    C3 6071   2.784   3.823  13.615 -0.2322  0.0267  0.1531
  403MPD2    C4 6072   2.723   3.894  13.513 -0.7084  0.0140 -0.6242
  403MPD2    C5 6073   2.660   3.827  13.415 -0.2894 -0.4993 -0.8503
  403MPD2     H 6074   2.791   3.630  13.706  3.0974  0.7432 -0.9532
  403MPD2    H1 6075   2.732   4.001  13.504  0.6540 -0.0598 -0.1906
  403MPD2    H2 6076   2.587   3.636  13.338 -1.6202  0.0573  1.4039
  403MPD2    H3 6077   2.625   3.882  13.328  1.3275 -0.1841 -1.3033
  403MPD2     N 6078   2.869   3.882  13.713 -1.1468  1.3583 -0.2634
  403MPD2    H5 6079   2.919   3.821  13.776 -1.3476  0.7675 -0.6811
  403MPD2    N1 6080   2.654   3.476  13.538 -0.3007  0.4303 -0.3126
  403MPD2    H7 6081   2.619   3.425  13.458  0.4504  0.5887 -0.7462
  404TMC3    C1 6082   2.596   3.281  13.649  0.2107 -0.0235 -0.1444
  404TMC3    C2 6083   2.578   3.223  13.774 -0.0430  0.5069  0.1203
  404TMC3    C3 6084   2.596   3.089  13.779  0.3263 -0.5064 -0.0028
  404TMC3    C4 6085   2.624   3.215  13.532 -0.7731 -0.3997  0.1505
  404TMC3    C5 6086   2.630   3.079  13.540  0.0398  0.0621  0.5194
  404TMC3    C6 6087   2.622   3.017  13.661 -0.0289 -0.1493  0.3673
  404TMC3     C 6088   2.647   3.415  13.659 -0.0622  0.1551 -0.0973
  404TMC3     O 6089   2.645   3.465  13.772  0.4093  0.1601  0.2971
  404TMC3     H 6090   2.532   3.280  13.853 -0.2582  1.0256 -0.3803
  404TMC3    H1 6091   2.630   3.268  13.437 -1.1018 -0.3939  0.1340
  404TMC3    H2 6092   2.631   2.909  13.670 -0.0953 -0.2436 -0.6815
  404TMC3    C7 6093   2.674   3.004  13.425 -0.4742  0.2866  0.8452
  404TMC3    C8 6094   2.618   3.029  13.913 -0.3204  0.1358  0.0792
  404TMC3    O1 6095   2.743   2.907  13.447 -0.2812  0.1877 -0.1999
  404TMC3    O2 6096   2.696   2.936  13.911  0.1978 -0.1681 -0.0338
  405MPD2     C 6097   2.845   4.366  15.044 -0.6150 -0.2845  0.7938
  405MPD2    C1 6098   2.851   4.282  14.937 -0.0515  0.4418  0.1585
  405MPD2    C2 6099   2.792   4.329  14.817 -0.0625  0.1457  0.7605
  405MPD2    C3 6100   2.727   4.444  14.803  0.3976 -0.1261  0.2284
  405MPD2    C4 6101   2.720   4.529  14.910  0.1554 -0.5445 -0.1331
  405MPD2    C5 6102   2.778   4.484  15.033 -0.2858 -0.3802  0.5254
  405MPD2     H 6103   2.796   4.253  14.739 -0.9456  1.6316 -0.7459
  405MPD2    H1 6104   2.666   4.622  14.897  1.2916 -0.0311 -1.1014
  405MPD2    H2 6105   2.893   4.343  15.138  0.4965 -1.1757 -0.0066
  405MPD2    H3 6106   2.772   4.550  15.119  1.1316  0.6994 -0.1919
  405MPD2     N 6107   2.664   4.468  14.680  0.2648  0.6422  0.0530
  405MPD2    H5 6108   2.690   4.402  14.607  0.1950  1.7802 -1.0109
  405MPD2    N1 6109   2.905   4.148  14.961  0.4635 -0.4357  0.5292
  405MPD2    H7 6110   2.940   4.125  15.053 -1.1581 -0.7000  1.0598
  406TMC3    C1 6111   2.274   4.513  14.423 -0.1004  0.3256 -0.3086
  406TMC3    C2 6112   2.300   4.397  14.366  0.0720 -0.6162  0.5408
  406TMC3    C3 6113   2.411   4.324  14.414  0.2403  0.5481  0.2125
  406TMC3    C4 6114   2.364   4.580  14.503  0.5213  0.2676  0.3194
  406TMC3    C5 6115   2.479   4.514  14.537 -0.3954 -0.3605 -0.0204
  406TMC3    C6 6116   2.501   4.387  14.492 -0.5984  0.1153 -0.1360
  406TMC3     C 6117   2.157   4.583  14.383  0.2787 -0.1761 -0.1264
  406TMC3     O 6118   2.133   4.598  14.264  0.1218 -0.3773  0.1325
  406TMC3     H 6119   2.219   4.353  14.309 -0.4935  2.3091 -0.9463
  406TMC3    H1 6120   2.344   4.679  14.542  0.7548  0.2333  0.5302
  406TMC3    H2 6121   2.573   4.320  14.537 -2.2481 -2.2343 -1.0015
  406TMC3    C7 6122   2.558   4.562  14.651 -0.3561 -0.6237 -0.6624
  406TMC3    C8 6123   2.422   4.181  14.385  0.0170  0.1896  0.1428
  406TMC3    O1 6124   2.519   4.661  14.715  0.0953 -0.2978  0.7256
  406TMC3    O2 6125   2.319   4.132  14.347  0.2792 -0.4304  1.2301
  407MPD2     C 6126   0.636   1.016   9.851 -0.4578 -0.0989 -0.1689
  407MPD2    C1 6127   0.707   1.132   9.823  0.1296 -0.7509  0.5181
  407MPD2    C2 6128   0.672   1.244   9.899 -0.4546  0.1881  0.2125
  407MPD2    C3 6129   0.591   1.235  10.012  0.4940 -0.1089  0.3637
  407MPD2    C4 6130   0.525   1.118  10.037 -0.2706  0.1547  1.1736
  407MPD2    C5 6131   0.548   1.017   9.959 -0.3140  0.1332  0.0559
  407MPD2     H 6132   0.699   1.346   9.873 -0.6402  0.3288  0.5758
  407MPD2    H1 6133   0.453   1.109  10.119 -0.0910  2.3779  1.5757
  407MPD2    H2 6134   0.641   0.923   9.796  1.9458 -0.0006 -0.1147
  407MPD2    H3 6135   0.489   0.927   9.977  0.8404 -0.7841 -0.7441
  407MPD2     N 6136   0.573   1.354  10.088  0.0153  0.1827 -0.0377
  407MPD2    H5 6137   0.596   1.441  10.041  0.4271 -1.1133 -2.2160
  407MPD2    N1 6138   0.794   1.152   9.710  0.1785  0.1367  0.4157
  407MPD2    H7 6139   0.847   1.238   9.701 -0.0044  0.1848 -0.2019
  408TMC3    C1 6140   0.935   1.094   9.536 -0.8708  0.1878  0.0700
  408TMC3    C2 6141   1.029   1.002   9.522 -0.2893  0.6941 -0.9411
  408TMC3    C3 6142   1.159   1.035   9.517 -0.0150  0.5007 -0.6756
  408TMC3    C4 6143   0.966   1.226   9.536  0.7146  0.0450 -0.2533
  408TMC3    C5 6144   1.102   1.250   9.527  0.4810 -0.7404  0.1703
  408TMC3    C6 6145   1.200   1.162   9.522 -0.3787 -0.0178  0.2589
  408TMC3     C 6146   0.814   1.064   9.609 -0.3028 -0.3031 -0.2704
  408TMC3     O 6147   0.770   0.951   9.600  0.0058 -0.2550 -0.5057
  408TMC3     H 6148   0.991   0.902   9.502 -2.6029  1.2179  0.8499
  408TMC3    H1 6149   0.889   1.302   9.539 -0.8055 -1.5508  1.2461
  408TMC3    H2 6150   1.305   1.189   9.517 -0.6477  0.9478 -0.2553
  408TMC3    C7 6151   1.143   1.386   9.543  0.6283 -0.4170  0.2804
  408TMC3    C8 6152   1.252   0.919   9.526 -0.3325 -0.3234 -0.8200
  408TMC3    O1 6153   1.239   1.412   9.613  0.0919  0.0384  1.0150
  408TMC3    O2 6154   1.218   0.810   9.486 -0.2125 -0.5914  0.1947
  409MPD2     C 6155   4.560   1.772  17.089  0.2304 -0.2357 -0.5051
  409MPD2    C1 6156   4.631   1.832  17.188 -0.4930  0.3986  0.7547
  409MPD2    C2 6157   4.722   1.929  17.141 -0.5106 -0.5293  0.5315
  409MPD2    C3 6158   4.718   1.991  17.014  0.2343  0.7122  0.9435
  409MPD2    C4 6159   4.642   1.931  16.926 -0.2894  0.5355  0.3733
  409MPD2    C5 6160   4.560   1.831  16.965 -0.2660 -0.4895 -0.0912
  409MPD2     H 6161   0.052   1.963  17.220  0.3180 -0.2513 -0.2836
  409MPD2    H1 6162   4.635   1.967  16.824  1.4438 -0.1065  0.0356
  409MPD2    H2 6163   4.503   1.685  17.121  0.6383 -0.5721 -0.6957
  409MPD2    H3 6164   4.494   1.793  16.887 -0.0646 -0.2155 -0.3973
  409MPD2     N 6165   0.079   2.089  16.964 -0.4062 -0.0064  0.0551
  409MPD2    H5 6166   0.078   2.101  16.863  0.5793  0.8620  0.1542
  409MPD2    N1 6167   4.611   1.783  17.323 -0.5820  0.2196 -0.4880
  409MPD2    H7 6168   4.564   1.695  17.343  1.9498 -1.0409  0.0669
  410TMC3    C1 6169   0.268   2.233  16.996 -0.2279  0.2275  0.5113
  410TMC3    C2 6170   0.364   2.281  17.079 -0.2785 -0.5021  0.0871
  410TMC3    C3 6171   0.456   2.368  17.032  0.5720  0.4844 -0.1443
  410TMC3    C4 6172   0.268   2.255  16.865  0.2767  0.1058 -0.4183
  410TMC3    C5 6173   0.354   2.349  16.820 -0.4460 -0.7233 -0.2821
  410TMC3    C6 6174   0.450   2.404  16.904 -0.2427 -0.2546  0.9912
  410TMC3     C 6175   0.160   2.156  17.049  0.8945  0.0369  0.1544
  410TMC3     O 6176   0.146   2.166  17.176 -0.1383  0.2668 -0.1635
  410TMC3     H 6177   0.351   2.268  17.185  0.6392 -0.2451  0.2337
  410TMC3    H1 6178   0.205   2.209  16.791  0.0994 -1.5412  0.7478
  410TMC3    H2 6179   0.509   2.489  16.873 -0.7616 -1.1454 -2.4437
  410TMC3    C7 6180   0.344   2.381  16.675  0.5445 -0.6493  0.0128
  410TMC3    C8 6181   0.570   2.407  17.112 -0.2023  1.0406 -0.1736
  410TMC3    O1 6182   0.265   2.311  16.614 -0.0732 -0.1953 -0.4648
  410TMC3    O2 6183   0.640   2.497  17.072 -0.8870  0.1477 -0.0990
  411MPD2     C 6184   0.679   2.602  14.363  0.3849 -0.3396  0.5306
  411MPD2    C1 6185   0.650   2.590  14.497  0.9420  0.0318  0.5521
  411MPD2    C2 6186   0.591   2.471  14.551 -0.8910 -0.0091  0.2737
  411MPD2    C3 6187   0.561   2.369  14.467  0.1059 -0.4141  0.4339
  411MPD2    C4 6188   0.594   2.376  14.333  0.3947 -0.6327  0.1123
  411MPD2    C5 6189   0.646   2.491  14.283 -0.5178 -0.5380  0.1290
  411MPD2     H 6190   0.569   2.460  14.656 -5.2753 -2.8784 -0.9238
  411MPD2    H1 6191   0.552   2.300  14.268 -0.9677 -2.3916  3.0172
  411MPD2    H2 6192   0.699   2.694  14.309  0.5347 -0.8699 -0.3166
  411MPD2    H3 6193   0.656   2.487  14.175  0.3376  0.3582  0.1719
  411MPD2     N 6194   0.503   2.255  14.509 -0.4784 -0.1311 -0.3060
  411MPD2    H5 6195   0.479   2.189  14.436 -0.4504 -1.4607  0.8695
  411MPD2    N1 6196   0.675   2.710  14.564  0.1472  0.2731 -0.1735
  411MPD2    H7 6197   0.688   2.791  14.504  2.1792  1.7325  2.2708
  412TMC3    C1 6198   0.333   2.147  14.610  0.3544  0.4814 -0.0959
  412TMC3    C2 6199   0.213   2.199  14.656 -0.0001 -0.2973  0.1007
  412TMC3    C3 6200   0.115   2.198  14.567 -0.3451 -0.4027  0.0151
  412TMC3    C4 6201   0.346   2.079  14.491 -0.2964 -0.0557  0.3432
  412TMC3    C5 6202   0.236   2.073  14.407 -0.9964 -0.6228  0.5478
  412TMC3    C6 6203   0.114   2.122  14.451  0.0395 -0.5098 -0.1093
  412TMC3     C 6204   0.445   2.230  14.633 -0.5277  0.2581  0.2736
  412TMC3     O 6205   0.429   2.304  14.732  0.8683 -0.0675  0.5810
  412TMC3     H 6206   0.211   2.266  14.742  0.2984 -0.6504  0.3834
  412TMC3    H1 6207   0.441   2.034  14.464 -0.3267  0.9820 -1.4902
  412TMC3    H2 6208   0.033   2.133  14.380  1.3260  0.8934 -1.3466
  412TMC3    C7 6209   0.268   2.078  14.265  0.3979  0.3197  1.2203
  412TMC3    C8 6210   0.090   2.334  14.527 -0.0738 -0.5051  0.0077
  412TMC3    O1 6211   0.385   2.075  14.227  0.3997  0.0500  0.4315
  412TMC3    O2 6212   0.185   2.408  14.534 -0.3191  0.3210  0.3339
  413MPD2     C 6213   2.114   0.744  15.753 -0.7370  0.2688  0.2316
  413MPD2    C1 6214   2.153   0.793  15.636  0.2902  0.7290 -0.0917
  413MPD2    C2 6215   2.241   0.723  15.555  0.1669 -0.9292 -0.5168
  413MPD2    C3 6216   2.302   0.609  15.605 -0.2781 -0.0189 -0.3445
  413MPD2    C4 6217   2.275   0.564  15.731 -0.0007 -0.6331 -0.0707
  413MPD2    C5 6218   2.175   0.633  15.796  0.2672 -0.2765  0.4274
  413MPD2     H 6219   2.269   0.764  15.459 -1.2227  1.3910  0.0820
  413MPD2    H1 6220   2.322   0.481  15.782  1.0032  0.6200  1.0529
  413MPD2    H2 6221   2.043   0.796  15.817 -0.5786  0.5651  0.1680
  413MPD2    H3 6222   2.151   0.595  15.895 -0.4257 -0.3551  0.2249
  413MPD2     N 6223   2.399   0.547  15.524  0.0117 -0.0666 -0.6266
  413MPD2    H5 6224   2.419   0.589  15.434 -2.2729  1.5494 -0.3893
  413MPD2    N1 6225   2.094   0.913  15.600 -0.4068  0.3338 -0.1867
  413MPD2    H7 6226   2.021   0.947  15.661 -0.6341  2.9422 -1.8793
  414TMC3    C1 6227   2.522   0.354  15.443  0.3940 -0.6390 -0.0661
  414TMC3    C2 6228   2.592   0.238  15.476  0.4938 -0.6606  0.0402
  414TMC3    C3 6229   2.613   0.158  15.368 -0.2877 -0.1744 -0.9199
  414TMC3    C4 6230   2.494   0.397  15.315  0.4146  0.2802  0.5052
  414TMC3    C5 6231   2.528   0.310  15.214 -0.0511  0.0408 -0.1094
  414TMC3    C6 6232   2.585   0.192  15.239  0.0612 -0.7950  0.8395
  414TMC3     C 6233   2.463   0.424  15.557 -0.5877  0.4151 -0.0386
  414TMC3     O 6234   2.450   0.360  15.659  0.2226 -0.2668  0.2598
  414TMC3     H 6235   2.611   0.209  15.578 -2.4498 -0.6053  0.6218
  414TMC3    H1 6236   2.441   0.487  15.288  1.3031  0.5618 -0.3011
  414TMC3    H2 6237   2.599   0.128  15.152  0.7255  0.4152  0.0419
  414TMC3    C7 6238   2.512   0.352  15.079  0.5817 -0.4965  0.3824
  414TMC3    C8 6239   2.664   0.022  15.381  0.1024 -0.1032 -0.1931
  414TMC3    O1 6240   2.439   0.286  15.001  0.1671  0.2160  0.1646
  414TMC3    O2 6241   2.656   4.682  15.287  0.6833  0.2352  0.2975
  415TMC3    C1 6242   2.881   3.368   9.903  0.7434 -0.1264 -0.2573
  415TMC3    C2 6243   3.015   3.382   9.886 -0.2583  0.0195 -0.0283
  415TMC3    C3 6244   3.070   3.355   9.764 -0.0138  0.2923 -0.6515
  415TMC3    C4 6245   2.804   3.325   9.797 -0.1802 -0.4421  0.0619
  415TMC3    C5 6246   2.864   3.310   9.677  0.0254  0.6218 -0.3770
  415TMC3    C6 6247   2.998   3.316   9.654  1.4182  0.4767 -1.5411
  415TMC3     C 6248   2.820   3.353  10.041  0.1821  0.5758  0.3182
  415TMC3     O 6249   2.710   3.311  10.033 -0.1125 -0.7378  0.1910
  415TMC3     H 6250   3.078   3.418   9.967 -1.1039 -0.4269  0.8279
  415TMC3    H1 6251   2.697   3.339   9.796 -0.1225 -0.1187 -2.3155
  415TMC3    H2 6252   3.048   3.278   9.565 -0.5782  0.1019 -2.5051
  415TMC3    C7 6253   2.788   3.223   9.592 -0.1032 -0.0555 -0.1265
  415TMC3    C8 6254   3.215   3.335   9.759 -0.8201 -0.3079  0.0663
  415TMC3    O1 6255   2.804   3.235   9.471  0.4484 -0.0839 -0.4244
  415TMC3    O2 6256   3.255   3.232   9.703  0.2101  0.9951  0.8142
  416MPD2     C 6257   0.038   1.890  11.719  0.5641 -0.0633 -0.6254
  416MPD2    C1 6258   4.719   1.963  11.617 -1.0308 -0.4749 -0.6386
  416MPD2    C2 6259   4.694   1.895  11.499  0.8457 -0.4482  0.5619
  416MPD2    C3 6260   4.717   1.760  11.487  0.2216  0.1427 -0.2835
  416MPD2    C4 6261   0.037   1.695  11.590  0.5338 -0.1138  0.0231
  416MPD2    C5 6262   0.060   1.755  11.706 -0.2499 -0.1440 -0.2740
  416MPD2     H 6263   4.645   1.954  11.422 -1.9457 -1.6905  1.3996
  416MPD2    H1 6264   0.048   1.587  11.584 -2.7396 -0.4040 -0.4080
  416MPD2    H2 6265   0.063   1.944  11.810 -0.6610 -1.1028  0.3243
  416MPD2    H3 6266   0.106   1.698  11.787  0.4501  1.0058  0.1400
  416MPD2     N 6267   4.657   1.683  11.375  0.1922  0.7996 -0.5285
  416MPD2    H5 6268   4.677   1.584  11.372 -1.8273  0.3033  2.0336
  416MPD2    N1 6269   4.682   2.099  11.634 -0.1478 -0.0782  0.3451
  416MPD2    H7 6270   4.662   2.119  11.731 -0.4116  2.4552 -0.2398
  417TMC3    C1 6271   4.576   2.298  11.588  0.0666  0.0699  0.3084
  417TMC3    C2 6272   4.597   2.339  11.718  0.3343  0.2297  0.0019
  417TMC3    C3 6273   4.528   2.451  11.758 -0.7883  0.5337 -0.3050
  417TMC3    C4 6274   4.488   2.357  11.500 -1.2386  0.0291  0.1706
  417TMC3    C5 6275   4.414   2.464  11.546 -0.2709 -0.4430  0.0931
  417TMC3    C6 6276   4.434   2.516  11.672 -0.2707  0.3946  0.2446
  417TMC3     C 6277   4.645   2.186  11.536  0.7006  0.4716 -0.7157
  417TMC3     O 6278   4.662   2.179  11.417 -0.0336  0.2042  0.0222
  417TMC3     H 6279   4.675   2.304  11.785 -0.1834 -0.9945 -0.0289
  417TMC3    H1 6280   4.486   2.317  11.399 -1.5013 -1.0540  0.6035
  417TMC3    H2 6281   4.375   2.602  11.702  0.0051  0.4288  0.6820
  417TMC3    C7 6282   4.327   2.540  11.460  0.5121  0.0609  0.7309
  417TMC3    C8 6283   4.548   2.509  11.889 -0.3115 -0.9335  0.1218
  417TMC3    O1 6284   4.285   2.648  11.494 -0.1409 -0.3056  0.0728
  417TMC3    O2 6285   4.503   2.619  11.914 -0.1744 -0.1111  0.0845
  418TMC3    C1 6286   3.475   4.463   0.106 -0.3240 -0.2275  0.1265
  418TMC3    C2 6287   3.360   4.526   0.119 -0.6256  0.1222  0.2888
  418TMC3    C3 6288   3.295   4.522   0.237 -0.3278  0.6552 -0.3197
  418TMC3    C4 6289   3.531   4.397   0.211 -0.1509  0.0175  0.3770
  418TMC3    C5 6290   3.468   4.400   0.330 -0.4347  0.2902  0.3349
  418TMC3    C6 6291   3.348   4.463   0.348 -0.3149  0.0564 -0.4633
  418TMC3     C 6292   3.531   4.435  17.721  0.0816  0.5092 -0.5671
  418TMC3     O 6293   3.510   4.524  17.635  0.1998 -0.7469  0.0261
  418TMC3     H 6294   3.314   4.572   0.032  1.0079 -0.1221 -0.7036
  418TMC3    H1 6295   3.623   4.340   0.204  0.1526  0.9365 -3.2750
  418TMC3    H2 6296   3.281   4.446   0.432  2.7050  0.6537  2.0589
  418TMC3    C7 6297   3.484   4.283   0.406 -0.3473  0.1179  0.0372
  418TMC3    C8 6298   3.150   4.526   0.221 -0.9864  0.3013  0.0363
  418TMC3    O1 6299   3.530   4.188   0.347  0.2379  0.1978  0.0569
  418TMC3    O2 6300   3.084   4.629   0.204 -0.7403 -0.1309  0.2980
  419MPD2     C 6301   1.394   2.270  12.517 -0.5686  0.4368 -0.3036
  419MPD2    C1 6302   1.456   2.390  12.497  0.0738 -0.1887 -0.5125
  419MPD2    C2 6303   1.468   2.472  12.604  0.6662 -0.4519 -0.4831
  419MPD2    C3 6304   1.419   2.435  12.725 -0.4899  0.0196  0.3164
  419MPD2    C4 6305   1.365   2.312  12.738 -0.3246 -0.2815  0.5529
  419MPD2    C5 6306   1.349   2.232  12.635  0.0677  0.0549  0.1686
  419MPD2     H 6307   1.514   2.570  12.592  1.0842 -0.5120  0.7114
  419MPD2    H1 6308   1.334   2.270  12.833 -0.5143 -0.4420  0.4179
  419MPD2    H2 6309   1.390   2.199  12.435  2.0485 -3.5306  3.0170
  419MPD2    H3 6310   1.309   2.133  12.651 -0.9997  0.2634 -1.2655
  419MPD2     N 6311   1.438   2.521  12.841 -0.0085 -0.0227  0.0150
  419MPD2    H5 6312   1.486   2.608  12.821 -2.3098  1.8944  2.7821
  419MPD2    N1 6313   1.493   2.440  12.373 -0.1864  0.4925  0.4484
  419MPD2    H7 6314   1.543   2.529  12.366  2.7084 -1.0886  1.1400
  420TMC3    C1 6315   1.442   2.602  13.058  0.0717  0.3488 -0.0053
  420TMC3    C2 6316   1.422   2.736  13.018 -0.2413 -0.6767 -0.6689
  420TMC3    C3 6317   1.459   2.830  13.109 -0.4330 -0.1005 -0.2560
  420TMC3    C4 6318   1.490   2.565  13.186 -0.0385  0.0425  0.5787
  420TMC3    C5 6319   1.536   2.670  13.261 -0.2016  0.1491  0.0742
  420TMC3    C6 6320   1.519   2.798  13.229 -0.0965 -0.1274  0.1082
  420TMC3     C 6321   1.403   2.494  12.972  0.1087  0.0149 -0.1072
  420TMC3     O 6322   1.344   2.401  13.019 -0.0640  0.2242  0.5695
  420TMC3     H 6323   1.391   2.770  12.920  0.9102 -0.2882 -0.9011
  420TMC3    H1 6324   1.481   2.465  13.226  3.1663 -0.4220  0.1336
  420TMC3    H2 6325   1.534   2.883  13.295 -1.0196  1.3700 -1.5942
  420TMC3    C7 6326   1.619   2.632  13.375 -0.0185 -0.0108  0.3166
  420TMC3    C8 6327   1.456   2.967  13.061 -0.4831 -0.2075  0.1660
  420TMC3    O1 6328   1.640   2.511  13.392 -0.1024  0.2584  0.2422
  420TMC3    O2 6329   1.558   3.034  13.080  0.0911 -0.2395  0.4408
  421TMC3    C1 6330   2.969   4.047  13.829  0.6767 -0.5702 -0.4205
  421TMC3    C2 6331   2.933   4.150  13.910 -0.3110 -0.0963  0.3864
  421TMC3    C3 6332   3.031   4.195  13.995 -0.2625  0.4716  1.2567
  421TMC3    C4 6333   3.093   3.985  13.841 -0.0235  0.4685 -0.5592
  421TMC3    C5 6334   3.184   4.029  13.930 -0.4581 -0.2037 -0.1304
  421TMC3    C6 6335   3.160   4.140  14.001 -0.5825 -0.2601 -0.1141
  421TMC3     C 6336   2.884   4.017  13.723 -0.1567 -0.2884  0.2002
  421TMC3     O 6337   2.826   4.111  13.670 -0.3544 -0.0994  0.3876
  421TMC3     H 6338   2.832   4.189  13.918  0.4164  1.9325 -0.1605
  421TMC3    H1 6339   3.112   3.914  13.761  0.9033 -0.9296  0.9218
  421TMC3    H2 6340   3.218   4.168  14.088  1.5901 -1.8259 -1.0421
  421TMC3    C7 6341   3.304   3.952  13.961 -0.2857 -0.4756 -0.1918
  421TMC3    C8 6342   2.996   4.285  14.101 -0.3941  0.1326  0.8239
  421TMC3    O1 6343   3.384   4.021  14.019 -0.1198  0.0208 -0.3617
  421TMC3    O2 6344   3.067   4.274  14.201  0.2003 -0.4301  0.0895
  422TMC3    C1 6345   1.142   0.808  12.259 -0.4200  0.9406 -0.1769
  422TMC3    C2 6346   1.095   0.921  12.327  0.1334 -0.4299 -0.7112
  422TMC3    C3 6347   0.987   0.904  12.407  0.4447 -0.6255  0.5243
  422TMC3    C4 6348   1.083   0.683  12.273 -0.4119  0.4202  0.0158
  422TMC3    C5 6349   0.972   0.672  12.359  0.3390  0.7613 -0.5783
  422TMC3    C6 6350   0.918   0.783  12.415  0.3213 -0.2681 -0.3147
  422TMC3     C 6351   1.260   0.818  12.176 -0.1100 -0.4264  0.7150
  422TMC3     O 6352   1.335   0.719  12.183  0.6895 -0.0730 -0.3727
  422TMC3     H 6353   1.138   1.020  12.315 -1.8796  0.5786  0.3987
  422TMC3    H1 6354   1.129   0.601  12.219 -0.0549  1.2444 -0.9267
  422TMC3    H2 6355   0.827   0.769  12.472  0.4085 -1.7354 -0.5540
  422TMC3    C7 6356   0.887   0.581  12.293 -0.1086 -0.5217 -0.1904
  422TMC3    C8 6357   0.916   1.029  12.441 -0.0947 -0.9939 -0.6465
  422TMC3    O1 6358   0.918   0.558  12.177 -0.5198 -0.1486  0.2314
  422TMC3    O2 6359   0.980   1.134  12.447 -0.0682  0.6197  0.2178
  423MPD2     C 6360   2.070   1.992   0.279  0.6147  0.0667 -0.0988
  423MPD2    C1 6361   2.005   1.869   0.311 -0.0643  0.5167 -0.3412
  423MPD2    C2 6362   2.049   1.761   0.254 -0.6425  0.0212  0.3064
  423MPD2    C3 6363   2.151   1.754   0.154 -0.2334  0.1620  0.4893
  423MPD2    C4 6364   2.204   1.874   0.117  0.6341 -1.0074 -0.4307
  423MPD2    C5 6365   2.168   1.992   0.183  0.1037  0.2031 -0.2764
  423MPD2     H 6366   1.986   1.677   0.279 -1.5274  0.2079 -1.2847
  423MPD2    H1 6367   2.290   1.876   0.051  0.5862 -2.5982 -0.5446
  423MPD2    H2 6368   2.058   2.088   0.330 -0.3620 -0.3382  0.4296
  423MPD2    H3 6369   2.213   2.088   0.162  0.5707  0.0247 -0.0695
  423MPD2     N 6370   2.181   1.633   0.084 -0.6820 -0.0035  0.6687
  423MPD2    H5 6371   2.253   1.645   0.013 -2.0424  0.0226 -0.7044
  423MPD2    N1 6372   1.910   1.859   0.416 -0.6879  0.8625  0.1325
  423MPD2    H7 6373   1.871   1.766   0.430  0.1214  0.4205 -0.5012
  424TMC3    C1 6374   1.742   1.941   0.567  0.7718 -0.1267 -0.6412
  424TMC3    C2 6375   1.751   1.828   0.636 -0.1823  0.4503 -0.1457
  424TMC3    C3 6376   1.651   1.795   0.722 -0.1531  0.3239 -0.0599
  424TMC3    C4 6377   1.630   2.022   0.573 -0.6520 -0.0985  0.0033
  424TMC3    C5 6378   1.524   1.978   0.650 -0.2018  0.1538  0.2178
  424TMC3    C6 6379   1.530   1.864   0.730  0.3658  0.1348 -0.4887
  424TMC3     C 6380   1.844   1.970   0.467 -0.0433 -0.3083  0.2907
  424TMC3     O 6381   1.845   2.086   0.424 -0.0512  0.0826 -0.3630
  424TMC3     H 6382   1.844   1.772   0.627  0.2577  1.1503  0.0772
  424TMC3    H1 6383   1.623   2.106   0.505  1.0292 -0.4167 -0.5746
  424TMC3    H2 6384   1.455   1.830   0.801  0.5218  0.2165 -0.2859
  424TMC3    C7 6385   1.393   2.018   0.606  0.4224  0.0501  0.1742
  424TMC3    C8 6386   1.668   1.665   0.779 -0.4861 -0.0730  1.3201
  424TMC3    O1 6387   1.379   2.084   0.502  0.0077  0.0049 -0.1555
  424TMC3    O2 6388   1.783   1.631   0.803  0.0394 -0.1861 -0.6233
  425MPD2     C 6389   0.990   0.879  17.408  0.0819 -0.2488  0.2134
  425MPD2    C1 6390   0.940   0.766  17.473  0.1897  0.3151 -1.0322
  425MPD2    C2 6391   0.825   0.792  17.546  0.1452 -0.3493 -0.1240
  425MPD2    C3 6392   0.770   0.919  17.557  0.6476 -0.0634  0.6725
  425MPD2    C4 6393   0.823   1.027  17.489  0.4282 -0.1464 -0.2899
  425MPD2    C5 6394   0.933   1.001  17.412 -0.2535  0.5646 -0.7028
  425MPD2     H 6395   0.784   0.713  17.609  1.1134 -2.7202 -2.4328
  425MPD2    H1 6396   0.786   1.128  17.491  1.8325  0.3093  1.6460
  425MPD2    H2 6397   1.082   0.868  17.352 -0.0432  0.4205 -0.1181
  425MPD2    H3 6398   0.977   1.081  17.353 -2.7191  0.9895 -1.9828
  425MPD2     N 6399   0.649   0.930  17.631 -0.0280  0.1031  0.2557
  425MPD2    H5 6400   0.626   0.845  17.682 -1.5168 -0.3181 -1.1162
  425MPD2    N1 6401   1.005   0.642  17.468  0.0246  0.1217 -0.4014
  425MPD2    H7 6402   1.084   0.623  17.408  1.9193 -1.0374  2.4446
  426TMC3    C1 6403   1.076   0.422  17.506  0.1576  0.6904 -0.0106
  426TMC3    C2 6404   1.090   0.400  17.371 -0.4617 -0.5960  0.1087
  426TMC3    C3 6405   1.120   0.280  17.324 -0.9766  1.0748  0.9769
  426TMC3    C4 6406   1.067   0.315  17.597  0.6531  0.7014 -0.7804
  426TMC3    C5 6407   1.105   0.196  17.547 -0.3657  0.2723  1.2198
  426TMC3    C6 6408   1.132   0.181  17.415 -0.2085 -0.5899  0.8960
  426TMC3     C 6409   0.984   0.530  17.542  0.0197 -0.1613  0.2457
  426TMC3     O 6410   0.921   0.523  17.647  0.5546  0.2732 -0.1464
  426TMC3     H 6411   1.101   0.484  17.303 -1.7238 -0.2028  0.4064
  426TMC3    H1 6412   1.074   0.344  17.701  0.0954 -3.5898  0.4715
  426TMC3    H2 6413   1.152   0.083  17.374 -0.9495 -0.0515 -0.7513
  426TMC3    C7 6414   1.062   0.082  17.620  0.4682 -0.1163  0.1064
  426TMC3    C8 6415   1.053   0.240  17.205  0.9606 -0.4996  0.8269
  426TMC3    O1 6416   1.102   4.709  17.581  0.4811 -0.4013 -0.5501
  426TMC3    O2 6417   1.114   0.155  17.140  0.2411  0.6782  0.1017
  427MPD2     C 6418   4.388   2.574  14.589 -0.4557  0.3020  0.4593
  427MPD2    C1 6419   4.335   2.488  14.678 -0.1072  0.9686  0.7692
  427MPD2    C2 6420   4.203   2.455  14.673 -0.6235  0.6258 -0.4495
  427MPD2    C3 6421   4.117   2.521  14.586 -0.2999  0.1392  0.3274
  427MPD2    C4 6422   4.174   2.609  14.498 -0.7714 -0.6126  0.3220
  427MPD2    C5 6423   4.308   2.641  14.506  0.5086 -0.5646  0.0847
  427MPD2     H 6424   4.177   2.373  14.739  0.1606  1.2257  0.6159
  427MPD2    H1 6425   4.108   2.666  14.433 -0.7511 -1.1025 -0.1283
  427MPD2    H2 6426   4.493   2.599  14.579 -0.3336 -0.8178 -0.9396
  427MPD2    H3 6427   4.341   2.723  14.443  3.6877 -0.0273  2.4466
  427MPD2     N 6428   3.978   2.498  14.574 -0.5388 -0.2764 -0.2128
  427MPD2    H5 6429   3.926   2.566  14.519  0.8395  1.3874  0.5513
  427MPD2    N1 6430   4.416   2.403  14.758  0.1124 -0.2928 -0.7824
  427MPD2    H7 6431   4.384   2.312  14.790  1.6299 -0.3082  0.7079
  428TMC3    C1 6432   4.620   2.336  14.866 -0.4858 -0.2989  0.6452
  428TMC3    C2 6433   4.578   2.199  14.855  0.3864  0.1898  0.1464
  428TMC3    C3 6434   4.641   2.114  14.946  0.6524 -0.0704 -0.5207
  428TMC3    C4 6435   4.730   2.375  14.942  0.0135 -0.0563 -0.3978
  428TMC3    C5 6436   0.046   2.281  15.026  0.0223 -0.3229 -0.6254
  428TMC3    C6 6437   0.019   2.150  15.023 -0.2585  0.1553  0.7008
  428TMC3     C 6438   4.547   2.439  14.801  0.2698 -0.7604  0.4111
  428TMC3     O 6439   4.592   2.549  14.789 -0.1728 -0.7265  0.4534
  428TMC3     H 6440   4.501   2.160  14.790  1.5892  1.9872 -2.3407
  428TMC3    H1 6441   0.027   2.479  14.950 -0.8436  0.2615 -1.0978
  428TMC3    H2 6442   0.058   2.086  15.102  0.7251 -1.3421 -0.9861
  428TMC3    C7 6443   0.150   2.324  15.120  0.0507  0.0481  0.3858
  428TMC3    C8 6444   4.582   1.980  14.967 -0.4855 -0.6583  0.2117
  428TMC3    O1 6445   0.154   2.268  15.232  0.3436  0.0449  0.1352
  428TMC3    O2 6446   4.663   1.885  14.968  0.1706 -0.1112 -0.0879
  429MPD2     C 6447   0.713   3.088   0.020  0.2157 -0.3931 -0.9363
  429MPD2    C1 6448   0.817   2.996   0.009  0.2983 -0.1907  0.0770
  429MPD2    C2 6449   0.928   3.035  17.668  0.7927 -0.1077 -0.5083
  429MPD2    C3 6450   0.923   3.153  17.598 -0.5533 -0.4948 -0.0735
  429MPD2    C4 6451   0.819   3.240  17.613  0.1016 -0.4708  0.1593
  429MPD2    C5 6452   0.712   3.208  17.696  0.1201  0.7647 -0.5347
  429MPD2     H 6453   1.014   2.970  17.657  1.3609  0.4092  0.8965
  429MPD2    H1 6454   0.804   3.325  17.547  0.0170  0.1228  0.9449
  429MPD2    H2 6455   0.627   3.065   0.082  0.0951 -0.8894 -1.2842
  429MPD2    H3 6456   0.643   3.288  17.718  1.1042  1.3545  0.4559
  429MPD2     N 6457   1.033   3.168  17.507 -0.5938  0.3245 -0.1436
  429MPD2    H5 6458   1.114   3.108  17.521 -0.5830  0.1079 -1.1772
  429MPD2    N1 6459   0.815   2.857   0.061  0.0734  0.5356 -0.2935
  429MPD2    H7 6460   0.891   2.794   0.033  2.0314  2.2586  1.2035
  430TMC3    C1 6461   1.163   3.220  17.329 -0.2215  0.3961 -0.3993
  430TMC3    C2 6462   1.194   3.315  17.236  0.0216 -0.2236 -0.1336
  430TMC3    C3 6463   1.248   3.280  17.116  0.9368 -0.4790  0.3187
  430TMC3    C4 6464   1.209   3.090  17.306  0.2920 -0.0327  0.1111
  430TMC3    C5 6465   1.274   3.063  17.188 -1.2302  0.0453  0.1723
  430TMC3    C6 6466   1.303   3.158  17.094  0.2113  0.0185  0.5433
  430TMC3     C 6467   1.043   3.251  17.403 -0.4040 -0.2140  0.6706
  430TMC3     O 6468   0.964   3.335  17.365 -0.6449  0.2741 -0.0272
  430TMC3     H 6469   1.171   3.420  17.251 -0.5353 -0.4085  0.3249
  430TMC3    H1 6470   1.179   3.010  17.374 -0.1602 -0.5607 -0.7090
  430TMC3    H2 6471   1.380   3.144  17.019 -0.5203 -0.8557 -0.0500
  430TMC3    C7 6472   1.217   2.947  17.118 -0.1311 -0.2982  0.7779
  430TMC3    C8 6473   1.171   3.306  17.002  0.0142  0.7429  0.2105
  430TMC3    O1 6474   1.185   2.849  17.179 -0.3864 -0.1414 -0.1492
  430TMC3    O2 6475   1.209   3.248  16.900 -0.7522  0.1881  0.3753
  431MPD2     C 6476   1.757   3.074  12.599 -0.1502 -0.5573  0.4373
  431MPD2    C1 6477   1.841   3.056  12.486  0.2381  0.0114  0.6795
  431MPD2    C2 6478   1.794   2.972  12.385 -1.0168  1.3398 -0.0448
  431MPD2    C3 6479   1.667   2.911  12.395  0.2893 -0.5179 -0.1086
  431MPD2    C4 6480   1.581   2.943  12.502  0.5699  0.8794 -0.1584
  431MPD2    C5 6481   1.628   3.019  12.607  0.1758 -0.0057  0.3698
  431MPD2     H 6482   1.860   2.958  12.300 -2.3110 -0.3225 -0.7742
  431MPD2    H1 6483   1.481   2.901  12.498  1.7625 -2.0117  0.6056
  431MPD2    H2 6484   1.781   3.144  12.679 -3.0987  0.0856  0.7444
  431MPD2    H3 6485   1.567   3.040  12.695  0.1923  1.1318  0.1100
  431MPD2     N 6486   1.612   2.828  12.295  0.0284 -0.8286 -0.0925
  431MPD2    H5 6487   1.523   2.789  12.326  0.7162 -2.0570  0.3452
  431MPD2    N1 6488   1.971   3.108  12.472  0.1549  0.3287 -0.2981
  431MPD2    H7 6489   2.029   3.074  12.395 -1.3451 -0.8365 -0.9057
  432TMC3    C1 6490   1.590   2.689  12.118  0.1641 -0.7820  0.1710
  432TMC3    C2 6491   1.638   2.644  11.998 -0.5323 -0.4248  0.3523
  432TMC3    C3 6492   1.617   2.520  11.959  0.2277 -1.1138 -0.9592
  432TMC3    C4 6493   1.515   2.607  12.193  0.3001  0.2404 -0.0313
  432TMC3    C5 6494   1.491   2.479  12.147  0.0327  0.3277  0.3249
  432TMC3    C6 6495   1.541   2.434  12.030  0.3564 -0.4559 -0.0311
  432TMC3     C 6496   1.676   2.786  12.182 -0.6712 -0.3190 -0.7374
  432TMC3     O 6497   1.778   2.814  12.128  0.1475  0.4870 -0.4214
  432TMC3     H 6498   1.705   2.706  11.940 -1.4889 -0.8867 -1.2520
  432TMC3    H1 6499   1.460   2.645  12.278 -0.6186 -0.1050 -0.4789
  432TMC3    H2 6500   1.553   2.327  12.015 -0.0932 -0.6570  1.0422
  432TMC3    C7 6501   1.459   2.387  12.252 -0.3402  0.4874  0.2615
  432TMC3    C8 6502   1.705   2.478  11.853  0.0206 -0.7110  0.6350
  432TMC3    O1 6503   1.414   2.278  12.223  0.2534 -0.0331 -0.5894
  432TMC3    O2 6504   1.660   2.431  11.749  0.1624 -0.0610 -0.2653
  433MPD2     C 6505   0.325   1.194  10.566  0.1819  0.5431  0.4404
  433MPD2    C1 6506   0.452   1.198  10.626  0.1996  0.5622 -0.7333
  433MPD2    C2 6507   0.474   1.209  10.763  0.0863  0.3714 -0.0405
  433MPD2    C3 6508   0.369   1.229  10.843 -0.1130 -0.0225 -0.5148
  433MPD2    C4 6509   0.245   1.230  10.787  0.1533 -1.0569  0.3647
  433MPD2    C5 6510   0.219   1.216  10.646 -0.2152  0.3275  0.5147
  433MPD2     H 6511   0.576   1.193  10.796  0.0751  0.1506 -0.1127
  433MPD2    H1 6512   0.159   1.251  10.849  0.6393 -0.6146  0.8922
  433MPD2    H2 6513   0.298   1.166  10.464 -3.2823  0.0851  1.4807
  433MPD2    H3 6514   0.118   1.213  10.609  1.2973  0.4329 -3.6123
  433MPD2     N 6515   0.395   1.222  10.985  0.3665 -0.1600 -0.4623
  433MPD2    H5 6516   0.495   1.227  11.006 -0.0109  0.5064  1.2072
  433MPD2    N1 6517   0.562   1.158  10.542 -0.6658  0.0124  0.3630
  433MPD2    H7 6518   0.530   1.130  10.450 -0.9637 -0.6127  0.6513
  434TMC3    C1 6519   0.781   1.094  10.481 -0.2106 -0.3486 -0.0647
  434TMC3    C2 6520   0.886   1.048  10.556  0.2399  0.1702 -0.3962
  434TMC3    C3 6521   0.936   0.927  10.527 -0.1847  0.3920 -0.0086
  434TMC3    C4 6522   0.726   1.013  10.386  0.0573 -0.6531  0.2588
  434TMC3    C5 6523   0.763   0.882  10.374 -0.0038  0.4148 -0.4137
  434TMC3    C6 6524   0.874   0.839  10.444  0.0311  0.3892 -0.0132
  434TMC3     C 6525   0.689   1.183  10.560  0.5521 -0.3464 -0.0945
  434TMC3     O 6526   0.736   1.257  10.640 -0.3929  0.1585  0.4277
  434TMC3     H 6527   0.934   1.104  10.636 -2.7292  0.8338  0.9125
  434TMC3    H1 6528   0.641   1.048  10.328 -0.1492  1.5067  1.8669
  434TMC3    H2 6529   0.904   0.736  10.424 -1.0575  0.2809 -1.0380
  434TMC3    C7 6530   0.701   0.810  10.263 -0.3988 -0.0267  0.2447
  434TMC3    C8 6531   1.045   0.877  10.604  0.3425  0.3403  0.5659
  434TMC3    O1 6532   0.632   0.866  10.182 -0.6216 -0.1459  0.7624
  434TMC3    O2 6533   1.069   0.930  10.712 -0.2532 -0.1037 -0.2093
  435MPD2     C 6534   2.607   1.819  15.420  0.3946  0.2297  0.9056
  435MPD2    C1 6535   2.555   1.797  15.542  0.2185 -0.5923  0.1581
  435MPD2    C2 6536   2.626   1.697  15.619 -0.2213  0.1023 -0.2535
  435MPD2    C3 6537   2.747   1.641  15.578  0.4466  0.0863  0.0578
  435MPD2    C4 6538   2.805   1.690  15.464  0.3406 -0.1942  0.6718
  435MPD2    C5 6539   2.739   1.790  15.395 -0.3127  0.4081  0.0470
  435MPD2     H 6540   2.584   1.659  15.712  0.5271  0.4664  0.2351
  435MPD2    H1 6541   2.897   1.653  15.419 -0.5529  0.2704 -1.5511
  435MPD2    H2 6542   2.557   1.887  15.352  1.1440 -0.6527 -0.5268
  435MPD2    H3 6543   2.780   1.813  15.297 -0.2223  0.2444  0.0455
  435MPD2     N 6544   2.800   1.533  15.649  0.4809 -0.1024 -0.6600
  435MPD2    H5 6545   2.752   1.519  15.737  0.1429 -0.1702 -0.8562
  435MPD2    N1 6546   2.442   1.870  15.597 -0.8942  0.2218 -0.0470
  435MPD2    H7 6547   2.391   1.934  15.537 -2.0243  1.9740  2.7750
  436TMC3    C1 6548   2.055   1.968  15.742 -0.8238 -0.4855 -0.4125
  436TMC3    C2 6549   2.170   1.900  15.794  0.0858 -0.6481  0.0640
  436TMC3    C3 6550   2.290   1.959  15.759 -0.1940  0.2281  0.1418
  436TMC3    C4 6551   2.061   2.080  15.665  0.4271  0.4106  0.3524
  436TMC3    C5 6552   2.184   2.134  15.648  0.0893 -0.5667  0.3646
  436TMC3    C6 6553   2.297   2.072  15.685  0.2525 -0.5760  0.1252
  436TMC3     C 6554   1.923   1.921  15.767  0.6549  0.1677  0.9290
  436TMC3     O 6555   1.838   1.941  15.685  0.1733 -0.4347 -0.3130
  436TMC3     H 6556   2.164   1.807  15.848 -0.3642  0.3981  1.8135
  436TMC3    H1 6557   1.972   2.133  15.634  0.0036 -0.6242 -0.2130
  436TMC3    H2 6558   2.395   2.114  15.663 -0.5687  2.6910  2.5643
  436TMC3    C7 6559   2.200   2.268  15.594  0.5297  0.3834 -0.4748
  436TMC3    C8 6560   2.391   1.863  15.728 -0.2015 -0.4595 -0.1751
  436TMC3    O1 6561   2.108   2.344  15.628 -0.0191 -0.1475  0.1129
  436TMC3    O2 6562   2.407   1.776  15.811  0.1984 -0.2768  0.4364
  437TMC3    C1 6563   1.211   3.412  13.133  1.1043 -0.5365 -0.5450
  437TMC3    C2 6564   1.084   3.410  13.075 -0.4543 -0.4962  0.0205
  437TMC3    C3 6565   1.062   3.482  12.958 -0.6334 -0.3171 -0.3161
  437TMC3    C4 6566   1.306   3.503  13.086 -0.3429 -1.0103 -0.0270
  437TMC3    C5 6567   1.283   3.576  12.967  0.0369 -0.4129 -0.0518
  437TMC3    C6 6568   1.159   3.562  12.900  0.1576 -0.3626  0.1935
  437TMC3     C 6569   1.224   3.330  13.243 -0.4738  0.3603  0.0755
  437TMC3     O 6570   1.117   3.295  13.295 -0.3866  0.4144 -0.0182
  437TMC3     H 6571   1.006   3.346  13.115  1.7477 -0.8080  3.8299
  437TMC3    H1 6572   1.397   3.529  13.138 -1.3043 -1.3497  1.8194
  437TMC3    H2 6573   1.147   3.606  12.802  0.3384 -0.1466  0.2666
  437TMC3    C7 6574   1.385   3.650  12.895 -0.8496 -0.6311  0.1611
  437TMC3    C8 6575   0.944   3.461  12.878 -0.0102 -0.3613 -0.0502
  437TMC3    O1 6576   1.342   3.735  12.820 -0.0820  0.2280  0.0413
  437TMC3    O2 6577   0.895   3.549  12.806 -0.4173  0.0510  0.3102
  438MPD2     C 6578   3.627   4.244  16.705  0.2157 -0.3082  0.3254
  438MPD2    C1 6579   3.648   4.121  16.759 -0.3309 -0.4399 -0.1713
  438MPD2    C2 6580   3.619   4.099  16.893  0.4446  0.0419 -0.2106
  438MPD2    C3 6581   3.559   4.195  16.974  0.0623 -1.0237 -0.1395
  438MPD2    C4 6582   3.549   4.325  16.922  0.1296  0.4617  0.3194
  438MPD2    C5 6583   3.579   4.346  16.789 -0.3080  0.2064  0.1599
  438MPD2     H 6584   3.636   4.001  16.935  1.8952  0.4007  0.0403
  438MPD2    H1 6585   3.516   4.416  16.972  0.0914  0.3564  0.4864
  438MPD2    H2 6586   3.652   4.276  16.604 -0.9741  2.5999  0.9506
  438MPD2    H3 6587   3.574   4.438  16.733  0.6036  0.1284 -0.0446
  438MPD2     N 6588   3.515   4.163  17.104  0.0167 -0.9513 -0.3199
  438MPD2    H5 6589   3.483   4.238  17.164 -2.4776  0.1004 -2.9167
  438MPD2    N1 6590   3.710   4.018  16.683  0.0017 -0.0148 -0.0269
  438MPD2    H7 6591   3.737   3.940  16.741 -0.0025 -0.8994 -1.2265
  439TMC3    C1 6592   3.819   3.906  16.507  1.0959 -0.5278  0.8069
  439TMC3    C2 6593   3.806   3.867  16.375  0.2311  0.0738 -0.6075
  439TMC3    C3 6594   3.858   3.741  16.336 -0.1119  0.9044  0.4646
  439TMC3    C4 6595   3.897   3.836  16.593  0.0632 -0.4577  0.7297
  439TMC3    C5 6596   3.950   3.717  16.547  0.1690 -0.7088  0.5879
  439TMC3    C6 6597   3.929   3.670  16.427 -0.0161 -0.7483  0.8932
  439TMC3     C 6598   3.725   4.014  16.545  0.2478  0.2598 -0.2427
  439TMC3     O 6599   3.675   4.086  16.461  0.4933 -0.0932  0.5114
  439TMC3     H 6600   3.729   3.910  16.312 -0.8009 -2.3954 -1.0194
  439TMC3    H1 6601   3.908   3.879  16.692  4.6732  1.2031 -0.5201
  439TMC3    H2 6602   3.957   3.567  16.409 -3.1795 -1.4921  0.2220
  439TMC3    C7 6603   4.044   3.655  16.637 -0.1464 -0.2198 -0.2781
  439TMC3    C8 6604   3.887   3.703  16.199  0.0537  0.4585 -0.0774
  439TMC3    O1 6605   4.045   3.704  16.746  0.3408 -0.5500 -0.0713
  439TMC3    O2 6606   3.929   3.589  16.185  0.2105  0.4177 -0.2668
  440MPD2     C 6607   2.305   4.247  14.747 -0.2743 -0.7210 -0.2295
  440MPD2    C1 6608   2.350   4.317  14.850  0.4026 -0.1828  0.2203
  440MPD2    C2 6609   2.436   4.256  14.932 -0.2454  0.4794  0.2632
  440MPD2    C3 6610   2.472   4.122  14.920 -0.1120 -0.3012 -0.3270
  440MPD2    C4 6611   2.423   4.048  14.815 -0.2846  0.4299 -0.9631
  440MPD2    C5 6612   2.347   4.119  14.722 -0.4670  0.1241 -0.4512
  440MPD2     H 6613   2.490   4.314  15.006  1.2475 -1.5842  0.8108
  440MPD2    H1 6614   2.429   3.940  14.816 -2.1510  0.3488  0.8685
  440MPD2    H2 6615   2.236   4.296  14.679  0.6290  1.0074  0.0834
  440MPD2    H3 6616   2.304   4.064  14.639  2.2993  0.7240 -2.2724
  440MPD2     N 6617   2.538   4.048  15.026 -0.0076  0.3176  0.5108
  440MPD2    H5 6618   2.552   3.950  15.006  1.4570  0.7420 -0.5585
  440MPD2    N1 6619   2.326   4.447  14.884 -0.1385  0.4397 -0.5632
  440MPD2    H7 6620   2.378   4.479  14.965 -1.6120  0.6381  0.3023
  441TMC3    C1 6621   2.647   4.015  15.238  0.9441  0.6123  0.0483
  441TMC3    C2 6622   2.752   4.070  15.312  0.1483 -0.1096  0.0301
  441TMC3    C3 6623   2.761   4.026  15.441 -0.4682 -0.6622  0.2647
  441TMC3    C4 6624   2.555   3.918  15.280 -0.3371  0.7067 -0.2394
  441TMC3    C5 6625   2.576   3.871  15.410 -0.3374  0.1992  0.4546
  441TMC3    C6 6626   2.680   3.932  15.486  0.2769 -0.9239  0.8675
  441TMC3     C 6627   2.603   4.107  15.133 -0.0957  0.5341 -0.5688
  441TMC3     O 6628   2.635   4.222  15.159 -0.2783  0.1436 -0.3022
  441TMC3     H 6629   2.811   4.149  15.267 -0.1693  1.3006  2.0678
  441TMC3    H1 6630   2.474   3.886  15.216  1.6228 -1.2030 -1.7274
  441TMC3    H2 6631   2.680   3.912  15.593 -0.2469 -1.9880  0.6648
  441TMC3    C7 6632   2.452   3.879  15.488 -0.1507 -0.2898 -0.0967
  441TMC3    C8 6633   2.787   4.126  15.538  0.0998  0.4923  0.0022
  441TMC3    O1 6634   2.416   3.993  15.518 -0.6918  0.1905 -0.2481
  441TMC3    O2 6635   2.825   4.096  15.652 -0.6102  0.2911 -0.5610
  442MPD2     C 6636   0.796   0.425  16.616  0.1197  0.3146 -0.2931
  442MPD2    C1 6637   0.678   0.399  16.674 -0.0179  0.0283  0.3897
  442MPD2    C2 6638   0.602   0.286  16.637  0.3594  0.0812  0.1151
  442MPD2    C3 6639   0.634   0.208  16.523  0.0421 -0.6109  0.6649
  442MPD2    C4 6640   0.755   0.242  16.459 -0.3967  0.8393 -0.1004
  442MPD2    C5 6641   0.833   0.343  16.509  0.3704 -0.4508 -0.0526
  442MPD2     H 6642   0.510   0.252  16.685  1.3042 -0.4896  1.5067
  442MPD2    H1 6643   0.782   0.186  16.371  1.2501 -1.5273  1.9158
  442MPD2    H2 6644   0.858   0.510  16.643  0.2236  0.4992 -1.1141
  442MPD2    H3 6645   0.924   0.365  16.455 -0.4289  1.5620 -0.5678
  442MPD2     N 6646   0.564   0.095  16.466 -0.2230  0.5499  0.2484
  442MPD2    H5 6647   0.601   0.057  16.380 -0.8818 -0.3254  0.3469
  442MPD2    N1 6648   0.624   0.493  16.761  0.1544  0.2240  0.2826
  442MPD2    H7 6649   0.540   0.462  16.809  0.4829 -0.3045  0.5109
  443TMC3    C1 6650   0.575   0.697  16.874 -0.1120 -0.2170  0.6172
  443TMC3    C2 6651   0.528   0.814  16.819  0.4239 -0.0664  0.2614
  443TMC3    C3 6652   0.419   0.866  16.876  0.0729  0.3606 -0.4406
  443TMC3    C4 6653   0.514   0.633  16.978 -0.3503 -0.0025 -0.0024
  443TMC3    C5 6654   0.408   0.692  17.038 -0.1287 -0.0819 -0.0349
  443TMC3    C6 6655   0.367   0.815  16.998 -0.1350 -0.2349 -0.0651
  443TMC3     C 6656   0.661   0.619  16.787 -0.1986  0.0906  0.3416
  443TMC3     O 6657   0.734   0.693  16.719  0.2072  0.5693  0.2284
  443TMC3     H 6658   0.566   0.849  16.724  2.1237  2.0781  1.7343
  443TMC3    H1 6659   0.545   0.536  17.016  0.5862  0.3087  0.0061
  443TMC3    H2 6660   0.286   0.863  17.053  1.5883  1.0721  1.3215
  443TMC3    C7 6661   0.307   0.611  17.104  0.1910 -0.2724  0.0192
  443TMC3    C8 6662   0.318   0.902  16.779  0.6477  0.0395  0.2000
  443TMC3    O1 6663   0.306   0.489  17.085 -0.4906 -0.1175 -0.2396
  443TMC3    O2 6664   0.237   0.990  16.803  0.1928  0.0464  0.0886
  444MPD2     C 6665   0.758   4.638  17.236  0.1581 -0.6151  0.0831
  444MPD2    C1 6666   0.665   4.546  17.204  0.5699 -0.2105  0.1509
  444MPD2    C2 6667   0.696   4.457  17.104 -0.4472  0.4053  0.1601
  444MPD2    C3 6668   0.822   4.440  17.055  0.6823 -0.4825 -0.6435
  444MPD2    C4 6669   0.917   4.531  17.092 -0.1175 -0.3138 -0.1112
  444MPD2    C5 6670   0.887   4.624  17.188  0.3476  0.0106 -0.1908
  444MPD2     H 6671   0.608   4.409  17.062  0.0697 -0.2065 -0.2142
  444MPD2    H1 6672   1.019   4.516  17.058 -0.0869  0.4045 -0.3450
  444MPD2    H2 6673   0.740   4.723  17.302 -0.4759  0.5876 -1.6381
  444MPD2    H3 6674   0.957   4.701  17.219 -0.2322  0.4864 -0.0497
  444MPD2     N 6675   0.848   4.335  16.965  0.0935  0.0746 -0.4516
  444MPD2    H5 6676   0.773   4.269  16.948 -0.1660  0.9365 -2.7129
  444MPD2    N1 6677   0.527   4.550  17.243  0.2008 -0.0392  0.0581
  444MPD2    H7 6678   0.465   4.475  17.212 -0.1577  0.4727 -0.4736
  445TMC3    C1 6679   0.972   4.190  16.813 -0.4281  0.6973  0.5393
  445TMC3    C2 6680   0.846   4.145  16.773  0.5927 -0.0809 -0.2073
  445TMC3    C3 6681   0.841   4.026  16.702 -0.3373  0.0212 -0.0708
  445TMC3    C4 6682   1.080   4.119  16.800 -0.3952  0.3237  0.1683
  445TMC3    C5 6683   1.067   3.997  16.746 -0.1111 -0.0636 -0.6219
  445TMC3    C6 6684   0.951   3.941  16.693 -0.1210  0.6804 -0.2716
  445TMC3     C 6685   0.973   4.305  16.902  0.5223 -0.3710  0.8266
  445TMC3     O 6686   1.081   4.347  16.937 -0.1415 -0.2468 -0.5687
  445TMC3     H 6687   0.756   4.205  16.777  0.1617 -0.8644  2.3233
  445TMC3    H1 6688   1.177   4.151  16.835 -0.0709  0.8421 -1.2195
  445TMC3    H2 6689   0.950   3.849  16.635 -0.9364 -0.3793  1.4360
  445TMC3    C7 6690   1.193   3.930  16.729 -0.1198 -0.2752 -0.2871
  445TMC3    C8 6691   0.733   4.008  16.613  0.3309 -0.3343  0.2304
  445TMC3    O1 6692   1.295   3.997  16.703  0.0150  0.0612  0.3883
  445TMC3    O2 6693   0.664   4.106  16.593  0.2668  0.0537  0.5410
  446MPD2     C 6694   0.627   0.291  10.871 -0.3613 -0.2045 -0.1133
  446MPD2    C1 6695   0.527   0.390  10.897 -0.2845 -0.3655  0.4594
  446MPD2    C2 6696   0.579   0.516  10.932  0.7094 -0.0310 -0.1761
  446MPD2    C3 6697   0.718   0.546  10.932 -0.0334 -0.4246  0.7006
  446MPD2    C4 6698   0.805   0.439  10.909  0.0895  0.2906  0.8096
  446MPD2    C5 6699   0.759   0.319  10.868  0.1612  0.5469 -0.4246
  446MPD2     H 6700   0.515   0.602  10.945 -0.3083 -0.9309  0.7486
  446MPD2    H1 6701   0.911   0.458  10.909  0.3032 -0.8354  2.8461
  446MPD2    H2 6702   0.597   0.191  10.842  0.3246 -0.4484  0.0167
  446MPD2    H3 6703   0.825   0.237  10.842 -1.0774 -0.9199  1.0501
  446MPD2     N 6704   0.762   0.677  10.963 -0.5683  0.7564 -0.2660
  446MPD2    H5 6705   0.688   0.743  10.986 -1.6059 -0.0156 -1.3609
  446MPD2    N1 6706   0.387   0.363  10.886 -0.7237 -0.1367 -0.1939
  446MPD2    H7 6707   0.323   0.441  10.899  0.4962  0.3742  2.7760
  447TMC3    C1 6708   0.921   0.855  11.008 -0.1965 -0.2069  0.1385
  447TMC3    C2 6709   0.824   0.949  11.007 -0.8536 -0.8571 -0.1370
  447TMC3    C3 6710   0.862   1.073  11.062  0.5424 -0.0967 -0.2643
  447TMC3    C4 6711   1.036   0.871  11.081 -0.6803  0.4327 -0.3238
  447TMC3    C5 6712   1.059   0.992  11.149 -0.2664 -0.4117  0.0605
  447TMC3    C6 6713   0.974   1.097  11.141  0.0689  0.5063 -0.0853
  447TMC3     C 6714   0.900   0.713  10.970  0.5167 -0.6996  0.2559
  447TMC3     O 6715   1.001   0.646  10.941 -0.1959  1.0180 -0.3262
  447TMC3     H 6716   0.737   0.939  10.944 -0.3372 -1.6537 -0.7198
  447TMC3    H1 6717   1.113   0.796  11.089  0.6179  1.6274 -1.5991
  447TMC3    H2 6718   0.980   1.189  11.197  1.2267  0.4169 -0.0697
  447TMC3    C7 6719   1.193   1.015  11.198 -0.2922 -0.3702  0.0858
  447TMC3    C8 6720   0.783   1.189  11.023  0.1376 -0.2206 -0.3432
  447TMC3    O1 6721   1.282   0.935  11.174 -0.2846 -0.3211  0.4775
  447TMC3    O2 6722   0.667   1.178  10.991  0.1423 -0.3850  0.0153
  448TMC3    C1 6723   4.238   0.639  17.268  0.1367 -0.1995  0.6363
  448TMC3    C2 6724   4.135   0.563  17.220 -0.0742  0.2622 -0.4109
  448TMC3    C3 6725   4.072   0.470  17.298 -0.2654  0.0632 -0.2157
  448TMC3    C4 6726   4.270   0.632  17.401 -0.4042 -0.1754  0.2303
  448TMC3    C5 6727   4.216   0.528  17.474 -0.4443  0.3332 -0.0034
  448TMC3    C6 6728   4.118   0.445  17.429  0.3848 -0.2490  0.3183
  448TMC3     C 6729   4.329   0.698  17.176  0.1761  0.1045  0.3207
  448TMC3     O 6730   4.358   0.637  17.077 -0.3531  0.7501  0.9260
  448TMC3     H 6731   4.116   0.581  17.115  0.2259  1.0078 -0.3324
  448TMC3    H1 6732   4.356   0.683  17.443  0.3809 -0.5493 -0.9292
  448TMC3    H2 6733   4.098   0.354  17.484  1.0704 -0.0418  0.9097
  448TMC3    C7 6734   4.266   0.508  17.613  0.4920  0.4012  0.4017
  448TMC3    C8 6735   4.004   0.365  17.234 -0.3928  0.2886  0.2078
  448TMC3    O1 6736   4.367   0.572  17.651 -0.2498  0.4266 -0.4790
  448TMC3    O2 6737   4.025   0.251  17.276 -0.2536 -0.1612 -0.1352
  449MPD2     C 6738   0.322   4.348  13.346 -0.1699  0.4522  0.1760
  449MPD2    C1 6739   0.254   4.232  13.310 -0.4811 -0.3731 -0.2094
  449MPD2    C2 6740   0.241   4.125  13.388 -0.2944  0.4650 -0.4306
  449MPD2    C3 6741   0.298   4.119  13.510  0.2546  0.5142 -0.2460
  449MPD2    C4 6742   0.378   4.223  13.544 -0.1491  0.2027 -0.1178
  449MPD2    C5 6743   0.389   4.333  13.463 -0.0598  0.2259 -0.0125
  449MPD2     H 6744   0.171   4.046  13.364 -0.0518  0.2374 -0.3744
  449MPD2    H1 6745   0.439   4.226  13.634  1.0567 -0.4444 -0.9206
  449MPD2    H2 6746   0.330   4.434  13.280  1.3898  0.4718  0.3892
  449MPD2    H3 6747   0.447   4.419  13.496  4.1297 -2.2675 -0.9058
  449MPD2     N 6748   0.280   4.005  13.582  0.9720 -0.4379  0.3908
  449MPD2    H5 6749   0.230   3.934  13.529  0.9758 -0.4855  0.4502
  449MPD2    N1 6750   0.181   4.236  13.191  0.0617  0.0102  0.8174
  449MPD2    H7 6751   0.115   4.163  13.170 -0.1855 -0.0152  1.6639
  450TMC3    C1 6752   0.108   4.263  12.982 -0.3510  0.1699  0.1121
  450TMC3    C2 6753   0.175   4.190  12.890  0.0198 -0.4328  0.5410
  450TMC3    C3 6754   0.121   4.072  12.853  0.6377  0.5219  0.3878
  450TMC3    C4 6755   4.727   4.221  13.040  0.0838 -0.3270  0.1746
  450TMC3    C5 6756   4.669   4.105  12.993 -0.7857 -0.4935  0.1063
  450TMC3    C6 6757   4.729   4.034  12.887  0.3688 -0.4703  0.6092
  450TMC3     C 6758   0.193   4.324  13.080 -0.2522 -0.4063 -0.1554
  450TMC3     O 6759   0.303   4.372  13.054  0.0009  0.5455  0.0461
  450TMC3     H 6760   0.270   4.221  12.845  0.1155 -3.3677 -1.2729
  450TMC3    H1 6761   4.669   4.278  13.112  1.0229  1.4322 -0.4414
  450TMC3    H2 6762   4.690   3.939  12.854 -0.3424 -0.0039  0.1244
  450TMC3    C7 6763   4.623   4.024  13.103  0.0688  0.0687  0.8872
  450TMC3    C8 6764   0.196   3.989  12.755  0.2880 -0.4724 -0.0608
  450TMC3    O1 6765   4.637   4.065  13.218 -0.3019 -0.4791  0.0701
  450TMC3    O2 6766   0.137   3.942  12.658 -0.1333  0.7807  0.5237
  451MPD2     C 6767   1.856   3.217   1.005  0.9062  0.9362 -0.8806
  451MPD2    C1 6768   1.786   3.103   0.970  0.3476  0.4967  0.1128
  451MPD2    C2 6769   1.864   2.995   0.921 -0.4833  0.2734  0.3831
  451MPD2    C3 6770   2.000   3.003   0.920  0.7294 -0.3407  0.0523
  451MPD2    C4 6771   2.069   3.114   0.956  0.9726  0.0008  0.4966
  451MPD2    C5 6772   1.995   3.221   0.996 -0.3812  0.2722  0.5060
  451MPD2     H 6773   1.816   2.904   0.887 -0.1052  0.7673 -1.4533
  451MPD2    H1 6774   2.177   3.123   0.948  0.8769  0.6869 -0.0692
  451MPD2    H2 6775   1.793   3.301   1.031  0.4638 -0.1131  1.3861
  451MPD2    H3 6776   2.044   3.313   1.025  0.1454  0.4709 -1.0170
  451MPD2     N 6777   2.065   2.893   0.862 -0.3650  0.1612  0.1627
  451MPD2    H5 6778   2.003   2.827   0.818 -0.7658  0.4606  0.2730
  451MPD2    N1 6779   1.642   3.100   0.988  0.0894 -0.0386 -0.4679
  451MPD2    H7 6780   1.591   3.171   1.040  1.0789  1.0513 -0.9879
  452TMC3    C1 6781   2.207   2.748   0.768  0.5712 -0.5214  0.6361
  452TMC3    C2 6782   2.117   2.655   0.816  0.9811  0.4250  0.0758
  452TMC3    C3 6783   2.067   2.552   0.737 -0.1583  0.6170  0.0940
  452TMC3    C4 6784   2.233   2.751   0.631 -0.5365 -0.2400 -0.3617
  452TMC3    C5 6785   2.172   2.657   0.556 -0.7115 -0.7740 -0.6276
  452TMC3    C6 6786   2.095   2.554   0.600 -0.6683 -0.3062 -0.7768
  452TMC3     C 6787   2.200   2.881   0.831 -0.2536  0.1350  0.0805
  452TMC3     O 6788   2.286   2.964   0.807  0.1518 -0.5157  0.0260
  452TMC3     H 6789   2.115   2.642   0.924 -0.6345 -0.4973 -0.0675
  452TMC3    H1 6790   2.290   2.836   0.595 -0.1562  0.2443  1.3889
  452TMC3    H2 6791   2.040   2.495   0.528 -1.3650 -2.6354  1.6837
  452TMC3    C7 6792   2.187   2.674   0.413  1.1123  0.5448  0.0007
  452TMC3    C8 6793   1.949   2.480   0.790 -0.1771  0.3287 -0.0932
  452TMC3    O1 6794   2.221   2.781   0.362  0.1656  0.3307 -0.2100
  452TMC3    O2 6795   1.896   2.401   0.709 -0.0607  0.0899 -0.3728
  453TMC3    C1 6796   2.877   0.037  11.627  0.0845 -0.1498 -0.2475
  453TMC3    C2 6797   2.804   4.670  11.683 -0.4346 -0.4922 -0.0929
  453TMC3    C3 6798   2.672   4.703  11.707 -0.3108 -0.1054  0.0300
  453TMC3    C4 6799   2.828   0.165  11.622 -0.6456  0.0027 -0.1214
  453TMC3    C5 6800   2.698   0.187  11.647 -0.2501 -0.7349 -0.0614
  453TMC3    C6 6801   2.611   0.086  11.684 -0.6971  0.6306 -0.3912
  453TMC3     C 6802   3.023   0.022  11.612  0.0345 -0.0233  0.4369
  453TMC3     O 6803   3.092   0.121  11.623  0.0961  0.4516  0.5722
  453TMC3     H 6804   2.854   4.588  11.733 -1.5718  1.6932  4.5890
  453TMC3    H1 6805   2.888   0.237  11.568  0.4010 -1.1679 -0.5182
  453TMC3    H2 6806   2.507   0.095  11.712 -0.3634 -1.2832  1.4380
  453TMC3    C7 6807   2.658   0.335  11.643 -0.1576  0.7004 -0.2497
  453TMC3    C8 6808   2.590   4.600  11.775  0.6892 -0.2968  0.5652
  453TMC3    O1 6809   2.752   0.415  11.617 -0.1146 -0.0819  0.2301
  453TMC3    O2 6810   2.489   4.629  11.835 -0.2090  0.5378  0.3125
  454MPD2     C 6811   1.456   4.292  16.309  1.0829 -0.1056 -0.0945
  454MPD2    C1 6812   1.375   4.325  16.201  0.5759 -0.2108 -0.5017
  454MPD2    C2 6813   1.306   4.443  16.216 -0.0245 -0.7845 -0.1041
  454MPD2    C3 6814   1.318   4.529  16.323 -0.3043  0.5173 -0.4204
  454MPD2    C4 6815   1.421   4.503  16.413 -0.1954  0.0027 -0.2775
  454MPD2    C5 6816   1.486   4.382  16.408  0.1583 -0.2357  0.0310
  454MPD2     H 6817   1.241   4.460  16.131  0.8413 -0.6552 -0.7440
  454MPD2    H1 6818   1.446   4.561  16.502  0.0387  1.2492 -1.1516
  454MPD2    H2 6819   1.520   4.204  16.304  2.2438  0.6436  1.2081
  454MPD2    H3 6820   1.565   4.345  16.473  1.6986  1.8521 -0.6625
  454MPD2     N 6821   1.219   4.636  16.346  0.0756 -0.2182  0.6954
  454MPD2    H5 6822   1.219   4.677  16.439  2.8802  0.6851  0.2794
  454MPD2    N1 6823   1.351   4.251  16.081  0.4464  0.0822 -0.4342
  454MPD2    H7 6824   1.295   4.297  16.009  1.5881  0.5020 -1.0478
  455TMC3    C1 6825   0.994   4.682  16.359 -0.0807  0.1679  0.3065
  455TMC3    C2 6826   0.997   0.020  16.469  0.5191 -0.3687 -0.1361
  455TMC3    C3 6827   0.948   4.703  16.581  0.0852  0.1385 -0.0298
  455TMC3    C4 6828   0.918   4.566  16.351  0.5563  0.0990  0.3660
  455TMC3    C5 6829   0.896   4.505  16.473  0.3022  0.3011  0.7324
  455TMC3    C6 6830   0.891   4.583  16.584  0.5978  0.6315 -0.3855
  455TMC3     C 6831   1.111   4.671  16.270  1.3010 -0.8717  0.8094
  455TMC3     O 6832   1.080   4.634  16.157 -0.0797  0.8465 -0.3887
  455TMC3     H 6833   1.057   0.110  16.469 -1.0092  0.6440 -1.3451
  455TMC3    H1 6834   0.910   4.509  16.260 -1.7319  0.4432  0.3430
  455TMC3    H2 6835   0.858   4.537  16.676  0.1772  0.2617 -0.7227
  455TMC3    C7 6836   0.958   4.376  16.480  0.1342  0.4979  0.2341
  455TMC3    C8 6837   0.946   0.051  16.698 -0.2658 -0.4251 -0.8253
  455TMC3    O1 6838   1.030   4.354  16.576  0.3272  0.2250 -0.1120
  455TMC3    O2 6839   1.037   0.135  16.707 -0.6413  0.0084  0.2233
  456MPD2     C 6840   4.182   3.944  16.212  0.2270 -0.3033 -0.7159
  456MPD2    C1 6841   4.215   3.895  16.335 -0.5143 -0.5102 -0.4878
  456MPD2    C2 6842   4.180   3.964  16.454 -0.2320  0.0174  0.1793
  456MPD2    C3 6843   4.106   4.080  16.455 -1.1207  0.4860 -0.4383
  456MPD2    C4 6844   4.056   4.117  16.326 -0.0036  0.0278  0.6371
  456MPD2    C5 6845   4.091   4.052  16.214 -0.1947 -0.1412  0.4158
  456MPD2     H 6846   4.217   3.927  16.549  1.8687 -1.6011 -1.2579
  456MPD2    H1 6847   3.980   4.194  16.321 -0.1847 -0.2665 -1.1045
  456MPD2    H2 6848   4.201   3.885  16.123 -0.5611 -1.4461 -0.1251
  456MPD2    H3 6849   4.053   4.098  16.124  2.1164 -1.8742 -1.4233
  456MPD2     N 6850   4.087   4.150  16.581  0.0289 -0.2198 -0.0960
  456MPD2    H5 6851   4.134   4.130  16.669  0.9380  4.7884  0.5844
  456MPD2    N1 6852   4.280   3.769  16.338  0.2352  0.2705 -0.5527
  456MPD2    H7 6853   4.287   3.727  16.246 -3.6359 -3.2571  0.7438
  457TMC3    C1 6854   4.011   4.340  16.721  0.4423  0.3308  0.1951
  457TMC3    C2 6855   3.948   4.460  16.715  0.2305 -0.4772  0.1190
  457TMC3    C3 6856   3.904   4.507  16.835 -0.0784  0.1670 -0.4015
  457TMC3    C4 6857   4.009   4.260  16.831  0.6830 -0.4143 -0.2710
  457TMC3    C5 6858   3.961   4.309  16.951  0.0388  0.0303 -0.6640
  457TMC3    C6 6859   3.913   4.439  16.955 -0.9105  0.3566 -0.0626
  457TMC3     C 6860   4.013   4.267  16.594  0.0954  0.3959  0.3404
  457TMC3     O 6861   3.962   4.327  16.498  0.5063  0.6069  0.3140
  457TMC3     H 6862   3.941   4.521  16.626 -2.5969  2.4085  2.3247
  457TMC3    H1 6863   4.062   4.166  16.836 -0.1871 -0.8753  0.1245
  457TMC3    H2 6864   3.851   4.469  17.038 -1.4624  0.6941 -0.5954
  457TMC3    C7 6865   3.993   4.242  17.070  0.4288  0.9858  0.4360
  457TMC3    C8 6866   3.836   4.634  16.819  0.4565 -0.4088 -0.0637
  457TMC3    O1 6867   3.997   4.117  17.072 -0.5729 -0.6672  0.7298
  457TMC3    O2 6868   3.765   4.643  16.720  0.2184  0.3425 -0.0126
  458MPD2     C 6869   1.860   3.850  12.873  0.1578  0.3691  0.4731
  458MPD2    C1 6870   1.863   3.737  12.947  0.7717 -0.1789 -0.0221
  458MPD2    C2 6871   1.747   3.664  12.978  0.3055  0.0453  0.1781
  458MPD2    C3 6872   1.631   3.700  12.914 -0.2134 -0.4473 -0.6204
  458MPD2    C4 6873   1.634   3.803  12.824  0.4685 -0.3723 -0.2246
  458MPD2    C5 6874   1.748   3.882  12.808  0.3413 -0.8349 -0.4447
  458MPD2     H 6875   1.742   3.581  13.047  1.3515  1.7306  2.3041
  458MPD2    H1 6876   1.537   3.835  12.788 -0.7150 -1.8995  1.5696
  458MPD2    H2 6877   1.946   3.913  12.856  0.2112  0.3062  0.5112
  458MPD2    H3 6878   1.745   3.968  12.741  0.6685  0.7275  1.5447
  458MPD2     N 6879   1.513   3.629  12.943  0.6343  0.0855  0.1627
  458MPD2    H5 6880   1.528   3.540  12.989  0.7593  1.2594  2.4386
  458MPD2    N1 6881   1.986   3.701  12.999  0.1013 -0.4514 -0.1573
  458MPD2    H7 6882   2.063   3.763  12.977 -0.8809  1.5993  2.1395
  459TMC3    C1 6883   2.163   3.577  13.116  0.2550 -0.0244  0.8705
  459TMC3    C2 6884   2.254   3.592  13.012  0.3804 -0.1923  0.1987
  459TMC3    C3 6885   2.372   3.522  13.020 -0.2165 -0.3796  0.2953
  459TMC3    C4 6886   2.192   3.495  13.227  0.7090 -0.8154 -0.0005
  459TMC3    C5 6887   2.322   3.445  13.235  0.2910 -0.7278 -0.6397
  459TMC3    C6 6888   2.413   3.455  13.135  0.5165 -0.2483 -0.0084
  459TMC3     C 6889   2.015   3.603  13.088 -0.1388  0.4820 -0.6821
  459TMC3     O 6890   1.940   3.525  13.146  0.2609  0.6743 -0.1469
  459TMC3     H 6891   2.230   3.621  12.911  1.1757 -0.7106 -0.1337
  459TMC3    H1 6892   2.118   3.493  13.306 -1.3101 -0.0907 -1.8574
  459TMC3    H2 6893   2.510   3.407  13.140 -0.5290 -2.6128 -2.3101
  459TMC3    C7 6894   2.349   3.361  13.345 -0.4878  0.1980  0.2026
  459TMC3    C8 6895   2.459   3.518  12.908 -0.1957 -0.2046  0.1726
  459TMC3    O1 6896   2.430   3.272  13.323 -0.2364 -0.4300  0.0855
  459TMC3    O2 6897   2.577   3.505  12.939 -0.2080 -0.0769  0.0738
  460MPD2     C 6898   0.862   1.548  11.035 -0.4165  0.1352 -0.5565
  460MPD2    C1 6899   0.807   1.432  10.995  0.5196 -0.9830 -0.1073
  460MPD2    C2 6900   0.734   1.434  10.879 -0.0395 -0.9630  0.1932
  460MPD2    C3 6901   0.706   1.549  10.806 -0.4440  0.4722  0.0990
  460MPD2    C4 6902   0.765   1.666  10.850 -0.4704  0.2509 -0.6081
  460MPD2    C5 6903   0.843   1.664  10.961  0.6601 -0.6374  1.1053
  460MPD2     H 6904   0.680   1.346  10.846 -1.1991  0.3847 -1.5380
  460MPD2    H1 6905   0.758   1.760  10.796 -1.3894 -0.6303 -1.9814
  460MPD2    H2 6906   0.936   1.541  11.114 -0.2070  0.9306 -0.6758
  460MPD2    H3 6907   0.900   1.755  10.978 -0.6842  0.5334 -0.6336
  460MPD2     N 6908   0.627   1.539  10.685  0.5336 -0.0863  0.1979
  460MPD2    H5 6909   0.634   1.450  10.638  0.0474  1.1954 -2.3183
  460MPD2    N1 6910   0.837   1.310  11.053 -0.3002 -0.4088  0.3345
  460MPD2    H7 6911   0.909   1.312  11.124 -0.0630  1.1727  0.0512
  461TMC3    C1 6912   0.549   1.627  10.471  0.8363  0.1101  0.5786
  461TMC3    C2 6913   0.537   1.502  10.418  0.1819 -0.0215 -0.2433
  461TMC3    C3 6914   0.537   1.495  10.276  1.0694  0.3250  0.2843
  461TMC3    C4 6915   0.553   1.737  10.394 -0.6199 -0.0569  0.1015
  461TMC3    C5 6916   0.547   1.724  10.257  0.4613  0.0154 -0.9902
  461TMC3    C6 6917   0.538   1.602  10.196 -0.3622  0.3734  0.7762
  461TMC3     C 6918   0.571   1.646  10.618  0.1947 -0.9588  0.1142
  461TMC3     O 6919   0.558   1.761  10.662 -0.8475  0.4643 -0.4139
  461TMC3     H 6920   0.506   1.416  10.475 -1.1614 -0.4436 -1.5923
  461TMC3    H1 6921   0.561   1.836  10.438 -2.1003 -0.3661  1.0889
  461TMC3    H2 6922   0.519   1.601  10.089 -0.7200 -2.2185  0.8738
  461TMC3    C7 6923   0.519   1.840  10.177 -0.4621 -0.1707 -0.7994
  461TMC3    C8 6924   0.536   1.358  10.218  0.5336 -0.3782  0.4046
  461TMC3    O1 6925   0.449   1.830  10.077  0.0418  0.1634  0.3389
  461TMC3    O2 6926   0.520   1.264  10.299 -0.3186  0.1367 -0.6328
  462TMC3    C1 6927   0.798   2.858   0.790  0.3586 -0.7921  0.3686
  462TMC3    C2 6928   0.910   2.809   0.845 -0.5429 -0.1899  0.9331
  462TMC3    C3 6929   0.953   2.683   0.809  0.7823 -0.2673 -0.6470
  462TMC3    C4 6930   0.720   2.787   0.696 -0.9391 -0.2794  0.2523
  462TMC3    C5 6931   0.768   2.664   0.661 -0.2103 -0.9427 -0.3672
  462TMC3    C6 6932   0.879   2.609   0.721 -0.3950 -0.1571 -0.0219
  462TMC3     C 6933   0.772   2.998   0.813 -0.6049 -0.0281  0.3099
  462TMC3     O 6934   0.790   3.044   0.925 -0.2649 -0.4877  0.0951
  462TMC3     H 6935   0.978   2.877   0.894 -0.6321  1.5646 -1.3762
  462TMC3    H1 6936   0.619   2.818   0.671 -0.2245  1.5698 -0.4269
  462TMC3    H2 6937   0.910   2.510   0.691  0.4059  0.6387 -1.8335
  462TMC3    C7 6938   0.684   2.570   0.606 -0.1770 -0.3625 -0.0892
  462TMC3    C8 6939   1.097   2.668   0.805  0.7377  0.1813  0.1843
  462TMC3    O1 6940   0.693   2.456   0.643 -0.2695  0.0402  0.0316
  462TMC3    O2 6941   1.168   2.739   0.878  0.1750  0.4359 -0.5596
  463MPD2     C 6942   0.218   1.590   1.675 -0.3347  0.7359 -0.4040
  463MPD2    C1 6943   0.283   1.532   1.571 -0.0489  0.1452  0.3691
  463MPD2    C2 6944   0.363   1.609   1.487 -0.0336  0.5233 -0.9804
  463MPD2    C3 6945   0.379   1.746   1.510  0.3205  0.1170  0.1332
  463MPD2    C4 6946   0.312   1.799   1.621  0.3054 -0.0514 -0.3477
  463MPD2    C5 6947   0.232   1.720   1.698  0.3769  0.0935 -0.2121
  463MPD2     H 6948   0.416   1.558   1.407  0.6503  1.2482 -0.9884
  463MPD2    H1 6949   0.335   1.901   1.651  2.0097 -0.3589 -0.5907
  463MPD2    H2 6950   0.164   1.534   1.750  0.3904  0.4745 -0.0877
  463MPD2    H3 6951   0.177   1.764   1.781  1.4340  4.1356 -1.6510
  463MPD2     N 6952   0.473   1.831   1.446 -0.0719  0.1440  0.0475
  463MPD2    H5 6953   0.468   1.926   1.480 -2.9729  0.9083 -2.5267
  463MPD2    N1 6954   0.277   1.393   1.540 -0.7041  0.0983 -1.1646
  463MPD2    H7 6955   0.330   1.366   1.457  0.8389  1.3223 -0.5681
  464TMC3    C1 6956   0.234   1.165   1.567 -0.6510 -0.0025 -0.0778
  464TMC3    C2 6957   0.217   1.155   1.432 -0.2134  0.4325 -0.2404
  464TMC3    C3 6958   0.220   1.024   1.375  0.0556  0.3819  0.1573
  464TMC3    C4 6959   0.266   1.049   1.639 -0.8176 -0.3041 -1.0037
  464TMC3    C5 6960   0.287   0.936   1.569  0.1606 -0.5016 -1.3103
  464TMC3    C6 6961   0.273   0.915   1.439 -0.4492 -0.0118 -0.1166
  464TMC3     C 6962   0.230   1.290   1.627  0.1292  0.4964  0.0316
  464TMC3     O 6963   0.192   1.295   1.742  0.3144 -0.5037 -0.4060
  464TMC3     H 6964   0.190   1.246   1.379  1.7389  0.8821 -0.4386
  464TMC3    H1 6965   0.288   1.054   1.745  0.2102  0.2780 -1.2517
  464TMC3    H2 6966   0.274   0.816   1.394  1.9071 -0.0805  0.1149
  464TMC3    C7 6967   0.357   0.836   1.648 -0.5080  0.6547  0.3020
  464TMC3    C8 6968   0.190   1.015   1.232 -0.5228  0.1382 -0.5854
  464TMC3    O1 6969   0.340   0.840   1.770  0.4941 -1.0907 -0.2083
  464TMC3    O2 6970   0.186   1.125   1.181  0.0223 -0.1440  0.1267
  465MPD2     C 6971   3.153   4.328  16.928  0.6539  0.3789  0.3444
  465MPD2    C1 6972   3.018   4.330  16.949  0.4959  0.4346 -0.6938
  465MPD2    C2 6973   2.935   4.369  16.841  0.3399  0.0214  0.0660
  465MPD2    C3 6974   2.991   4.410  16.716  0.4064 -0.7139  0.3766
  465MPD2    C4 6975   3.128   4.405  16.701 -0.0495 -0.0736 -0.5612
  465MPD2    C5 6976   3.205   4.361  16.804  0.0036  0.2848 -0.1584
  465MPD2     H 6977   2.828   4.369  16.857  0.4147  1.3835  0.5589
  465MPD2    H1 6978   3.169   4.414  16.601  0.1030 -0.6952 -0.5601
  465MPD2    H2 6979   3.220   4.295  17.006 -0.0984 -0.4757  0.6203
  465MPD2    H3 6980   3.307   4.334  16.779 -0.0226 -0.9074  0.9615
  465MPD2     N 6981   2.905   4.438  16.605 -0.6596  0.6420  0.1412
  465MPD2    H5 6982   2.805   4.422  16.610 -0.5435 -0.2306 -0.2137
  465MPD2    N1 6983   2.964   4.280  17.065 -0.2112  0.3464 -0.2208
  465MPD2    H7 6984   2.863   4.265  17.068 -0.4692  1.9555 -0.7694
  466TMC3    C1 6985   2.608   4.508  16.349  0.3564  0.4012 -0.2368
  466TMC3    C2 6986   2.610   4.637  16.310 -0.4809  0.0043  0.7484
  466TMC3    C3 6987   2.725   4.704  16.314 -0.1152  0.1185 -0.3133
  466TMC3    C4 6988   2.724   4.452  16.401  0.3639  0.7292  1.0291
  466TMC3    C5 6989   2.836   4.527  16.405  0.3817  0.7311 -0.5645
  466TMC3    C6 6990   2.842   4.654  16.354  0.0266  0.3408 -0.0267
  466TMC3     C 6991   2.486   4.455  16.405  0.0258  0.2893 -0.7776
  466TMC3     O 6992   2.495   4.367  16.488 -0.2801  0.1823 -0.0371
  466TMC3     H 6993   2.520   4.688  16.276  0.0109  0.5233  0.2199
  466TMC3    H1 6994   2.730   4.359  16.455  0.6029  0.3754  0.3903
  466TMC3    H2 6995   2.928   4.719  16.358  0.6781 -0.4627 -1.0574
  466TMC3    C7 6996   2.950   4.496  16.489  0.1507  0.7892  0.2936
  466TMC3    C8 6997   2.744   0.108  16.266  0.4234 -0.7126  0.3074
  466TMC3    O1 6998   3.054   4.553  16.462  0.6274  0.0177  0.6977
  466TMC3    O2 6999   2.846   0.131  16.201  0.6794 -0.1445 -0.2262
  467TMC3    C1 7000   3.811   3.241  14.101 -0.5376  0.2238  0.9784
  467TMC3    C2 7001   3.717   3.305  14.033 -0.0360  0.0521 -0.0429
  467TMC3    C3 7002   3.620   3.238  13.965  0.3998  0.3668 -0.1438
  467TMC3    C4 7003   3.800   3.101  14.109  0.2921 -0.1097  0.4490
  467TMC3    C5 7004   3.694   3.039  14.060 -0.0769 -0.1348 -0.0212
  467TMC3    C6 7005   3.598   3.109  13.987  0.2350  0.4670  0.1234
  467TMC3     C 7006   3.940   3.278  14.064 -0.0081  0.1500  0.0332
  467TMC3     O 7007   4.036   3.230  14.121  0.1616 -0.4709 -0.7867
  467TMC3     H 7008   3.730   3.413  14.036 -0.6463  0.1720 -1.6488
  467TMC3    H1 7009   3.876   3.047  14.164  0.5734  0.0782  0.2466
  467TMC3    H2 7010   3.500   3.075  13.955  0.7001 -0.5911 -0.1427
  467TMC3    C7 7011   3.681   2.900  14.082 -0.0056 -0.1389  0.6451
  467TMC3    C8 7012   3.629   3.283  13.827  0.2474 -0.1316 -0.0682
  467TMC3    O1 7013   3.782   2.832  14.110  0.2570  0.2263 -0.0306
  467TMC3    O2 7014   3.705   3.375  13.816 -0.3503  0.2291 -0.3475
  468MPD2     C 7015   2.726   1.350  10.197  0.4718 -0.7035 -0.7377
  468MPD2    C1 7016   2.777   1.334  10.328 -0.2214 -0.0177 -0.1189
  468MPD2    C2 7017   2.788   1.208  10.376 -0.9425  0.2389 -0.6721
  468MPD2    C3 7018   2.759   1.098  10.297  0.1250  1.0354  0.4252
  468MPD2    C4 7019   2.726   1.117  10.165  1.0952  0.7605 -0.3446
  468MPD2    C5 7020   2.710   1.242  10.113 -0.9361  0.2202 -1.0970
  468MPD2     H 7021   2.836   1.179  10.469 -1.5811 -0.4279 -0.5497
  468MPD2    H1 7022   2.699   1.030  10.105 -1.0346 -0.7941  2.9249
  468MPD2    H2 7023   2.707   1.447  10.151  2.7983  0.5288  0.9229
  468MPD2    H3 7024   2.680   1.246  10.009 -0.7598  0.4711 -1.1375
  468MPD2     N 7025   2.754   0.959  10.338  0.8588 -0.4196  0.0856
  468MPD2    H5 7026   2.746   0.890  10.264 -2.8505  1.6070 -1.4189
  468MPD2    N1 7027   2.817   1.453  10.402 -0.1458 -0.6415  0.2493
  468MPD2    H7 7028   2.859   1.428  10.491 -2.4557  0.6913  1.7095
  469TMC3    C1 7029   2.869   1.666  10.458  0.1081  0.3202  0.0662
  469TMC3    C2 7030   2.989   1.619  10.498  0.5241 -0.5092 -0.3122
  469TMC3    C3 7031   3.061   1.688  10.589  0.6420 -0.2779  0.4351
  469TMC3    C4 7032   2.819   1.771  10.514 -0.9264  0.6430 -0.3318
  469TMC3    C5 7033   2.887   1.834  10.614 -0.5717 -0.1235  0.0296
  469TMC3    C6 7034   3.013   1.799  10.656  0.6344 -0.1463 -0.0378
  469TMC3     C 7035   2.791   1.582  10.373  0.0987  0.1339 -0.2488
  469TMC3     O 7036   2.718   1.631  10.287  0.9239  0.1692 -0.3809
  469TMC3     H 7037   3.037   1.538  10.444  0.6981 -0.2328 -0.5719
  469TMC3    H1 7038   2.724   1.807  10.477 -1.6804 -2.4909 -1.4045
  469TMC3    H2 7039   3.071   1.859  10.725  1.1779  0.7725 -1.2931
  469TMC3    C7 7040   2.816   1.944  10.686  0.3810 -0.1896  0.1201
  469TMC3    C8 7041   3.196   1.641  10.607  1.7259 -1.0244 -0.2686
  469TMC3    O1 7042   2.706   1.980  10.642 -0.5315  0.7609 -0.1620
  469TMC3    O2 7043   3.251   1.610  10.503 -0.5849  0.4995  0.3375
  470TMC3    C1 7044   0.013   2.133   0.974  0.4680  0.0558 -0.2771
  470TMC3    C2 7045   0.112   2.222   1.011  0.9528 -0.7539  0.1893
  470TMC3    C3 7046   0.111   2.267   1.135  0.3997 -0.2709 -0.6672
  470TMC3    C4 7047   4.642   2.101   1.058  0.1312  0.6863  0.5290
  470TMC3    C5 7048   4.638   2.161   1.181  0.4950  0.0568 -0.0333
  470TMC3    C6 7049   0.008   2.237   1.224 -0.0508 -0.6648 -0.0940
  470TMC3     C 7050   0.021   2.070   0.845  0.5239  0.4622  0.2300
  470TMC3     O 7051   0.062   2.139   0.751 -0.4568  0.4756  0.1732
  470TMC3     H 7052   0.192   2.236   0.939  0.3466 -0.7391 -0.4839
  470TMC3    H1 7053   4.556   2.046   1.021 -2.0794  3.3619  1.6705
  470TMC3    H2 7054   0.010   2.279   1.324 -1.3058 -2.4087  0.6544
  470TMC3    C7 7055   4.529   2.126   1.267  0.8017 -0.0831 -0.3652
  470TMC3    C8 7056   0.193   2.378   1.176  0.0689  0.1259  0.0597
  470TMC3    O1 7057   4.453   2.036   1.232 -0.0303  0.7740  0.2521
  470TMC3    O2 7058   0.163   2.424   1.283 -0.2248  0.4355  0.5774
  471MPD2     C 7059   0.706   3.369  16.793  0.4311  0.5459  0.4979
  471MPD2    C1 7060   0.825   3.316  16.737 -0.6995 -0.1206 -0.1511
  471MPD2    C2 7061   0.941   3.311  16.813  0.0949 -0.0393 -0.3501
  471MPD2    C3 7062   0.928   3.346  16.946 -0.1453  0.1584  0.0099
  471MPD2    C4 7063   0.814   3.401  17.002 -0.4182 -0.1465 -0.5671
  471MPD2    C5 7064   0.702   3.411  16.925  0.0871  0.0577 -0.7054
  471MPD2     H 7065   1.029   3.270  16.766  0.8282 -0.1959  1.1465
  471MPD2    H1 7066   0.810   3.418  17.109  0.3495 -1.8247 -0.2907
  471MPD2    H2 7067   0.610   3.361  16.743 -0.9147 -0.7706  3.3424
  471MPD2    H3 7068   0.610   3.449  16.967  2.1079  3.3705  0.7630
  471MPD2     N 7069   1.043   3.349  17.034  0.4333  0.0268 -0.0885
  471MPD2    H5 7070   1.027   3.382  17.128  0.1426 -0.2847 -0.0324
  471MPD2    N1 7071   0.831   3.266  16.600 -0.0558 -0.0980  0.0274
  471MPD2    H7 7072   0.905   3.205  16.567 -1.4241 -0.4441 -2.4194
  472TMC3    C1 7073   0.763   3.199  16.388 -0.1234 -0.2070 -0.5831
  472TMC3    C2 7074   0.687   3.237  16.283 -0.2917 -0.1622  0.5757
  472TMC3    C3 7075   0.663   3.137  16.196  0.0399  0.1557  0.0317
  472TMC3    C4 7076   0.815   3.072  16.408 -0.5679 -0.2562  0.0527
  472TMC3    C5 7077   0.777   2.974  16.313  0.0554 -0.2566  1.8412
  472TMC3    C6 7078   0.706   3.006  16.202  0.8740  0.1423 -0.2110
  472TMC3     C 7079   0.738   3.283  16.505  0.4833  0.0730  0.2297
  472TMC3     O 7080   0.637   3.352  16.509 -0.6084 -0.2382 -0.4542
  472TMC3     H 7081   0.623   3.324  16.290  0.2693  0.2940  0.0910
  472TMC3    H1 7082   0.872   3.044  16.496 -2.1445 -1.0017  0.8402
  472TMC3    H2 7083   0.706   2.943  16.113  1.5781 -0.4159  0.1795
  472TMC3    C7 7084   0.722   2.853  16.382 -0.2586  0.0726 -0.0236
  472TMC3    C8 7085   0.540   3.136  16.130  0.1364  0.0459 -0.5210
  472TMC3    O1 7086   0.756   2.834  16.499  0.7036 -0.1062  0.7017
  472TMC3    O2 7087   0.517   3.234  16.062 -0.0391  0.1022 -0.2705
  473MPD2     C 7088   0.613   0.575  13.755  0.0981 -0.0267 -0.4552
  473MPD2    C1 7089   0.655   0.686  13.689 -0.3183 -0.1961 -0.2548
  473MPD2    C2 7090   0.678   0.801  13.761 -0.0083 -0.4472 -0.6346
  473MPD2    C3 7091   0.659   0.805  13.904  0.0914  0.1555 -0.1195
  473MPD2    C4 7092   0.617   0.693  13.964 -0.0029  0.1979  0.8038
  473MPD2    C5 7093   0.606   0.577  13.892  0.1515  0.3424  0.3752
  473MPD2     H 7094   0.708   0.894  13.714  0.9801  0.3956  1.6958
  473MPD2    H1 7095   0.613   0.697  14.072  3.2866 -2.6227  1.0499
  473MPD2    H2 7096   0.585   0.485  13.703 -0.1302 -0.7695  0.9503
  473MPD2    H3 7097   0.568   0.488  13.942 -1.6040  0.7100 -0.3062
  473MPD2     N 7098   0.701   0.909  13.989 -0.0921 -0.0604  0.6312
  473MPD2    H5 7099   0.679   0.900  14.087 -0.5944 -1.2578  0.4116
  473MPD2    N1 7100   0.664   0.703  13.548  0.3269 -0.7258 -0.1308
  473MPD2    H7 7101   0.710   0.790  13.522  0.8367 -0.6224  1.1439
  474TMC3    C1 7102   0.797   1.111  14.054  0.7488  0.7226 -0.1814
  474TMC3    C2 7103   0.834   1.239  14.022  0.5186  0.1404 -0.2269
  474TMC3    C3 7104   0.881   1.317  14.120  0.8269  0.7632 -0.0622
  474TMC3    C4 7105   0.817   1.060  14.178  0.1542  0.1022 -0.2257
  474TMC3    C5 7106   0.835   1.153  14.276  0.3569 -0.0910 -0.3465
  474TMC3    C6 7107   0.878   1.280  14.251  0.3410 -0.6396 -0.9106
  474TMC3     C 7108   0.754   1.024  13.944  0.9292  0.3161  0.4534
  474TMC3     O 7109   0.764   1.067  13.832 -0.3302  0.0869 -0.2056
  474TMC3     H 7110   0.809   1.275  13.923 -1.1734  1.0657  0.5287
  474TMC3    H1 7111   0.789   0.958  14.203 -0.0896  0.6316  1.6751
  474TMC3    H2 7112   0.938   1.341  14.318  1.6851 -0.9229 -1.8594
  474TMC3    C7 7113   0.798   1.111  14.413 -0.6323  0.6649 -0.7464
  474TMC3    C8 7114   0.885   1.460  14.092  0.1978 -0.0970  0.2549
  474TMC3    O1 7115   0.746   1.000  14.428 -0.1366  0.2756  0.4700
  474TMC3    O2 7116   0.847   1.540  14.178 -0.2956 -0.2299  0.1927
  475MPD2     C 7117   3.971   3.418  10.493  0.5040 -0.2095  0.1713
  475MPD2    C1 7118   3.967   3.527  10.581 -0.6379 -0.9303 -0.5703
  475MPD2    C2 7119   3.844   3.581  10.614  0.9973  0.0409  0.1293
  475MPD2    C3 7120   3.732   3.527  10.559 -0.2533  0.4285 -0.3350
  475MPD2    C4 7121   3.734   3.413  10.470  0.3420 -0.3616  0.0083
  475MPD2    C5 7122   3.858   3.365  10.438 -0.5278  0.5007 -0.0691
  475MPD2     H 7123   3.826   3.663  10.682  1.4769 -0.2935  0.6588
  475MPD2    H1 7124   3.645   3.366  10.430 -1.0805  1.1764  1.3451
  475MPD2    H2 7125   4.063   3.364  10.474  2.1747  2.6213  0.1766
  475MPD2    H3 7126   3.868   3.269  10.389  1.5800  0.1169  1.1198
  475MPD2     N 7127   3.608   3.581  10.597 -0.0912  0.2623 -0.2641
  475MPD2    H5 7128   3.604   3.662  10.659  0.5262  1.4246 -1.7508
  475MPD2    N1 7129   4.086   3.575  10.646  0.3229  0.3096  0.9589
  475MPD2    H7 7130   4.077   3.634  10.729  0.9045  1.1207  0.4516
  476TMC3    C1 7131   4.287   3.667  10.657  0.1122  0.0419  0.6655
  476TMC3    C2 7132   4.299   3.774  10.572 -0.4886 -0.6166  0.8388
  476TMC3    C3 7133   4.263   3.891  10.629 -0.1521 -0.0409 -0.2473
  476TMC3    C4 7134   4.245   3.677  10.785  0.1813  0.7024  0.6958
  476TMC3    C5 7135   4.217   3.802  10.825  0.7331 -0.2903  0.4727
  476TMC3    C6 7136   4.239   3.919  10.758 -0.0468 -0.7325  0.4558
  476TMC3     C 7137   4.212   3.569  10.590 -0.3238 -0.0513 -0.4066
  476TMC3     O 7138   4.236   3.540  10.474 -0.7783 -0.4441  0.3284
  476TMC3     H 7139   4.347   3.765  10.475  0.2927  4.0905  0.7455
  476TMC3    H1 7140   4.230   3.586  10.841  0.3557 -0.5529 -1.3210
  476TMC3    H2 7141   4.187   4.010  10.785  0.3747 -0.2990 -0.1937
  476TMC3    C7 7142   4.114   3.800  10.922  0.1633  0.1854  0.1661
  476TMC3    C8 7143   4.165   3.969  10.542  0.5542  0.0936  0.9270
  476TMC3    O1 7144   4.047   3.703  10.945 -0.4455  0.6290  0.3361
  476TMC3    O2 7145   4.140   4.079  10.583 -0.8355  0.7999 -0.0304
  477MPD2     C 7146   1.474   0.536  11.823  0.1147  0.3600  0.3365
  477MPD2    C1 7147   1.506   0.449  11.724  0.0276  0.1242 -0.6462
  477MPD2    C2 7148   1.592   0.339  11.756  0.4807  0.1252  0.1150
  477MPD2    C3 7149   1.623   0.316  11.891  0.6009  0.5886  0.9941
  477MPD2    C4 7150   1.596   0.410  11.986 -0.0595 -0.1733 -1.0354
  477MPD2    C5 7151   1.523   0.517  11.948 -0.2696 -0.0241  0.7020
  477MPD2     H 7152   1.635   0.273  11.681  1.1009  0.5352  0.1107
  477MPD2    H1 7153   1.633   0.396  12.087 -1.2124 -0.2663 -0.6156
  477MPD2    H2 7154   1.421   0.629  11.802 -0.2536  0.1573  0.3841
  477MPD2    H3 7155   1.510   0.596  12.022 -1.9029  0.6486 -0.3131
  477MPD2     N 7156   1.700   0.200  11.922  0.2979  0.2161  0.5004
  477MPD2    H5 7157   1.719   0.136  11.845  0.5768  0.7570  0.1167
  477MPD2    N1 7158   1.466   0.483  11.597 -0.4196 -0.1199 -0.3839
  477MPD2    H7 7159   1.415   0.570  11.589 -1.7664 -0.9273 -0.5705
  478TMC3    C1 7160   1.398   0.460  11.381 -0.0900  0.0436 -0.6082
  478TMC3    C2 7161   1.284   0.529  11.416  0.2772 -0.2323  0.9210
  478TMC3    C3 7162   1.206   0.580  11.314 -0.6727 -0.2578 -0.5913
  478TMC3    C4 7163   1.425   0.438  11.249  0.2722 -0.0705 -0.4276
  478TMC3    C5 7164   1.337   0.486  11.155  0.2914 -0.5050 -0.4398
  478TMC3    C6 7165   1.229   0.565  11.182  0.3622  0.0638  0.3739
  478TMC3     C 7166   1.485   0.409  11.484  0.0166  0.3651  0.3330
  478TMC3     O 7167   1.559   0.309  11.467  0.1369  0.2905  0.6347
  478TMC3     H 7168   1.245   0.522  11.517  0.6368  4.0286  1.3639
  478TMC3    H1 7169   1.518   0.386  11.226 -0.3613 -1.2430 -0.3249
  478TMC3    H2 7170   1.150   0.583  11.110 -0.8134  2.4422  2.2343
  478TMC3    C7 7171   1.375   0.482  11.008 -0.2805  0.5956 -0.4562
  478TMC3    C8 7172   1.084   0.648  11.352 -0.2230 -0.0262  0.3048
  478TMC3    O1 7173   1.451   0.391  10.977 -0.9188 -0.6732  0.6952
  478TMC3    O2 7174   0.994   0.643  11.270  0.0528 -0.8101  0.6671
  479MPD2     C 7175   0.433   2.568  15.067 -0.4609 -0.4855 -1.0498
  479MPD2    C1 7176   0.345   2.489  15.139 -0.2900 -0.2561 -0.9755
  479MPD2    C2 7177   0.366   2.487  15.282  0.9591 -0.0353 -0.7959
  479MPD2    C3 7178   0.476   2.550  15.340  0.3904  0.1820  0.2652
  479MPD2    C4 7179   0.548   2.636  15.265  0.0662  0.4394  0.5671
  479MPD2    C5 7180   0.529   2.645  15.128 -0.3642  0.6643 -0.5783
  479MPD2     H 7181   0.298   2.432  15.347  2.3966  0.6830  1.3205
  479MPD2    H1 7182   0.623   2.704  15.303 -1.1125  1.5254  0.9500
  479MPD2    H2 7183   0.424   2.571  14.959 -1.4462 -2.1795 -1.0246
  479MPD2    H3 7184   0.596   2.710  15.072 -1.4135  1.1709 -1.2600
  479MPD2     N 7185   0.505   2.565  15.479  0.0905  0.3297 -0.6496
  479MPD2    H5 7186   0.575   2.637  15.498  0.2948  0.0060 -0.1870
  479MPD2    N1 7187   0.241   2.418  15.063 -0.1501 -0.4602 -0.2317
  479MPD2    H7 7188   0.240   2.432  14.962  0.0039 -0.0012 -0.1679
  480TMC3    C1 7189   0.259   2.596  15.862  0.2931  0.7487  0.5743
  480TMC3    C2 7190   0.224   2.725  15.825 -0.0727  0.1963 -0.1260
  480TMC3    C3 7191   0.297   2.779  15.722 -0.6546  0.1155 -0.0609
  480TMC3    C4 7192   0.356   2.525  15.795 -0.0262  0.7011  0.1199
  480TMC3    C5 7193   0.427   2.589  15.697 -0.0320 -0.2265  0.1205
  480TMC3    C6 7194   0.412   2.721  15.670 -0.0059  0.1610  0.0121
  480TMC3     C 7195   0.193   2.532  15.976  0.1706  1.1533 -0.0922
  480TMC3     O 7196   0.226   2.420  15.999 -0.1362 -0.7674  0.4078
  480TMC3     H 7197   0.151   2.782  15.881  0.1640  0.1605  0.2241
  480TMC3    H1 7198   0.387   2.425  15.824  1.6125  0.9413 -0.8181
  480TMC3    H2 7199   0.472   2.770  15.595 -0.4280 -1.2245 -1.2438
  480TMC3    C7 7200   0.434   2.503  15.584  0.1245 -0.7366 -0.5374
  480TMC3    C8 7201   0.215   2.850  15.623 -0.2176 -0.3915  0.4429
  480TMC3    O1 7202   0.357   2.406  15.582 -0.1911 -0.0735  0.1828
  480TMC3    O2 7203   0.097   2.856  15.652 -0.5219  0.7471  0.0021
  481MPD2     C 7204   2.217   2.482  14.533  0.1592  0.3671  0.4155
  481MPD2    C1 7205   2.096   2.439  14.570  0.3009  0.3466  0.1674
  481MPD2    C2 7206   2.061   2.392  14.697  0.0323 -0.0323 -0.5257
  481MPD2    C3 7207   2.164   2.381  14.788 -0.1761  0.1159  0.1407
  481MPD2    C4 7208   2.286   2.414  14.752  0.0416 -0.1677  0.0662
  481MPD2    C5 7209   2.316   2.475  14.626  0.0660  0.1410 -0.8642
  481MPD2     H 7210   1.959   2.370  14.725  0.0755  0.9760  0.4384
  481MPD2    H1 7211   2.371   2.401  14.817 -0.3190 -1.1261  0.3399
  481MPD2    H2 7212   2.250   2.514  14.435  1.6536  1.3658  1.2525
  481MPD2    H3 7213   2.417   2.508  14.606  1.1292 -1.3872  1.9815
  481MPD2     N 7214   2.144   2.334  14.920 -0.0695 -0.0510 -0.2584
  481MPD2    H5 7215   2.225   2.332  14.980 -0.9523  0.6501  0.9665
  481MPD2    N1 7216   2.001   2.444  14.459 -0.3182  0.1789  0.3066
  481MPD2    H7 7217   2.032   2.471  14.366 -1.7502  1.4317  0.1962
  482TMC3    C1 7218   1.788   2.455  14.351  0.0476 -0.2840 -0.4047
  482TMC3    C2 7219   1.676   2.378  14.339 -0.0067 -0.8315  0.3133
  482TMC3    C3 7220   1.617   2.377  14.209 -0.2588 -0.4667  0.0536
  482TMC3    C4 7221   1.845   2.520  14.243 -0.2181 -0.6502 -0.1799
  482TMC3    C5 7222   1.795   2.508  14.120 -0.5418 -0.0033 -0.5892
  482TMC3    C6 7223   1.679   2.443  14.102 -0.0026  0.7113  0.6014
  482TMC3     C 7224   1.865   2.424  14.473 -0.5015  0.5440  0.5802
  482TMC3     O 7225   1.801   2.397  14.573 -0.3133 -0.1487 -0.1539
  482TMC3     H 7226   1.636   2.308  14.411  2.1242 -1.2074  1.1260
  482TMC3    H1 7227   1.932   2.583  14.258 -1.3053  0.7600  0.3000
  482TMC3    H2 7228   1.629   2.427  14.007  1.3205  3.2471 -0.5459
  482TMC3    C7 7229   1.870   2.567  14.010  0.4215  0.1880  0.2941
  482TMC3    C8 7230   1.558   2.248  14.171 -0.8474 -0.0842 -0.5969
  482TMC3    O1 7231   1.972   2.622  14.045  0.0543 -0.0216 -0.1314
  482TMC3    O2 7232   1.596   2.152  14.237  0.0573 -0.2194 -0.5377
  483TMC3    C1 7233   4.559   1.043   0.897 -0.3357 -0.0817  0.5945
  483TMC3    C2 7234   4.619   1.162   0.875  0.4971  0.3876  0.7305
  483TMC3    C3 7235   4.656   1.233   0.986 -0.6160 -0.1720 -0.5438
  483TMC3    C4 7236   4.520   1.000   1.017 -0.4031 -0.9718 -0.2916
  483TMC3    C5 7237   4.550   1.080   1.124  0.2278 -0.2246 -0.4885
  483TMC3    C6 7238   4.629   1.194   1.117  0.5774 -0.0557 -1.2227
  483TMC3     C 7239   4.526   0.970   0.777  0.4573 -0.1910 -0.6057
  483TMC3     O 7240   4.516   1.031   0.671  0.2136  0.0878 -0.4400
  483TMC3     H 7241   4.655   1.184   0.776 -0.9279  0.5106  0.2398
  483TMC3    H1 7242   4.471   0.904   1.034  1.2762 -2.0343 -1.5258
  483TMC3    H2 7243   4.658   1.254   1.202 -0.4507 -0.9424 -0.2411
  483TMC3    C7 7244   4.552   1.008   1.250  0.1797  0.6755 -0.2535
  483TMC3    C8 7245   4.730   1.351   0.953  0.0335  0.4589 -0.1432
  483TMC3    O1 7246   4.541   0.884   1.247  0.3183 -0.0188 -1.4071
  483TMC3    O2 7247   0.019   1.374   0.834 -0.2420  0.5510  0.3102
  484MPD2     C 7248   2.426   3.510  12.548 -0.5576  0.2656 -0.4719
  484MPD2    C1 7249   2.487   3.543  12.669 -0.3096  0.5815  0.3786
  484MPD2    C2 7250   2.606   3.613  12.656 -0.7310  0.0037 -0.2534
  484MPD2    C3 7251   2.666   3.640  12.533  0.5008  0.3692 -0.0658
  484MPD2    C4 7252   2.606   3.597  12.418 -0.0398  0.0308 -0.4304
  484MPD2    C5 7253   2.483   3.531  12.427  0.8756  0.4707  0.8593
  484MPD2     H 7254   2.661   3.644  12.744 -2.0223  1.9951 -0.1428
  484MPD2    H1 7255   2.635   3.613  12.315  0.2167 -0.0954 -0.3770
  484MPD2    H2 7256   2.336   3.450  12.548 -1.4349  1.5836 -2.2569
  484MPD2    H3 7257   2.440   3.487  12.338  1.7178  0.9955  0.1976
  484MPD2     N 7258   2.781   3.713  12.518  0.3793  0.5133  0.0194
  484MPD2    H5 7259   2.815   3.722  12.423  0.1434 -0.1448 -0.1228
  484MPD2    N1 7260   2.407   3.521  12.781 -0.0329  0.3797 -0.1793
  484MPD2    H7 7261   2.310   3.492  12.776 -0.4084  1.2471  2.1817
  485TMC3    C1 7262   2.964   3.859  12.566  0.6355 -0.6119  0.6956
  485TMC3    C2 7263   3.065   3.902  12.650  0.7969 -0.2588  0.3629
  485TMC3    C3 7264   3.180   3.959  12.597 -0.2808  0.9898  0.6693
  485TMC3    C4 7265   2.976   3.884  12.433  0.0466 -0.0589 -0.4402
  485TMC3    C5 7266   3.084   3.949  12.382 -0.7882 -0.9020  0.1629
  485TMC3    C6 7267   3.191   3.986  12.460 -0.1953  0.3587  0.2117
  485TMC3     C 7268   2.852   3.786  12.614 -0.3792 -0.0456 -0.4702
  485TMC3     O 7269   2.819   3.797  12.729  0.2632 -0.3074  0.2001
  485TMC3     H 7270   3.051   3.879  12.756 -1.3813  0.6228  0.2689
  485TMC3    H1 7271   2.898   3.861  12.362 -0.3614  0.7997 -0.2753
  485TMC3    H2 7272   3.281   4.010  12.405  0.7749 -1.2667  1.0582
  485TMC3    C7 7273   3.114   3.915  12.253 -0.2673  0.7377  0.4171
  485TMC3    C8 7274   3.303   3.889  12.628  0.6191 -1.0252  0.2416
  485TMC3    O1 7275   3.092   3.794  12.229 -0.5230 -0.2200 -0.1652
  485TMC3    O2 7276   3.397   3.910  12.554  0.1070  0.3618 -0.3776
  486MPD2     C 7277   0.040   2.930  12.303 -0.5691  0.2353  0.4428
  486MPD2    C1 7278   4.730   2.927  12.430 -1.2461 -0.1223  0.7941
  486MPD2    C2 7279   4.623   3.007  12.472  0.2921 -0.2339  0.2660
  486MPD2    C3 7280   4.573   3.095  12.379 -0.3174 -0.0618  0.0549
  486MPD2    C4 7281   4.620   3.108  12.249 -0.4521 -0.2670 -0.3684
  486MPD2    C5 7282   4.717   3.020  12.208  0.1483 -0.5511  0.2077
  486MPD2     H 7283   4.581   3.000  12.572 -0.1831 -1.0327  0.0190
  486MPD2    H1 7284   4.575   3.178  12.179  0.8471  1.1581  0.2061
  486MPD2    H2 7285   0.126   2.868  12.280 -0.1555  1.4776 -1.2952
  486MPD2    H3 7286   0.015   3.017  12.105 -0.5832  2.8962 -0.1385
  486MPD2     N 7287   4.462   3.172  12.404 -0.5145 -0.2232 -0.1268
  486MPD2    H5 7288   4.416   3.217  12.325  1.9321 -1.2699 -2.1325
  486MPD2    N1 7289   0.059   2.841  12.516 -0.2910 -0.1319 -0.7929
  486MPD2    H7 7290   0.105   2.764  12.469  0.5128  0.8756 -1.6613
  487TMC3    C1 7291   0.170   2.745  12.714 -0.7738  0.0601 -0.6617
  487TMC3    C2 7292   0.178   2.615  12.676 -0.5503 -0.2169 -0.1571
  487TMC3    C3 7293   0.242   2.528  12.767 -0.1771  0.5733 -0.3141
  487TMC3    C4 7294   0.225   2.800  12.830 -0.3983  0.1235 -0.6768
  487TMC3    C5 7295   0.292   2.716  12.913 -0.0174  0.2681  0.1237
  487TMC3    C6 7296   0.298   2.579  12.881  0.2944 -1.0300  0.1021
  487TMC3     C 7297   0.071   2.839  12.654  0.5398  0.0185  0.1684
  487TMC3     O 7298   0.011   2.910  12.733 -0.0022  0.5720  0.3796
  487TMC3     H 7299   0.111   2.571  12.603 -1.2500  2.6340 -1.2490
  487TMC3    H1 7300   0.216   2.906  12.851  1.8341 -0.1327  1.6324
  487TMC3    H2 7301   0.352   2.513  12.946  1.7648  1.0966  1.0497
  487TMC3    C7 7302   0.327   2.751  13.052  0.3044 -0.1466 -0.2976
  487TMC3    C8 7303   0.188   2.399  12.776 -0.2714  0.4850 -0.0128
  487TMC3    O1 7304   0.355   2.658  13.125 -0.2916 -0.4993 -0.1253
  487TMC3    O2 7305   0.125   2.356  12.681 -0.0961 -0.2934  0.3559
  488MPD2     C 7306   4.712   4.565  16.425  0.9000 -0.0804  0.1272
  488MPD2    C1 7307   4.717   4.693  16.452  0.9768 -0.1441 -0.6559
  488MPD2    C2 7308   4.686   4.732  16.580  0.0307  0.7179 -0.2391
  488MPD2    C3 7309   4.656   4.639  16.680 -0.2496 -0.2566  0.3057
  488MPD2    C4 7310   4.655   4.507  16.647 -0.2641  0.3852  0.7168
  488MPD2    C5 7311   4.691   4.472  16.524 -0.5433 -0.1021 -0.3210
  488MPD2     H 7312   4.690   0.102  16.606 -0.3994  0.6571  0.0757
  488MPD2    H1 7313   4.632   4.429  16.719 -1.2800 -1.2495 -1.3691
  488MPD2    H2 7314   0.010   4.516  16.334 -0.3737  0.4066 -0.5919
  488MPD2    H3 7315   4.694   4.367  16.495  0.2764 -0.2313  0.2289
  488MPD2     N 7316   4.618   4.693  16.803  0.0192 -0.0485  0.0539
  488MPD2    H5 7317   4.621   0.058  16.815  0.3646  0.1474 -1.6228
  488MPD2    N1 7318   0.031   0.060  16.362  0.0868  0.4311  0.0257
  488MPD2    H7 7319   0.026   0.157  16.392 -2.1640  0.7623 -1.3906
  489TMC3    C1 7320   4.539   4.700  17.027 -0.1515 -0.3746  0.6520
  489TMC3    C2 7321   4.568   0.103  17.024 -0.2441 -0.4818 -0.8201
  489TMC3    C3 7322   4.574   0.160  17.150 -0.0748  0.3538  0.3148
  489TMC3    C4 7323   4.510   4.633  17.144  0.0700  0.4247 -0.5306
  489TMC3    C5 7324   4.511   4.700  17.264  0.8843 -0.4968 -0.1392
  489TMC3    C6 7325   4.543   0.100  17.271 -0.6590  0.3126 -0.0625
  489TMC3     C 7326   4.566   4.622  16.908  1.0024  0.0171 -0.3800
  489TMC3     O 7327   4.539   4.501  16.914  0.0759 -0.1362 -0.4654
  489TMC3     H 7328   4.584   0.169  16.940 -2.3982  2.0008  0.7141
  489TMC3    H1 7329   4.490   4.527  17.138 -1.5330  0.8006 -1.7681
  489TMC3    H2 7330   4.565   0.151  17.364  0.5455  1.5576 -1.0335
  489TMC3    C7 7331   4.481   4.617  17.379  0.5338 -0.4031  0.2568
  489TMC3    C8 7332   4.631   0.294  17.152 -0.6356 -0.1405 -0.3007
  489TMC3    O1 7333   4.497   4.495  17.368 -0.4249  0.4051  0.6568
  489TMC3    O2 7334   4.667   0.335  17.043  0.6101 -0.3328  0.4940
  490MPD2     C 7335   0.386   4.221  17.574  0.6909 -0.2570  1.0495
  490MPD2    C1 7336   0.448   4.124  17.502  1.0026  0.4781 -0.5326
  490MPD2    C2 7337   0.563   4.141  17.433  0.1014 -0.3988  0.2366
  490MPD2    C3 7338   0.629   4.260  17.451 -1.0024 -0.1092 -0.5076
  490MPD2    C4 7339   0.568   4.360  17.523  0.6670 -0.8782  0.7333
  490MPD2    C5 7340   0.455   4.343  17.593 -0.1154 -0.6410 -0.5491
  490MPD2     H 7341   0.596   4.061  17.368 -0.6952 -1.9153  1.6765
  490MPD2    H1 7342   0.611   4.459  17.533 -0.2361 -0.2112 -1.8540
  490MPD2    H2 7343   0.295   4.211  17.632  0.2905  1.5241  0.7256
  490MPD2    H3 7344   0.420   4.430  17.649 -0.4373 -2.1342  1.5806
  490MPD2     N 7345   0.757   4.280  17.397 -0.0580  0.0790 -0.1220
  490MPD2    H5 7346   0.793   4.370  17.423  0.9045 -0.7382  1.3372
  490MPD2    N1 7347   0.387   3.997  17.481  0.2209 -0.4453  0.5549
  490MPD2    H7 7348   0.416   3.930  17.411  0.8922 -0.2284  0.6323
  491TMC3    C1 7349   0.240   3.816  17.521 -0.1060  0.2761 -0.1265
  491TMC3    C2 7350   0.212   3.732  17.622 -0.1529 -0.7784  0.2081
  491TMC3    C3 7351   0.223   3.597  17.603  0.2552  0.3030 -0.0650
  491TMC3    C4 7352   0.270   3.768  17.396  0.1984 -0.0416  0.2628
  491TMC3    C5 7353   0.277   3.631  17.373  0.6367  0.6179 -0.2586
  491TMC3    C6 7354   0.257   3.549  17.482 -0.3461 -0.5120 -0.2123
  491TMC3     C 7355   0.288   3.945  17.565  0.4283 -0.0177 -0.4070
  491TMC3     O 7356   0.251   3.981  17.675  0.1197 -0.0946  0.5524
  491TMC3     H 7357   0.206   3.766  17.724 -1.7327 -1.2930  0.2819
  491TMC3    H1 7358   0.285   3.842  17.318 -1.1676  1.4089  1.3706
  491TMC3    H2 7359   0.246   3.443  17.463  1.8712 -0.4470 -1.7307
  491TMC3    C7 7360   0.308   3.567  17.252 -0.0128  0.5198  0.3496
  491TMC3    C8 7361   0.232   3.510  17.718 -0.4455 -1.1049 -0.4087
  491TMC3    O1 7362   0.298   3.444  17.243 -0.3983 -0.7723  0.5180
  491TMC3    O2 7363   0.194   3.554   0.086 -0.3218  0.3933  0.0261
  492MPD2     C 7364   1.677   3.995  11.019  0.4881 -0.6488 -0.7584
  492MPD2    C1 7365   1.562   3.951  10.963 -0.3701  0.1343  0.6724
  492MPD2    C2 7366   1.461   3.921  11.045  1.0847  0.6294  0.0976
  492MPD2    C3 7367   1.474   3.914  11.186 -0.7514 -0.4049 -0.1287
  492MPD2    C4 7368   1.582   3.967  11.242  0.1863  0.1616  0.3778
  492MPD2    C5 7369   1.681   4.005  11.153  0.0366 -0.0875 -0.2316
  492MPD2     H 7370   1.361   3.897  11.012  0.8899  1.6293 -0.0338
  492MPD2    H1 7371   1.605   3.964  11.348  0.3077 -1.3452  0.3089
  492MPD2    H2 7372   1.763   4.023  10.959 -2.0493  3.1623 -2.6698
  492MPD2    H3 7373   1.774   4.043  11.193  0.6427 -1.5572 -0.2473
  492MPD2     N 7374   1.381   3.870  11.279 -0.1427 -0.3211 -0.4096
  492MPD2    H5 7375   1.398   3.894  11.376  2.5773 -1.1925 -0.6721
  492MPD2    N1 7376   1.562   3.950  10.827  0.1500  0.3973 -0.1064
  492MPD2    H7 7377   1.651   3.957  10.779  0.2944  0.2584  0.1450
  493TMC3    C1 7378   1.464   3.951  10.610  0.4327  1.0748 -0.7412
  493TMC3    C2 7379   1.539   4.058  10.583 -0.1160 -0.4377 -0.4212
  493TMC3    C3 7380   1.505   4.152  10.484 -0.4826 -0.0868  0.4911
  493TMC3    C4 7381   1.341   3.944  10.545 -0.1915  0.4854 -0.2688
  493TMC3    C5 7382   1.307   4.027  10.447 -1.2865  1.4003 -0.4404
  493TMC3    C6 7383   1.380   4.140  10.421 -0.1657  0.3025 -0.0568
  493TMC3     C 7384   1.453   3.906  10.750 -0.3584 -0.5379  0.5156
  493TMC3     O 7385   1.345   3.865  10.790 -0.4093 -0.3461 -0.1226
  493TMC3     H 7386   1.638   4.061  10.627  0.6901  1.3024 -2.3647
  493TMC3    H1 7387   1.281   3.859  10.573 -1.0459  1.1732 -0.0204
  493TMC3    H2 7388   1.353   4.210  10.343 -0.3164 -0.6707 -0.8842
  493TMC3    C7 7389   1.163   4.054  10.430  0.0866 -0.0286  0.7192
  493TMC3    C8 7390   1.534   4.284  10.520 -0.0292 -0.6559  0.1888
  493TMC3    O1 7391   1.129   4.116  10.331  0.1026 -0.2399  0.1809
  493TMC3    O2 7392   1.503   4.373  10.440 -0.2951 -0.2742  0.4897
  494TMC3    C1 7393   1.042   0.756   0.128 -0.2697  0.0795 -0.0045
  494TMC3    C2 7394   1.082   0.700   0.247 -0.9812  0.0912 -0.3270
  494TMC3    C3 7395   1.214   0.692   0.284 -0.5823 -0.7127 -0.0959
  494TMC3    C4 7396   1.143   0.797   0.041  0.1805 -0.2572 -0.3044
  494TMC3    C5 7397   1.275   0.801   0.087 -0.0901  0.3550 -0.5348
  494TMC3    C6 7398   1.309   0.749   0.208 -0.1839 -0.5941 -0.0653
  494TMC3     C 7399   0.925   0.838   0.137  0.2926  0.6832 -0.0445
  494TMC3     O 7400   0.840   0.813   0.216  0.4631 -0.6515 -0.0096
  494TMC3     H 7401   1.011   0.668   0.323 -1.4132  0.9591 -0.3700
  494TMC3    H1 7402   1.113   0.834  17.684  0.8706  0.3201 -0.3040
  494TMC3    H2 7403   1.411   0.748   0.245 -1.1177  2.0804  2.6163
  494TMC3    C7 7404   1.355   0.894   0.010 -0.2884  0.0605 -0.5360
  494TMC3    C8 7405   1.247   0.648   0.417  0.2472 -0.2489  0.4622
  494TMC3    O1 7406   1.328   0.898  17.627  0.3284 -0.0565 -0.3077
  494TMC3    O2 7407   1.362   0.608   0.430 -0.1452  0.4819 -0.3725
  495TMC3    C1 7408   0.583   2.866  14.693 -0.2466 -0.2252  0.7360
  495TMC3    C2 7409   0.492   2.898  14.595 -0.0211 -0.0072  0.8243
  495TMC3    C3 7410   0.365   2.952  14.631  0.2732  1.0357 -0.3084
  495TMC3    C4 7411   0.553   2.894  14.826 -1.0877 -0.2094  0.4209
  495TMC3    C5 7412   0.424   2.938  14.852 -0.0162  0.6936  0.7001
  495TMC3    C6 7413   0.324   2.969  14.762 -0.0896  0.0287  0.3830
  495TMC3     C 7414   0.625   2.730  14.686  0.2356  0.5831 -0.0699
  495TMC3     O 7415   0.592   2.654  14.777 -0.0587  0.4221  0.2329
  495TMC3     H 7416   0.502   2.875  14.489 -0.2256  3.7634  0.0012
  495TMC3    H1 7417   0.613   2.870  14.913  0.7252  1.5169 -0.3737
  495TMC3    H2 7418   0.227   3.005  14.794 -1.3662 -3.8072  0.7700
  495TMC3    C7 7419   0.381   2.939  14.990  0.7190 -0.1788 -0.1146
  495TMC3    C8 7420   0.260   2.973  14.531 -0.4065 -0.3581  0.7738
  495TMC3    O1 7421   0.461   2.990  15.066  0.3763  0.0405  0.6867
  495TMC3    O2 7422   0.147   2.961  14.576  0.1013 -0.2162  0.0998
  496MPD2     C 7423   2.580   2.972  15.378  0.2000  0.4727  0.3322
  496MPD2    C1 7424   2.592   2.908  15.498 -0.1708 -0.4080 -0.6670
  496MPD2    C2 7425   2.474   2.877  15.572  0.4890  0.6575 -0.2682
  496MPD2    C3 7426   2.348   2.925  15.534  0.4078  0.4441  0.3414
  496MPD2    C4 7427   2.343   2.989  15.415  0.2844 -0.0657 -0.0489
  496MPD2    C5 7428   2.456   3.020  15.350  0.2884  0.3022 -0.6525
  496MPD2     H 7429   2.486   2.810  15.656  1.4154  1.0474 -0.0814
  496MPD2    H1 7430   2.248   3.031  15.383  1.0722  1.7816  0.0737
  496MPD2    H2 7431   2.662   3.009  15.318 -1.0332 -0.4078 -1.9357
  496MPD2    H3 7432   2.440   3.075  15.259 -1.6024 -0.2309 -0.6348
  496MPD2     N 7433   2.232   2.897  15.606  0.3756 -0.0274  0.0762
  496MPD2    H5 7434   2.146   2.907  15.553  0.0260  0.8878  0.8102
  496MPD2    N1 7435   2.719   2.871  15.545 -0.3704  0.5243 -0.4578
  496MPD2    H7 7436   2.791   2.897  15.477  0.9141  2.3055  1.5998
  497TMC3    C1 7437   2.099   2.853  15.795 -0.1373  0.4631 -0.3025
  497TMC3    C2 7438   1.989   2.908  15.739 -0.0712  0.1397 -0.6278
  497TMC3    C3 7439   1.875   2.902  15.821 -0.1467  0.1868  0.3992
  497TMC3    C4 7440   2.096   2.789  15.917 -0.0640 -0.9014 -0.5775
  497TMC3    C5 7441   1.978   2.797  15.990  0.3329  0.1525 -0.9868
  497TMC3    C6 7442   1.869   2.864  15.953 -0.8151  0.1585 -0.5859
  497TMC3     C 7443   2.228   2.873  15.741 -0.3677  0.0839 -0.8337
  497TMC3     O 7444   2.318   2.894  15.823  0.2635 -0.2933  0.5125
  497TMC3     H 7445   1.992   2.964  15.647  0.4097  0.0395 -0.6742
  497TMC3    H1 7446   2.189   2.746  15.954  0.7241  0.8578 -0.5126
  497TMC3    H2 7447   1.778   2.863  16.013 -1.1610 -0.3452 -1.1201
  497TMC3    C7 7448   1.975   2.733  16.118  0.2091  0.1332 -0.2664
  497TMC3    C8 7449   1.758   2.950  15.765  0.1527  0.0885 -0.0127
  497TMC3    O1 7450   1.870   2.702  16.170 -0.2377  0.2649 -0.0829
  497TMC3    O2 7451   1.678   2.999  15.844 -0.1294 -0.4343  0.0534
  498MPD2     C 7452   3.702   3.510   9.762  0.2625 -0.2221 -0.3159
  498MPD2    C1 7453   3.623   3.612   9.820 -0.0089  0.3069 -0.3194
  498MPD2    C2 7454   3.487   3.595   9.828 -0.0431  0.2809  0.3398
  498MPD2    C3 7455   3.429   3.470   9.797  0.1411 -0.2037  0.7587
  498MPD2    C4 7456   3.515   3.367   9.761 -0.7361  0.1214  0.1624
  498MPD2    C5 7457   3.644   3.394   9.731 -0.0317  0.9636  0.3807
  498MPD2     H 7458   3.427   3.679   9.861  0.0530  0.8346 -0.8737
  498MPD2    H1 7459   3.475   3.267   9.744  0.1217  0.2104 -2.3298
  498MPD2    H2 7460   3.804   3.529   9.730  0.1304 -0.6806 -1.0130
  498MPD2    H3 7461   3.708   3.314   9.695  0.6251  0.1359  3.4176
  498MPD2     N 7462   3.286   3.454   9.788 -0.2344  0.4697  0.4672
  498MPD2    H5 7463   3.233   3.528   9.832 -0.6428 -0.1260  0.9681
  498MPD2    N1 7464   3.673   3.739   9.848 -0.1719 -0.5390 -0.4714
  498MPD2    H7 7465   3.611   3.814   9.878  0.6176 -0.7702  1.6737
  499TMC3    C1 7466   3.828   3.910   9.894  1.1289 -0.7170  0.2442
  499TMC3    C2 7467   3.946   3.941   9.955  0.0093 -0.1168  0.0181
  499TMC3    C3 7468   3.974   4.076   9.988  1.0204 -0.1319  0.0983
  499TMC3    C4 7469   3.741   4.007   9.867  0.8850  0.3311 -0.6455
  499TMC3    C5 7470   3.781   4.140   9.881  0.8030 -0.3872 -0.6746
  499TMC3    C6 7471   3.895   4.176   9.950 -0.5196 -0.1737  0.1277
  499TMC3     C 7472   3.806   3.773   9.857 -0.7073 -0.4196 -0.3334
  499TMC3     O 7473   3.906   3.706   9.846  0.5618 -0.6689 -0.6818
  499TMC3     H 7474   4.007   3.862  10.000  0.2480 -1.1239 -2.0866
  499TMC3    H1 7475   3.663   3.982   9.796  1.6285 -0.0272 -1.3394
  499TMC3    H2 7476   3.914   4.280   9.973 -0.3253 -0.1915  0.0453
  499TMC3    C7 7477   3.705   4.249   9.818  0.4061  0.8040  0.4128
  499TMC3    C8 7478   4.077   4.101  10.086  0.0671  0.2561 -0.0519
  499TMC3    O1 7479   3.765   4.352   9.800  0.4045  0.0603  0.0244
  499TMC3    O2 7480   4.066   4.217  10.132  0.6986  0.5653 -0.1805
  500MPD2     C 7481   0.024   4.557  10.627  0.9157  0.1263  0.0265
  500MPD2    C1 7482   0.047   4.660  10.534 -0.2387  0.0758  0.0962
  500MPD2    C2 7483   4.679   4.721  10.463 -0.9174  0.3986 -0.1272
  500MPD2    C3 7484   4.553   4.690  10.490 -0.0703  0.1097 -0.4306
  500MPD2    C4 7485   4.521   4.610  10.594 -0.3650  0.6150  0.1204
  500MPD2    C5 7486   4.626   4.538  10.651 -0.4244  0.9065  0.5394
  500MPD2     H 7487   4.702   0.059  10.386 -0.8972 -0.4953 -0.9758
  500MPD2    H1 7488   4.419   4.578  10.616 -0.9943  3.1728  0.9089
  500MPD2    H2 7489   0.100   4.505  10.684  1.3533  0.3492 -0.3594
  500MPD2    H3 7490   4.594   4.464  10.723  2.9756 -0.5445  0.5724
  500MPD2     N 7491   4.446   0.014  10.415 -0.3905  0.3597  0.5336
  500MPD2    H5 7492   4.352   4.728  10.447 -0.8212  3.0405  1.0467
  500MPD2    N1 7493   0.183   4.706  10.521 -0.0044  0.4336  0.6325
  500MPD2    H7 7494   0.205   0.036  10.446  0.5093 -0.8056 -0.2980
  501TMC3    C1 7495   0.415   4.669  10.522  0.9253 -0.0509 -0.4380
  501TMC3    C2 7496   0.424   4.726  10.396  1.2828 -0.0978  0.2939
  501TMC3    C3 7497   0.550   0.019  10.349  0.7156  0.5907  0.2950
  501TMC3    C4 7498   0.518   4.655  10.605  0.4032 -0.4578  0.2598
  501TMC3    C5 7499   0.641   4.693  10.557  0.9212 -0.7630  0.5581
  501TMC3    C6 7500   0.656   0.009  10.428  0.1775 -0.2163  0.4743
  501TMC3     C 7501   0.288   4.649  10.587  0.3766  0.4036 -0.4004
  501TMC3     O 7502   0.298   4.582  10.691  0.2830 -0.0885 -0.1007
  501TMC3     H 7503   0.345   4.724  10.321  1.0870 -2.1232  0.5425
  501TMC3    H1 7504   0.509   4.631  10.711  2.0019  0.5112  0.6155
  501TMC3    H2 7505   0.752   0.035  10.385  0.3371 -0.0101  0.9598
  501TMC3    C7 7506   0.750   4.689  10.646  0.0211  0.0587 -0.3288
  501TMC3    C8 7507   0.540   0.112  10.236 -0.3407 -0.4169  0.2612
  501TMC3    O1 7508   0.750   4.613  10.736 -0.7185 -0.4564 -0.5413
  501TMC3    O2 7509   0.465   0.089  10.144 -0.1420  0.4577 -0.9540
  502TMC3    C1 7510   4.466   3.546  14.732 -0.0859 -0.4239  0.0582
  502TMC3    C2 7511   4.435   3.677  14.682  0.1161  0.2736 -0.9710
  502TMC3    C3 7512   4.308   3.733  14.720  0.4758  0.2700 -0.0018
  502TMC3    C4 7513   4.365   3.471  14.773  0.1889 -0.7249 -0.6322
  502TMC3    C5 7514   4.243   3.526  14.808  0.1028 -0.0339  0.7687
  502TMC3    C6 7515   4.216   3.659  14.783  0.5224 -0.8279 -0.2694
  502TMC3     C 7516   4.585   3.545  14.812 -0.4122 -0.5537  0.3133
  502TMC3     O 7517   4.682   3.606  14.760 -0.1629 -0.4065  0.2701
  502TMC3     H 7518   4.519   3.737  14.651  1.8233 -1.5278  0.1386
  502TMC3    H1 7519   4.387   3.365  14.786 -1.3356 -0.9190  0.3905
  502TMC3    H2 7520   4.121   3.707  14.801  0.6939 -0.5927  0.0062
  502TMC3    C7 7521   4.199   3.477  14.939  0.7763 -0.4885  0.1705
  502TMC3    C8 7522   4.306   3.876  14.707  0.1408  0.1015 -0.5744
  502TMC3    O1 7523   4.284   3.418  15.009 -0.6242  0.1646  0.6726
  502TMC3    O2 7524   4.251   3.940  14.793 -0.4604  0.6160 -0.2057
  503MPD2     C 7525   1.734   4.646  16.854  1.0307 -0.3012 -0.4395
  503MPD2    C1 7526   1.783   4.680  16.981 -0.5384 -0.4228  0.0526
  503MPD2    C2 7527   1.839   4.584  17.059 -0.6029  0.2115 -0.5267
  503MPD2    C3 7528   1.857   4.462  17.013  0.8074  0.3971  0.1529
  503MPD2    C4 7529   1.829   4.427  16.885 -0.2028 -0.9743 -0.0348
  503MPD2    C5 7530   1.761   4.520  16.806 -0.5044 -0.3156 -0.0703
  503MPD2     H 7531   1.883   4.608  17.155 -0.3145  1.4901 -0.9770
  503MPD2    H1 7532   1.861   4.333  16.841 -1.3625 -1.9633  1.2413
  503MPD2    H2 7533   1.676   4.725  16.806  0.2872  0.1052  1.1335
  503MPD2    H3 7534   1.739   4.491  16.704 -2.8360  1.4991 -0.0860
  503MPD2     N 7535   1.946   4.380  17.088 -0.0399 -0.0315 -0.2754
  503MPD2    H5 7536   1.959   4.405  17.186  0.6135  0.2302 -0.4249
  503MPD2    N1 7537   1.776   0.080  17.028 -0.4127 -0.1512  0.4497
  503MPD2    H7 7538   1.804   0.100  17.124 -2.0089  1.8225  0.4855
  504TMC3    C1 7539   2.095   4.221  17.151  0.8536  0.2321  0.0140
  504TMC3    C2 7540   2.025   4.193  17.270  0.4225  0.2379  0.3906
  504TMC3    C3 7541   2.092   4.117  17.364  0.1160 -0.9776  0.0931
  504TMC3    C4 7542   2.220   4.187  17.123  0.0099 -0.2480  0.0831
  504TMC3    C5 7543   2.275   4.109  17.223 -0.3418  0.5424 -0.4655
  504TMC3    C6 7544   2.216   4.073  17.343 -0.7859 -0.0395 -0.3371
  504TMC3     C 7545   2.013   4.271  17.046  0.0148  0.2893  0.2574
  504TMC3     O 7546   2.040   4.220  16.936  0.1976 -0.0626  0.0074
  504TMC3     H 7547   1.925   4.232  17.286  0.2288 -0.2336  0.3165
  504TMC3    H1 7548   2.259   4.193  17.021 -1.7482 -1.2579 -0.6485
  504TMC3    H2 7549   2.264   4.007  17.415 -0.8614  0.0106 -0.2408
  504TMC3    C7 7550   2.411   4.063  17.184  0.3506 -0.2054  0.1584
  504TMC3    C8 7551   2.008   4.056  17.461 -0.3671 -0.7450 -1.0238
  504TMC3    O1 7552   2.459   4.107  17.083 -0.1236 -0.2435  0.7468
  504TMC3    O2 7553   1.886   4.054  17.428 -0.4055  0.3253  0.1706
  505MPD2     C 7554   1.985   2.544   9.970 -0.4571 -0.8077 -0.4966
  505MPD2    C1 7555   2.109   2.491  10.001 -0.0285 -0.5056 -0.0177
  505MPD2    C2 7556   2.170   2.545  10.117 -0.0890  0.0135  0.2140
  505MPD2    C3 7557   2.120   2.651  10.189  0.1120 -0.1618  0.0019
  505MPD2    C4 7558   2.004   2.701  10.144 -0.1976 -0.2759 -0.4045
  505MPD2    C5 7559   1.934   2.641  10.044 -0.6219 -0.0342  0.1776
  505MPD2     H 7560   2.273   2.522  10.143 -0.6091 -1.2440  1.1288
  505MPD2    H1 7561   1.957   2.787  10.190 -0.0385 -0.4950  0.1663
  505MPD2    H2 7562   1.938   2.513   9.877 -0.1949 -0.4409 -0.7512
  505MPD2    H3 7563   1.833   2.677  10.025 -0.3279  1.0246  0.6254
  505MPD2     N 7564   2.191   2.701  10.298  0.6148  0.8002 -0.3172
  505MPD2    H5 7565   2.275   2.647  10.319  0.6694  1.6282  1.6326
  505MPD2    N1 7566   2.175   2.406   9.910  0.0352  0.0992 -0.0304
  505MPD2    H7 7567   2.123   2.389   9.824 -0.1207  1.1199 -0.1383
  506TMC3    C1 7568   2.356   2.301   9.807  0.3759 -0.2411 -0.0657
  506TMC3    C2 7569   2.354   2.391   9.700  0.0055  0.5501  0.0629
  506TMC3    C3 7570   2.474   2.432   9.650  0.1824  0.5604 -0.8085
  506TMC3    C4 7571   2.475   2.234   9.837  0.1686 -0.3755  0.0847
  506TMC3    C5 7572   2.591   2.288   9.784 -0.8546 -0.9640 -0.3894
  506TMC3    C6 7573   2.594   2.386   9.686 -0.4233  0.5664  0.1616
  506TMC3     C 7574   2.305   2.359   9.931 -0.3794  0.7884 -0.5505
  506TMC3     O 7575   2.368   2.345  10.032 -0.3752 -0.0458 -0.0952
  506TMC3     H 7576   2.266   2.453   9.689  1.3351  2.8407  2.3923
  506TMC3    H1 7577   2.479   2.156   9.912 -3.3423  0.4844  1.1677
  506TMC3    H2 7578   2.687   2.433   9.657 -0.2370  0.3181  0.3576
  506TMC3    C7 7579   2.699   2.303   9.884 -0.2051 -0.7550  0.5054
  506TMC3    C8 7580   2.462   2.562   9.580 -0.1366  0.1317  0.4043
  506TMC3    O1 7581   2.811   2.300   9.847 -0.7451 -0.1553  0.1874
  506TMC3    O2 7582   2.381   2.559   9.488  0.2437  0.1560 -0.7597
  507TMC3    C1 7583   2.898   3.765  15.041 -0.7310 -0.2585 -0.1397
  507TMC3    C2 7584   2.885   3.673  14.934  0.4400  0.5367 -0.4023
  507TMC3    C3 7585   2.933   3.713  14.813 -0.7026  0.8400  0.5263
  507TMC3    C4 7586   2.943   3.894  15.028 -1.3717 -0.3088  0.2040
  507TMC3    C5 7587   2.984   3.929  14.904 -0.1747  0.8218  0.1657
  507TMC3    C6 7588   2.989   3.841  14.805 -0.5282 -0.7334 -0.8211
  507TMC3     C 7589   2.862   3.727  15.176 -0.3024 -0.1189 -0.0102
  507TMC3     O 7590   2.888   3.804  15.266  0.2233  0.1063 -0.1665
  507TMC3     H 7591   2.837   3.577  14.942 -2.1759  1.8895  0.2733
  507TMC3    H1 7592   2.947   3.957  15.116  1.4991 -0.5377  0.2207
  507TMC3    H2 7593   3.024   3.882  14.710  0.5972 -1.8499 -0.8858
  507TMC3    C7 7594   2.940   4.063  14.857  0.1894  0.4502 -0.2129
  507TMC3    C8 7595   2.845   3.688  14.700  0.0073  0.0544 -0.3363
  507TMC3    O1 7596   2.931   4.077  14.734  0.2140  0.3225  0.3979
  507TMC3    O2 7597   2.802   3.576  14.680 -0.8817 -0.1629 -0.3570
  508MPD2     C 7598   4.183   1.081  15.807 -0.5022  0.0739 -0.3380
  508MPD2    C1 7599   4.243   1.205  15.839  0.5443  0.1313 -0.0229
  508MPD2    C2 7600   4.215   1.316  15.767  0.5248 -0.1218 -0.3691
  508MPD2    C3 7601   4.134   1.310  15.651 -0.1569  0.3394  0.1814
  508MPD2    C4 7602   4.080   1.186  15.617  0.4265 -0.3233 -0.2021
  508MPD2    C5 7603   4.103   1.074  15.694 -0.4768  0.6328 -0.8041
  508MPD2     H 7604   4.252   1.415  15.790 -0.7454 -0.1111  1.6556
  508MPD2    H1 7605   4.017   1.172  15.530 -1.2790 -2.1933  1.3408
  508MPD2    H2 7606   4.203   0.992  15.866  1.2249  0.0993 -0.8782
  508MPD2    H3 7607   4.054   0.979  15.673  3.3026 -1.2857 -0.8567
  508MPD2     N 7608   4.102   1.434  15.590 -0.1526  0.7057 -0.4121
  508MPD2    H5 7609   4.139   1.525  15.617  0.7784  0.5527 -1.1407
  508MPD2    N1 7610   4.315   1.207  15.964 -0.4952 -0.0145  0.5576
  508MPD2    H7 7611   4.314   1.118  16.013  1.0818  0.6461  1.7598
  509TMC3    C1 7612   3.888   1.743  15.321 -0.4009  0.5335 -0.7842
  509TMC3    C2 7613   3.994   1.831  15.331 -0.7552  0.2207 -0.1007
  509TMC3    C3 7614   4.114   1.783  15.383 -0.1345  0.7067  0.4448
  509TMC3    C4 7615   3.905   1.614  15.369 -0.1553  0.3333 -0.0078
  509TMC3    C5 7616   4.020   1.579  15.425 -0.4054  0.3953 -0.4074
  509TMC3    C6 7617   4.134   1.654  15.424  0.3266 -0.7919 -0.4107
  509TMC3     C 7618   3.755   1.770  15.275  0.0842 -0.2751 -0.3606
  509TMC3     O 7619   3.665   1.698  15.311 -0.2802 -0.1493  0.0774
  509TMC3     H 7620   3.984   1.937  15.308 -2.4312 -0.1424 -0.9932
  509TMC3    H1 7621   3.822   1.545  15.355 -1.2999  1.0689  3.0477
  509TMC3    H2 7622   4.229   1.608  15.448  1.6419  1.8178 -0.5824
  509TMC3    C7 7623   4.022   1.448  15.479  0.1431 -0.1360 -1.0128
  509TMC3    C8 7624   4.228   1.872  15.388 -0.2525  0.0672  0.2044
  509TMC3    O1 7625   3.953   1.361  15.425 -0.2368  0.3913  0.3087
  509TMC3    O2 7626   4.334   1.827  15.432  0.2425 -0.0900 -0.0704
  510MPD2     C 7627   1.383   2.981  14.572  0.4902  0.7171 -0.5324
  510MPD2    C1 7628   1.419   3.029  14.693 -0.4472  0.2376  0.0323
  510MPD2    C2 7629   1.549   3.084  14.711 -0.3962  0.8089  0.3077
  510MPD2    C3 7630   1.631   3.106  14.607  0.5784 -0.7885 -0.3523
  510MPD2    C4 7631   1.594   3.072  14.481 -0.0511  0.2629 -0.2613
  510MPD2    C5 7632   1.469   3.013  14.468 -0.3136  0.3795  0.3823
  510MPD2     H 7633   1.582   3.103  14.813  1.0242  0.5030 -0.0857
  510MPD2    H1 7634   1.662   3.077  14.397  1.1826  1.8519  0.8293
  510MPD2    H2 7635   1.281   2.946  14.560  0.4816  0.4396  0.3392
  510MPD2    H3 7636   1.440   2.977  14.370 -1.4584 -0.9182  1.1921
  510MPD2     N 7637   1.758   3.163  14.638  0.3218 -0.0488 -0.1756
  510MPD2    H5 7638   1.782   3.174  14.736  1.9236 -1.3688 -0.4195
  510MPD2    N1 7639   1.330   3.008  14.802  0.6240  0.4897 -0.4329
  510MPD2    H7 7640   1.248   2.949  14.793  0.6852  0.9217 -3.6480
  511TMC3    C1 7641   1.265   2.982  15.027  0.1512 -0.0825  0.0206
  511TMC3    C2 7642   1.205   3.037  15.137  0.2952  0.2464 -0.0896
  511TMC3    C3 7643   1.151   2.956  15.233 -0.1566  0.2220  0.0069
  511TMC3    C4 7644   1.269   2.845  15.009 -0.1069 -0.1363 -0.1096
  511TMC3    C5 7645   1.211   2.766  15.108 -0.2008  0.4355 -0.0778
  511TMC3    C6 7646   1.152   2.818  15.219 -0.5447 -0.2887 -0.5651
  511TMC3     C 7647   1.344   3.059  14.932 -0.3180  0.0076 -0.1564
  511TMC3     O 7648   1.423   3.142  14.976 -0.0222 -0.1157 -0.5188
  511TMC3     H 7649   1.188   3.144  15.136 -1.1387  0.0020 -1.5105
  511TMC3    H1 7650   1.330   2.803  14.931  0.2483  1.0392 -0.4642
  511TMC3    H2 7651   1.104   2.752  15.290  0.3811 -2.1309 -1.6766
  511TMC3    C7 7652   1.186   2.630  15.056  0.5653 -0.0602  0.5133
  511TMC3    C8 7653   1.102   3.028  15.355  0.1679  0.0142  1.0398
  511TMC3    O1 7654   1.178   2.623  14.934 -0.9036 -0.2467  0.1071
  511TMC3    O2 7655   1.104   3.149  15.354 -0.4263 -0.1719  0.3600
  512TMC3    C1 7656   0.659   2.930  13.181  0.6386  0.2840  0.0028
  512TMC3    C2 7657   0.655   2.844  13.288 -0.6368  0.3136  0.6394
  512TMC3    C3 7658   0.676   2.707  13.268 -0.5022 -0.0056 -0.4366
  512TMC3    C4 7659   0.675   2.872  13.054 -0.1303 -0.3870  0.5998
  512TMC3    C5 7660   0.685   2.737  13.034 -0.1865  0.3582  0.9744
  512TMC3    C6 7661   0.693   2.654  13.144 -0.3549 -0.3966 -0.5846
  512TMC3     C 7662   0.706   3.063  13.214 -0.6305  0.2291  0.9005
  512TMC3     O 7663   0.772   3.063  13.312 -0.4583  0.2028 -0.2854
  512TMC3     H 7664   0.638   2.884  13.388 -0.0091  1.5581  0.2460
  512TMC3    H1 7665   0.678   2.944  12.973 -0.2401 -0.5669  0.4356
  512TMC3    H2 7666   0.721   2.551  13.126 -2.8739 -0.9932 -1.1062
  512TMC3    C7 7667   0.640   2.684  12.908 -0.1976  0.0119  0.4018
  512TMC3    C8 7668   0.750   2.637  13.378 -0.5349 -0.3321 -0.2690
  512TMC3    O1 7669   0.634   2.761  12.817 -0.6882  0.6644  0.6707
  512TMC3    O2 7670   0.754   2.512  13.382  0.2809 -0.0864 -0.1952
  513MPD2     C 7671   2.875   2.697  13.554  0.2282 -0.7328  0.4895
  513MPD2    C1 7672   2.903   2.635  13.429  0.3023 -0.2367 -0.4036
  513MPD2    C2 7673   3.034   2.635  13.390  0.4026 -0.1229  0.1223
  513MPD2    C3 7674   3.131   2.695  13.469  0.4301 -0.2123 -0.2648
  513MPD2    C4 7675   3.106   2.746  13.593  0.8922  0.1529 -0.3511
  513MPD2    C5 7676   2.977   2.742  13.629  0.8611 -0.8828  0.0385
  513MPD2     H 7677   3.072   2.601  13.294 -0.5779  3.2634 -1.4595
  513MPD2    H1 7678   3.183   2.787  13.658 -0.1064 -0.2907  1.1193
  513MPD2    H2 7679   2.771   2.703  13.585  0.3132  1.6673  0.2585
  513MPD2    H3 7680   2.951   2.789  13.723 -1.3030 -2.1103  0.0548
  513MPD2     N 7681   3.256   2.696  13.409 -0.1630 -0.1154 -0.2631
  513MPD2    H5 7682   3.259   2.650  13.319  1.1787 -0.2828 -0.1254
  513MPD2    N1 7683   2.803   2.571  13.351  0.2281 -0.8918  0.6815
  513MPD2    H7 7684   2.706   2.585  13.378 -0.9337 -2.9003 -2.4619
  514TMC3    C1 7685   2.716   2.427  13.201 -0.0046  0.1091 -0.0971
  514TMC3    C2 7686   2.636   2.496  13.115 -0.0170 -0.4533  0.0832
  514TMC3    C3 7687   2.599   2.446  12.995 -0.3740  0.1925 -0.5182
  514TMC3    C4 7688   2.765   2.311  13.160  0.0022 -0.0762 -0.5296
  514TMC3    C5 7689   2.728   2.255  13.040 -0.3827 -0.0722 -0.0896
  514TMC3    C6 7690   2.658   2.331  12.944 -0.2158  0.6196  0.2249
  514TMC3     C 7691   2.834   2.489  13.256 -0.2539  1.1176  0.2795
  514TMC3     O 7692   2.939   2.438  13.219  0.0321 -0.1792  0.0711
  514TMC3     H 7693   2.579   2.577  13.161 -1.2754 -2.0032  1.2633
  514TMC3    H1 7694   2.822   2.250  13.229  0.0272 -1.5163 -1.8397
  514TMC3    H2 7695   2.619   2.277  12.859 -0.6422 -0.1962  0.9265
  514TMC3    C7 7696   2.840   2.182  12.982  0.2870  0.7586 -0.1845
  514TMC3    C8 7697   2.511   2.531  12.909 -0.9941  0.1475 -0.8395
  514TMC3    O1 7698   2.811   2.106  12.890  0.0228  0.2058  0.1289
  514TMC3    O2 7699   2.462   2.631  12.962  0.2853 -0.6563 -0.6792
  515MPD2     C 7700   1.076   4.182  14.829 -0.8481 -0.4879 -0.3846
  515MPD2    C1 7701   0.972   4.241  14.759  0.2285 -0.3684 -0.8738
  515MPD2    C2 7702   0.953   4.383  14.779  0.3457 -0.1896  0.2728
  515MPD2    C3 7703   1.026   4.455  14.871 -0.2951  0.2393 -0.2840
  515MPD2    C4 7704   1.123   4.388  14.947 -0.1404  0.3235  0.4109
  515MPD2    C5 7705   1.145   4.255  14.921 -0.0160  1.1014 -0.1970
  515MPD2     H 7706   0.878   4.418  14.710  0.1617 -1.0496  0.0355
  515MPD2    H1 7707   1.186   4.449  15.011 -2.7436  1.9054  1.4860
  515MPD2    H2 7708   1.087   4.075  14.814  2.0262 -0.3081  0.3603
  515MPD2    H3 7709   1.227   4.221  14.983  1.1703  1.2145 -1.7009
  515MPD2     N 7710   0.992   4.591  14.904 -0.1837  0.6840 -0.0651
  515MPD2    H5 7711   1.044   4.645  14.972 -1.4074  0.4893  1.0443
  515MPD2    N1 7712   0.909   4.163  14.657 -0.6672  1.2193 -0.4068
  515MPD2    H7 7713   0.918   4.062  14.659 -0.9863  1.1821 -0.7419
  516TMC3    C1 7714   0.789   4.116  14.454  0.2252 -0.4186 -0.6407
  516TMC3    C2 7715   0.759   4.158  14.325 -0.1234 -0.2061  0.0963
  516TMC3    C3 7716   0.672   4.080  14.253 -0.9488  0.0475  0.4184
  516TMC3    C4 7717   0.735   3.997  14.509  0.8183  0.2206  0.3317
  516TMC3    C5 7718   0.651   3.932  14.429  0.8810  0.5598 -0.0301
  516TMC3    C6 7719   0.617   3.971  14.307  0.7212 -0.1392 -0.5543
  516TMC3     C 7720   0.854   4.214  14.541 -0.1704 -0.2044  0.7783
  516TMC3     O 7721   0.853   4.331  14.502 -0.1519  0.0951 -0.8455
  516TMC3     H 7722   0.812   4.245  14.288 -1.7196  0.1995 -1.2315
  516TMC3    H1 7723   0.748   3.962  14.611  0.5018 -1.2693 -0.1475
  516TMC3    H2 7724   0.545   3.916  14.247  0.7818  0.1184 -0.8627
  516TMC3    C7 7725   0.560   3.844  14.498  0.1087  0.2183  0.4146
  516TMC3    C8 7726   0.588   4.137  14.153  0.3332 -0.4286  0.5702
  516TMC3    O1 7727   0.540   3.875  14.615 -0.5722 -0.0726  0.0930
  516TMC3    O2 7728   0.526   4.056  14.077  0.1755  0.5265 -0.0788
  517MPD2     C 7729   4.681   1.343   0.110 -0.5458  0.1200  0.8546
  517MPD2    C1 7730   0.079   1.339   0.139  0.7466  0.0521 -0.6295
  517MPD2    C2 7731   0.134   1.451   0.193  0.5621  0.2885  0.4414
  517MPD2    C3 7732   0.062   1.562   0.232  0.1153  0.0497 -0.8988
  517MPD2    C4 7733   4.667   1.572   0.187  0.0246  0.1295  0.3011
  517MPD2    C5 7734   4.612   1.458   0.131  0.3845  0.0060  0.5231
  517MPD2     H 7735   0.241   1.451   0.209  0.6416 -0.5812 -0.0921
  517MPD2    H1 7736   4.599   1.654   0.201 -0.3927 -0.7681  3.3964
  517MPD2    H2 7737   4.625   1.259   0.071  0.2327  0.1359 -0.3170
  517MPD2    H3 7738   4.513   1.465   0.086  0.0823  1.6563  1.4757
  517MPD2     N 7739   0.113   1.672   0.301 -0.4472  0.3231 -0.2107
  517MPD2    H5 7740   0.047   1.749   0.305 -0.3631  0.3834  0.0105
  517MPD2    N1 7741   0.158   1.232   0.103 -0.5029  0.8690 -0.4219
  517MPD2    H7 7742   0.258   1.251   0.113 -0.2203  0.0405 -1.6391
  518TMC3    C1 7743   0.213   1.029  17.737  0.3505 -0.0203  0.1727
  518TMC3    C2 7744   0.190   0.896   0.014 -0.0879 -0.8236  0.1420
  518TMC3    C3 7745   0.291   0.809   0.003 -0.4848  0.5893  0.2552
  518TMC3    C4 7746   0.335   1.083  17.689  0.2738  0.1892 -1.2991
  518TMC3    C5 7747   0.433   0.990  17.672  0.0020 -0.3426 -0.3242
  518TMC3    C6 7748   0.415   0.850  17.687  0.2477  0.0543  0.1635
  518TMC3     C 7749   0.108   1.117   0.046  0.0538  0.0929  0.0337
  518TMC3     O 7750   4.732   1.071   0.035  0.6911  0.5494  0.0401
  518TMC3     H 7751   0.088   0.861   0.032 -0.3978  0.9096  1.6796
  518TMC3    H1 7752   0.354   1.190  17.693 -2.8314  0.7464 -1.2464
  518TMC3    H2 7753   0.483   0.772  17.654  1.0621  0.8487 -0.0311
  518TMC3    C7 7754   0.564   1.035  17.632 -1.3517 -0.7118  0.1767
  518TMC3    C8 7755   0.266   0.667  17.720 -0.0706 -0.6282 -0.0915
  518TMC3    O1 7756   0.585   1.143  17.578  0.3389  0.1088  0.3362
  518TMC3    O2 7757   0.338   0.605  17.640 -0.3560 -0.2363 -0.2580
  519MPD2     C 7758   1.824   4.375  14.473 -0.5545 -0.1293 -0.0523
  519MPD2    C1 7759   1.798   4.398  14.339  0.1353 -0.1736 -0.8312
  519MPD2    C2 7760   1.869   4.329  14.241 -0.6210  0.3653  0.0694
  519MPD2    C3 7761   1.966   4.247  14.287 -0.9314  0.3748  0.7082
  519MPD2    C4 7762   1.997   4.230  14.423  0.6528  0.6447 -0.2866
  519MPD2    C5 7763   1.922   4.294  14.515  0.2369  0.0381  0.8180
  519MPD2     H 7764   1.849   4.333  14.135 -0.1439 -0.9425 -0.0734
  519MPD2    H1 7765   2.072   4.156  14.447 -2.2317 -1.7100  1.4043
  519MPD2    H2 7766   1.770   4.421  14.555  1.7655  0.5045  1.1151
  519MPD2    H3 7767   1.946   4.289  14.621 -0.8912  0.6961  1.1145
  519MPD2     N 7768   2.040   4.164  14.204  0.1977 -0.0736 -0.1311
  519MPD2    H5 7769   2.096   4.093  14.250  2.0604  1.6533  0.2808
  519MPD2    N1 7770   1.684   4.471  14.310  0.0996  0.6453  0.4724
  519MPD2    H7 7771   1.611   4.480  14.380 -2.2255  0.1340 -1.9313
  520TMC3    C1 7772   2.113   4.062  14.000 -0.3334  0.6292 -0.6925
  520TMC3    C2 7773   2.067   4.024  13.877 -0.3289 -0.5938 -0.5057
  520TMC3    C3 7774   2.116   3.911  13.817  0.4072 -0.1782  0.0142
  520TMC3    C4 7775   2.205   3.987  14.071  0.6514  0.1768 -0.0622
  520TMC3    C5 7776   2.245   3.873  14.006 -0.5999 -0.6762  0.7639
  520TMC3    C6 7777   2.211   3.837  13.878 -0.5374  0.5294 -0.0762
  520TMC3     C 7778   2.043   4.165  14.063  0.5297 -1.3787 -0.6978
  520TMC3     O 7779   1.997   4.254  13.995  0.5305  0.6193 -0.5152
  520TMC3     H 7780   1.988   4.085  13.835 -2.5405 -1.1759  2.7801
  520TMC3    H1 7781   2.240   3.997  14.173  0.6079  0.9057 -0.1223
  520TMC3    H2 7782   2.257   3.749  13.835  0.6088  1.9946 -1.8691
  520TMC3    C7 7783   2.367   3.807  14.043  0.2838 -0.1407  0.1379
  520TMC3    C8 7784   2.072   3.873  13.686  0.1264 -0.4773  0.1195
  520TMC3    O1 7785   2.367   3.686  14.059 -0.6005 -0.0363 -0.1149
  520TMC3    O2 7786   2.116   3.769  13.639  0.0338  0.3523 -0.2788
  521MPD2     C 7787   3.148   2.264  17.379 -0.2966  0.3829 -0.1139
  521MPD2    C1 7788   3.078   2.190  17.288 -0.0284  0.4707 -0.0856
  521MPD2    C2 7789   3.155   2.143  17.186  0.4068  0.4272 -0.3756
  521MPD2    C3 7790   3.288   2.170  17.161  0.6180 -0.2004 -0.6143
  521MPD2    C4 7791   3.361   2.246  17.251 -0.3728  0.6854 -0.7618
  521MPD2    C5 7792   3.287   2.294  17.356  0.3449  0.8425 -0.2779
  521MPD2     H 7793   3.105   2.079  17.115 -0.7698  2.0519 -0.9979
  521MPD2    H1 7794   3.465   2.273  17.240 -0.1069 -0.9928 -2.4383
  521MPD2    H2 7795   3.096   2.292  17.470  0.0718 -0.7298  0.4348
  521MPD2    H3 7796   3.333   2.351  17.436 -0.5794  1.7629 -0.3917
  521MPD2     N 7797   3.347   2.113  17.047 -0.1577 -0.3037 -0.3344
  521MPD2    H5 7798   3.287   2.057  16.987  0.1290  0.4473 -1.3077
  521MPD2    N1 7799   2.940   2.154  17.319 -0.7401 -0.1050  0.1726
  521MPD2    H7 7800   2.902   2.197  17.403 -1.0807  2.9228 -1.5550
  522TMC3    C1 7801   3.490   2.094  16.867 -0.5232 -0.4384 -0.3020
  522TMC3    C2 7802   3.622   2.079  16.828  0.9947  0.7827 -0.4091
  522TMC3    C3 7803   3.656   1.983  16.734 -0.3937 -0.1318 -0.5821
  522TMC3    C4 7804   3.389   2.033  16.800 -0.3304 -0.6241 -0.1622
  522TMC3    C5 7805   3.424   1.946  16.702 -0.2235 -0.4519 -0.6726
  522TMC3    C6 7806   3.554   1.909  16.679 -0.0067 -0.3260  0.1270
  522TMC3     C 7807   3.467   2.160  16.994 -0.7834  0.0062  0.4104
  522TMC3     O 7808   3.554   2.236  17.033 -0.0812 -0.4217  0.0109
  522TMC3     H 7809   3.703   2.128  16.880  2.0706  0.0937 -1.4318
  522TMC3    H1 7810   3.286   2.062  16.812 -1.1312 -2.1835 -3.3086
  522TMC3    H2 7811   3.577   1.845  16.594  0.5810 -2.2540  1.7494
  522TMC3    C7 7812   3.330   1.869  16.628  0.6996 -0.0056  0.1736
  522TMC3    C8 7813   3.775   2.008  16.670 -0.3005  0.6846 -0.3115
  522TMC3    O1 7814   3.337   1.747  16.611  0.4463  0.4465 -0.0091
  522TMC3    O2 7815   3.813   2.121  16.661 -0.0270  0.2850 -0.9077
  523MPD2     C 7816   0.592   2.170  10.303  0.1786 -0.3054  0.6040
  523MPD2    C1 7817   0.547   2.084  10.203  0.1631 -0.0369  0.2399
  523MPD2    C2 7818   0.458   2.130  10.106  0.0761 -0.5306  0.6149
  523MPD2    C3 7819   0.424   2.264  10.110 -0.2638  0.6037 -0.2146
  523MPD2    C4 7820   0.471   2.348  10.211 -0.6856 -0.0963 -0.0210
  523MPD2    C5 7821   0.551   2.302  10.308  0.4811 -0.3231  0.6784
  523MPD2     H 7822   0.416   2.064  10.030 -0.8807 -0.3171  0.9645
  523MPD2    H1 7823   0.445   2.453  10.213  2.4856  0.7298 -3.1589
  523MPD2    H2 7824   0.661   2.146  10.384 -0.9087 -0.3633  1.5206
  523MPD2    H3 7825   0.584   2.367  10.389 -1.8296 -0.6403  1.8807
  523MPD2     N 7826   0.355   2.327  10.007  0.2010 -0.5144 -0.1487
  523MPD2    H5 7827   0.334   2.427  10.012  0.5914 -0.4812  0.7160
  523MPD2    N1 7828   0.574   1.950  10.231  0.3234  0.7510 -0.3463
  523MPD2    H7 7829   0.657   1.931  10.286 -0.3447  0.4116  0.5495
  524TMC3    C1 7830   0.219   2.362   9.823  0.2120 -0.5331  0.4953
  524TMC3    C2 7831   0.228   2.373   9.687 -0.0480  0.0079  0.7029
  524TMC3    C3 7832   0.179   2.485   9.628  0.1637  0.2138  0.2815
  524TMC3    C4 7833   0.151   2.450   9.901 -0.2059 -0.6802 -0.7326
  524TMC3    C5 7834   0.106   2.563   9.838 -1.0455  0.8374 -0.1666
  524TMC3    C6 7835   0.125   2.583   9.704 -0.2978  0.4204 -0.7652
  524TMC3     C 7836   0.316   2.275   9.886 -1.0152 -1.5633 -0.0950
  524TMC3     O 7837   0.353   2.178   9.827  0.6025  0.2375  0.2292
  524TMC3     H 7838   0.288   2.309   9.624  0.0274 -1.4381  2.2528
  524TMC3    H1 7839   0.136   2.437  10.007  1.4537 -1.8053 -0.6464
  524TMC3    H2 7840   0.094   2.674   9.653  0.2740  0.7953 -0.4434
  524TMC3    C7 7841   0.049   2.662   9.925 -0.5321  0.2739  0.3704
  524TMC3    C8 7842   0.228   2.520   9.494  0.2190 -0.1828 -0.3997
  524TMC3    O1 7843   0.004   2.623  10.029 -0.1115 -0.5461 -0.0857
  524TMC3    O2 7844   0.289   2.429   9.434  0.3578 -0.2274  0.1391
  525MPD2     C 7845   3.238   3.500  14.511  0.3013 -0.0750  0.2462
  525MPD2    C1 7846   3.359   3.499  14.580  0.1970  0.2603  0.9665
  525MPD2    C2 7847   3.437   3.617  14.569 -0.2701 -0.0504  0.2135
  525MPD2    C3 7848   3.390   3.733  14.508  0.3318 -0.4858 -0.0291
  525MPD2    C4 7849   3.268   3.723  14.442  0.1783  0.8578  0.0456
  525MPD2    C5 7850   3.187   3.610  14.446 -0.1539  0.4704  0.4176
  525MPD2     H 7851   3.537   3.608  14.609  0.6044  0.9717 -1.7099
  525MPD2    H1 7852   3.223   3.816  14.409 -0.5651  0.5003  0.0461
  525MPD2    H2 7853   3.175   3.413  14.521 -1.3760  1.3487  2.0605
  525MPD2    H3 7854   3.088   3.612  14.400 -1.3137  1.1388  2.9713
  525MPD2     N 7855   3.466   3.855  14.503  0.0185 -0.1412 -0.0814
  525MPD2    H5 7856   3.437   3.934  14.446  3.4206  0.6216 -0.7712
  525MPD2    N1 7857   3.416   3.391  14.648 -0.8340  0.0157  0.2349
  525MPD2    H7 7858   3.502   3.416  14.696 -0.6073 -1.2363  0.4994
  526TMC3    C1 7859   3.428   3.192  14.765  0.0530 -0.0870 -0.6620
  526TMC3    C2 7860   3.361   3.135  14.872 -0.5301  0.7658 -0.1684
  526TMC3    C3 7861   3.432   3.065  14.967  0.0733 -0.8516 -0.1355
  526TMC3    C4 7862   3.568   3.193  14.745  1.1834  0.1475  0.3404
  526TMC3    C5 7863   3.630   3.125  14.844 -0.0722 -0.1605 -0.1301
  526TMC3    C6 7864   3.569   3.063  14.948  0.5093 -0.2006 -0.1710
  526TMC3     C 7865   3.352   3.272  14.673  0.0994  0.1174 -0.2460
  526TMC3     O 7866   3.241   3.226  14.636  0.0706 -0.2336 -0.2717
  526TMC3     H 7867   3.255   3.151  14.883 -0.9780 -0.3667 -2.8569
  526TMC3    H1 7868   3.610   3.242  14.658  1.2792 -2.4491 -1.0598
  526TMC3    H2 7869   3.623   2.993  15.010 -1.5439  1.3762  3.4191
  526TMC3    C7 7870   3.773   3.139  14.846  0.4717 -0.2106  0.1279
  526TMC3    C8 7871   3.400   3.103  15.107  0.3246  0.0543 -0.7181
  526TMC3    O1 7872   3.825   3.134  14.957 -0.7965  0.7001  0.1674
  526TMC3    O2 7873   3.503   3.115  15.176 -0.2935  0.0775  0.2126
  527MPD2     C 7874   0.913   2.111   0.680  0.1566 -0.1487  0.4603
  527MPD2    C1 7875   0.971   2.125   0.803 -0.6385 -0.6272 -0.1296
  527MPD2    C2 7876   1.103   2.102   0.816  0.0907  0.1145 -0.5219
  527MPD2    C3 7877   1.168   2.047   0.709  0.0226 -0.6398  0.3539
  527MPD2    C4 7878   1.109   2.017   0.590 -0.0483  0.2186  0.3403
  527MPD2    C5 7879   0.979   2.056   0.577  0.4119  0.7993  0.2520
  527MPD2     H 7880   1.152   2.143   0.903  0.1736  1.0534 -1.0112
  527MPD2    H1 7881   1.162   1.985   0.501  1.7099  1.1132  1.0685
  527MPD2    H2 7882   0.811   2.146   0.666 -0.5615 -2.0620  0.9281
  527MPD2    H3 7883   0.924   2.047   0.484  1.7159 -1.7351 -0.2731
  527MPD2     N 7884   1.307   2.018   0.720 -0.5445  0.7990  0.0361
  527MPD2    H5 7885   1.347   2.024   0.813  0.6905  2.4757 -0.5875
  527MPD2    N1 7886   0.896   2.163   0.917  0.1410  0.0331 -0.0793
  527MPD2    H7 7887   0.948   2.192   0.999 -2.7408  2.6112  0.8197
  528TMC3    C1 7888   0.718   2.217   1.042 -0.1481  0.4013  0.7369
  528TMC3    C2 7889   0.787   2.331   1.080  0.0279 -0.1034  0.0279
  528TMC3    C3 7890   0.725   2.400   1.175  0.5619 -0.1423 -0.2065
  528TMC3    C4 7891   0.608   2.168   1.100  0.0299 -0.2471 -0.1755
  528TMC3    C5 7892   0.561   2.242   1.209  0.0466 -0.1490 -0.1688
  528TMC3    C6 7893   0.624   2.355   1.257  0.4563 -0.2357  0.2119
  528TMC3     C 7894   0.761   2.153   0.918 -0.5572  0.0551  0.7306
  528TMC3     O 7895   0.682   2.092   0.849  0.1629  0.1282  0.3320
  528TMC3     H 7896   0.853   2.385   1.014  1.4306  0.2181  1.6904
  528TMC3    H1 7897   0.559   2.084   1.053  0.3258  0.4110 -1.6622
  528TMC3    H2 7898   0.574   2.414   1.333 -0.6563 -0.2223 -0.5359
  528TMC3    C7 7899   0.440   2.182   1.270  0.3734 -0.1803  0.4361
  528TMC3    C8 7900   0.806   2.518   1.216  0.0273 -0.3729  0.2594
  528TMC3    O1 7901   0.396   2.080   1.224 -0.4024  0.2757 -0.5266
  528TMC3    O2 7902   0.917   2.524   1.169  0.2589 -0.3106  0.5957
  529MPD2     C 7903   3.332   0.041   1.201  0.1656  0.6412  0.1553
  529MPD2    C1 7904   3.463   0.005   1.165  0.2556 -1.1533  0.1395
  529MPD2    C2 7905   3.518   0.070   1.061 -0.0056  0.1949 -0.4807
  529MPD2    C3 7906   3.439   0.152   0.979 -0.3843  0.6562 -0.2341
  529MPD2    C4 7907   3.307   0.178   1.016 -0.5956 -0.5099  0.0761
  529MPD2    C5 7908   3.255   0.116   1.122  0.2670  0.1307  0.6797
  529MPD2     H 7909   3.622   0.044   1.044 -0.8541 -3.2860 -0.4526
  529MPD2    H1 7910   3.245   0.244   0.956  0.3793 -0.4668 -0.8725
  529MPD2    H2 7911   3.287   0.004   1.293 -0.7287 -0.4422 -0.7131
  529MPD2    H3 7912   3.154   0.138   1.155 -0.0619 -0.2630 -0.0652
  529MPD2     N 7913   3.484   0.217   0.865  0.8302 -0.6024  0.0085
  529MPD2    H5 7914   3.414   0.262   0.807  0.4935  0.3054  1.1395
  529MPD2    N1 7915   3.544   4.656   1.242 -0.2981 -0.4526 -0.3400
  529MPD2    H7 7916   3.634   4.639   1.198  0.7675  1.3407  1.1430
  530TMC3    C1 7917   3.604   4.471   1.381 -0.5711  0.5055 -0.1410
  530TMC3    C2 7918   3.733   4.493   1.348  0.2054  0.0316 -0.4094
  530TMC3    C3 7919   3.819   4.392   1.363 -0.2167  0.6531  0.3832
  530TMC3    C4 7920   3.558   4.351   1.424 -0.7651  0.4983  0.1059
  530TMC3    C5 7921   3.645   4.246   1.410  0.2951 -0.0379  0.0996
  530TMC3    C6 7922   3.780   4.258   1.375 -0.1069  0.5075 -0.4316
  530TMC3     C 7923   3.503   4.574   1.349 -0.2156 -0.9816 -0.5613
  530TMC3     O 7924   3.387   4.550   1.382 -0.6262 -0.2796  0.1007
  530TMC3     H 7925   3.769   4.595   1.335  4.5674 -1.5195 -0.4514
  530TMC3    H1 7926   3.456   4.336   1.457 -0.2510  0.8691  1.8565
  530TMC3    H2 7927   3.851   4.176   1.368 -1.0839 -0.4738  1.1743
  530TMC3    C7 7928   3.591   4.116   1.382 -0.5182  0.7173 -1.3424
  530TMC3    C8 7929   3.938   4.409   1.282  0.0773  0.3216  0.1496
  530TMC3    O1 7930   3.666   4.024   1.407  0.3190 -0.8204 -0.8430
  530TMC3    O2 7931   3.928   4.492   1.192  0.0645 -0.4096  0.0313
  531MPD2     C 7932   3.359   2.224  12.892 -0.1468 -0.5139 -0.0923
  531MPD2    C1 7933   3.313   2.311  12.989  0.3107 -0.2310 -0.0990
  531MPD2    C2 7934   3.177   2.320  13.028 -0.3145  0.6170  0.3361
  531MPD2    C3 7935   3.084   2.244  12.963 -0.1914 -0.1311 -0.1893
  531MPD2    C4 7936   3.127   2.154  12.868  0.2277  0.2660 -0.3687
  531MPD2    C5 7937   3.258   2.143  12.830 -0.3051 -0.1990 -0.5872
  531MPD2     H 7938   3.141   2.378  13.112 -1.7734 -1.3219  1.0549
  531MPD2    H1 7939   3.054   2.087  12.824  0.1974  0.3355 -0.4240
  531MPD2    H2 7940   3.459   2.221  12.849  1.3301  2.3917  3.1880
  531MPD2    H3 7941   3.281   2.077  12.747  1.3363 -0.4406  0.0522
  531MPD2     N 7942   2.954   2.247  13.018  0.8704 -0.5455  0.4879
  531MPD2    H5 7943   2.943   2.308  13.098  0.0585 -2.1420  1.5941
  531MPD2    N1 7944   3.412   2.398  13.052  0.1621  0.2645 -0.0142
  531MPD2    H7 7945   3.510   2.388  13.026  0.5332  1.0504  1.0830
  532TMC3    C1 7946   3.510   2.593  13.168  0.1496 -0.6116  0.3905
  532TMC3    C2 7947   3.461   2.701  13.241 -0.0194  0.2569  0.8272
  532TMC3    C3 7948   3.493   2.710  13.380  0.3748 -0.3227 -0.4468
  532TMC3    C4 7949   3.602   2.504  13.224  0.1401 -0.0434 -0.4017
  532TMC3    C5 7950   3.637   2.516  13.357 -0.1049 -0.6072  0.1809
  532TMC3    C6 7951   3.576   2.615  13.438  0.0874 -0.6957 -0.3119
  532TMC3     C 7952   3.387   2.521  13.117 -0.0577  0.6907 -0.8454
  532TMC3     O 7953   3.280   2.563  13.157 -0.2837  0.3577 -0.1055
  532TMC3     H 7954   3.383   2.771  13.212  0.2665  0.6235  0.9368
  532TMC3    H1 7955   3.653   2.432  13.161 -0.6680 -0.8151 -0.1726
  532TMC3    H2 7956   3.576   2.608  13.546  1.8401  2.1356 -0.1430
  532TMC3    C7 7957   3.703   2.413  13.430 -0.9560 -0.6960  0.1891
  532TMC3    C8 7958   3.378   2.743  13.465  0.4457 -0.1439  0.1134
  532TMC3    O1 7959   3.728   2.435  13.547 -0.6811  0.1892 -0.1646
  532TMC3    O2 7960   3.408   2.773  13.581 -0.2517 -0.6652 -0.2344
  533TMC3    C1 7961   3.560   4.018  14.636  0.0089  1.1258  0.2939
  533TMC3    C2 7962   3.663   4.069  14.715  0.1881  0.3514  0.3669
  533TMC3    C3 7963   3.638   4.166  14.804  0.5449  0.4988 -0.2170
  533TMC3    C4 7964   3.435   4.059  14.667  0.4469 -0.2925  0.2523
  533TMC3    C5 7965   3.410   4.152  14.765 -0.2369  0.9270 -0.1249
  533TMC3    C6 7966   3.511   4.221  14.825 -0.4916 -0.5572  0.1758
  533TMC3     C 7967   3.570   3.882  14.588  0.2599 -0.3975  0.0494
  533TMC3     O 7968   3.662   3.813  14.634 -0.0260 -0.5049  0.1052
  533TMC3     H 7969   3.765   4.034  14.706  0.6434  2.4912 -2.7439
  533TMC3    H1 7970   3.353   4.021  14.607  0.9350  0.9371 -1.1906
  533TMC3    H2 7971   3.487   4.297  14.898  0.5333 -0.2353  0.1730
  533TMC3    C7 7972   3.308   4.095  14.854 -0.0850  0.0698 -0.1930
  533TMC3    C8 7973   3.749   4.239  14.859 -0.6757  0.4922 -0.6063
  533TMC3    O1 7974   3.302   3.973  14.847 -0.0233 -0.8857 -0.6366
  533TMC3    O2 7975   3.860   4.225  14.804  0.0278  0.3131  0.0975
  534MPD2     C 7976   0.480   0.583   1.751 -0.1030  0.9636  0.5400
  534MPD2    C1 7977   0.491   0.627   1.619 -1.2554 -0.5230 -0.2832
  534MPD2    C2 7978   0.560   0.547   1.528  0.4134 -0.2807  0.3387
  534MPD2    C3 7979   0.624   0.437   1.571 -0.1590 -0.1425  0.0890
  534MPD2    C4 7980   0.626   0.404   1.704 -0.0134  0.3823  0.1000
  534MPD2    C5 7981   0.550   0.476   1.791 -0.0820  0.5131 -0.2745
  534MPD2     H 7982   0.563   0.582   1.425  1.2354  1.0589  0.8220
  534MPD2    H1 7983   0.670   0.313   1.743 -2.6280 -1.9975 -2.5491
  534MPD2    H2 7984   0.439   0.646   1.829 -2.4942 -0.8710  0.7958
  534MPD2    H3 7985   0.557   0.457   1.897  0.9253 -0.7523 -0.5690
  534MPD2     N 7986   0.710   0.365   1.481 -0.0064  0.6432  0.0486
  534MPD2    H5 7987   0.756   0.285   1.523  0.2362  0.3501 -0.7834
  534MPD2    N1 7988   0.428   0.751   1.571  0.4137  0.1718  0.1784
  534MPD2    H7 7989   0.447   0.776   1.474  0.4658  1.9324  0.6409
  535TMC3    C1 7990   0.847   0.301   1.291  0.0312 -0.1477  0.0939
  535TMC3    C2 7991   0.886   0.189   1.354  0.8622 -0.4477 -0.5273
  535TMC3    C3 7992   0.954   0.087   1.287 -0.0404 -0.1657 -0.2254
  535TMC3    C4 7993   0.856   0.306   1.151  0.1052 -0.0001 -0.2017
  535TMC3    C5 7994   0.903   0.195   1.088  1.2794 -0.2435 -0.2242
  535TMC3    C6 7995   0.961   0.088   1.150 -0.1364 -0.0766 -0.1195
  535TMC3     C 7996   0.729   0.380   1.343  0.1095  0.7865  0.2113
  535TMC3     O 7997   0.660   0.441   1.261  0.7826 -0.4414  0.1451
  535TMC3     H 7998   0.900   0.197   1.461 -1.8915  0.6708 -0.2369
  535TMC3    H1 7999   0.833   0.397   1.097 -0.0637 -0.2272 -0.5120
  535TMC3    H2 8000   0.980   4.727   1.104  1.3083 -0.9352  2.2408
  535TMC3    C7 8001   0.911   0.192   0.946 -0.1703  0.2213 -0.3310
  535TMC3    C8 8002   0.960   4.694   1.354  0.0236 -0.3353  0.2552
  535TMC3    O1 8003   0.988   0.109   0.893  0.0367 -0.7248 -0.7059
  535TMC3    O2 8004   0.930   4.597   1.283 -0.1898  0.8534 -0.1107
  536MPD2     C 8005   0.210   3.429  16.145  0.0530  0.4574 -0.8090
  536MPD2    C1 8006   0.095   3.360  16.175  0.3494 -1.1930 -0.1658
  536MPD2    C2 8007   4.724   3.358  16.084 -0.9496  0.3786  0.2319
  536MPD2    C3 8008   0.002   3.427  15.963 -0.6668  0.3802 -0.4682
  536MPD2    C4 8009   0.121   3.489  15.932 -0.1706  0.2567  0.2245
  536MPD2    C5 8010   0.225   3.487  16.018 -0.0897  0.4533  0.2170
  536MPD2     H 8011   4.633   3.302  16.100 -1.7291  1.3154 -0.9761
  536MPD2    H1 8012   0.145   3.539  15.839  0.1571  0.7560  0.5776
  536MPD2    H2 8013   0.292   3.438  16.215 -2.0265  0.1835  1.6843
  536MPD2    H3 8014   0.324   3.521  15.989 -0.4293 -0.0264 -1.4741
  536MPD2     N 8015   4.628   3.439  15.874 -0.0382  0.6791 -0.0394
  536MPD2    H5 8016   4.646   3.508  15.801 -2.1518 -0.5019 -1.7041
  536MPD2    N1 8017   0.092   3.298  16.302 -0.2038  0.4986 -0.1823
  536MPD2    H7 8018   0.176   3.309  16.357  0.0553 -0.8102 -0.3191
  537TMC3    C1 8019   0.004   3.195  16.485 -0.3684  0.2813 -0.4105
  537TMC3    C2 8020   0.084   3.264  16.577  0.3708 -0.5170 -0.1848
  537TMC3    C3 8021   0.088   3.214  16.703  0.6241  0.7659 -0.6497
  537TMC3    C4 8022   4.668   3.087  16.522  0.5890 -0.0244  0.1312
  537TMC3    C5 8023   4.662   3.050  16.651  0.1306  0.0602 -0.6940
  537TMC3    C6 8024   0.002   3.119  16.744 -0.5710  0.4057 -0.4254
  537TMC3     C 8025   4.723   3.220  16.343  0.2603  0.4576 -0.5623
  537TMC3     O 8026   4.622   3.178  16.286  0.0879  0.7218  0.1953
  537TMC3     H 8027   0.139   3.354  16.553  0.6846 -0.3790  1.0501
  537TMC3    H1 8028   4.633   3.021  16.444  0.3319  1.8353 -1.3175
  537TMC3    H2 8029   0.007   3.086  16.847  1.3525 -0.1748 -0.7083
  537TMC3    C7 8030   4.563   2.950  16.686 -0.5243  0.6193 -0.1413
  537TMC3    C8 8031   0.150   3.292  16.810  0.6854 -0.6988  0.6893
  537TMC3    O1 8032   4.490   2.918  16.595 -0.5184 -0.5758 -0.7035
  537TMC3    O2 8033   0.124   3.263  16.928 -0.0891 -0.4969  0.2618
  538TMC3    C1 8034   1.442   1.780  11.527 -0.3941 -0.2644 -0.5201
  538TMC3    C2 8035   1.514   1.693  11.458  0.3539 -0.1088  0.0189
  538TMC3    C3 8036   1.454   1.625  11.354  0.0519 -0.4583 -0.3414
  538TMC3    C4 8037   1.312   1.801  11.503  0.2507  0.5021 -0.4188
  538TMC3    C5 8038   1.254   1.738  11.395 -0.1426  0.1899 -0.0595
  538TMC3    C6 8039   1.324   1.645  11.320 -0.5559  0.2135  0.2971
  538TMC3     C 8040   1.496   1.838  11.654  0.3182 -0.7604 -0.5741
  538TMC3     O 8041   1.410   1.874  11.730 -0.1616  0.7751  0.1123
  538TMC3     H 8042   1.617   1.671  11.484 -0.4155 -3.9685 -0.2244
  538TMC3    H1 8043   1.247   1.866  11.561 -0.0579 -1.3149  1.2947
  538TMC3    H2 8044   1.280   1.582  11.243  2.1319  1.0033 -1.8914
  538TMC3    C7 8045   1.114   1.752  11.359 -0.2397 -0.0842  0.1096
  538TMC3    C8 8046   1.548   1.598  11.254  0.3894  0.2300  0.1491
  538TMC3    O1 8047   1.066   1.656  11.302  0.3438  0.4058  0.4114
  538TMC3    O2 8048   1.669   1.582  11.280 -0.2937 -0.4970  0.0008
  539MPD2     C 8049   1.099   0.932  11.582  0.2422 -0.6766  0.1756
  539MPD2    C1 8050   1.036   0.847  11.493  0.2755  0.2264  0.3049
  539MPD2    C2 8051   0.914   0.876  11.436 -0.3610 -0.0511 -0.8756
  539MPD2    C3 8052   0.859   1.004  11.447  0.1856 -1.0365 -0.3773
  539MPD2    C4 8053   0.929   1.097  11.527 -0.3774 -0.1737  0.6531
  539MPD2    C5 8054   1.041   1.053  11.590  0.4570  0.3096  0.0749
  539MPD2     H 8055   0.853   0.809  11.376  0.5584 -0.9955 -0.7387
  539MPD2    H1 8056   0.887   1.197  11.526  0.8266  0.3308  0.6702
  539MPD2    H2 8057   1.189   0.907  11.638  0.5437 -1.2154 -0.5468
  539MPD2    H3 8058   1.082   1.125  11.660 -0.1385  1.0544 -0.3432
  539MPD2     N 8059   0.730   1.024  11.395 -0.1996  0.1090 -0.5176
  539MPD2    H5 8060   0.670   0.946  11.370  1.4677 -1.2439 -0.3277
  539MPD2    N1 8061   1.107   0.724  11.463 -0.4297  0.6358 -0.4553
  539MPD2    H7 8062   1.199   0.722  11.505 -0.8748 -0.5240  0.4575
  540TMC3    C1 8063   0.537   1.140  11.352 -0.3119  0.2500 -0.3725
  540TMC3    C2 8064   0.486   1.205  11.244  0.2499  0.1855  0.3504
  540TMC3    C3 8065   0.356   1.165  11.214 -0.1120  0.3229 -0.2774
  540TMC3    C4 8066   0.477   1.042  11.428  0.1486 -1.1006 -0.1904
  540TMC3    C5 8067   0.346   1.020  11.401 -0.0128 -0.1011  0.1308
  540TMC3    C6 8068   0.281   1.080  11.294  0.0826 -1.5063  0.4094
  540TMC3     C 8069   0.678   1.149  11.368  0.8197 -0.1104 -0.1759
  540TMC3     O 8070   0.741   1.248  11.343  0.0271  0.0023 -0.1607
  540TMC3     H 8071   0.544   1.279  11.191  0.1140 -1.1048 -1.6088
  540TMC3    H1 8072   0.526   0.994  11.512  0.1980 -1.3819 -0.3787
  540TMC3    H2 8073   0.176   1.057  11.276  0.6082 -1.7482 -2.3104
  540TMC3    C7 8074   0.273   0.925  11.479 -0.6816 -0.1307 -0.2946
  540TMC3    C8 8075   0.299   1.198  11.085 -0.1086  0.8072  0.3586
  540TMC3    O1 8076   0.157   0.908  11.436  0.4140  0.1753 -0.2081
  540TMC3    O2 8077   0.180   1.183  11.079  0.3001  0.4394  0.0319
  541MPD2     C 8078   4.198   2.796  13.408 -0.4146 -0.1278 -0.2081
  541MPD2    C1 8079   4.286   2.715  13.336  0.3962 -0.2182 -0.2363
  541MPD2    C2 8080   4.322   2.753  13.205 -0.2621  0.0615 -0.4064
  541MPD2    C3 8081   4.286   2.877  13.151 -0.0057 -0.0200  0.5233
  541MPD2    C4 8082   4.210   2.956  13.227  0.9053 -0.3962 -0.0886
  541MPD2    C5 8083   4.166   2.915  13.356 -0.3421  0.6759  0.2556
  541MPD2     H 8084   4.370   2.675  13.147  0.8882 -0.5241  1.3419
  541MPD2    H1 8085   4.181   3.053  13.188  2.0127 -0.2561 -0.5422
  541MPD2    H2 8086   4.155   2.759  13.501  2.4515 -2.0496  0.3434
  541MPD2    H3 8087   4.110   2.983  13.420 -2.1375 -0.1480 -0.4350
  541MPD2     N 8088   4.321   2.911  13.020  0.1699 -0.0410 -0.2951
  541MPD2    H5 8089   4.279   2.994  12.979  0.4232  0.4125  0.3759
  541MPD2    N1 8090   4.339   2.596  13.384  0.3050 -0.1530  0.1624
  541MPD2    H7 8091   4.412   2.558  13.325  0.7943 -0.8575  1.2242
  542TMC3    C1 8092   4.402   2.866  12.797  1.0486 -1.0629  0.0584
  542TMC3    C2 8093   4.473   2.777  12.722 -0.4727  0.1860  0.0740
  542TMC3    C3 8094   4.433   2.741  12.594  0.7240 -0.0052 -0.2968
  542TMC3    C4 8095   4.280   2.914  12.746  0.0477 -0.3210  0.2414
  542TMC3    C5 8096   4.238   2.868  12.626  0.3763  0.2449 -0.4753
  542TMC3    C6 8097   4.306   2.770  12.560  0.6513  0.0202  0.3980
  542TMC3     C 8098   4.416   2.845  12.940  0.0735 -0.3678  0.5627
  542TMC3     O 8099   4.502   2.768  12.976 -0.4348 -0.2149 -0.6204
  542TMC3     H 8100   4.567   2.742  12.761 -0.8911  1.2396  1.9885
  542TMC3    H1 8101   4.213   2.984  12.794  0.2738  0.3567 -0.4506
  542TMC3    H2 8102   4.252   2.711  12.487  1.7497  0.8949 -1.1280
  542TMC3    C7 8103   4.117   2.912  12.562  1.3706  0.0711 -0.2443
  542TMC3    C8 8104   4.510   2.632  12.536  0.0760 -0.0683  0.1696
  542TMC3    O1 8105   4.039   2.970  12.629  0.2113 -0.3695 -0.4265
  542TMC3    O2 8106   4.591   2.575  12.609 -0.1259 -0.8726  0.4642
  543TMC3    C1 8107   3.432   4.019  17.274  0.0927  0.0720  0.2761
  543TMC3    C2 8108   3.477   3.903  17.334  0.0081  0.0658  0.1393
  543TMC3    C3 8109   3.459   3.889  17.468  0.1712  0.4057 -0.4998
  543TMC3    C4 8110   3.383   4.123  17.341  0.0750  0.0114 -0.3828
  543TMC3    C5 8111   3.361   4.108  17.481 -0.0080 -0.6928 -0.5283
  543TMC3    C6 8112   3.395   3.990  17.540  0.2110 -0.2258  0.1004
  543TMC3     C 8113   3.488   4.033  17.140  1.0760 -0.2078 -0.3803
  543TMC3     O 8114   3.482   3.929  17.079  0.6290  0.1615 -0.6390
  543TMC3     H 8115   3.534   3.840  17.267  1.0641  1.7606 -0.5376
  543TMC3    H1 8116   3.366   4.221  17.296 -0.8354  0.5757  1.1929
  543TMC3    H2 8117   3.387   3.984  17.648 -0.8403  1.1290  0.0947
  543TMC3    C7 8118   3.288   4.198  17.559  0.1103  0.4549 -0.5364
  543TMC3    C8 8119   3.494   3.756  17.522 -0.5250 -0.0324  0.2173
  543TMC3    O1 8120   3.221   4.147  17.647 -0.0113  0.4862 -0.0207
  543TMC3    O2 8121   3.516   3.668  17.436  0.5499  0.2739 -0.5646
  544MPD2     C 8122   3.568   3.403   0.144  0.3539  0.0907  0.5119
  544MPD2    C1 8123   3.553   3.386   0.010  0.2198  0.2072  0.4369
  544MPD2    C2 8124   3.529   3.496  17.668 -0.4288 -0.2736  0.1957
  544MPD2    C3 8125   3.517   3.619  17.725 -0.1236  0.3811 -0.1012
  544MPD2    C4 8126   3.532   3.635   0.117 -0.5657 -0.0803 -0.3438
  544MPD2    C5 8127   3.565   3.525   0.195 -0.1764  0.3004  0.0026
  544MPD2     H 8128   3.512   3.485  17.561 -0.4880 -0.6092  0.2401
  544MPD2    H1 8129   3.531   3.736   0.158 -2.9187 -1.0298  1.9231
  544MPD2    H2 8130   3.603   3.320   0.205 -0.1297 -0.7761 -0.3912
  544MPD2    H3 8131   3.588   3.536   0.300  1.4075  0.7697 -0.4079
  544MPD2     N 8132   3.495   3.741  17.659 -0.4269  0.2587  0.0839
  544MPD2    H5 8133   3.474   3.821  17.719 -0.0482  0.1903  0.3091
  544MPD2    N1 8134   3.560   3.260  17.691  0.2201 -0.3993  0.4061
  544MPD2    H7 8135   3.590   3.185   0.013  0.6925 -0.3709  0.2149
  545TMC3    C1 8136   3.560   3.088  17.531  0.7652 -0.5504  0.6114
  545TMC3    C2 8137   3.630   3.062  17.421 -0.3276  0.1317  0.8705
  545TMC3    C3 8138   3.637   2.930  17.374  0.3676 -0.3473 -0.2264
  545TMC3    C4 8139   3.478   2.993  17.587  0.4261 -0.3259  0.4581
  545TMC3    C5 8140   3.480   2.863  17.533 -0.0025  0.0921 -0.5450
  545TMC3    C6 8141   3.557   2.831  17.430  0.5514  0.2494 -0.2166
  545TMC3     C 8142   3.544   3.227  17.559 -0.2069 -0.4514 -0.2965
  545TMC3     O 8143   3.529   3.298  17.459  0.1280 -0.0048 -0.1785
  545TMC3     H 8144   3.665   3.141  17.357 -0.0913 -1.2639 -0.7108
  545TMC3    H1 8145   3.426   3.019  17.678 -0.1182  0.6981 -0.1451
  545TMC3    H2 8146   3.543   2.736  17.379  0.3519 -1.0253  2.2194
  545TMC3    C7 8147   3.412   2.753  17.604 -0.3158 -0.2061 -0.1896
  545TMC3    C8 8148   3.683   2.915  17.239 -0.3981  0.0831  0.4896
  545TMC3    O1 8149   3.331   2.773  17.696 -0.0047  0.5333 -0.1115
  545TMC3    O2 8150   3.686   3.015  17.166 -0.3079  0.0998  0.3587
  546MPD2     C 8151   4.611   3.960  17.701  0.0621 -0.6443  0.0486
  546MPD2    C1 8152   4.643   3.967  17.571 -0.6334  0.1014 -0.5037
  546MPD2    C2 8153   4.696   4.085  17.518  0.4441  0.3617  0.5575
  546MPD2    C3 8154   4.722   4.197  17.599  0.1230 -0.5331  0.3381
  546MPD2    C4 8155   4.693   4.181  17.735 -0.3966  0.5167 -0.1738
  546MPD2    C5 8156   4.641   4.065   0.044 -0.6399  0.9350 -0.2649
  546MPD2     H 8157   4.710   4.111  17.414  1.1684 -0.4506  0.4463
  546MPD2    H1 8158   4.708   4.260   0.069 -0.1484  0.2428  0.0712
  546MPD2    H2 8159   4.561   3.874   0.003 -2.2658  0.5110 -0.3787
  546MPD2    H3 8160   4.611   4.048   0.146 -4.1568 -2.5911 -1.8704
  546MPD2     N 8161   0.047   4.318  17.566 -0.6542 -1.0503 -0.3381
  546MPD2    H5 8162   0.066   4.387  17.638 -0.0316 -0.6191 -0.9115
  546MPD2    N1 8163   4.612   3.865  17.486  0.8951  0.1178  0.2711
  546MPD2    H7 8164   4.594   3.776  17.533 -1.8687  1.1856  1.2692
  547TMC3    C1 8165   4.567   3.735  17.304 -0.0209 -0.3290 -0.1351
  547TMC3    C2 8166   4.507   3.720  17.184 -0.5928  0.1024 -0.1725
  547TMC3    C3 8167   4.505   3.598  17.122 -0.3034  0.0149  0.1002
  547TMC3    C4 8168   4.605   3.631  17.376 -0.1419 -0.8314  0.0639
  547TMC3    C5 8169   4.600   3.510  17.314 -0.1002 -0.0393 -1.0765
  547TMC3    C6 8170   4.553   3.488  17.192 -0.1921 -0.0782 -0.6052
  547TMC3     C 8171   4.599   3.867  17.350  0.1689  0.8118 -0.0084
  547TMC3     O 8172   4.613   3.954  17.263 -0.2012 -0.3502 -0.5980
  547TMC3     H 8173   4.479   3.810  17.129  1.3599 -0.1387 -1.5592
  547TMC3    H1 8174   4.669   3.631  17.463 -0.0831  0.1607  0.0258
  547TMC3    H2 8175   4.552   3.387  17.152 -0.2867  0.0644 -0.9701
  547TMC3    C7 8176   4.660   3.396  17.386 -0.2369  0.1304  0.2241
  547TMC3    C8 8177   4.422   3.587  17.002  0.1091 -0.1150 -0.0960
  547TMC3    O1 8178   4.633   3.393  17.503  0.0016 -0.8619 -0.2909
  547TMC3    O2 8179   4.361   3.681  16.947  0.4304  0.1830 -0.0939
  548MPD2     C 8180   4.586   4.527  12.811  0.2349  0.3600  0.9692
  548MPD2    C1 8181   4.534   4.419  12.745  0.4694  0.2947  0.1024
  548MPD2    C2 8182   4.622   4.356  12.662  1.2296 -0.4241  0.2374
  548MPD2    C3 8183   0.020   4.382  12.645 -0.0630 -0.1905  0.1107
  548MPD2    C4 8184   0.074   4.474  12.733  0.7129 -0.4127  0.4452
  548MPD2    C5 8185   4.722   4.531  12.828 -0.3065  0.0005 -0.9600
  548MPD2     H 8186   4.581   4.273  12.607  2.4396 -0.9780  0.1615
  548MPD2    H1 8187   0.177   4.506  12.744 -0.1146  2.6573 -0.8749
  548MPD2    H2 8188   4.523   4.586  12.877  1.3357  1.1363  1.3142
  548MPD2    H3 8189   0.025   4.603  12.900  0.5805 -1.0986 -0.3309
  548MPD2     N 8190   0.092   4.307  12.551 -1.3841 -0.9063  0.1299
  548MPD2    H5 8191   0.049   4.261  12.472 -2.0533  2.0473 -1.2085
  548MPD2    N1 8192   4.393   4.396  12.742  0.5291  1.0547 -0.6816
  548MPD2    H7 8193   4.334   4.467  12.783 -1.5165 -0.9662 -0.0943
  549TMC3    C1 8194   4.194   4.315  12.642  0.2550  0.3732  0.0917
  549TMC3    C2 8195   4.177   4.435  12.588 -0.8167  0.1505 -0.0553
  549TMC3    C3 8196   4.048   4.463  12.555  0.1186  0.3511 -0.2171
  549TMC3    C4 8197   4.106   4.213  12.635 -0.6283  0.3409 -0.1386
  549TMC3    C5 8198   3.981   4.235  12.592  0.1391 -0.5387  0.3385
  549TMC3    C6 8199   3.947   4.367  12.561 -0.4439  0.0415 -0.2578
  549TMC3     C 8200   4.331   4.289  12.682 -1.0174  0.1443  0.4912
  549TMC3     O 8201   4.369   4.171  12.665 -0.5230  0.2277  0.2252
  549TMC3     H 8202   4.263   4.500  12.580 -1.2112  0.7001  0.1873
  549TMC3    H1 8203   4.134   4.122  12.686  3.1379  1.5109 -0.1005
  549TMC3    H2 8204   3.847   4.383  12.522 -0.3732  1.2249  0.0568
  549TMC3    C7 8205   3.890   4.130  12.587  0.3503  0.1916 -0.2436
  549TMC3    C8 8206   4.025   4.580  12.461  0.1402  0.1433 -0.6239
  549TMC3    O1 8207   3.774   4.154  12.571  0.8623  0.1718 -0.6515
  549TMC3    O2 8208   3.936   4.557  12.380 -0.5230 -0.5959 -0.7230
  550TMC3    C1 8209   3.607   2.301  12.602  0.5684  0.1221 -0.2763
  550TMC3    C2 8210   3.564   2.392  12.692  0.2139 -0.2514 -0.2177
  550TMC3    C3 8211   3.448   2.455  12.666 -0.6199  0.0924  0.0795
  550TMC3    C4 8212   3.539   2.273  12.489  0.4482  0.0357  0.0947
  550TMC3    C5 8213   3.410   2.315  12.488  0.8272 -0.4008  0.5238
  550TMC3    C6 8214   3.369   2.417  12.568 -0.2335 -0.0746  0.3226
  550TMC3     C 8215   3.734   2.229  12.628  0.4054 -0.0944 -0.2530
  550TMC3     O 8216   3.776   2.236  12.743  0.1096  0.7137  0.0548
  550TMC3     H 8217   3.627   2.421  12.775 -2.0277  0.1208  1.3706
  550TMC3    H1 8218   3.557   2.189  12.423 -1.2551  0.4789 -0.9297
  550TMC3    H2 8219   3.281   2.472  12.538 -0.5294 -0.6375  0.1400
  550TMC3    C7 8220   3.324   2.286  12.379  0.6612  0.7196 -1.0629
  550TMC3    C8 8221   3.402   2.574  12.744  0.0074 -0.0525 -0.6434
  550TMC3    O1 8222   3.202   2.268  12.403  0.1435 -0.1362  0.3412
  550TMC3    O2 8223   3.285   2.596  12.733 -0.9930  0.8959  0.8125
  551TMC3    C1 8224   1.142   0.894  13.311 -0.1280  0.1982 -0.2515
  551TMC3    C2 8225   1.231   0.981  13.254  0.1840 -0.4309  0.6734
  551TMC3    C3 8226   1.333   1.021  13.333  0.2401  0.7316  0.1818
  551TMC3    C4 8227   1.151   0.855  13.438 -0.6055  0.0911  0.5208
  551TMC3    C5 8228   1.255   0.900  13.516 -0.0570 -0.2354  0.0813
  551TMC3    C6 8229   1.344   0.985  13.464 -0.2813  0.2012 -0.5999
  551TMC3     C 8230   1.067   0.806  13.221 -0.2868 -0.5821 -0.7395
  551TMC3     O 8231   1.037   0.695  13.256 -0.6603 -0.2275  0.0595
  551TMC3     H 8232   1.225   1.003  13.148 -0.5331  0.1040  0.8245
  551TMC3    H1 8233   1.080   0.783  13.476  1.1363 -1.2939  1.1324
  551TMC3    H2 8234   1.431   1.026  13.514  0.1608  0.3508 -1.4930
  551TMC3    C7 8235   1.252   0.883  13.667 -0.1145 -0.1076 -0.4777
  551TMC3    C8 8236   1.463   1.028  13.264 -0.0241  0.3678 -1.1575
  551TMC3    O1 8237   1.358   0.918  13.726  0.0350  0.0676  0.0818
  551TMC3    O2 8238   1.558   1.001  13.335 -0.5627 -0.1494  0.1972
  552MPD2     C 8239   3.404   2.262  13.805 -0.3836  0.0588  0.4321
  552MPD2    C1 8240   3.340   2.235  13.926  0.2610  0.8284 -0.1448
  552MPD2    C2 8241   3.417   2.190  14.031 -0.0868 -0.4524 -0.2783
  552MPD2    C3 8242   3.553   2.166  14.019  0.1494  0.5410 -0.2630
  552MPD2    C4 8243   3.610   2.189  13.898 -0.0582 -0.9970 -0.0357
  552MPD2    C5 8244   3.537   2.237  13.791  0.6194 -0.8000 -0.3850
  552MPD2     H 8245   3.373   2.173  14.128  0.8924 -0.4467  0.1683
  552MPD2    H1 8246   3.712   2.172  13.865  0.0395 -0.8947  0.2117
  552MPD2    H2 8247   3.350   2.289  13.715  2.6262  1.7723 -0.8557
  552MPD2    H3 8248   3.587   2.248  13.695  0.7223  1.6529 -0.0479
  552MPD2     N 8249   3.634   2.125  14.122 -0.1665 -0.5025 -0.2384
  552MPD2    H5 8250   3.729   2.097  14.100 -0.3204 -0.4062 -1.0302
  552MPD2    N1 8251   3.204   2.251  13.949 -0.4456 -0.0651 -0.6249
  552MPD2    H7 8252   3.159   2.213  14.032  0.5757 -0.1036 -0.0917
  553TMC3    C1 8253   2.984   2.279  13.874  0.1863 -0.8763  0.1599
  553TMC3    C2 8254   2.916   2.355  13.784 -0.2241 -0.2414 -0.5831
  553TMC3    C3 8255   2.822   2.282  13.716 -0.2472 -0.0538 -0.1055
  553TMC3    C4 8256   2.962   2.145  13.897 -0.6751  0.0830 -0.1304
  553TMC3    C5 8257   2.863   2.075  13.822 -0.3800  0.2493  0.5962
  553TMC3    C6 8258   2.788   2.151  13.741  0.0231  0.2493 -0.1695
  553TMC3     C 8259   3.123   2.319  13.863  0.5033  0.1932 -0.4281
  553TMC3     O 8260   3.151   2.413  13.789  0.1379  0.8180  0.2744
  553TMC3     H 8261   2.927   2.463  13.785  1.1738 -0.3824 -0.1347
  553TMC3    H1 8262   3.027   2.094  13.968  0.6236 -0.2832 -1.5813
  553TMC3    H2 8263   2.715   2.106  13.675 -0.8102  0.7204  0.4329
  553TMC3    C7 8264   2.905   1.957  13.758  0.1827 -0.2004 -0.4879
  553TMC3    C8 8265   2.867   2.290  13.572  1.1102  0.2775  0.5249
  553TMC3    O1 8266   2.889   1.943  13.638  0.1413  0.3679 -0.5299
  553TMC3    O2 8267   2.811   2.210  13.497 -0.2833 -0.2362  0.2188
  554TMC3    C1 8268   4.353   0.737  11.200 -0.9166 -0.1638 -0.8034
  554TMC3    C2 8269   4.285   0.750  11.081 -0.0289 -0.3706 -0.5112
  554TMC3    C3 8270   4.274   0.879  11.036  0.3228  0.1922  0.1993
  554TMC3    C4 8271   4.389   0.846  11.271 -0.4361 -0.3162 -0.3772
  554TMC3    C5 8272   4.369   0.972  11.227  0.6315 -0.6397  1.3414
  554TMC3    C6 8273   4.317   0.988  11.109 -0.4682 -0.7062 -0.5358
  554TMC3     C 8274   4.329   0.619  11.274 -0.0025  0.1500  0.0662
  554TMC3     O 8275   4.237   0.548  11.236 -0.3751  0.6340  0.3700
  554TMC3     H 8276   4.265   0.663  11.019  0.7596  0.1836 -1.5408
  554TMC3    H1 8277   4.438   0.835  11.368  0.7911  1.4780 -0.7916
  554TMC3    H2 8278   4.309   1.089  11.071  1.0366  0.1127  1.3186
  554TMC3    C7 8279   4.478   1.070  11.256  0.4722  0.1975 -0.4916
  554TMC3    C8 8280   4.307   0.907  10.900 -0.4305  0.4565 -0.0841
  554TMC3    O1 8281   4.494   1.156  11.169 -0.0433  0.2856  0.1382
  554TMC3    O2 8282   4.365   1.008  10.871 -0.1222  0.1361 -0.5981
  555TMC3    C1 8283   3.822   0.658  14.802 -1.1676 -0.2994 -0.2451
  555TMC3    C2 8284   3.798   0.753  14.904  0.6694  0.4545  0.0113
  555TMC3    C3 8285   3.767   0.706  15.025  0.6159  1.2799 -0.6222
  555TMC3    C4 8286   3.815   0.525  14.824 -0.2056 -0.2219 -0.3354
  555TMC3    C5 8287   3.783   0.487  14.957  0.4174 -0.5238  0.2582
  555TMC3    C6 8288   3.754   0.575  15.063  0.0383 -0.1202 -0.7934
  555TMC3     C 8289   3.852   0.709  14.670  0.4748 -0.7081 -0.2716
  555TMC3     O 8290   3.931   0.641  14.605 -0.0479  0.2998  0.3263
  555TMC3     H 8291   3.793   0.860  14.884  2.6657  0.6085  0.3304
  555TMC3    H1 8292   3.830   0.453  14.744  1.8425 -1.4432  1.1232
  555TMC3    H2 8293   3.725   0.539  15.161  2.2861  1.6628  0.5238
  555TMC3    C7 8294   3.726   0.351  14.993 -0.0155 -0.2883 -0.0475
  555TMC3    C8 8295   3.723   0.809  15.119  0.6208  0.6133  0.4742
  555TMC3    O1 8296   3.653   0.337  15.087 -0.0178  0.4620 -0.1452
  555TMC3    O2 8297   3.705   0.921  15.076  0.1389 -0.4169  0.2355
  556MPD2     C 8298   1.510   2.756  10.596 -1.1675  0.4566  0.3172
  556MPD2    C1 8299   1.602   2.671  10.669  0.1307 -0.0598 -0.1933
  556MPD2    C2 8300   1.612   2.534  10.637 -0.4839 -0.2513  0.3551
  556MPD2    C3 8301   1.533   2.491  10.530  0.3994  0.2397 -0.3772
  556MPD2    C4 8302   1.441   2.571  10.467 -0.5898 -0.1003 -0.0682
  556MPD2    C5 8303   1.427   2.702  10.501  0.0968  0.6646  0.6757
  556MPD2     H 8304   1.673   2.465  10.693  0.5605 -0.2882 -0.8445
  556MPD2    H1 8305   1.387   2.534  10.381  1.7523 -2.0841 -0.6909
  556MPD2    H2 8306   1.502   2.861  10.620 -2.0348  0.8089 -1.4943
  556MPD2    H3 8307   1.357   2.768  10.451 -0.4668  1.3266  2.3439
  556MPD2     N 8308   1.548   2.356  10.491  0.1087  0.4413  0.4689
  556MPD2    H5 8309   1.589   2.292  10.559  0.1311  0.0996  0.1372
  556MPD2    N1 8310   1.679   2.710  10.778 -0.0245  0.2083 -0.1619
  556MPD2    H7 8311   1.736   2.642  10.826 -0.3463  0.6785  0.8988
  557TMC3    C1 8312   1.522   2.154  10.394  0.0608  0.4789 -0.3028
  557TMC3    C2 8313   1.533   2.070  10.281 -0.1372 -0.3325  0.4284
  557TMC3    C3 8314   1.549   1.941  10.311  0.4097  0.1648  0.4246
  557TMC3    C4 8315   1.517   2.102  10.524  0.0806 -0.4711 -0.4341
  557TMC3    C5 8316   1.539   1.969  10.541 -0.2498  0.6580  0.1753
  557TMC3    C6 8317   1.549   1.885  10.432 -0.3543 -0.1199 -0.1740
  557TMC3     C 8318   1.485   2.294  10.384  0.1373 -0.5377  0.4171
  557TMC3     O 8319   1.442   2.333  10.278 -0.3719 -0.2444 -0.1644
  557TMC3     H 8320   1.531   2.115  10.182 -1.2682  0.0267  0.6120
  557TMC3    H1 8321   1.486   2.163  10.609  0.3454  2.4531 -2.4112
  557TMC3    H2 8322   1.544   1.776  10.434  0.3704 -0.1046  2.1195
  557TMC3    C7 8323   1.522   1.900  10.667  0.7745  0.1581 -0.2077
  557TMC3    C8 8324   1.531   1.849  10.201  0.2838 -0.0842 -0.4123
  557TMC3    O1 8325   1.474   1.971  10.754  0.0869  0.8059 -0.0779
  557TMC3    O2 8326   1.478   1.878  10.096  0.0878  0.5472 -0.2257
  558TMC3    C1 8327   4.313   0.117  10.242 -0.0912 -0.5408 -0.8380
  558TMC3    C2 8328   4.197   0.116  10.315 -0.1674  0.9870 -0.2660
  558TMC3    C3 8329   4.077   0.129  10.259 -0.2603  0.4014  0.7046
  558TMC3    C4 8330   4.309   0.140  10.107  0.0087  0.1780  0.0641
  558TMC3    C5 8331   4.186   0.146  10.047 -0.4960 -0.0922  0.4186
  558TMC3    C6 8332   4.071   0.137  10.124 -0.1563 -0.5407 -0.6407
  558TMC3     C 8333   4.450   0.094  10.300  0.5583 -0.0832  0.2979
  558TMC3     O 8334   4.540   0.138  10.229  0.0495 -0.3468  0.1857
  558TMC3     H 8335   4.204   0.093  10.421 -1.6795 -0.9891 -0.5918
  558TMC3    H1 8336   4.402   0.146  10.052  0.5860 -0.3618  0.9716
  558TMC3    H2 8337   3.970   0.149  10.087 -0.5884  1.6887  1.2520
  558TMC3    C7 8338   4.180   0.225   9.927 -0.2932  0.1946  0.2897
  558TMC3    C8 8339   3.955   0.113  10.335  0.3230  0.3252 -0.4240
  558TMC3    O1 8340   4.264   0.310   9.912  0.1950  0.1764 -0.3012
  558TMC3    O2 8341   3.853   0.146  10.281  0.2568  0.2582 -0.2541
  559MPD2     C 8342   4.337   0.497  10.230  0.8267  0.0196 -0.2591
  559MPD2    C1 8343   4.273   0.452  10.345 -0.5386  0.9066 -0.0041
  559MPD2    C2 8344   4.351   0.400  10.447 -0.1914  1.4331  0.0577
  559MPD2    C3 8345   4.491   0.402  10.449  0.7129  0.2433  0.5346
  559MPD2    C4 8346   4.550   0.453  10.329 -0.5439 -0.2266 -0.2204
  559MPD2    C5 8347   4.474   0.500  10.225  0.1296  0.5366 -0.2355
  559MPD2     H 8348   4.316   0.358  10.541 -1.8884  2.1034 -0.2730
  559MPD2    H1 8349   4.655   0.452  10.303 -0.5641  1.0979 -0.3392
  559MPD2    H2 8350   4.282   0.538  10.146  1.8078 -0.4699 -1.1418
  559MPD2    H3 8351   4.531   0.524  10.136  1.0335  0.3251  0.2920
  559MPD2     N 8352   4.571   0.346  10.554 -0.1232 -0.7539  0.6377
  559MPD2    H5 8353   4.517   0.292  10.621 -2.0954  0.4639  0.0250
  559MPD2    N1 8354   4.133   0.465  10.362  0.3869 -0.5951  0.1980
  559MPD2    H7 8355   4.086   0.520  10.291  0.7835  0.6116  0.8776
  560TMC3    C1 8356   0.021   0.296  10.686 -0.7173 -0.4340  0.5888
  560TMC3    C2 8357   4.684   0.195  10.733  0.4563 -0.1944 -0.9987
  560TMC3    C3 8358   0.000   0.124  10.836 -0.3782 -0.3105 -0.5591
  560TMC3    C4 8359   0.148   0.321  10.737  0.1328 -0.1131  0.2488
  560TMC3    C5 8360   0.195   0.247  10.844 -0.5505  0.6478 -0.0071
  560TMC3    C6 8361   0.115   0.149  10.906 -0.5396  0.2017 -0.0082
  560TMC3     C 8362   4.704   0.366  10.567  0.0957 -0.3836 -0.4541
  560TMC3     O 8363   0.043   0.450  10.515 -0.5026 -0.0808 -0.2620
  560TMC3     H 8364   4.593   0.156  10.691 -0.5324  2.6231 -1.4457
  560TMC3    H1 8365   0.204   0.403  10.693 -0.1235  1.2398  2.4053
  560TMC3    H2 8366   0.154   0.097  10.993 -2.3935  0.9515  1.2889
  560TMC3    C7 8367   0.333   0.241  10.887  0.6151  0.0485 -0.3837
  560TMC3    C8 8368   4.633   0.041  10.899  0.1642 -0.0716 -0.1222
  560TMC3    O1 8369   0.383   0.134  10.910 -0.2402 -0.0142 -0.1345
  560TMC3    O2 8370   4.516   0.054  10.861  0.2317 -0.6793  0.0693
  561TMC3    C1 8371   2.777   4.576  11.268  1.0229 -0.0874 -0.2395
  561TMC3    C2 8372   2.692   4.469  11.308 -0.1279  0.1248  0.1554
  561TMC3    C3 8373   2.559   4.506  11.337  0.3729  0.7529 -0.5587
  561TMC3    C4 8374   2.736   4.705  11.256  0.0892  0.2917  0.2780
  561TMC3    C5 8375   2.604   4.732  11.291 -0.3884  0.1348  0.4069
  561TMC3    C6 8376   2.515   4.636  11.330 -0.0428 -0.4485  1.0271
  561TMC3     C 8377   2.922   4.546  11.269  1.2780  0.9812 -0.1276
  561TMC3     O 8378   2.951   4.440  11.322  0.0241 -0.0231 -0.4670
  561TMC3     H 8379   2.717   4.365  11.290  1.8900  0.4610  1.0061
  561TMC3    H1 8380   2.815   0.044  11.267  1.0845 -0.3152 -2.8010
  561TMC3    H2 8381   2.412   4.669  11.337 -0.2328 -0.3732 -1.9969
  561TMC3    C7 8382   2.545   0.120  11.241 -0.3847 -0.8696  0.7733
  561TMC3    C8 8383   2.473   4.407  11.379 -0.0769 -0.4167 -0.4233
  561TMC3    O1 8384   2.426   0.136  11.270 -0.2617 -0.0780  0.0480
  561TMC3    O2 8385   2.485   4.293  11.338 -0.1013  0.6623 -0.1398
  562TMC3    C1 8386   3.477   0.851  16.257 -0.0566  0.3397  0.5993
  562TMC3    C2 8387   3.502   0.970  16.199  0.8624 -0.2591  0.5025
  562TMC3    C3 8388   3.506   0.980  16.060  0.2769 -0.4429  0.0076
  562TMC3    C4 8389   3.481   0.732  16.196  0.0514  0.3832 -0.3591
  562TMC3    C5 8390   3.482   0.743  16.061 -0.7202  0.2076 -0.3171
  562TMC3    C6 8391   3.495   0.864  15.989  0.0232  0.0408 -0.3244
  562TMC3     C 8392   3.429   0.843  16.398  0.6237  0.0125 -0.1062
  562TMC3     O 8393   3.429   0.735  16.457  0.3036 -0.6935 -0.5665
  562TMC3     H 8394   3.510   1.063  16.255  1.1892 -0.3937  0.6778
  562TMC3    H1 8395   3.448   0.640  16.242 -1.4580  0.9266 -0.3741
  562TMC3    H2 8396   3.525   0.865  15.885  1.2774 -4.3163 -0.0083
  562TMC3    C7 8397   3.514   0.625  15.985  0.6692 -0.6219  0.1599
  562TMC3    C8 8398   3.544   1.108  15.999 -0.0415  0.9748 -0.1951
  562TMC3    O1 8399   3.545   0.638  15.868 -0.4051  0.5951  0.0705
  562TMC3    O2 8400   3.577   1.190  16.083 -0.6217 -0.2952 -0.7014
  563MPD2     C 8401   1.311   2.784  16.004 -0.4685  0.4539 -0.8360
  563MPD2    C1 8402   1.267   2.651  16.024 -0.2838 -0.6390 -0.4860
  563MPD2    C2 8403   1.336   2.549  15.954  0.3655 -0.2355 -0.1783
  563MPD2    C3 8404   1.450   2.573  15.879 -0.4880 -0.2993  0.4207
  563MPD2    C4 8405   1.493   2.706  15.859  0.1176 -0.2569  0.2072
  563MPD2    C5 8406   1.420   2.813  15.919 -0.1538 -0.2346  0.3080
  563MPD2     H 8407   1.311   2.443  15.956  1.6403 -0.5172  0.7871
  563MPD2    H1 8408   1.577   2.731  15.796  0.8825 -2.8106  0.2203
  563MPD2    H2 8409   1.273   2.860  16.071 -1.6384 -0.5372 -0.3762
  563MPD2    H3 8410   1.467   2.910  15.913 -0.0527 -0.2607  0.6397
  563MPD2     N 8411   1.520   2.467  15.820 -0.4052  0.1709  0.2538
  563MPD2    H5 8412   1.488   2.374  15.845 -1.7717  0.5272 -0.1736
  563MPD2    N1 8413   1.161   2.629  16.108  0.2347 -0.3406  0.5013
  563MPD2    H7 8414   1.136   2.694  16.181  0.0590  2.6639 -2.2509
  564TMC3    C1 8415   0.977   2.520  16.186 -0.2466  0.0941 -0.1200
  564TMC3    C2 8416   0.857   2.462  16.150  0.5730 -0.2360  0.1706
  564TMC3    C3 8417   0.775   2.437  16.256 -0.1974 -0.2261  0.1860
  564TMC3    C4 8418   1.014   2.557  16.316  0.3285  0.3568 -0.1741
  564TMC3    C5 8419   0.933   2.513  16.416  0.3783 -1.0162  0.2010
  564TMC3    C6 8420   0.818   2.457  16.384  0.3948 -0.3052 -0.2926
  564TMC3     C 8421   1.071   2.527  16.080  0.6123  0.4757 -0.0466
  564TMC3     O 8422   1.062   2.443  15.995 -0.4092 -0.8950  0.4267
  564TMC3     H 8423   0.843   2.422  16.050  1.9586  0.7110 -0.4131
  564TMC3    H1 8424   1.108   2.609  16.332 -0.0902  0.6970  1.1985
  564TMC3    H2 8425   0.749   2.439  16.466 -0.8083  1.9814 -0.8141
  564TMC3    C7 8426   1.014   2.436  16.519 -0.3994  0.3192 -1.1127
  564TMC3    C8 8427   0.681   2.327  16.250 -0.3554  1.2527  0.6723
  564TMC3    O1 8428   1.124   2.481  16.551 -0.1729  0.1620  0.6804
  564TMC3    O2 8429   0.669   2.267  16.355 -0.0814 -0.0442  0.3008
  565TMC3    C1 8430   2.256   4.077  10.264 -0.0335  0.8737 -0.1864
  565TMC3    C2 8431   2.184   4.018  10.360  0.4203 -0.0326 -0.3811
  565TMC3    C3 8432   2.136   3.898  10.335  0.2923  0.4662 -0.4784
  565TMC3    C4 8433   2.289   4.017  10.150 -0.3908 -0.8807 -0.4284
  565TMC3    C5 8434   2.245   3.887  10.129  0.0418 -0.3551 -0.0376
  565TMC3    C6 8435   2.161   3.828  10.220 -0.4186 -0.1767  0.5376
  565TMC3     C 8436   2.280   4.216  10.284 -0.5141 -0.3573 -0.1391
  565TMC3     O 8437   2.316   4.281  10.189  0.3587  0.0804  0.0790
  565TMC3     H 8438   2.159   4.051  10.460 -1.6377  1.0744 -1.2593
  565TMC3    H1 8439   2.347   4.062  10.071  1.8065 -0.8223  1.2335
  565TMC3    H2 8440   2.144   3.721  10.216  0.9474 -0.3617 -0.3981
  565TMC3    C7 8441   2.225   3.850   9.990 -0.3297  0.0730 -0.1018
  565TMC3    C8 8442   2.068   3.822  10.447  0.1196 -0.3157 -0.5724
  565TMC3    O1 8443   2.234   3.938   9.907 -0.4550 -0.2629 -0.0294
  565TMC3    O2 8444   2.061   3.877  10.559  0.2518  0.0727  0.5345
  566MPD2     C 8445   3.279   0.997  14.038  0.4954 -0.3490 -0.4287
  566MPD2    C1 8446   3.411   1.005  13.981  0.4734 -0.1979  0.6385
  566MPD2    C2 8447   3.415   1.041  13.846  0.4053 -0.3555  0.1984
  566MPD2    C3 8448   3.307   1.056  13.759  0.9027  0.6055  0.5802
  566MPD2    C4 8449   3.183   1.040  13.813 -0.4230  0.3856  0.0056
  566MPD2    C5 8450   3.175   1.011  13.946 -0.2295 -0.9009 -0.0118
  566MPD2     H 8451   3.510   1.053  13.794  1.0398 -1.3192  1.1166
  566MPD2    H1 8452   3.093   1.030  13.753 -0.2627  0.3471 -0.2297
  566MPD2    H2 8453   3.260   0.974  14.143 -1.9384  0.4073 -0.7311
  566MPD2    H3 8454   3.073   1.001  13.980 -1.3333  0.4839 -2.9521
  566MPD2     N 8455   3.340   1.085  13.627  0.4736  0.3166 -0.5450
  566MPD2    H5 8456   3.440   1.074  13.607  0.8524 -1.6670  2.4966
  566MPD2    N1 8457   3.527   0.962  14.055  1.1290  0.2255  0.1458
  566MPD2    H7 8458   3.510   0.903  14.136 -2.4651 -1.6844 -2.0063
  567TMC3    C1 8459   3.758   0.881  14.041 -0.0975 -0.1822 -0.5037
  567TMC3    C2 8460   3.877   0.886  13.973 -0.4678  0.8933  0.3064
  567TMC3    C3 8461   3.968   0.778  13.985 -0.4226 -0.7105 -0.3819
  567TMC3    C4 8462   3.732   0.779  14.135  0.3165  0.0101 -0.6806
  567TMC3    C5 8463   3.822   0.683  14.143  0.0922 -0.3362 -0.2508
  567TMC3    C6 8464   3.937   0.676  14.072  0.2405  0.0965  0.8949
  567TMC3     C 8465   3.650   0.972  13.993  0.4515  0.6350  0.4242
  567TMC3     O 8466   3.688   1.059  13.915  0.5123 -0.0095 -0.0626
  567TMC3     H 8467   3.902   0.966  13.903  1.5924 -1.2837 -1.4517
  567TMC3    H1 8468   3.628   0.775  14.166  0.9662 -1.9309  1.2117
  567TMC3    H2 8469   3.998   0.587  14.079 -0.6682 -0.5482  0.6001
  567TMC3    C7 8470   3.810   0.590  14.256  0.5715  0.9795 -0.2803
  567TMC3    C8 8471   4.066   0.775  13.878 -0.5095  0.3669 -0.6135
  567TMC3    O1 8472   3.893   0.502  14.272  0.5170 -0.3508  0.0299
  567TMC3    O2 8473   4.103   0.882  13.847  0.2094  0.1046 -0.2903
  568MPD2     C 8474   0.682   1.008  16.563  0.4425 -0.0386 -0.5269
  568MPD2    C1 8475   0.642   1.105  16.652  1.0751  0.0855 -0.2624
  568MPD2    C2 8476   0.563   1.217  16.611 -0.5905 -0.9041 -0.5363
  568MPD2    C3 8477   0.500   1.222  16.491  0.5519  0.7020  0.2536
  568MPD2    C4 8478   0.536   1.129  16.400  0.8036 -0.5429  0.5580
  568MPD2    C5 8479   0.628   1.022  16.430 -0.6127 -0.5095  0.0884
  568MPD2     H 8480   0.541   1.296  16.682  0.8741  0.9962 -2.1877
  568MPD2    H1 8481   0.503   1.139  16.297  0.9950 -2.4110  0.3101
  568MPD2    H2 8482   0.748   0.927  16.593  2.3547  1.7718  0.1075
  568MPD2    H3 8483   0.649   0.942  16.360  1.0296 -0.8026  0.9223
  568MPD2     N 8484   0.407   1.332  16.468 -0.5074 -0.2821  0.1342
  568MPD2    H5 8485   0.388   1.402  16.540  0.1419  2.0395 -1.9546
  568MPD2    N1 8486   0.699   1.082  16.783  0.2840  0.8428  0.1604
  568MPD2    H7 8487   0.750   0.997  16.805  0.0564  0.6984  0.1231
  569TMC3    C1 8488   0.254   1.468  16.365 -0.7676  0.2332 -0.6371
  569TMC3    C2 8489   0.221   1.531  16.485  0.5439 -0.2660  0.2092
  569TMC3    C3 8490   0.222   1.662  16.487  0.8926 -0.1722 -0.8277
  569TMC3    C4 8491   0.295   1.544  16.258 -0.2864  0.2975 -1.0702
  569TMC3    C5 8492   0.301   1.683  16.273  0.3034 -0.4552  0.2917
  569TMC3    C6 8493   0.263   1.743  16.383  0.2785  0.1223  0.8387
  569TMC3     C 8494   0.324   1.347  16.361  0.1029 -0.2880  0.1648
  569TMC3     O 8495   0.326   1.280  16.260 -0.4193 -0.0743 -0.2805
  569TMC3     H 8496   0.198   1.463  16.566  1.5608 -1.9253 -0.8677
  569TMC3    H1 8497   0.325   1.495  16.165 -1.8731  1.4073 -2.1659
  569TMC3    H2 8498   0.239   1.849  16.376 -0.6300 -0.2306 -1.2643
  569TMC3    C7 8499   0.356   1.760  16.163  0.7350 -0.3915 -0.6479
  569TMC3    C8 8500   0.176   1.725  16.616 -0.7627  0.0463 -0.1466
  569TMC3    O1 8501   0.370   1.696  16.059 -0.1942  0.3193 -0.0795
  569TMC3    O2 8502   0.100   1.664  16.687 -0.2267  0.2250 -0.3434
  570TMC3    C1 8503   0.154   0.160  16.204  0.4622 -0.1591  0.5111
  570TMC3    C2 8504   0.272   0.170  16.134  0.4402  0.3042  0.9184
  570TMC3    C3 8505   0.317   0.299  16.093  0.5051  0.2490  0.1305
  570TMC3    C4 8506   0.065   0.263  16.206  0.0127 -0.4987 -0.6978
  570TMC3    C5 8507   0.112   0.388  16.158  0.5765 -0.1585  0.1629
  570TMC3    C6 8508   0.238   0.406  16.108  0.0975 -0.3052 -0.1221
  570TMC3     C 8509   0.111   0.030  16.254  0.8871 -0.5284  1.1751
  570TMC3     O 8510   0.173   4.669  16.223 -0.8655  0.2358 -0.5189
  570TMC3     H 8511   0.336   0.082  16.131  0.1640  0.1819 -1.7232
  570TMC3    H1 8512   4.701   0.267  16.251 -0.3596 -0.6101 -1.5104
  570TMC3    H2 8513   0.282   0.503  16.087  1.2261 -0.4484  1.5410
  570TMC3    C7 8514   0.060   0.507  16.226 -1.2491 -0.1353 -0.2355
  570TMC3    C8 8515   0.443   0.312  16.027 -0.5712  0.2329 -0.3568
  570TMC3    O1 8516   4.672   0.521  16.225  0.4789 -0.7144  0.8655
  570TMC3    O2 8517   0.486   0.424  16.013  0.6110  0.6534  0.5418
  571MPD2     C 8518   2.478   1.428   0.259  0.5742 -0.3116 -0.1930
  571MPD2    C1 8519   2.381   1.390   0.350  0.0480 -0.0735  0.0144
  571MPD2    C2 8520   2.336   1.490   0.440  0.4328 -0.6590 -0.2136
  571MPD2    C3 8521   2.364   1.627   0.415 -0.3505  0.1876  0.0275
  571MPD2    C4 8522   2.447   1.661   0.307  0.1605  0.1964  0.2810
  571MPD2    C5 8523   2.507   1.557   0.237  0.5709 -0.0215  0.4352
  571MPD2     H 8524   2.261   1.460   0.512 -0.1780 -0.4375 -0.7542
  571MPD2    H1 8525   2.469   1.764   0.284 -0.4782 -0.0590 -1.4717
  571MPD2    H2 8526   2.520   1.355   0.190  1.5446 -0.0914  0.1670
  571MPD2    H3 8527   2.584   1.578   0.164 -2.1432  0.0484 -2.3806
  571MPD2     N 8528   2.306   1.733   0.482 -0.0796 -0.0002  0.5682
  571MPD2    H5 8529   2.324   1.829   0.456 -0.5018 -0.0916 -0.0614
  571MPD2    N1 8530   2.313   1.264   0.344 -0.3516  0.3981 -0.0870
  571MPD2    H7 8531   2.343   1.206   0.267 -0.5513  0.5096 -0.2496
  572TMC3    C1 8532   2.183   1.856   0.638  0.2362 -0.7898  0.5924
  572TMC3    C2 8533   2.115   1.853   0.761 -0.2222 -0.1806 -0.0095
  572TMC3    C3 8534   2.090   1.969   0.825 -0.2985  0.1301 -0.1057
  572TMC3    C4 8535   2.203   1.972   0.569 -0.8031 -0.2770  0.7493
  572TMC3    C5 8536   2.171   2.088   0.637 -0.3522  0.3719  0.0267
  572TMC3    C6 8537   2.115   2.092   0.762  0.2927 -0.1802  0.6077
  572TMC3     C 8538   2.233   1.725   0.604  0.2036 -0.2316  0.1855
  572TMC3     O 8539   2.220   1.626   0.678  0.1641  0.4899 -0.7815
  572TMC3     H 8540   2.085   1.758   0.805  0.7676  1.2992  3.9289
  572TMC3    H1 8541   2.238   1.971   0.467 -0.6885 -0.7830  0.7902
  572TMC3    H2 8542   2.106   2.186   0.815 -0.5546 -0.2848  0.6497
  572TMC3    C7 8543   2.246   2.202   0.592 -0.3314  0.0073  0.2071
  572TMC3    C8 8544   1.997   1.958   0.937  0.2543  0.2087  0.0655
  572TMC3    O1 8545   2.253   2.232   0.475  0.8157 -0.7708 -0.3017
  572TMC3    O2 8546   1.969   1.844   0.980 -0.1385 -0.6795 -0.2163
  573MPD2     C 8547   3.963   2.170   0.781  0.3689  0.6619  0.3377
  573MPD2    C1 8548   4.006   2.258   0.683 -0.8194  0.3824 -0.4456
  573MPD2    C2 8549   4.009   2.218   0.552  0.0563  0.5048 -0.7508
  573MPD2    C3 8550   3.971   2.089   0.518  0.1160 -0.4056 -1.0219
  573MPD2    C4 8551   3.924   2.008   0.614 -0.6803  0.4594  0.4114
  573MPD2    C5 8552   3.916   2.049   0.747  0.0263  0.0252 -0.7272
  573MPD2     H 8553   4.039   2.290   0.476  1.0752  0.5045 -0.3407
  573MPD2    H1 8554   3.882   1.913   0.584  2.0819 -1.0097  1.1892
  573MPD2    H2 8555   3.951   2.205   0.883  1.1887  1.8454  0.0233
  573MPD2    H3 8556   3.873   1.983   0.821  1.5337 -0.4004 -0.2256
  573MPD2     N 8557   3.961   2.039   0.385 -0.3428  0.5541 -0.2315
  573MPD2    H5 8558   3.926   1.943   0.376  1.4316 -0.1297  0.2491
  573MPD2    N1 8559   4.058   2.377   0.724 -0.0171  0.6656  0.0602
  573MPD2    H7 8560   4.032   2.399   0.820  1.7988  2.1163  0.2295
  574TMC3    C1 8561   3.986   2.028   0.141 -0.0283  0.6667 -0.9685
  574TMC3    C2 8562   3.853   1.999   0.124 -0.4311  0.0099 -0.0522
  574TMC3    C3 8563   3.790   2.017   0.009  0.1341 -0.3855 -0.3678
  574TMC3    C4 8564   4.060   2.076   0.041 -0.0192 -0.3267 -1.0909
  574TMC3    C5 8565   4.001   2.091  17.659 -0.2365  0.4091 -0.0594
  574TMC3    C6 8566   3.868   2.062  17.641  0.1798 -0.4998 -0.1291
  574TMC3     C 8567   4.009   2.101   0.268  0.2820  0.6167 -0.3659
  574TMC3     O 8568   4.044   2.215   0.250  0.2553 -0.4969 -0.5511
  574TMC3     H 8569   3.797   1.976   0.213  2.5034  1.2586  2.1009
  574TMC3    H1 8570   4.160   2.118   0.046  0.3634 -1.4623  0.7369
  574TMC3    H2 8571   3.820   2.082  17.546 -1.0353  1.8130  0.9576
  574TMC3    C7 8572   4.064   2.177  17.560  0.5715 -0.2474  0.4530
  574TMC3    C8 8573   3.652   2.066   0.023  1.0212 -0.3539  0.5803
  574TMC3    O1 8574   4.033   2.170  17.444 -0.0059 -0.1431  0.1895
  574TMC3    O2 8575   3.589   2.033   0.128 -0.8357  0.0517  0.1347
  575TMC3    C1 8576   2.049   3.559  11.268  0.1628 -0.0796 -0.6533
  575TMC3    C2 8577   1.979   3.457  11.312  0.0375  0.2879  0.3547
  575TMC3    C3 8578   1.879   3.404  11.230 -0.3424 -0.5547  0.4350
  575TMC3    C4 8579   2.029   3.615  11.140  0.2926  0.5859  0.3371
  575TMC3    C5 8580   1.934   3.555  11.064 -0.1944 -0.4518 -0.5299
  575TMC3    C6 8581   1.851   3.456  11.108  0.4287  0.2512 -0.6130
  575TMC3     C 8582   2.140   3.628  11.360 -0.0897  0.6068 -0.0594
  575TMC3     O 8583   2.136   3.589  11.475  0.2338 -0.1872 -0.5900
  575TMC3     H 8584   1.999   3.416  11.410 -2.0151  1.1998  1.1588
  575TMC3    H1 8585   2.100   3.679  11.087  1.0709 -0.7193 -0.2057
  575TMC3    H2 8586   1.763   3.424  11.053  1.0458  0.2277 -1.5828
  575TMC3    C7 8587   1.908   3.609  10.933  0.2702 -0.1557  0.2667
  575TMC3    C8 8588   1.792   3.305  11.285 -0.2730  0.1558 -0.3637
  575TMC3    O1 8589   1.961   3.716  10.902  0.0936 -0.2579 -0.1612
  575TMC3    O2 8590   1.794   3.276  11.403 -0.3171 -0.1458 -0.4550
  576MPD2     C 8591   2.185   4.632  12.576 -0.4363 -0.2923 -0.0605
  576MPD2    C1 8592   2.181   0.008  12.491 -0.5929 -0.0034  0.1401
  576MPD2    C2 8593   2.233   0.124  12.544  0.7188 -0.6202  0.6069
  576MPD2    C3 8594   2.299   0.138  12.668  0.0633  0.2815  0.4328
  576MPD2    C4 8595   2.322   0.019  12.741  0.7702  0.6504  0.1547
  576MPD2    C5 8596   2.262   4.638  12.694  0.3333 -0.0392 -0.6004
  576MPD2     H 8597   2.214   0.211  12.481  0.6249 -1.7745 -0.9447
  576MPD2    H1 8598   2.389   0.010  12.825 -0.1249 -1.9298  0.5735
  576MPD2    H2 8599   2.142   4.537  12.546 -1.6423 -0.1352  1.1560
  576MPD2    H3 8600   2.287   4.550  12.752 -2.0879 -1.1023 -1.1849
  576MPD2     N 8601   2.367   0.258  12.697 -0.1217  0.0749  0.8525
  576MPD2    H5 8602   2.342   0.337  12.638  1.4307 -0.1911 -0.1458
  576MPD2    N1 8603   2.107   0.006  12.376  0.6970 -0.2994  0.3276
  576MPD2    H7 8604   2.108   0.085  12.311 -1.0165 -1.9814 -1.7504
  577TMC3    C1 8605   1.983   4.656  12.189  0.0347 -0.2921  0.0205
  577TMC3    C2 8606   2.013   4.574  12.081  0.0093  0.6278  0.1773
  577TMC3    C3 8607   1.953   4.604  11.961 -0.3725  0.1191  0.6934
  577TMC3    C4 8608   1.902   0.035  12.173 -0.1463 -0.3254  0.7928
  577TMC3    C5 8609   1.852   0.062  12.056  0.2343 -0.4214  0.2730
  577TMC3    C6 8610   1.873   4.717  11.946  0.6750  0.5405 -0.1532
  577TMC3     C 8611   2.056   4.627  12.307 -0.4393  0.4995  0.2322
  577TMC3     O 8612   2.071   4.509  12.333 -0.2542  0.2691  0.3119
  577TMC3     H 8613   2.095   4.503  12.079  1.1681  1.9284  1.9834
  577TMC3    H1 8614   1.882   0.099  12.258 -1.3130 -1.1356  1.1385
  577TMC3    H2 8615   1.824   0.000  11.851  0.3062 -0.5122 -0.1682
  577TMC3    C7 8616   1.747   0.164  12.052  0.0092 -0.5267  0.6189
  577TMC3    C8 8617   2.026   4.563  11.840  0.7375  0.2524 -0.2371
  577TMC3    O1 8618   1.742   0.231  12.154 -0.0123  0.1753 -0.1850
  577TMC3    O2 8619   2.042   4.648  11.753  0.0875 -0.4462  0.7963
  578MPD2     C 8620   4.711   0.101   1.194  0.0596  0.1406  0.5058
  578MPD2    C1 8621   0.072   0.042   1.108 -0.2799  0.2252  0.3562
  578MPD2    C2 8622   0.160   4.692   1.166  0.3065  0.1674  0.4344
  578MPD2    C3 8623   0.160   4.666   1.303 -0.4414 -0.0819 -0.6515
  578MPD2    C4 8624   0.069   4.725   1.387 -0.4291 -0.0242  0.7253
  578MPD2    C5 8625   4.720   0.079   1.329 -0.4723  0.1457 -0.0712
  578MPD2     H 8626   0.223   4.632   1.102  1.0986  2.1520 -0.6257
  578MPD2    H1 8627   0.079   4.724   1.495 -1.0088 -0.5744  0.7751
  578MPD2    H2 8628   4.643   0.177   1.158 -0.1007 -0.1547  0.1819
  578MPD2    H3 8629   4.668   0.147   1.395  1.1334  0.4076  0.9215
  578MPD2     N 8630   0.248   4.563   1.352 -0.4311 -0.1809 -0.4374
  578MPD2    H5 8631   0.294   4.506   1.282 -0.2124 -0.6250  0.0705
  578MPD2    N1 8632   0.078   0.069   0.973 -0.1669 -0.0344 -0.2922
  578MPD2    H7 8633   0.020   0.142   0.933 -0.5030  0.4867  1.1641
  579TMC3    C1 8634   0.346   4.410   1.505 -0.0345 -0.0125  0.9099
  579TMC3    C2 8635   0.411   4.403   1.627 -0.1940  0.7431  0.6648
  579TMC3    C3 8636   0.497   4.299   1.653  0.4297 -0.8871  0.2725
  579TMC3    C4 8637   0.360   4.310   1.415 -0.2319  0.1291  0.0565
  579TMC3    C5 8638   0.440   4.206   1.447 -0.2994 -0.2491  0.3883
  579TMC3    C6 8639   0.512   4.200   1.560 -0.3605 -0.2165 -0.2232
  579TMC3     C 8640   0.268   4.532   1.484 -0.3050  0.3686  0.4034
  579TMC3     O 8641   0.237   4.590   1.587 -0.0244 -0.5662  0.3557
  579TMC3     H 8642   0.424   4.497   1.680 -0.5708  1.7027 -0.9237
  579TMC3    H1 8643   0.323   4.326   1.315 -0.1980  0.6608  0.1267
  579TMC3    H2 8644   0.576   4.116   1.586  1.2714  1.5419  1.4439
  579TMC3    C7 8645   0.442   4.087   1.368 -0.1985  0.0763  0.6006
  579TMC3    C8 8646   0.612   4.338   1.729 -0.0009 -0.4604  0.1781
  579TMC3    O1 8647   0.510   3.994   1.407  0.5426 -0.0026 -0.0225
  579TMC3    O2 8648   0.594   4.400   1.834  0.3089  0.1182  0.1907
  580TMC3    C1 8649   4.110   4.331  12.230  0.1915  0.4091  0.1211
  580TMC3    C2 8650   4.238   4.377  12.250 -0.2352 -0.2801 -0.7354
  580TMC3    C3 8651   4.326   4.288  12.306  0.3891 -0.2541 -1.0593
  580TMC3    C4 8652   4.071   4.200  12.234 -0.0190 -0.2753 -0.0248
  580TMC3    C5 8653   4.158   4.117  12.299 -0.5729  0.8495  0.3547
  580TMC3    C6 8654   4.292   4.153  12.325  0.1524 -0.4330 -0.1297
  580TMC3     C 8655   4.047   4.399  12.119 -0.2954 -1.0062  0.2191
  580TMC3     O 8656   3.931   4.364  12.095  0.3472  0.0808 -0.0552
  580TMC3     H 8657   4.275   4.479  12.254  0.5490 -0.5891 -0.0955
  580TMC3    H1 8658   3.979   4.163  12.190 -1.8770  2.0064  1.9501
  580TMC3    H2 8659   4.365   4.078  12.353 -1.1146 -1.0331  1.5941
  580TMC3    C7 8660   4.141   3.973  12.303 -0.0349  1.3293  0.4282
  580TMC3    C8 8661   4.464   4.322  12.293  0.5272 -0.4001 -0.6639
  580TMC3    O1 8662   4.179   3.906  12.399 -0.3764  0.5761  0.1169
  580TMC3    O2 8663   4.494   4.439  12.328 -0.7147 -0.0470  0.1908
  581MPD2     C 8664   1.857   3.716  14.862 -0.1944  0.2540 -0.4071
  581MPD2    C1 8665   1.722   3.679  14.869 -0.0867 -0.0968 -0.2081
  581MPD2    C2 8666   1.624   3.773  14.836 -0.5231  0.2782 -0.8189
  581MPD2    C3 8667   1.666   3.897  14.790 -0.0376  0.3643  0.7110
  581MPD2    C4 8668   1.800   3.934  14.798 -0.9145  0.3730 -0.1856
  581MPD2    C5 8669   1.899   3.846  14.837 -0.5007 -0.3122 -0.5276
  581MPD2     H 8670   1.520   3.745  14.848  0.4020 -2.1470  1.4843
  581MPD2    H1 8671   1.837   4.028  14.759  0.7836 -0.9770 -1.8218
  581MPD2    H2 8672   1.937   3.643  14.874  0.1625  0.7344  0.1283
  581MPD2    H3 8673   2.007   3.858  14.827 -0.5664  0.5318 -0.1930
  581MPD2     N 8674   1.573   3.989  14.742 -0.9747 -0.3829  1.1767
  581MPD2    H5 8675   1.479   3.954  14.724 -0.7425  0.0980 -0.9342
  581MPD2    N1 8676   1.689   3.550  14.916 -0.3292 -0.1794  0.3844
  581MPD2    H7 8677   1.768   3.492  14.944 -0.1129 -0.9990 -1.8955
  582TMC3    C1 8678   1.533   3.431  15.043  0.4891  0.4383  0.0777
  582TMC3    C2 8679   1.637   3.412  15.136  0.3156 -0.5249 -0.2774
  582TMC3    C3 8680   1.606   3.403  15.269  0.5690 -0.4498  0.0298
  582TMC3    C4 8681   1.407   3.445  15.094  0.5004  0.1354 -0.5174
  582TMC3    C5 8682   1.380   3.440  15.227 -0.6860  0.3389  0.6528
  582TMC3    C6 8683   1.478   3.417  15.320 -0.1711 -0.7014  0.0109
  582TMC3     C 8684   1.559   3.501  14.926  0.0522 -0.7680 -0.3782
  582TMC3     O 8685   1.473   3.510  14.844  0.1802 -0.1045  0.0234
  582TMC3     H 8686   1.737   3.393  15.097 -0.2818 -1.9284 -1.1408
  582TMC3    H1 8687   1.328   3.464  15.022  0.0170  1.0302  0.2564
  582TMC3    H2 8688   1.458   3.415  15.427 -0.6658  0.2657 -0.0601
  582TMC3    C7 8689   1.258   3.496  15.274 -0.2358  0.1591 -0.2835
  582TMC3    C8 8690   1.717   3.360  15.357  0.3026 -0.4437  0.0704
  582TMC3    O1 8691   1.157   3.495  15.199 -0.4486  0.3629 -0.1927
  582TMC3    O2 8692   1.821   3.324  15.299  0.1026  0.7993  0.2593
  583MPD2     C 8693   2.136   0.582  16.665 -0.2461 -0.1660 -0.7533
  583MPD2    C1 8694   2.126   0.712  16.614 -0.1684  0.1679 -0.4403
  583MPD2    C2 8695   2.076   0.803  16.704 -0.0403  0.7847  0.4338
  583MPD2    C3 8696   2.050   0.771  16.836 -0.6164 -0.1946 -0.2437
  583MPD2    C4 8697   2.046   0.640  16.877 -0.4085 -0.4771 -0.4575
  583MPD2    C5 8698   2.091   0.545  16.790 -0.2943 -0.2927 -0.3108
  583MPD2     H 8699   2.072   0.909  16.678  0.0524  0.8660  0.7462
  583MPD2    H1 8700   2.007   0.603  16.971  1.1191  0.3940  0.5069
  583MPD2    H2 8701   2.184   0.498  16.616  1.1634 -0.3177  0.8829
  583MPD2    H3 8702   2.107   0.443  16.821 -0.3002 -0.1622  0.1187
  583MPD2     N 8703   2.013   0.874  16.923  0.2991  0.0771  0.5347
  583MPD2    H5 8704   2.019   0.970  16.893  1.9852  0.0607  0.8163
  583MPD2    N1 8705   2.182   0.744  16.485 -0.2545 -0.2589 -0.2905
  583MPD2    H7 8706   2.182   0.837  16.445  1.0102 -1.4841 -3.1257
  584TMC3    C1 8707   1.895   0.987  17.091  0.1394  0.1586  0.3770
  584TMC3    C2 8708   1.973   1.099  17.064  0.1957  0.3209  0.8265
  584TMC3    C3 8709   1.947   1.206  17.141 -0.3394 -0.7417 -0.2064
  584TMC3    C4 8710   1.799   0.984  17.184 -0.0415  0.0912 -0.4715
  584TMC3    C5 8711   1.777   1.096  17.260 -0.3491 -0.3134 -0.0759
  584TMC3    C6 8712   1.855   1.209  17.243 -0.3873 -0.2208  0.2525
  584TMC3     C 8713   1.933   0.857  17.033 -0.3946 -0.1347 -0.7232
  584TMC3     O 8714   1.890   0.759  17.089  0.4014 -0.2939 -0.2285
  584TMC3     H 8715   2.054   1.108  16.993 -1.6543 -0.2414 -1.3365
  584TMC3    H1 8716   1.739   0.895  17.203  0.4669  0.0412  0.9018
  584TMC3    H2 8717   1.809   1.301  17.276 -1.3105 -0.6036  0.0249
  584TMC3    C7 8718   1.712   1.070  17.388 -0.0816 -1.2258  0.3490
  584TMC3    C8 8719   1.952   1.328  17.070  0.0175  0.3451  0.6116
  584TMC3    O1 8720   1.633   0.975  17.384 -0.2586  0.1576 -0.4501
  584TMC3    O2 8721   1.915   1.320  16.955 -0.0301 -0.0456 -0.0226
  585MPD2     C 8722   1.209   4.340   0.323  0.4688 -0.4790  0.6036
  585MPD2    C1 8723   1.256   4.427   0.226  0.4618  0.0411 -0.4829
  585MPD2    C2 8724   1.257   4.391   0.086  0.6156 -0.1584 -0.2677
  585MPD2    C3 8725   1.200   4.270   0.050 -0.5795  0.7082 -0.2544
  585MPD2    C4 8726   1.156   4.186   0.152 -0.1534 -0.4560 -0.1283
  585MPD2    C5 8727   1.161   4.217   0.288 -0.0744  0.1210  0.7138
  585MPD2     H 8728   1.274   4.473   0.018 -2.9392  0.4137 -0.5001
  585MPD2    H1 8729   1.106   4.092   0.130  0.0412 -1.0296  1.9179
  585MPD2    H2 8730   1.224   4.382   0.422  0.5319 -1.3000  0.9464
  585MPD2    H3 8731   1.141   4.152   0.372 -0.1591  1.9379  2.1021
  585MPD2     N 8732   1.172   4.246  17.654 -0.0273 -0.1391  0.2586
  585MPD2    H5 8733   1.113   4.166  17.635 -0.3515  0.2894 -0.5488
  585MPD2    N1 8734   1.288   4.555   0.271  0.2900 -0.3943  0.8890
  585MPD2    H7 8735   1.262   4.587   0.364 -0.1356  3.4209 -0.5373
  586TMC3    C1 8736   1.164   4.274  17.425 -0.0791  0.3692  0.0758
  586TMC3    C2 8737   1.240   4.232  17.321  0.3197 -0.3527  0.5507
  586TMC3    C3 8738   1.172   4.192  17.208 -0.3411  0.0064  0.1002
  586TMC3    C4 8739   1.022   4.292  17.419  0.8128  1.0077  0.3333
  586TMC3    C5 8740   0.966   4.228  17.307  0.9752  0.6732 -0.2826
  586TMC3    C6 8741   1.039   4.166  17.208  0.5250 -0.6075  0.1776
  586TMC3     C 8742   1.232   4.308  17.549  0.1599  0.3849  0.1000
  586TMC3     O 8743   1.322   4.388  17.554  0.3249  0.3538  0.2529
  586TMC3     H 8744   1.347   4.216  17.324  0.6700  1.7631 -0.4657
  586TMC3    H1 8745   0.970   4.336  17.503 -1.5921  0.6558 -0.9768
  586TMC3    H2 8746   0.993   4.124  17.119  0.4126 -1.6779  0.7392
  586TMC3    C7 8747   0.829   4.185  17.323  0.0698  0.5314 -0.2065
  586TMC3    C8 8748   1.245   4.097  17.132 -0.2651 -0.4470  1.0193
  586TMC3    O1 8749   0.798   4.080  17.276 -0.2230  0.3090 -0.6557
  586TMC3    O2 8750   1.196   3.985  17.133  0.0991  0.4982  0.1321
  587TMC3    C1 8751   3.577   3.237  16.224 -0.3218 -0.8211 -0.6406
  587TMC3    C2 8752   3.609   3.314  16.336  0.2558 -0.7756  0.7612
  587TMC3    C3 8753   3.735   3.295  16.387 -0.1936 -0.2691  0.3030
  587TMC3    C4 8754   3.664   3.145  16.173 -0.1993 -0.3696 -0.5179
  587TMC3    C5 8755   3.788   3.138  16.222  0.0180  0.0366  0.1424
  587TMC3    C6 8756   3.826   3.205  16.334  0.1869 -0.6250  0.7539
  587TMC3     C 8757   3.440   3.223  16.182 -0.4929 -0.7860 -0.3260
  587TMC3     O 8758   3.423   3.201  16.060 -0.3219  0.3017  0.0092
  587TMC3     H 8759   3.534   3.384  16.370  1.1540  0.8808 -0.6869
  587TMC3    H1 8760   3.630   3.081  16.092  1.6921 -0.8411 -0.9285
  587TMC3    H2 8761   3.924   3.191  16.378  0.3998 -1.0752  0.1231
  587TMC3    C7 8762   3.868   3.023  16.180  0.1044  0.6396  0.0454
  587TMC3    C8 8763   3.757   3.350  16.516 -0.1335  0.0594  0.6519
  587TMC3    O1 8764   3.819   2.912  16.172  0.1289 -0.3214 -0.1932
  587TMC3    O2 8765   3.847   3.305  16.587 -0.3957 -0.7767 -0.0699
  588TMC3    C1 8766   1.192   1.261   9.904 -0.2850 -0.5296 -0.2228
  588TMC3    C2 8767   1.183   1.121   9.887  0.3099  0.2592 -0.1557
  588TMC3    C3 8768   1.280   1.045   9.943  0.5752 -0.3718  0.0691
  588TMC3    C4 8769   1.283   1.310   9.997  0.1863 -0.2200  0.2944
  588TMC3    C5 8770   1.375   1.224  10.052 -0.4349  0.1180  0.5744
  588TMC3    C6 8771   1.375   1.091  10.028 -0.2185 -0.1105  0.1492
  588TMC3     C 8772   1.068   1.341   9.903  0.6163 -0.2562 -0.5691
  588TMC3     O 8773   0.987   1.319   9.817 -0.1336 -0.1284 -0.3628
  588TMC3     H 8774   1.098   1.076   9.837  0.5830  0.2227 -0.5862
  588TMC3    H1 8775   1.294   1.418  10.003  1.1612 -0.3029 -0.0132
  588TMC3    H2 8776   1.445   1.025  10.078 -0.6520  0.1548  1.1003
  588TMC3    C7 8777   1.439   1.262  10.181 -0.3743 -1.1504 -0.2308
  588TMC3    C8 8778   1.273   0.897   9.910  0.0032 -0.4585  0.8162
  588TMC3    O1 8779   1.507   1.175  10.236  0.1759 -0.1258  0.1965
  588TMC3    O2 8780   1.186   0.854   9.836  0.0175 -0.1534 -0.2552
  589TMC3    C1 8781   0.200   3.222   1.466 -0.1866 -0.4980  0.4943
  589TMC3    C2 8782   0.323   3.271   1.486  0.1469 -1.1448  1.0459
  589TMC3    C3 8783   0.431   3.204   1.440  1.1998  1.3221  0.0605
  589TMC3    C4 8784   0.184   3.096   1.416  0.0547 -0.1019 -0.7275
  589TMC3    C5 8785   0.295   3.034   1.365 -0.5601 -0.9051 -0.7725
  589TMC3    C6 8786   0.420   3.084   1.376  0.4161 -0.5154 -0.3010
  589TMC3     C 8787   0.080   3.297   1.502 -0.0692 -0.2340  0.4109
  589TMC3     O 8788   4.711   3.269   1.445  0.1169 -0.1594  0.0067
  589TMC3     H 8789   0.353   3.360   1.541 -0.3493 -0.8499  0.8423
  589TMC3    H1 8790   0.086   3.051   1.426 -0.1692  0.3242 -0.9967
  589TMC3    H2 8791   0.506   3.032   1.336  2.0455  1.6699  0.3829
  589TMC3    C7 8792   0.274   2.908   1.292  0.1202  0.6472  0.1270
  589TMC3    C8 8793   0.559   3.275   1.452 -0.4418 -0.1821 -0.0026
  589TMC3    O1 8794   0.164   2.856   1.293  0.5389 -0.4333  0.2207
  589TMC3    O2 8795   0.572   3.361   1.534 -0.2951  0.8713  0.6013
  590MPD2     C 8796   4.442   1.249  16.743 -0.1115 -0.0388  0.5053
  590MPD2    C1 8797   4.440   1.239  16.607  0.0582  0.2979 -0.1294
  590MPD2    C2 8798   4.478   1.346  16.529 -0.4310 -0.5430 -0.3930
  590MPD2    C3 8799   4.497   1.474  16.580  0.1963 -0.3217  0.0434
  590MPD2    C4 8800   4.503   1.488  16.718 -0.8177 -0.0093 -0.3030
  590MPD2    C5 8801   4.475   1.376  16.790 -0.9244 -0.4411  0.4394
  590MPD2     H 8802   4.485   1.328  16.422 -0.4209 -2.2697 -0.1103
  590MPD2    H1 8803   4.524   1.582  16.768 -1.4602 -0.3953  0.6760
  590MPD2    H2 8804   4.429   1.165  16.810 -0.7422 -0.1370  0.2644
  590MPD2    H3 8805   4.487   1.371  16.898  0.2289 -1.4183  0.2625
  590MPD2     N 8806   4.527   1.577  16.487 -0.1393 -0.6151  0.6643
  590MPD2    H5 8807   4.527   1.555  16.388  1.2663  2.5721 -0.0540
  590MPD2    N1 8808   4.414   1.111  16.567 -0.2936  0.4804  0.2120
  590MPD2    H7 8809   4.432   1.036  16.632  1.6020  2.8392  2.4150
  591TMC3    C1 8810   4.567   1.805  16.426 -0.7593 -0.6894  0.2590
  591TMC3    C2 8811   4.635   1.764  16.313  0.5930 -0.1024  0.6020
  591TMC3    C3 8812   4.657   1.856  16.210  0.0528 -0.8694 -0.9149
  591TMC3    C4 8813   4.535   1.937  16.448  0.6609  0.0802 -0.3519
  591TMC3    C5 8814   4.562   2.025  16.343 -0.0242 -0.0648  0.2098
  591TMC3    C6 8815   4.610   1.986  16.217  0.2335  0.6056 -0.1260
  591TMC3     C 8816   4.516   1.709  16.523  0.4448 -0.1827 -0.1069
  591TMC3     O 8817   4.439   1.747  16.608  0.2430  0.1638  0.0703
  591TMC3     H 8818   4.671   1.662  16.302 -0.9376 -0.6267  0.3907
  591TMC3    H1 8819   4.497   1.969  16.544  1.0770 -0.0479 -0.1446
  591TMC3    H2 8820   4.604   2.054  16.133  2.7615  0.6783 -0.2482
  591TMC3    C7 8821   4.526   2.164  16.341  0.6947 -0.7549  0.4049
  591TMC3    C8 8822   0.002   1.807  16.096  0.4598  0.0705 -0.3789
  591TMC3    O1 8823   4.417   2.195  16.391  0.1233 -0.1765  0.5509
  591TMC3    O2 8824   0.044   1.694  16.091 -0.1031 -0.2038 -0.0853
  592MPD2     C 8825   0.347   3.431  11.576 -0.5944 -0.0022 -0.0966
  592MPD2    C1 8826   0.306   3.532  11.662 -0.0383 -0.0814 -0.0041
  592MPD2    C2 8827   0.172   3.539  11.702  0.1488  0.1289 -0.2872
  592MPD2    C3 8828   0.083   3.439  11.673 -0.5469  0.1051  0.3577
  592MPD2    C4 8829   0.124   3.336  11.589  0.0675  0.9794  0.0442
  592MPD2    C5 8830   0.255   3.328  11.555  0.6279  0.1763  0.1419
  592MPD2     H 8831   0.136   3.625  11.758 -0.8659  0.2888 -1.1996
  592MPD2    H1 8832   0.065   3.248  11.566 -0.2931  1.2928 -0.2302
  592MPD2    H2 8833   0.450   3.419  11.545 -0.3433  1.2683  0.2385
  592MPD2    H3 8834   0.288   3.239  11.503 -0.5852 -0.1859 -0.0116
  592MPD2     N 8835   4.694   3.435  11.742  0.0727  0.1367  0.1576
  592MPD2    H5 8836   4.663   3.518  11.791  2.0003  1.6283 -1.1232
  592MPD2    N1 8837   0.406   3.633  11.695 -0.8448 -0.6376 -0.0433
  592MPD2    H7 8838   0.494   3.620  11.644 -1.1787 -1.0021 -0.5314
  593TMC3    C1 8839   0.512   3.827  11.791 -0.0819 -0.8379 -0.4159
  593TMC3    C2 8840   0.504   3.925  11.883  0.8528 -0.4229 -0.3588
  593TMC3    C3 8841   0.606   4.014  11.889 -0.0940  0.0004 -0.1669
  593TMC3    C4 8842   0.611   3.814  11.697  0.0107  0.2415 -0.3990
  593TMC3    C5 8843   0.711   3.903  11.704  0.4462  0.9987 -0.1862
  593TMC3    C6 8844   0.714   4.002  11.801  0.6317 -0.6062 -0.6697
  593TMC3     C 8845   0.405   3.721  11.799 -1.1897  0.1016  0.1848
  593TMC3     O 8846   0.317   3.731  11.884 -0.1881  0.0883 -0.2528
  593TMC3     H 8847   0.428   3.919  11.960  1.1952  0.0590  0.0094
  593TMC3    H1 8848   0.613   3.729  11.629 -0.9563 -0.8701  0.9514
  593TMC3    H2 8849   0.779   4.086  11.782 -2.0237  1.1981 -1.8670
  593TMC3    C7 8850   0.792   3.929  11.582 -0.6592  0.0050  0.2563
  593TMC3    C8 8851   0.595   4.122  11.984 -0.7710  0.5848  0.5114
  593TMC3    O1 8852   0.869   4.025  11.591 -0.2343 -0.2751 -0.0666
  593TMC3    O2 8853   0.482   4.130  12.032  0.9481 -0.1978 -0.4850
  594MPD2     C 8854   4.276   2.251  14.183 -0.3006  0.0834 -0.4399
  594MPD2    C1 8855   4.167   2.323  14.237  0.2379 -0.2970  0.5766
  594MPD2    C2 8856   4.150   2.453  14.192 -0.2526  0.0243 -0.0211
  594MPD2    C3 8857   4.229   2.507  14.098 -0.1335  0.0310  0.0216
  594MPD2    C4 8858   4.327   2.428  14.040 -0.1738 -0.2717 -0.7836
  594MPD2    C5 8859   4.354   2.307  14.088 -1.0201  0.2211 -0.1245
  594MPD2     H 8860   4.073   2.515  14.237  0.2225  1.2897 -0.9609
  594MPD2    H1 8861   4.389   2.469  13.961  0.2052  0.2127 -0.2381
  594MPD2    H2 8862   4.279   2.146  14.209  0.0406  0.3179  0.4814
  594MPD2    H3 8863   4.433   2.243  14.049 -0.2331  0.4819  1.0104
  594MPD2     N 8864   4.210   2.643  14.059  0.1975  0.0128  0.0624
  594MPD2    H5 8865   4.132   2.685  14.109 -0.1879  0.1400 -0.6523
  594MPD2    N1 8866   4.063   2.261  14.318  0.1796 -0.1674  0.4018
  594MPD2    H7 8867   3.974   2.310  14.317 -1.0330 -2.3726  1.4243
  595TMC3    C1 8868   4.403   3.005  14.073  0.0915  0.2566  0.7837
  595TMC3    C2 8869   4.357   2.929  13.976  0.0055  0.0769  0.0695
  595TMC3    C3 8870   4.244   2.857  13.994 -0.3966  0.6688 -0.0900
  595TMC3    C4 8871   4.333   3.025  14.187  0.0756 -0.0886 -0.7312
  595TMC3    C5 8872   4.214   2.960  14.206  0.9176  0.2841 -0.9103
  595TMC3    C6 8873   4.170   2.875  14.108 -0.6709 -0.0526  0.0224
  595TMC3     C 8874   4.532   3.065  14.053  0.4967  0.5571 -0.8224
  595TMC3     O 8875   4.565   3.093  13.940  0.0862  0.1474 -0.4428
  595TMC3     H 8876   4.420   2.905  13.891  0.1377 -1.2372  0.5281
  595TMC3    H1 8877   4.377   3.095  14.256 -1.2517 -1.2038  1.2366
  595TMC3    H2 8878   4.067   2.843  14.110 -0.0368 -2.0001  1.4021
  595TMC3    C7 8879   4.136   2.962  14.332  0.4208 -0.4762 -0.3044
  595TMC3    C8 8880   4.289   2.722  13.980  0.3332 -0.1651  0.0635
  595TMC3    O1 8881   4.031   2.902  14.332  0.4498 -0.2686 -0.3507
  595TMC3    O2 8882   4.385   2.687  13.909  0.0774 -0.3818  0.1590
  596MPD2     C 8883   2.905   0.597  16.685 -0.4360 -0.1070  0.4706
  596MPD2    C1 8884   2.933   0.713  16.626  0.0346 -0.0000  0.2760
  596MPD2    C2 8885   3.004   0.712  16.507 -0.2658 -0.2277  0.5207
  596MPD2    C3 8886   3.034   0.596  16.441 -0.4242  0.2191  0.0562
  596MPD2    C4 8887   2.989   0.475  16.496 -0.2387  0.1538 -0.1239
  596MPD2    C5 8888   2.929   0.480  16.623 -0.1015 -0.3349 -0.0045
  596MPD2     H 8889   3.036   0.807  16.465 -0.1369  0.6599  2.6314
  596MPD2    H1 8890   2.994   0.381  16.442  3.2043 -0.6710  1.6205
  596MPD2    H2 8891   2.832   0.591  16.765 -0.7953 -1.2300  0.0472
  596MPD2    H3 8892   2.891   0.389  16.667 -1.1244 -0.2478 -0.7124
  596MPD2     N 8893   3.068   0.592  16.305 -0.0590 -0.3348 -0.1700
  596MPD2    H5 8894   3.064   0.496  16.273  0.5203 -0.2849 -0.3863
  596MPD2    N1 8895   2.905   0.844  16.671 -1.2215  0.5887 -0.1126
  596MPD2    H7 8896   2.938   0.912  16.603 -2.8112  1.0725 -0.4067
  597TMC3    C1 8897   2.819   1.025  16.790 -0.2578  0.8251  0.0973
  597TMC3    C2 8898   2.880   1.102  16.697 -0.5253  0.6023  0.0266
  597TMC3    C3 8899   2.858   1.238  16.702 -0.2855  0.0386 -0.3783
  597TMC3    C4 8900   2.731   1.080  16.879  0.0572 -0.7568  0.3786
  597TMC3    C5 8901   2.706   1.215  16.883  0.5063  0.7986 -0.0701
  597TMC3    C6 8902   2.770   1.299  16.795  0.5201 -0.0185  0.1717
  597TMC3     C 8903   2.826   0.881  16.776 -0.0936 -0.2218  0.0617
  597TMC3     O 8904   2.772   0.811  16.863 -0.2588  0.5400 -0.4003
  597TMC3     H 8905   2.959   1.072  16.628 -0.2947  0.5323  0.3227
  597TMC3    H1 8906   2.684   1.004  16.939  0.3221 -0.0505  1.4795
  597TMC3    H2 8907   2.752   1.405  16.788  1.8520  0.1776 -0.3305
  597TMC3    C7 8908   2.623   1.271  16.984  0.0944  0.0899 -0.6150
  597TMC3    C8 8909   2.932   1.334  16.617 -0.1379 -0.4571  0.5498
  597TMC3    O1 8910   2.538   1.203  17.039 -0.2145  0.2438  0.1547
  597TMC3    O2 8911   2.938   1.448  16.659  0.0682  0.2051 -0.1810
  598TMC3    C1 8912   0.934   1.939  15.659  0.1686  0.2572 -0.4217
  598TMC3    C2 8913   0.861   1.824  15.660 -0.2005 -0.0233  0.2289
  598TMC3    C3 8914   0.804   1.775  15.546 -0.2471 -0.1755  0.2735
  598TMC3    C4 8915   0.979   1.996  15.544 -0.9269 -0.1717  0.1234
  598TMC3    C5 8916   0.923   1.935  15.431 -1.0475 -0.3679 -0.0628
  598TMC3    C6 8917   0.844   1.825  15.426  0.3648  0.2643  0.7555
  598TMC3     C 8918   0.951   2.015  15.780 -0.0790 -0.3682  0.2602
  598TMC3     O 8919   1.025   2.107  15.780  0.2093  0.2447 -0.0323
  598TMC3     H 8920   0.816   1.781  15.748  1.0154  0.0156  0.8622
  598TMC3    H1 8921   1.035   2.088  15.552  1.5812 -1.6739  0.0546
  598TMC3    H2 8922   0.804   1.802  15.328  2.1096 -0.1817  0.1502
  598TMC3    C7 8923   0.955   2.002  15.304 -0.4668 -0.1236 -0.2153
  598TMC3    C8 8924   0.747   1.648  15.554 -0.0122 -0.8045 -0.2806
  598TMC3    O1 8925   0.939   1.941  15.198 -0.4803 -0.1833 -0.6190
  598TMC3    O2 8926   0.767   1.588  15.657  0.6365  0.3703 -0.3180
  599MPD2     C 8927   0.626   4.051  15.864 -0.0628  0.3928 -0.4788
  599MPD2    C1 8928   0.720   4.114  15.934 -0.1552  0.2935  0.1187
  599MPD2    C2 8929   0.680   4.195  16.038 -0.3057 -0.1291  0.4043
  599MPD2    C3 8930   0.545   4.228  16.057 -0.2899  0.4078 -1.3375
  599MPD2    C4 8931   0.454   4.175  15.969  0.0725 -0.4997 -0.0395
  599MPD2    C5 8932   0.499   4.080  15.879 -0.3046 -0.7819 -0.6312
  599MPD2     H 8933   0.755   4.258  16.084 -0.2884  1.5134 -1.8369
  599MPD2    H1 8934   0.347   4.194  15.977  0.0955 -1.3853  2.3311
  599MPD2    H2 8935   0.653   3.977  15.790  1.6820  0.3346  0.2238
  599MPD2    H3 8936   0.429   4.018  15.824  0.8778 -2.6941  0.0287
  599MPD2     N 8937   0.493   4.314  16.155  0.0350 -0.6998  0.8114
  599MPD2    H5 8938   0.393   4.328  16.160 -0.2080 -2.2171  0.1489
  599MPD2    N1 8939   0.852   4.068  15.909 -0.8873  0.1674  0.0090
  599MPD2    H7 8940   0.875   3.986  15.853 -1.3239 -0.2043  0.3784
  600TMC3    C1 8941   0.484   4.439  16.350 -0.2452  0.1948  0.0577
  600TMC3    C2 8942   0.388   4.361  16.401  0.4605  0.5539 -0.2461
  600TMC3    C3 8943   0.310   4.427  16.495 -0.7002  0.1353 -0.2012
  600TMC3    C4 8944   0.521   4.565  16.386  1.0255 -0.6623 -0.4217
  600TMC3    C5 8945   0.429   4.629  16.472 -0.1647 -0.8662  0.2847
  600TMC3    C6 8946   0.327   4.557  16.530  0.1373 -0.4680  0.2462
  600TMC3     C 8947   0.570   4.368  16.254  0.1417 -0.3975  0.3049
  600TMC3     O 8948   0.688   4.386  16.267  0.2677  0.3447  0.0837
  600TMC3     H 8949   0.405   4.255  16.417 -5.2238 -0.5690 -1.6219
  600TMC3    H1 8950   0.604   4.615  16.337  0.2687  0.4887 -0.5189
  600TMC3    H2 8951   0.272   4.606  16.610  2.8107 -0.6444  2.2013
  600TMC3    C7 8952   0.453   0.034  16.517 -0.1722  0.5880  0.9353
  600TMC3    C8 8953   0.268   4.339  16.600 -0.0242  0.5977 -0.6983
  600TMC3    O1 8954   0.393   0.072  16.608  0.4661 -0.0651  0.8118
  600TMC3    O2 8955   0.273   4.388  16.714  0.4837 -0.5155 -0.0028
  601MPD2     C 8956   2.559   2.595   0.680  0.5046 -0.1371 -0.7015
  601MPD2    C1 8957   2.506   2.551   0.559  0.0668  0.0573 -0.6244
  601MPD2    C2 8958   2.437   2.433   0.566 -0.3615  0.3532  0.0201
  601MPD2    C3 8959   2.405   2.372   0.683  0.1552 -0.2624 -0.7526
  601MPD2    C4 8960   2.465   2.404   0.798 -0.2986  0.4471 -0.4232
  601MPD2    C5 8961   2.540   2.520   0.795  0.1281 -0.1012  0.2498
  601MPD2     H 8962   2.404   2.402   0.468 -2.3346 -0.1560  0.8348
  601MPD2    H1 8963   2.446   2.350   0.890  0.1078 -0.2696 -0.7593
  601MPD2    H2 8964   2.620   2.684   0.689 -1.1622  0.8806  0.5760
  601MPD2    H3 8965   2.568   2.574   0.885 -1.0516 -2.0246  1.7662
  601MPD2     N 8966   2.309   2.270   0.696  0.6424  0.1567  0.2543
  601MPD2    H5 8967   2.286   2.238   0.790  1.8122  0.0452  0.5112
  601MPD2    N1 8968   2.521   2.609   0.429 -0.0256 -0.6104  0.3076
  601MPD2    H7 8969   2.497   2.542   0.356  1.1842  1.2732 -1.8313
  602TMC3    C1 8970   2.583   2.764   0.262  0.2539  0.4848  0.0761
  602TMC3    C2 8971   2.639   2.886   0.238 -0.1843  0.4704  1.2234
  602TMC3    C3 8972   2.673   2.917   0.108 -0.1705 -0.3485 -0.1710
  602TMC3    C4 8973   2.541   2.680   0.163  0.3134 -0.3577  0.3019
  602TMC3    C5 8974   2.558   2.724   0.040  0.3577  0.2660 -0.4600
  602TMC3    C6 8975   2.629   2.838   0.009 -0.6055  0.7309 -0.3097
  602TMC3     C 8976   2.567   2.738   0.403 -0.0404 -0.4303 -0.0523
  602TMC3     O 8977   2.601   2.817   0.485 -0.1047 -0.0722  0.0960
  602TMC3     H 8978   2.693   2.944   0.313  3.3358 -0.5281 -0.5416
  602TMC3    H1 8979   2.475   2.597   0.187 -0.5476 -0.2378 -1.6332
  602TMC3    H2 8980   2.659   2.861  17.646 -0.6802 -1.4168 -0.8252
  602TMC3    C7 8981   2.475   2.661  17.681 -0.3699  0.5634  0.2360
  602TMC3    C8 8982   2.713   3.057   0.080 -0.0165  0.2427 -0.2425
  602TMC3    O1 8983   2.427   2.548  17.696 -0.2776 -0.1369 -0.5259
  602TMC3    O2 8984   2.807   3.109   0.140 -0.2566 -0.5754  0.7652
  603TMC3    C1 8985   1.128   3.180  10.987  0.2085 -0.5037 -0.1421
  603TMC3    C2 8986   1.168   3.230  11.111  0.5375  0.1718 -0.0465
  603TMC3    C3 8987   1.287   3.302  11.107  0.3247  0.0221  0.3193
  603TMC3    C4 8988   1.192   3.205  10.870  0.3086 -0.5592  0.4225
  603TMC3    C5 8989   1.316   3.260  10.878 -0.0243  0.4404  0.3713
  603TMC3    C6 8990   1.357   3.327  10.991  0.2779 -0.1016  0.0642
  603TMC3     C 8991   1.012   3.094  10.986  0.4159 -0.5321 -0.5716
  603TMC3     O 8992   1.025   2.995  10.918  0.8817  0.6350 -0.6077
  603TMC3     H 8993   1.115   3.211  11.203  2.1216  0.6827  0.9614
  603TMC3    H1 8994   1.162   3.158  10.777 -0.1895 -0.2246  0.4136
  603TMC3    H2 8995   1.458   3.367  10.996  0.6249 -0.8732 -0.7354
  603TMC3    C7 8996   1.418   3.253  10.774 -0.5392  0.0099  0.3509
  603TMC3    C8 8997   1.329   3.330  11.242 -0.5531  0.1867 -0.6067
  603TMC3    O1 8998   1.536   3.256  10.809 -0.0688 -0.0077 -0.1399
  603TMC3    O2 8999   1.259   3.289  11.334 -0.0671  0.3787 -0.2738
  604MPD2     C 9000   1.554   1.837  16.115 -0.5159 -0.0534  0.7755
  604MPD2    C1 9001   1.670   1.874  16.179  0.0520 -0.0664 -0.2412
  604MPD2    C2 9002   1.786   1.882  16.107  0.2047 -0.5156 -0.1248
  604MPD2    C3 9003   1.794   1.867  15.973  0.1532  0.5050  0.3495
  604MPD2    C4 9004   1.676   1.835  15.906 -0.2025  0.5920 -0.5681
  604MPD2    C5 9005   1.561   1.815  15.975 -0.3023  0.2286  0.3502
  604MPD2     H 9006   1.878   1.905  16.161  0.5307  0.9562 -1.3148
  604MPD2    H1 9007   1.667   1.823  15.798 -1.2349 -1.1064 -0.2779
  604MPD2    H2 9008   1.460   1.820  16.167  0.1382 -1.1892  1.5842
  604MPD2    H3 9009   1.471   1.798  15.918  0.4411  0.2558 -0.8364
  604MPD2     N 9010   1.913   1.896  15.899  0.0368 -0.7900 -0.3555
  604MPD2    H5 9011   1.990   1.925  15.959  0.1829  1.1361 -1.4900
  604MPD2    N1 9012   1.663   1.881  16.319 -0.4941 -0.4005 -0.2082
  604MPD2    H7 9013   1.572   1.871  16.363 -0.6456  0.4153 -0.3317
  605TMC3    C1 9014   1.706   1.944  16.537  1.2179 -0.5296 -0.6695
  605TMC3    C2 9015   1.805   1.953  16.635  0.4921  0.1157 -0.3905
  605TMC3    C3 9016   1.793   2.040  16.740  0.3237  0.7438 -0.4294
  605TMC3    C4 9017   1.578   2.000  16.560 -0.7480  0.5364  0.3914
  605TMC3    C5 9018   1.564   2.070  16.680 -0.3135 -0.3907  0.8668
  605TMC3    C6 9019   1.668   2.099  16.766 -0.1777 -0.3802  0.3465
  605TMC3     C 9020   1.756   1.929  16.403  0.4361  0.0823 -0.2306
  605TMC3     O 9021   1.870   1.951  16.382  0.0121 -0.4045  0.1662
  605TMC3     H 9022   1.903   1.912  16.614  0.2894 -1.5652  1.8836
  605TMC3    H1 9023   1.501   2.008  16.484  0.5092  0.2118 -0.9348
  605TMC3    H2 9024   1.663   2.171  16.847 -1.8912  0.5710 -0.5993
  605TMC3    C7 9025   1.440   2.143  16.694  0.0084  0.9571 -0.7003
  605TMC3    C8 9026   1.914   2.110  16.788  0.2030 -0.2618 -0.1865
  605TMC3    O1 9027   1.443   2.264  16.703 -0.0403  0.4641 -0.5552
  605TMC3    O2 9028   2.020   2.052  16.753 -0.2289 -0.8304  0.8437
  606TMC3    C1 9029   2.997   0.654  17.382  0.0674  1.1240  0.4771
  606TMC3    C2 9030   3.058   0.656  17.503 -0.2045 -0.0607 -0.2094
  606TMC3    C3 9031   3.157   0.565  17.531 -0.3472  0.2116  0.1195
  606TMC3    C4 9032   3.016   0.552  17.296 -0.0213 -0.3394  0.5121
  606TMC3    C5 9033   3.118   0.466  17.328  0.3659 -0.6261  0.0820
  606TMC3    C6 9034   3.191   0.467  17.443 -0.5049 -0.2022 -0.2003
  606TMC3     C 9035   2.875   0.723  17.369 -0.0757  0.3373  0.4579
  606TMC3     O 9036   2.846   0.734  17.251 -0.1691 -0.4043 -0.4111
  606TMC3     H 9037   3.044   0.745  17.564 -0.5354  0.4973 -1.0995
  606TMC3    H1 9038   2.964   0.541  17.202  0.1056 -1.9336  0.6354
  606TMC3    H2 9039   3.252   0.378  17.450  0.8339  0.6057 -1.5077
  606TMC3    C7 9040   3.108   0.328  17.276  0.3535  0.3009  0.5434
  606TMC3    C8 9041   3.209   0.543  17.666 -0.4058  0.0722 -0.3712
  606TMC3    O1 9042   3.212   0.274  17.244 -0.2413 -0.0256 -0.1246
  606TMC3    O2 9043   3.287   0.447  17.677 -0.1541  0.0247  0.1719
  607MPD2     C 9044   0.767   3.292  11.576  1.2603 -0.0522 -0.3403
  607MPD2    C1 9045   0.823   3.409  11.625  0.3420  0.2702  0.4615
  607MPD2    C2 9046   0.782   3.450  11.750 -0.1650  0.2786 -0.6226
  607MPD2    C3 9047   0.682   3.379  11.819  0.1991  0.3473  0.1955
  607MPD2    C4 9048   0.621   3.272  11.769  0.5689  0.2431  0.2948
  607MPD2    C5 9049   0.669   3.230  11.646  0.1962  0.2195  0.1097
  607MPD2     H 9050   0.819   3.539  11.799  0.2372  0.3270 -1.0175
  607MPD2    H1 9051   0.541   3.221  11.822  0.0402  0.2174 -0.5372
  607MPD2    H2 9052   0.803   3.255  11.481 -1.0382 -0.3000 -1.1093
  607MPD2    H3 9053   0.622   3.142  11.604 -0.3352  0.1372  0.8864
  607MPD2     N 9054   0.645   3.431  11.947  0.1282  0.3606 -0.2491
  607MPD2    H5 9055   0.711   3.505  11.970 -1.6496  2.1105 -0.7091
  607MPD2    N1 9056   0.923   3.490  11.562 -0.0852  0.3262  0.4790
  607MPD2    H7 9057   0.962   3.560  11.624  0.9481 -0.6359  0.9291
  608TMC3    C1 9058   1.103   3.552  11.438 -0.3245 -0.2141  0.0575
  608TMC3    C2 9059   1.165   3.576  11.560  0.8788 -0.5467 -0.2504
  608TMC3    C3 9060   1.214   3.699  11.593 -0.5596 -0.3230  0.5160
  608TMC3    C4 9061   1.122   3.645  11.337  0.1971 -0.3795 -0.3443
  608TMC3    C5 9062   1.190   3.762  11.362  0.0370 -0.0921 -0.2257
  608TMC3    C6 9063   1.228   3.793  11.495 -0.1094 -0.0758  0.5800
  608TMC3     C 9064   0.983   3.466  11.443 -0.6198  0.0265  0.0431
  608TMC3     O 9065   0.945   3.410  11.338 -0.4848  0.3792 -0.0225
  608TMC3     H 9066   1.169   3.495  11.631 -1.4139  0.2329  0.7664
  608TMC3    H1 9067   1.087   3.617  11.238  0.2160  1.7011 -0.9404
  608TMC3    H2 9068   1.243   3.898  11.517  0.8414 -0.4164  1.5900
  608TMC3    C7 9069   1.266   3.804  11.250 -0.1982  0.1660 -0.7010
  608TMC3    C8 9070   1.137   3.749  11.705  0.3056  0.1826  0.0922
  608TMC3    O1 9071   1.216   3.770  11.146  0.1185  0.0605 -0.7038
  608TMC3    O2 9072   1.042   3.679  11.734 -0.0508  0.1632 -0.1318
  609TMC3    C1 9073   4.580   2.758   9.103  0.7489  0.0303  0.4469
  609TMC3    C2 9074   4.612   2.802   8.981 -0.2392  0.0377 -0.1814
  609TMC3    C3 9075   4.710   2.740   8.916  0.0245 -1.0071  0.5213
  609TMC3    C4 9076   4.652   2.656   9.171  0.4897  0.3299  0.3408
  609TMC3    C5 9077   0.012   2.595   9.097 -0.3891  0.1170  1.2903
  609TMC3    C6 9078   0.046   2.638   8.968  0.0296  1.2617  0.4261
  609TMC3     C 9079   4.468   2.821   9.170 -0.3496 -0.3720  0.3182
  609TMC3     O 9080   4.453   2.933   9.126 -0.2319 -0.4890 -0.1051
  609TMC3     H 9081   4.532   2.842   8.920 -0.9222 -1.3600 -0.1981
  609TMC3    H1 9082   4.623   2.615   9.267  1.6615 -0.0882  0.5129
  609TMC3    H2 9083   0.129   2.607   8.906  0.3089  2.3176  0.2699
  609TMC3    C7 9084   0.066   2.474   9.131  0.1017  0.8252 -0.2990
  609TMC3    C8 9085   0.040   2.824   8.811  0.5534 -0.0535  0.2006
  609TMC3    O1 9086   0.026   2.425   9.238  0.4507  0.2595 -0.2982
  609TMC3    O2 9087   0.122   2.766   8.742 -0.0507  0.3157  0.0165
  610TMC3    C1 9088   1.902   3.583  12.586  0.1455 -0.3453  0.0827
  610TMC3    C2 9089   1.865   3.574  12.455  1.0093  0.2937 -1.0832
  610TMC3    C3 9090   1.758   3.499  12.421 -0.4771 -0.6048 -0.3137
  610TMC3    C4 9091   1.836   3.511  12.684 -1.2374 -0.6668  0.3741
  610TMC3    C5 9092   1.720   3.439  12.643  0.6986  0.5990  0.1949
  610TMC3    C6 9093   1.680   3.435  12.510  0.8091  0.1169 -0.0588
  610TMC3     C 9094   2.029   3.642  12.615  0.1175  0.3406  0.4530
  610TMC3     O 9095   2.098   3.581  12.694 -0.2361  0.4417 -0.4875
  610TMC3     H 9096   1.926   3.628  12.383  0.7276  3.0272  0.7593
  610TMC3    H1 9097   1.864   3.536  12.785 -0.8959  0.3701  0.0270
  610TMC3    H2 9098   1.613   3.358  12.472  0.8754 -0.0924  0.2497
  610TMC3    C7 9099   1.639   3.376  12.744 -0.3467  1.0164 -0.1614
  610TMC3    C8 9100   1.781   3.416  12.303 -0.2888  0.3244 -0.1631
  610TMC3    O1 9101   1.684   3.338  12.854 -0.1509  0.0043  0.4008
  610TMC3    O2 9102   1.725   3.306  12.300  0.4160 -0.1874 -0.1082
  611MPD2     C 9103   0.434   3.284   9.915 -0.3844  0.1764  0.4787
  611MPD2    C1 9104   0.426   3.155   9.954  0.5515 -0.5029 -0.7011
  611MPD2    C2 9105   0.541   3.075   9.952 -0.3235 -0.6103  0.9482
  611MPD2    C3 9106   0.662   3.129   9.906 -0.4969 -0.1128  0.2580
  611MPD2    C4 9107   0.667   3.265   9.868 -0.3778 -0.4767  0.5588
  611MPD2    C5 9108   0.551   3.337   9.867 -0.4926  0.3139  0.7918
  611MPD2     H 9109   0.544   2.978  10.000  0.1438 -1.2877 -0.4434
  611MPD2    H1 9110   0.756   3.313   9.827 -1.0162  1.0188  0.9117
  611MPD2    H2 9111   0.345   3.346   9.915 -1.4995 -1.4340  0.1418
  611MPD2    H3 9112   0.544   3.441   9.836 -0.4364 -0.1131 -0.6283
  611MPD2     N 9113   0.791   3.068   9.921  0.0938  0.0834  0.1669
  611MPD2    H5 9114   0.872   3.125   9.900 -0.7186  0.9233 -0.7403
  611MPD2    N1 9115   0.308   3.118  10.028 -0.5581  0.0470  0.3249
  611MPD2    H7 9116   0.241   3.191  10.050 -0.0149  1.3261 -2.2037
  612TMC3    C1 9117   0.944   2.906   9.985  0.6504  0.2602 -0.1588
  612TMC3    C2 9118   1.034   2.989  10.055  0.0874  0.5723 -0.0155
  612TMC3    C3 9119   1.130   2.917  10.128  0.0261 -0.1392  0.4634
  612TMC3    C4 9120   0.949   2.767   9.989  0.1221 -0.2768 -0.1592
  612TMC3    C5 9121   1.035   2.708  10.081 -0.5966  0.7489  0.4504
  612TMC3    C6 9122   1.125   2.784  10.152 -1.1883 -0.9312  0.1717
  612TMC3     C 9123   0.812   2.948   9.982 -0.0423  0.0540 -0.0499
  612TMC3     O 9124   0.736   2.861  10.019 -0.0216 -0.0505 -0.0687
  612TMC3     H 9125   1.031   3.097  10.063  1.5138  0.6318 -0.2803
  612TMC3    H1 9126   0.873   2.700   9.951  0.5232 -0.8608  0.0832
  612TMC3    H2 9127   1.195   2.737  10.220  0.1581  1.4983  0.4755
  612TMC3    C7 9128   1.021   2.571  10.114 -0.6995 -0.3658 -0.0735
  612TMC3    C8 9129   1.193   2.985  10.238 -0.3460 -0.1470 -0.2366
  612TMC3    O1 9130   1.051   2.545  10.232  0.3608  0.2103  0.6909
  612TMC3    O2 9131   1.133   3.081  10.284 -0.1060  0.2191  0.0779
  613MPD2     C 9132   3.669   0.554  16.456 -0.6328  0.0222  0.4236
  613MPD2    C1 9133   3.779   0.505  16.393 -0.4838 -0.4502 -0.0835
  613MPD2    C2 9134   3.806   0.366  16.408 -0.7983  0.7541  0.7217
  613MPD2    C3 9135   3.725   0.279  16.484 -0.5340  0.7546 -0.7795
  613MPD2    C4 9136   3.609   0.334  16.534 -0.4212  0.0141  0.2425
  613MPD2    C5 9137   3.582   0.471  16.523  1.0228  0.3240 -0.0781
  613MPD2     H 9138   3.893   0.334  16.353 -1.0459  0.1067  0.7063
  613MPD2    H1 9139   3.538   0.270  16.585 -1.0561 -0.5850 -1.3832
  613MPD2    H2 9140   3.651   0.661  16.458 -4.2455 -0.5521 -1.7915
  613MPD2    H3 9141   3.499   0.516  16.577  0.8224  1.8278 -1.6596
  613MPD2     N 9142   3.731   0.138  16.487 -0.2243  0.1725 -0.1253
  613MPD2    H5 9143   3.651   0.085  16.519 -0.1304 -0.0047 -0.1811
  613MPD2    N1 9144   3.854   0.579  16.294  0.3672  0.4659 -0.2772
  613MPD2    H7 9145   3.935   0.531  16.255  0.1568  1.4175 -1.8476
  614TMC3    C1 9146   3.944   0.751  16.174  0.5057 -0.3427 -0.7601
  614TMC3    C2 9147   4.035   0.655  16.150  0.4894 -0.5702  0.1510
  614TMC3    C3 9148   4.036   0.601  16.024 -0.5353 -0.5772 -0.0660
  614TMC3    C4 9149   3.874   0.815  16.075 -0.2442 -0.1902  0.4996
  614TMC3    C5 9150   3.882   0.773  15.947  0.3843  0.0591 -0.1351
  614TMC3    C6 9151   3.961   0.659  15.924 -0.0640 -0.4000  0.2191
  614TMC3     C 9152   3.849   0.714  16.276  0.3636  0.0805  0.6240
  614TMC3     O 9153   3.782   0.795  16.338  1.2510  0.5447 -0.5498
  614TMC3     H 9154   4.095   0.609  16.228 -1.3329 -0.1207  1.8280
  614TMC3    H1 9155   3.810   0.898  16.102 -1.5125 -0.9585 -0.1344
  614TMC3    H2 9156   3.946   0.613  15.827  0.2604  0.5557 -0.2922
  614TMC3    C7 9157   3.828   0.857  15.847  0.6047 -0.3121 -0.1652
  614TMC3    C8 9158   4.071   0.459  16.028 -0.6715 -0.2949  0.1164
  614TMC3    O1 9159   3.823   0.976  15.883  0.5196  0.7977  0.5282
  614TMC3    O2 9160   4.037   0.414  16.137  0.7817 -0.4435  0.0346
  615MPD2     C 9161   3.767   1.885  16.235 -0.2714  0.1147 -0.7049
  615MPD2    C1 9162   3.636   1.936  16.233  0.2029  0.5111  0.6571
  615MPD2    C2 9163   3.540   1.867  16.161 -0.4672 -0.1163 -0.0543
  615MPD2    C3 9164   3.569   1.752  16.095 -0.6553  1.2534 -0.2302
  615MPD2    C4 9165   3.698   1.702  16.104 -0.0954 -0.5337  0.5205
  615MPD2    C5 9166   3.796   1.771  16.167 -0.9121 -0.0986  0.8050
  615MPD2     H 9167   3.443   1.913  16.168 -0.8430 -0.7309 -1.1965
  615MPD2    H1 9168   3.727   1.611  16.053 -1.1217 -0.5740  0.0148
  615MPD2    H2 9169   3.848   1.931  16.290 -1.3292  2.9834 -1.5603
  615MPD2    H3 9170   3.893   1.722  16.160 -0.1291  1.6345 -0.3788
  615MPD2     N 9171   3.481   1.672  16.015  0.0087 -0.1345 -0.1666
  615MPD2    H5 9172   3.522   1.599  15.958 -1.6791 -1.0353 -0.2168
  615MPD2    N1 9173   3.599   2.050  16.308 -0.1152 -0.5388 -0.6366
  615MPD2    H7 9174   3.500   2.071  16.311  0.2012  0.9584 -1.0030
  616TMC3    C1 9175   3.642   2.253  16.425  0.5970  0.3285 -0.1661
  616TMC3    C2 9176   3.708   2.372  16.410  0.0285  0.3141  0.0755
  616TMC3    C3 9177   3.651   2.482  16.469  0.3491  0.0393  0.3230
  616TMC3    C4 9178   3.520   2.241  16.489  0.5147  0.1187  0.1943
  616TMC3    C5 9179   3.470   2.357  16.551 -0.2927  0.2151  0.4062
  616TMC3    C6 9180   3.535   2.478  16.541 -0.1011  0.2289 -0.5905
  616TMC3     C 9181   3.694   2.133  16.363 -0.1841  0.3971 -0.3903
  616TMC3     O 9182   3.815   2.146  16.339  0.2213 -0.4257 -0.3820
  616TMC3     H 9183   3.793   2.363  16.344 -0.2392  1.8518 -0.4566
  616TMC3    H1 9184   3.483   2.141  16.506  0.1950  0.2339  0.1676
  616TMC3    H2 9185   3.498   2.572  16.580 -1.6103 -0.0361 -1.3891
  616TMC3    C7 9186   3.344   2.342  16.621  0.1104  0.5810  0.0504
  616TMC3    C8 9187   3.721   2.616  16.473 -0.2150 -0.3440 -1.1667
  616TMC3    O1 9188   3.282   2.236  16.603 -0.3865  0.2359  0.1950
  616TMC3    O2 9189   3.652   2.716  16.492 -0.0286 -0.2952  0.0487
  617MPD2     C 9190   1.583   0.517  13.672 -0.1844 -0.4761 -0.0571
  617MPD2    C1 9191   1.561   0.438  13.785  0.1550  0.1168 -0.3691
  617MPD2    C2 9192   1.437   0.428  13.840 -0.1601 -0.2909 -0.3356
  617MPD2    C3 9193   1.330   0.486  13.774 -0.8857  0.2224 -0.0108
  617MPD2    C4 9194   1.353   0.559  13.660 -0.2483 -0.0049  0.3849
  617MPD2    C5 9195   1.478   0.590  13.620 -0.9185 -0.7470 -0.8938
  617MPD2     H 9196   1.416   0.369  13.929  1.8563 -0.9442 -0.2899
  617MPD2    H1 9197   1.269   0.605  13.609  0.1628 -1.0809 -1.2652
  617MPD2    H2 9198   1.677   0.523  13.618  0.3365  1.4192  1.0754
  617MPD2    H3 9199   1.486   0.640  13.525  2.8135 -0.7967 -0.6304
  617MPD2     N 9200   1.189   0.469  13.805 -0.1899 -0.4913  0.0587
  617MPD2    H5 9201   1.116   0.504  13.744 -1.1466 -2.1424  0.2464
  617MPD2    N1 9202   1.675   0.367  13.835 -0.1438  0.4788 -0.8297
  617MPD2    H7 9203   1.764   0.364  13.786  0.0284  1.7671 -0.5965
  618TMC3    C1 9204   1.797   0.216  13.968  0.1410 -0.4412 -0.8105
  618TMC3    C2 9205   1.889   0.223  14.064  0.3261  0.2524  0.4740
  618TMC3    C3 9206   2.009   0.152  14.048  0.1011  0.2724 -0.1880
  618TMC3    C4 9207   1.796   0.115  13.881 -0.2475 -0.3257  0.1492
  618TMC3    C5 9208   1.904   0.034  13.874 -0.4466  0.1397  0.2255
  618TMC3    C6 9209   2.016   0.056  13.955  0.1454  0.4406  0.1484
  618TMC3     C 9210   1.689   0.311  13.964 -0.6558  0.0939  0.2188
  618TMC3     O 9211   1.625   0.316  14.073  0.3413  0.3610  0.3241
  618TMC3     H 9212   1.874   0.297  14.142 -0.2943  1.9262 -1.2316
  618TMC3    H1 9213   1.712   0.100  13.815 -0.2574 -1.3796  0.3861
  618TMC3    H2 9214   2.106   4.733  13.940 -1.5821 -1.9099 -1.2012
  618TMC3    C7 9215   1.899   4.667  13.770 -0.0937 -0.8763  0.3219
  618TMC3    C8 9216   2.127   0.190  14.123 -0.3337 -0.3540  0.0737
  618TMC3    O1 9217   1.800   4.671  13.704 -0.4046 -0.0798  0.0809
  618TMC3    O2 9218   2.114   0.270  14.215 -0.7798 -0.4087 -0.2710
  619MPD2     C 9219   3.114   1.411  13.726 -0.6095  0.0007 -0.2184
  619MPD2    C1 9220   3.060   1.527  13.673  0.2180 -0.3007 -0.4419
  619MPD2    C2 9221   2.935   1.563  13.716 -0.4270  0.3421  0.6826
  619MPD2    C3 9222   2.857   1.474  13.792  0.2384  0.0884  0.6997
  619MPD2    C4 9223   2.910   1.359  13.843  0.1202 -0.0227  0.0031
  619MPD2    C5 9224   3.045   1.333  13.812  0.2536  0.1624 -0.4676
  619MPD2     H 9225   2.887   1.651  13.676  0.2550  0.0710 -0.7291
  619MPD2    H1 9226   2.860   1.296  13.916 -0.2780  0.0534 -0.2080
  619MPD2    H2 9227   3.213   1.380  13.694 -0.9593 -1.2434 -0.0947
  619MPD2    H3 9228   3.096   1.256  13.869 -1.0421  0.0464  0.5265
  619MPD2     N 9229   2.728   1.498  13.829  0.0518 -0.2261  0.7479
  619MPD2    H5 9230   2.691   1.429  13.893  1.4715  0.2192  2.0353
  619MPD2    N1 9231   3.113   1.602  13.563 -0.3848 -0.0682 -0.2649
  619MPD2    H7 9232   3.064   1.688  13.541  1.0939  1.0057  0.5992
  620TMC3    C1 9233   3.227   1.667  13.372  0.4613 -0.0451  0.1547
  620TMC3    C2 9234   3.111   1.730  13.323  0.2756  0.1038  0.3255
  620TMC3    C3 9235   3.130   1.813  13.218  0.0373  0.6209  0.0797
  620TMC3    C4 9236   3.348   1.692  13.307 -0.4930  0.5578  0.1303
  620TMC3    C5 9237   3.361   1.777  13.207  0.0993 -0.0148  0.1607
  620TMC3    C6 9238   3.253   1.834  13.154  0.4757 -0.2753  0.0339
  620TMC3     C 9239   3.226   1.578  13.487 -0.5309 -0.1043  0.2718
  620TMC3     O 9240   3.316   1.494  13.511  0.5707 -0.0823 -0.3379
  620TMC3     H 9241   3.013   1.715  13.367 -0.9226  0.1574 -2.3065
  620TMC3    H1 9242   3.427   1.635  13.354 -0.7939  0.0607  0.0316
  620TMC3    H2 9243   3.267   1.889  13.062 -1.1276 -2.4055 -1.4718
  620TMC3    C7 9244   3.481   1.855  13.206 -0.3824  0.1331  0.6006
  620TMC3    C8 9245   3.072   1.948  13.245  0.2723  0.0891 -0.1651
  620TMC3    O1 9246   3.476   1.953  13.136 -0.5676  0.5080  0.4181
  620TMC3    O2 9247   2.980   1.945  13.333 -0.0672 -0.1057  0.3171
  621MPD2     C 9248   3.479   1.161  10.268  0.0475 -0.0212 -0.2017
  621MPD2    C1 9249   3.526   1.161  10.141 -0.7751 -0.2052  0.2991
  621MPD2    C2 9250   3.592   1.276  10.100 -0.6961 -0.5705  0.2863
  621MPD2    C3 9251   3.623   1.383  10.180  0.2566  0.6558 -0.2097
  621MPD2    C4 9252   3.580   1.378  10.310  0.1772  0.8618  0.3907
  621MPD2    C5 9253   3.507   1.266  10.352 -0.2096  0.0463  0.1172
  621MPD2     H 9254   3.611   1.283   9.993 -2.9637  1.6887  0.0152
  621MPD2    H1 9255   3.591   1.457  10.384 -1.5632  0.6076  0.9339
  621MPD2    H2 9256   3.425   1.075  10.308 -0.0467  0.7634  1.3418
  621MPD2    H3 9257   3.479   1.267  10.456  1.4516  1.2534  0.5533
  621MPD2     N 9258   3.697   1.486  10.129 -0.1023  0.5875  0.3568
  621MPD2    H5 9259   3.736   1.480  10.036 -0.5151 -1.1980  0.2995
  621MPD2    N1 9260   3.503   1.062  10.048 -0.2671 -0.4021 -0.7213
  621MPD2    H7 9261   3.519   1.088   9.951 -2.9760 -0.6166 -1.2198
  622TMC3    C1 9262   3.428   0.858   9.966  0.3035  0.1472  0.2931
  622TMC3    C2 9263   3.320   0.777   9.999  0.1965  1.2330 -0.2171
  622TMC3    C3 9264   3.215   0.770   9.910 -0.3147 -0.1207 -0.0234
  622TMC3    C4 9265   3.425   0.910   9.837 -0.0340  0.6557  0.3815
  622TMC3    C5 9266   3.329   0.883   9.749 -0.7154  0.2007 -0.3260
  622TMC3    C6 9267   3.228   0.802   9.778 -0.0938 -0.1394 -0.5060
  622TMC3     C 9268   3.457   0.941  10.081  0.5994  0.8887 -0.3710
  622TMC3     O 9269   3.444   0.888  10.193 -0.2757 -0.2173  0.0303
  622TMC3     H 9270   3.300   0.738  10.098 -3.1976 -0.1440 -1.4343
  622TMC3    H1 9271   3.511   0.966   9.801  0.1078  0.6453  0.7070
  622TMC3    H2 9272   3.143   0.785   9.713 -0.6610 -1.5910  0.6096
  622TMC3    C7 9273   3.331   0.931   9.606  0.0945 -0.0373 -0.5324
  622TMC3    C8 9274   3.089   0.703   9.960  0.4922  0.5260 -0.2688
  622TMC3    O1 9275   3.278   0.864   9.518  0.3495  0.2609 -0.3971
  622TMC3    O2 9276   3.042   0.628   9.880 -0.3010  0.1984 -0.2189
  623MPD2     C 9277   2.317   2.512  15.841 -0.9226 -0.7819 -0.2912
  623MPD2    C1 9278   2.227   2.468  15.938  0.3441  0.2565 -0.9763
  623MPD2    C2 9279   2.263   2.476  16.072 -0.2890  0.5019 -0.3433
  623MPD2    C3 9280   2.388   2.536  16.115 -0.0015  0.0299 -0.3229
  623MPD2    C4 9281   2.467   2.581  16.010 -0.2338 -0.5011  0.3304
  623MPD2    C5 9282   2.440   2.566  15.879 -0.3029  0.1869  0.0302
  623MPD2     H 9283   2.198   2.447  16.154 -0.4641  1.8864  0.0074
  623MPD2    H1 9284   2.566   2.624  16.027 -0.2104 -0.2036 -0.5508
  623MPD2    H2 9285   2.300   2.493  15.736  0.1102 -0.0545 -0.5880
  623MPD2    H3 9286   2.520   2.580  15.807  0.5880 -0.8903  0.8072
  623MPD2     N 9287   2.421   2.529  16.255 -0.2327 -0.1894 -0.0290
  623MPD2    H5 9288   2.364   2.472  16.318  1.8399 -1.7067  0.4842
  623MPD2    N1 9289   2.101   2.426  15.891 -0.0367  0.6266  0.5854
  623MPD2    H7 9290   2.086   2.426  15.791  0.6745  1.1448  0.4825
  624TMC3    C1 9291   2.703   2.319  16.491  0.6858 -0.4071  0.2339
  624TMC3    C2 9292   2.604   2.285  16.578  0.6593 -0.2780 -0.7676
  624TMC3    C3 9293   2.510   2.375  16.606  0.6868  0.2763 -0.1457
  624TMC3    C4 9294   2.698   2.436  16.419 -0.5871 -0.2626  0.2012
  624TMC3    C5 9295   2.583   2.513  16.430 -0.3818 -0.1542 -0.5328
  624TMC3    C6 9296   2.488   2.482  16.524  0.1638 -0.1361 -0.3061
  624TMC3     C 9297   2.809   2.228  16.459 -0.5645 -0.0816  0.7781
  624TMC3     O 9298   2.910   2.279  16.415 -0.3095 -0.2103  0.1997
  624TMC3     H 9299   2.604   2.191  16.632  1.4811  0.9397  1.3579
  624TMC3    H1 9300   2.759   2.439  16.329  1.4880 -1.0777  1.5840
  624TMC3    H2 9301   2.400   2.543  16.535  0.8078  0.8977 -0.9169
  624TMC3    C7 9302   2.543   2.575  16.303  0.0204  0.2292  0.7529
  624TMC3    C8 9303   2.395   2.322  16.675 -0.2760  0.5895 -0.2090
  624TMC3    O1 9304   2.636   2.632  16.245  1.0604 -0.5216  0.0477
  624TMC3    O2 9305   2.380   2.200  16.694  0.8404 -0.8690  0.1716
  625MPD2     C 9306   2.743   3.357   0.722  1.3648  0.2388 -1.2580
  625MPD2    C1 9307   2.789   3.480   0.672 -0.3800 -0.4332  0.1045
  625MPD2    C2 9308   2.923   3.508   0.689 -0.9556  0.1742 -0.0003
  625MPD2    C3 9309   3.013   3.423   0.751 -0.1240 -0.2351 -0.0880
  625MPD2    C4 9310   2.970   3.300   0.790 -0.4167  0.0563  0.0970
  625MPD2    C5 9311   2.839   3.272   0.773  0.1297  0.2400 -1.0019
  625MPD2     H 9312   2.945   3.610   0.660  2.7549 -0.4582  0.5410
  625MPD2    H1 9313   3.036   3.219   0.816 -0.0870 -0.5743 -2.6343
  625MPD2    H2 9314   2.643   3.315   0.717  0.9419  1.1687 -0.5996
  625MPD2    H3 9315   2.809   3.169   0.786  1.9708 -0.1938 -0.2589
  625MPD2     N 9316   3.144   3.466   0.770  0.3223 -0.2855 -0.3402
  625MPD2    H5 9317   3.171   3.558   0.738  1.7385 -0.3578  0.6125
  625MPD2    N1 9318   2.703   3.577   0.616  0.6743 -0.5674  0.2318
  625MPD2    H7 9319   2.739   3.670   0.597 -1.2529  0.6435  2.5478
  626TMC3    C1 9320   2.516   3.684   0.519 -0.3202 -0.0721 -0.6597
  626TMC3    C2 9321   2.430   3.676   0.411 -0.2836  0.0500  0.3090
  626TMC3    C3 9322   2.336   3.772   0.404  0.4309  0.2792  0.3335
  626TMC3    C4 9323   2.506   3.786   0.612 -0.2469 -0.4920 -0.0443
  626TMC3    C5 9324   2.411   3.889   0.593  0.1850  0.2311  0.3406
  626TMC3    C6 9325   2.323   3.880   0.489  0.0006  0.0449  0.1180
  626TMC3     C 9326   2.571   3.560   0.581 -0.4940 -0.2748  0.2255
  626TMC3     O 9327   2.500   3.460   0.577 -0.0217 -0.2386 -0.4284
  626TMC3     H 9328   2.423   3.593   0.342 -2.6189  1.2720 -0.9436
  626TMC3    H1 9329   2.585   3.790   0.686  0.1104 -2.3751 -0.3242
  626TMC3    H2 9330   2.248   3.953   0.461  1.5897  1.6616  0.0422
  626TMC3    C7 9331   2.377   3.983   0.699  0.5903 -0.1052 -0.6129
  626TMC3    C8 9332   2.267   3.775   0.269  0.2740  0.0187 -0.0544
  626TMC3    O1 9333   2.463   4.040   0.765 -0.4968 -0.4449  0.4238
  626TMC3    O2 9334   2.316   3.711   0.174  0.4486 -0.0567  0.0319
  627MPD2     C 9335   1.059   3.969  14.247  1.0851 -0.1855 -0.1175
  627MPD2    C1 9336   1.088   3.938  14.376  0.9034 -0.0396 -0.4741
  627MPD2    C2 9337   1.037   3.818  14.429 -0.1092  0.6071  0.0086
  627MPD2    C3 9338   0.948   3.741  14.351 -0.0833 -0.5139  0.1747
  627MPD2    C4 9339   0.925   3.779  14.218  0.5404  0.0261 -0.2634
  627MPD2    C5 9340   0.983   3.889  14.165 -0.6044  0.4824 -0.2468
  627MPD2     H 9341   1.059   3.791  14.531  2.2146 -1.5361 -1.0356
  627MPD2    H1 9342   0.871   3.721  14.144 -1.2326 -0.8457  1.6856
  627MPD2    H2 9343   1.101   4.058  14.202 -1.1996  0.5364 -0.8406
  627MPD2    H3 9344   0.966   3.911  14.060 -1.2362  1.5137  0.0646
  627MPD2     N 9345   0.894   3.626  14.416  0.7550 -0.2513 -0.3563
  627MPD2    H5 9346   0.920   3.610  14.513  0.4252  1.2109 -0.0133
  627MPD2    N1 9347   1.170   4.015  14.461  0.1477  0.9285 -0.2193
  627MPD2    H7 9348   1.199   3.966  14.545 -0.6695  1.8773  0.6067
  628TMC3    C1 9349   1.279   4.196  14.545 -0.1787  0.0605 -0.1253
  628TMC3    C2 9350   1.379   4.124  14.591 -0.3531  0.3487 -0.4046
  628TMC3    C3 9351   1.484   4.191  14.648 -0.1715 -0.3579  0.1024
  628TMC3    C4 9352   1.269   4.334  14.561 -0.2972 -0.5587 -0.0678
  628TMC3    C5 9353   1.380   4.395  14.609  0.4399  0.3190 -0.3344
  628TMC3    C6 9354   1.492   4.326  14.649 -0.0005  0.0533 -0.5840
  628TMC3     C 9355   1.202   4.141  14.439 -0.7576  0.2695 -1.1064
  628TMC3     O 9356   1.160   4.217  14.351 -0.3585  0.2894  0.2773
  628TMC3     H 9357   1.382   4.017  14.571  0.6958  0.4458 -0.7414
  628TMC3    H1 9358   1.188   4.395  14.524  1.5102  1.7868 -0.1950
  628TMC3    H2 9359   1.563   4.368  14.719 -2.6480  1.4075  1.3164
  628TMC3    C7 9360   1.422   4.522  14.550 -0.4762 -0.0762  0.7295
  628TMC3    C8 9361   1.598   4.120  14.700 -0.1463 -0.0579  0.5670
  628TMC3    O1 9362   1.540   4.549  14.542  0.2156  0.0156  0.3346
  628TMC3    O2 9363   1.688   4.194  14.718  0.0139 -1.2329 -0.3810
  629MPD2     C 9364   4.166   2.884  16.469  0.0983  0.6658  0.8084
  629MPD2    C1 9365   4.191   2.750  16.456  0.2490 -0.5301 -1.1002
  629MPD2    C2 9366   4.085   2.658  16.452 -0.5204  0.2436 -0.4089
  629MPD2    C3 9367   3.954   2.703  16.457  0.5707 -0.4596 -0.0529
  629MPD2    C4 9368   3.931   2.840  16.480 -0.2683  0.2682  0.1357
  629MPD2    C5 9369   4.040   2.927  16.480  0.2505  0.2519  0.4420
  629MPD2     H 9370   4.107   2.552  16.447  1.5956  0.7520 -1.7762
  629MPD2    H1 9371   3.834   2.885  16.499 -1.8964 -2.7466 -0.9928
  629MPD2    H2 9372   4.247   2.955  16.482 -1.4826  2.4632  0.8144
  629MPD2    H3 9373   4.028   3.028  16.515 -1.5905 -0.1104  0.8581
  629MPD2     N 9374   3.859   2.605  16.458  0.3232  0.1004  0.3979
  629MPD2    H5 9375   3.895   2.510  16.466 -1.1610 -0.7300 -2.6416
  629MPD2    N1 9376   4.327   2.712  16.474  0.3017  0.5600  0.1563
  629MPD2    H7 9377   4.391   2.790  16.478  0.2246  0.7870 -2.6687
  630TMC3    C1 9378   4.520   2.588  16.525 -0.7995 -0.2559  0.4320
  630TMC3    C2 9379   4.599   2.664  16.448 -0.9458  0.0045  0.3112
  630TMC3    C3 9380   4.735   2.657  16.467  0.3789  0.3058  0.5226
  630TMC3    C4 9381   4.564   2.506  16.622  0.8128 -0.2899  0.3895
  630TMC3    C5 9382   4.691   2.526  16.662  0.2832  0.0123  0.1854
  630TMC3    C6 9383   0.045   2.598  16.587  0.1284  0.4730  0.1760
  630TMC3     C 9384   4.375   2.590  16.512  0.2542 -0.3668 -0.3247
  630TMC3     O 9385   4.304   2.494  16.547  0.4406 -0.2092 -0.2049
  630TMC3     H 9386   4.559   2.726  16.368 -0.8401 -1.7379 -1.0728
  630TMC3    H1 9387   4.494   2.466  16.695  1.1893 -0.4443  0.6668
  630TMC3    H2 9388   0.153   2.596  16.599 -0.0408 -0.9451  1.4750
  630TMC3    C7 9389   4.716   2.513  16.804 -0.1740 -0.5498 -0.8512
  630TMC3    C8 9390   0.086   2.756  16.403  0.6084 -0.0617  0.4020
  630TMC3    O1 9391   4.639   2.432  16.853  0.3601  0.0973  0.2973
  630TMC3    O2 9392   0.195   2.783  16.457 -0.2286  0.1286 -0.0286
  631MPD2     C 9393   2.736   2.241  15.731 -0.2990 -0.5090  0.0101
  631MPD2    C1 9394   2.873   2.276  15.722  0.4440  0.5082 -0.0913
  631MPD2    C2 9395   2.961   2.168  15.735  0.1850  0.2120  0.1694
  631MPD2    C3 9396   2.921   2.036  15.747  0.0028  0.2972  0.2547
  631MPD2    C4 9397   2.783   2.005  15.750  0.2166  0.6033 -0.2067
  631MPD2    C5 9398   2.693   2.109  15.747  0.1294 -1.1825 -0.3862
  631MPD2     H 9399   3.067   2.190  15.740  0.1860  0.4441 -0.7978
  631MPD2    H1 9400   2.740   1.907  15.762 -1.4540  1.1615 -1.7697
  631MPD2    H2 9401   2.656   2.312  15.710 -1.3728 -1.2628  1.4905
  631MPD2    H3 9402   2.590   2.090  15.772 -0.4120  1.9819 -0.1443
  631MPD2     N 9403   3.008   1.927  15.749 -0.1175  1.0291 -0.0096
  631MPD2    H5 9404   3.107   1.947  15.740  0.4454 -1.7025  0.3449
  631MPD2    N1 9405   2.912   2.411  15.706 -0.1864  0.8461  0.1012
  631MPD2    H7 9406   2.840   2.463  15.657 -2.6670 -2.1633  0.5838
  632TMC3    C1 9407   3.048   2.604  15.700  0.8815  0.2542 -0.0447
  632TMC3    C2 9408   2.934   2.668  15.728  0.1217 -0.0197 -1.0977
  632TMC3    C3 9409   2.898   2.787  15.663  0.0923  0.3665 -0.4157
  632TMC3    C4 9410   3.137   2.653  15.603  0.5603 -0.3483  0.3369
  632TMC3    C5 9411   3.093   2.765  15.531  0.1070  0.7161 -0.4399
  632TMC3    C6 9412   2.978   2.842  15.562  0.0721 -0.0260  0.1933
  632TMC3     C 9413   3.043   2.462  15.713 -0.2890 -0.6766 -0.5695
  632TMC3     O 9414   3.147   2.398  15.715 -0.8333 -0.4938  0.0432
  632TMC3     H 9415   2.883   2.634  15.817  3.2993 -0.1215  0.6755
  632TMC3    H1 9416   3.219   2.591  15.569  0.2811 -0.1992 -0.6008
  632TMC3    H2 9417   2.964   2.934  15.507  1.4509  0.1051  0.0651
  632TMC3    C7 9418   3.130   2.766  15.385 -0.2726  0.3428  0.6215
  632TMC3    C8 9419   2.756   2.809  15.665 -0.3815  0.3216  0.7951
  632TMC3    O1 9420   3.037   2.800  15.309  0.6789 -0.3494  0.6001
  632TMC3    O2 9421   2.696   2.770  15.765  0.6944  0.0093  0.0055
  633MPD2     C 9422   2.258   0.594  17.341  0.0877  0.4682  0.5188
  633MPD2    C1 9423   2.252   0.543  17.209 -0.4806 -0.1179  0.2462
  633MPD2    C2 9424   2.232   0.405  17.190  0.0537  0.1628 -0.2374
  633MPD2    C3 9425   2.216   0.322  17.302 -0.5416 -0.2602 -0.1595
  633MPD2    C4 9426   2.227   0.373  17.424 -0.0099 -0.0007  0.9837
  633MPD2    C5 9427   2.250   0.509  17.450 -0.2280  0.7309  0.5007
  633MPD2     H 9428   2.229   0.364  17.090  0.5900  0.1911 -0.2667
  633MPD2    H1 9429   2.222   0.315  17.515  1.4784 -0.5367  0.7158
  633MPD2    H2 9430   2.271   0.699  17.365 -1.3717  0.9101 -0.5900
  633MPD2    H3 9431   2.262   0.546  17.551  3.4550 -2.5073  1.2896
  633MPD2     N 9432   2.207   0.182  17.275 -0.8715 -1.1530  0.5261
  633MPD2    H5 9433   2.247   0.118  17.342 -0.6816 -2.3129 -0.6924
  633MPD2    N1 9434   2.279   0.609  17.090 -0.0320 -1.1208  0.2204
  633MPD2    H7 9435   2.289   0.558  17.003 -1.1568 -3.2099  1.3007
  634TMC3    C1 9436   2.371   0.763  16.943  0.0043 -0.9911 -0.5287
  634TMC3    C2 9437   2.418   0.654  16.873 -0.1868 -0.1493 -0.3953
  634TMC3    C3 9438   2.465   0.678  16.746 -0.1474 -0.2519 -0.0444
  634TMC3    C4 9439   2.380   0.894  16.904  1.3031 -0.5046  0.1379
  634TMC3    C5 9440   2.429   0.910  16.775 -0.0938 -0.1385  0.4625
  634TMC3    C6 9441   2.467   0.804  16.696  1.0215  0.2436 -0.0035
  634TMC3     C 9442   2.318   0.742  17.079 -0.0775 -0.3900  0.6644
  634TMC3     O 9443   2.299   0.830  17.166  0.3917  0.6631  0.1784
  634TMC3     H 9444   2.436   0.556  16.915  2.9551 -0.0872 -1.5705
  634TMC3    H1 9445   2.327   0.969  16.962  1.6831 -0.3600  0.2942
  634TMC3    H2 9446   2.494   0.828  16.594  1.0619  0.0813 -0.0313
  634TMC3    C7 9447   2.365   1.025  16.708 -0.2200 -0.6823 -0.3581
  634TMC3    C8 9448   2.498   0.571  16.659  0.0911 -0.5793 -0.0923
  634TMC3    O1 9449   2.386   1.026  16.585  0.6190  0.7189  0.0291
  634TMC3    O2 9450   2.450   0.464  16.686 -0.3855  0.2238 -0.0558
  635TMC3    C1 9451   2.171   1.079   0.394  0.1794  0.6717 -0.0365
  635TMC3    C2 9452   2.265   0.988   0.334  0.3890 -0.5338  1.0204
  635TMC3    C3 9453   2.234   0.858   0.343  0.0568 -0.8518  0.4654
  635TMC3    C4 9454   2.059   1.034   0.459  0.1395 -0.0702  0.1741
  635TMC3    C5 9455   2.050   0.898   0.476  0.1561 -0.0243 -0.3860
  635TMC3    C6 9456   2.135   0.809   0.418 -0.1565 -0.1383 -0.2975
  635TMC3     C 9457   2.213   1.213   0.429 -0.0716  0.1517 -0.4461
  635TMC3     O 9458   2.148   1.274   0.516  0.2586  0.1183  0.2464
  635TMC3     H 9459   2.348   1.023   0.273 -1.6440  0.1947 -1.3500
  635TMC3    H1 9460   1.992   1.099   0.513  2.5553  2.2247  0.4233
  635TMC3    H2 9461   2.130   0.704   0.444  0.9705 -0.1840 -0.2700
  635TMC3    C7 9462   1.948   0.834   0.556 -0.1217 -0.1215 -0.8757
  635TMC3    C8 9463   2.311   0.758   0.264  0.4127 -0.3584  0.0424
  635TMC3    O1 9464   1.967   0.722   0.585  0.5926  0.3333 -0.3252
  635TMC3    O2 9465   2.425   0.791   0.236 -0.2217  0.1478  0.0911
  636MPD2     C 9466   3.517   0.365  15.864  0.3413  0.1550 -0.3918
  636MPD2    C1 9467   3.535   0.385  15.997  0.2223 -0.4613 -0.7504
  636MPD2    C2 9468   3.568   0.284  16.088  0.3062  0.3337  0.2918
  636MPD2    C3 9469   3.603   0.160  16.038  0.2313  0.8010 -0.4224
  636MPD2    C4 9470   3.582   0.139  15.904  0.2598 -0.9478  0.9469
  636MPD2    C5 9471   3.544   0.235  15.816 -0.3529  0.0501  0.3805
  636MPD2     H 9472   3.575   0.308  16.194 -0.3674  0.5712  0.2818
  636MPD2    H1 9473   3.595   0.039  15.865 -0.6022 -1.2807  1.5080
  636MPD2    H2 9474   3.472   0.437  15.797  0.8640  0.5843 -0.2763
  636MPD2    H3 9475   3.531   0.219  15.709  1.9259 -0.1935  0.1451
  636MPD2     N 9476   3.647   0.063  16.125 -0.2003 -0.2883 -0.5994
  636MPD2    H5 9477   3.642   0.091  16.223 -0.2663 -1.1883 -0.3445
  636MPD2    N1 9478   3.536   0.514  16.059  0.2259 -0.1528 -0.5949
  636MPD2    H7 9479   3.522   0.512  16.160 -1.4527  1.5570 -0.7966
  637TMC3    C1 9480   3.763   4.601  16.203  1.0876 -0.0646 -0.6375
  637TMC3    C2 9481   3.734   4.667  16.319 -0.8911 -0.6703  0.0099
  637TMC3    C3 9482   3.841   4.689  16.404  0.8896  0.5886  0.3808
  637TMC3    C4 9483   3.884   4.564  16.165 -0.0038  0.1147 -0.0030
  637TMC3    C5 9484   3.988   4.585  16.249 -0.5570  0.0359 -0.0259
  637TMC3    C6 9485   3.961   4.629  16.376  0.2275 -0.5837 -0.0936
  637TMC3     C 9486   3.691   4.666  16.096 -0.4033  0.7387 -1.1956
  637TMC3     O 9487   3.695   4.612  15.986 -0.6337  0.1846  0.6760
  637TMC3     H 9488   3.634   4.703  16.341 -1.0043  0.0914 -1.7764
  637TMC3    H1 9489   3.904   4.514  16.071  1.1711 -1.5247  1.1184
  637TMC3    H2 9490   4.046   4.644  16.441  0.6028  0.2095 -0.7615
  637TMC3    C7 9491   4.091   4.669  16.188  0.5916  0.0251 -0.7051
  637TMC3    C8 9492   3.849   0.086  16.454 -0.0864  0.0998  0.4651
  637TMC3    O1 9493   4.140   0.028  16.255 -1.0160  0.4288 -0.1975
  637TMC3    O2 9494   3.961   0.131  16.460 -0.1734 -0.6362  0.4733
  638MPD2     C 9495   3.145   4.222  15.162  0.1399  0.1102  0.9669
  638MPD2    C1 9496   3.212   4.135  15.086  0.3719  0.0484  1.0408
  638MPD2    C2 9497   3.235   4.008  15.134 -0.4702 -0.2388  0.3746
  638MPD2    C3 9498   3.186   3.962  15.253  0.2548 -0.1175  0.5505
  638MPD2    C4 9499   3.117   4.054  15.332  0.1620  0.0273 -0.3791
  638MPD2    C5 9500   3.106   4.187  15.292  0.3639 -1.1267 -0.3648
  638MPD2     H 9501   3.296   3.933  15.084 -2.6087 -1.7973  0.1031
  638MPD2    H1 9502   3.075   4.029  15.428 -0.5426 -1.9478 -1.1991
  638MPD2    H2 9503   3.131   4.321  15.119  0.9506 -0.8539 -1.4889
  638MPD2    H3 9504   3.058   4.263  15.353  1.2807 -0.1834 -0.8092
  638MPD2     N 9505   3.211   3.826  15.284  0.3232 -0.0778  0.1866
  638MPD2    H5 9506   3.245   3.768  15.208  0.1817 -0.4911  0.4365
  638MPD2    N1 9507   3.264   4.172  14.960  0.4470 -0.1682 -0.2244
  638MPD2    H7 9508   3.272   4.273  14.946  1.4594  0.1003  2.2355
  639TMC3    C1 9509   3.244   3.625  15.384 -0.6950 -0.7096 -0.3318
  639TMC3    C2 9510   3.177   3.568  15.277  0.1391  1.2056  0.3145
  639TMC3    C3 9511   3.256   3.511  15.176  0.8010 -0.7106 -0.0125
  639TMC3    C4 9512   3.377   3.605  15.396 -0.7939 -0.3086 -0.4287
  639TMC3    C5 9513   3.446   3.533  15.302 -0.5150 -0.2077  0.0427
  639TMC3    C6 9514   3.388   3.485  15.188  0.1266 -0.3650  0.2417
  639TMC3     C 9515   3.204   3.766  15.403  0.0903  0.5816  0.2541
  639TMC3     O 9516   3.196   3.810  15.519 -0.6134  0.4509 -0.3738
  639TMC3     H 9517   3.073   3.593  15.260  0.2161  1.0377 -0.4107
  639TMC3    H1 9518   3.419   3.672  15.470 -1.9108 -1.1522  0.9799
  639TMC3    H2 9519   3.445   3.449  15.104  1.9684  0.5346  1.1094
  639TMC3    C7 9520   3.578   3.496  15.335  0.4060 -0.2060  0.7784
  639TMC3    C8 9521   3.192   3.442  15.066  0.4862  0.5374 -0.3144
  639TMC3    O1 9522   3.598   3.464  15.452  0.1151  0.3189  0.1754
  639TMC3    O2 9523   3.260   3.412  14.970  0.2462  0.4130  0.3238
  640MPD2     C 9524   4.052   2.801  10.210 -0.7968  0.3567 -0.3199
  640MPD2    C1 9525   4.052   2.868  10.091  0.3111  0.7168 -0.2344
  640MPD2    C2 9526   3.962   2.974  10.069 -0.8002 -0.8969  0.1813
  640MPD2    C3 9527   3.876   3.005  10.173 -0.3936  0.1466 -0.1384
  640MPD2    C4 9528   3.867   2.920  10.286 -0.2238 -0.5999 -0.4590
  640MPD2    C5 9529   3.956   2.818  10.304  0.2790  0.4588  0.4128
  640MPD2     H 9530   3.959   3.034   9.978 -0.2022  0.1163  0.8272
  640MPD2    H1 9531   3.787   2.928  10.359 -0.8130 -1.0370 -1.0531
  640MPD2    H2 9532   4.115   2.714  10.227 -1.3636 -0.0323 -0.2159
  640MPD2    H3 9533   3.945   2.737  10.376  0.1775 -0.5339 -0.7141
  640MPD2     N 9534   3.786   3.115  10.167  0.0173  0.3352 -0.3436
  640MPD2    H5 9535   3.712   3.122  10.235 -0.3775 -0.1511 -0.7198
  640MPD2    N1 9536   4.156   2.832  10.000 -0.2188  0.7261  0.1376
  640MPD2    H7 9537   4.215   2.757  10.034  1.7566  1.1617 -2.3759
  641TMC3    C1 9538   4.295   2.827   9.816  0.2655 -0.4567  0.4369
  641TMC3    C2 9539   4.306   2.694   9.830 -0.5764 -0.0499  0.2112
  641TMC3    C3 9540   4.393   2.635   9.752  0.1300  0.1457 -0.6827
  641TMC3    C4 9541   4.362   2.889   9.706 -0.4166 -0.1787  0.2133
  641TMC3    C5 9542   4.452   2.815   9.631 -0.1969  0.0205 -0.0877
  641TMC3    C6 9543   4.464   2.684   9.653  0.0207  0.2286 -0.4252
  641TMC3     C 9544   4.177   2.890   9.877 -0.4186  0.8677 -0.1407
  641TMC3     O 9545   4.120   2.980   9.820  0.9837 -0.4556  0.4362
  641TMC3     H 9546   4.256   2.632   9.904 -2.1646  0.1893 -0.6633
  641TMC3    H1 9547   4.331   2.992   9.690 -3.2286 -0.6377  2.6624
  641TMC3    H2 9548   4.548   2.628   9.615  2.3391  2.8338  0.8872
  641TMC3    C7 9549   4.543   2.868   9.530 -0.4236  0.6716  0.4613
  641TMC3    C8 9550   4.435   2.495   9.775  0.3560 -0.5826  0.2265
  641TMC3    O1 9551   4.617   2.788   9.471  0.6508 -0.0368  0.3362
  641TMC3    O2 9552   4.460   2.428   9.674  0.0603 -0.0469 -0.0472
  642TMC3    C1 9553   0.279   4.193  12.457  0.0473 -0.4369 -0.0388
  642TMC3    C2 9554   0.411   4.199  12.430  0.2582  0.1093  0.8368
  642TMC3    C3 9555   0.460   4.100  12.344  0.3436  0.1144  0.2864
  642TMC3    C4 9556   0.190   4.104  12.400 -0.0427 -0.4426  0.5758
  642TMC3    C5 9557   0.243   4.011  12.316  0.0756  0.1436  0.3060
  642TMC3    C6 9558   0.377   4.005  12.285 -0.9726 -1.0254  0.5830
  642TMC3     C 9559   0.230   4.293  12.556 -0.0103  0.7625 -0.1119
  642TMC3     O 9560   0.309   4.356  12.625  0.1237  0.5141  0.0139
  642TMC3     H 9561   0.469   4.258  12.500  0.3930 -0.4919  1.2377
  642TMC3    H1 9562   0.085   4.102  12.424 -0.1415  2.2304  0.3064
  642TMC3    H2 9563   0.418   3.924  12.226  1.0568 -1.4306  2.5677
  642TMC3    C7 9564   0.172   3.891  12.287 -0.1454 -1.1348  0.0983
  642TMC3    C8 9565   0.603   4.066  12.338  0.1311  0.1159  0.4573
  642TMC3    O1 9566   0.188   3.827  12.180  0.1202 -0.3375  0.3197
  642TMC3    O2 9567   0.642   3.959  12.290 -0.7893  0.2353  0.2150
  643TMC3    C1 9568   4.422   2.895   0.135  0.8538  0.3624 -0.0028
  643TMC3    C2 9569   4.358   2.849   0.029 -0.0305 -0.6239 -0.4703
  643TMC3    C3 9570   4.432   2.814  17.658  0.0050  0.0700  0.5084
  643TMC3    C4 9571   4.559   2.911   0.126 -0.0978 -0.4546 -0.5431
  643TMC3    C5 9572   4.634   2.871   0.017  0.1392 -0.6579  0.4116
  643TMC3    C6 9573   4.571   2.808  17.648  0.9015 -0.3138 -0.7509
  643TMC3     C 9574   4.350   2.984   0.226 -0.3862  0.0688 -0.2241
  643TMC3     O 9575   4.296   3.085   0.183 -0.4265 -0.4604  0.4776
  643TMC3     H 9576   4.250   2.843   0.034 -0.1556  2.2302  0.2373
  643TMC3    H1 9577   4.601   2.962   0.212 -1.4470 -2.4808  1.3266
  643TMC3    H2 9578   4.623   2.769  17.561 -2.6984 -0.7241 -2.6958
  643TMC3    C7 9579   4.724   2.978  17.715  0.7941 -0.0987 -0.2072
  643TMC3    C8 9580   4.380   2.883  17.542 -0.0571  0.0709 -0.1473
  643TMC3    O1 9581   4.708   3.092   0.016 -0.4539 -0.2755  0.2200
  643TMC3    O2 9582   4.415   2.844  17.430 -0.7283 -0.1105  0.0554
  644MPD2     C 9583   4.583   4.129   9.972 -0.3074  0.3345 -0.4506
  644MPD2    C1 9584   4.546   4.033   9.886 -0.5054  0.4226 -0.2944
  644MPD2    C2 9585   4.443   4.068   9.804 -0.4011 -0.8662 -0.0492
  644MPD2    C3 9586   4.370   4.188   9.805  0.0097 -0.9586  0.0185
  644MPD2    C4 9587   4.409   4.283   9.897 -0.0786  0.6712  0.4367
  644MPD2    C5 9588   4.519   4.255   9.972 -0.3438  0.0523 -0.0124
  644MPD2     H 9589   4.433   4.009   9.713 -0.5304 -0.7766 -0.0936
  644MPD2    H1 9590   4.358   4.379   9.888  0.3874  0.8401 -0.4541
  644MPD2    H2 9591   4.673   4.112  10.029 -0.0636 -1.7118 -1.4664
  644MPD2    H3 9592   4.554   4.336  10.036 -0.8240 -0.1283  0.4808
  644MPD2     N 9593   4.256   4.207   9.718  0.0069 -0.3347 -0.3498
  644MPD2    H5 9594   4.226   4.132   9.656 -3.5633  1.4393 -0.8069
  644MPD2    N1 9595   4.621   3.915   9.879 -0.2861  0.6589 -0.2840
  644MPD2    H7 9596   4.691   3.902   9.952 -0.3458  0.3897 -0.2740
  645TMC3    C1 9597   4.082   4.309   9.598  0.1121  0.2733  0.5940
  645TMC3    C2 9598   4.035   4.422   9.550 -0.2088 -0.5464  0.0999
  645TMC3    C3 9599   3.911   4.417   9.497 -0.1513 -0.1374 -0.0385
  645TMC3    C4 9600   4.025   4.187   9.581  0.5142 -0.4503 -0.4784
  645TMC3    C5 9601   3.907   4.182   9.511 -0.7462  0.1895  0.3661
  645TMC3    C6 9602   3.841   4.302   9.485  0.2134 -0.3273 -0.0644
  645TMC3     C 9603   4.187   4.323   9.697  0.1999 -0.2152 -0.1391
  645TMC3     O 9604   4.201   4.436   9.744 -0.4696  0.8723 -0.1550
  645TMC3     H 9605   4.081   4.515   9.578  0.7972 -0.6782 -1.0811
  645TMC3    H1 9606   4.062   4.093   9.620  0.4645 -0.6839 -0.9836
  645TMC3    H2 9607   3.738   4.317   9.456 -0.5909 -2.4316  1.7588
  645TMC3    C7 9608   3.830   4.055   9.519  0.4232 -0.5039 -1.1121
  645TMC3    C8 9609   3.887   4.535   9.423  0.2508  0.6998 -0.2555
  645TMC3    O1 9610   3.864   3.969   9.597 -0.7744 -0.0120 -0.2737
  645TMC3    O2 9611   3.973   4.622   9.427 -0.5586 -0.0035  0.0030
  646MPD2     C 9612   3.667   2.974  14.474 -0.0843  0.1213 -0.6951
  646MPD2    C1 9613   3.565   2.882  14.493 -0.0609 -0.2464 -0.7503
  646MPD2    C2 9614   3.436   2.918  14.453  0.1168  0.7087 -0.2664
  646MPD2    C3 9615   3.419   3.039  14.390 -0.1904 -0.5090  0.7543
  646MPD2    C4 9616   3.518   3.128  14.366  0.0352  0.4220 -0.1320
  646MPD2    C5 9617   3.644   3.095  14.403 -0.1544 -0.3756 -0.1828
  646MPD2     H 9618   3.359   2.843  14.469  1.2032 -0.1668  0.8143
  646MPD2    H1 9619   3.500   3.225  14.323 -3.0152  0.4282  1.1231
  646MPD2    H2 9620   3.767   2.941  14.498 -0.0379  0.7539  0.0087
  646MPD2    H3 9621   3.721   3.167  14.376 -0.7608  0.7472  1.0480
  646MPD2     N 9622   3.287   3.085  14.360  0.1012  0.6833  0.5129
  646MPD2    H5 9623   3.207   3.030  14.391  0.9160 -0.4670  0.5758
  646MPD2    N1 9624   3.596   2.763  14.555 -0.2570 -0.7171  0.0410
  646MPD2    H7 9625   3.693   2.739  14.575 -0.0065 -0.7755 -1.2384
  647TMC3    C1 9626   3.573   2.532  14.599  0.5727 -0.2401 -0.1555
  647TMC3    C2 9627   3.499   2.428  14.657  0.4167  0.2094 -0.1145
  647TMC3    C3 9628   3.562   2.314  14.686  0.2538  0.0967 -0.0508
  647TMC3    C4 9629   3.708   2.516  14.568  0.2882  0.0441 -0.5736
  647TMC3    C5 9630   3.761   2.397  14.615 -0.4706 -0.0496 -0.7095
  647TMC3    C6 9631   3.693   2.292  14.667 -0.3351 -0.2149 -0.2051
  647TMC3     C 9632   3.509   2.662  14.584  0.0848 -0.2481 -0.7988
  647TMC3     O 9633   3.389   2.666  14.614  0.1828 -0.1919  0.0987
  647TMC3     H 9634   3.394   2.449  14.673  0.5265 -0.8718  1.9643
  647TMC3    H1 9635   3.764   2.594  14.518  1.6780 -0.5760  0.0058
  647TMC3    H2 9636   3.753   2.212  14.709  2.1331  3.0967  2.6685
  647TMC3    C7 9637   3.909   2.391  14.628 -0.0784  0.3797 -0.6135
  647TMC3    C8 9638   3.494   2.230  14.783  0.2661  0.5644  0.9710
  647TMC3    O1 9639   3.960   2.305  14.696 -0.1916  0.8911  0.0163
  647TMC3    O2 9640   3.374   2.236  14.791 -0.5206  0.0179  0.5439
  648TMC3    C1 9641   3.092   0.669  16.083  0.5429  0.2254  0.3240
  648TMC3    C2 9642   3.150   0.552  16.036  0.6752  0.8621 -0.4494
  648TMC3    C3 9643   3.162   0.540  15.900  0.5232  0.6832  0.3088
  648TMC3    C4 9644   3.042   0.766  16.004  0.5011 -0.2570  0.2605
  648TMC3    C5 9645   3.052   0.747  15.869 -0.1170  0.0667  0.3148
  648TMC3    C6 9646   3.126   0.644  15.820  0.3872 -0.6627  1.0561
  648TMC3     C 9647   3.081   0.700  16.223  0.1877 -0.4681 -0.7632
  648TMC3     O 9648   3.085   0.818  16.253  0.1049 -0.6682  0.0941
  648TMC3     H 9649   3.183   0.486  16.116  1.6862  0.9963 -0.7505
  648TMC3    H1 9650   3.006   0.856  16.054  1.9472  1.4623 -1.7628
  648TMC3    H2 9651   3.127   0.627  15.713  0.3596 -1.0740  1.1223
  648TMC3    C7 9652   2.975   0.823  15.775 -0.2494  0.5880 -0.7046
  648TMC3    C8 9653   3.176   0.406  15.842 -0.0785 -0.2635 -0.4091
  648TMC3    O1 9654   2.974   0.793  15.658 -0.1596  0.0194  0.2347
  648TMC3    O2 9655   3.188   0.410  15.721 -0.2181  0.7082 -0.1175
  649TMC3    C1 9656   1.332   1.811  12.946 -0.7068 -0.7371 -0.2215
  649TMC3    C2 9657   1.445   1.866  13.001  0.2361 -0.5673 -0.5955
  649TMC3    C3 9658   1.528   1.778  13.069 -0.2407  0.7590  0.6910
  649TMC3    C4 9659   1.293   1.684  12.976  0.2400 -0.4265 -0.1008
  649TMC3    C5 9660   1.363   1.612  13.069 -0.0654 -0.3216  0.0473
  649TMC3    C6 9661   1.487   1.653  13.100  0.0778  0.3233 -0.4648
  649TMC3     C 9662   1.242   1.894  12.868  0.7795  0.1320  0.3163
  649TMC3     O 9663   1.271   2.010  12.887 -0.0682 -0.4263 -0.1848
  649TMC3     H 9664   1.486   1.963  12.975  0.2261 -0.4815 -0.2944
  649TMC3    H1 9665   1.192   1.651  12.956 -0.5052  2.2580 -0.7388
  649TMC3    H2 9666   1.556   1.585  13.149  0.2309  0.7634 -0.0720
  649TMC3    C7 9667   1.296   1.493  13.122  0.3893 -0.3533 -0.6294
  649TMC3    C8 9668   1.662   1.818  13.109  0.1019 -0.0535 -0.4733
  649TMC3    O1 9669   1.206   1.439  13.061  0.4373 -0.4058  0.1647
  649TMC3    O2 9670   1.741   1.720  13.116  0.0469  0.2094 -0.3637
  650TMC3    C1 9671   4.259   3.250  12.517 -0.2205  0.4911  0.1063
  650TMC3    C2 9672   4.222   3.310  12.631  0.8462  1.0896  0.3398
  650TMC3    C3 9673   4.095   3.353  12.638 -0.2455 -0.8725 -0.1643
  650TMC3    C4 9674   4.174   3.218  12.411 -0.5475  0.3973 -0.0816
  650TMC3    C5 9675   4.055   3.266  12.414  0.1997 -0.4512  0.0368
  650TMC3    C6 9676   4.011   3.317  12.533 -0.2675  0.1122 -0.1775
  650TMC3     C 9677   4.405   3.201  12.526 -0.5124 -0.2204 -0.0742
  650TMC3     O 9678   4.441   3.165  12.638  0.1315 -0.2043 -0.1160
  650TMC3     H 9679   4.299   3.334  12.704 -0.5218  0.8337  1.8720
  650TMC3    H1 9680   4.215   3.190  12.315 -1.9429 -0.6679 -0.3535
  650TMC3    H2 9681   3.906   3.344  12.537 -0.6520 -1.8151  1.9818
  650TMC3    C7 9682   4.014   3.337  12.293  0.0320  0.2425  0.1269
  650TMC3    C8 9683   4.078   3.495  12.672 -0.4733 -0.8447 -0.3630
  650TMC3    O1 9684   4.015   3.283  12.186  1.1714  0.2660 -1.2118
  650TMC3    O2 9685   4.161   3.567  12.617 -0.3060  0.5029 -0.2617
  651MPD2     C 9686   3.122   0.413  10.145 -0.6254 -0.2513  0.0740
  651MPD2    C1 9687   3.136   0.430  10.280 -0.8070  0.4454  0.0788
  651MPD2    C2 9688   3.262   0.433  10.335  0.4850 -0.4363 -0.0909
  651MPD2    C3 9689   3.380   0.435  10.260  0.1262  0.3216 -0.5315
  651MPD2    C4 9690   3.365   0.392  10.132  0.0822  0.2918 -0.0049
  651MPD2    C5 9691   3.237   0.391  10.073 -0.9279  0.6813 -0.3471
  651MPD2     H 9692   3.280   0.462  10.437 -1.0480  1.6668 -0.4278
  651MPD2    H1 9693   3.450   0.353  10.077  1.7299  2.8906  0.6633
  651MPD2    H2 9694   3.031   0.400  10.088 -0.8838 -3.8147  1.3127
  651MPD2    H3 9695   3.221   0.382   9.966  4.0741 -0.9434 -0.9690
  651MPD2     N 9696   3.498   0.458  10.330 -0.5550  0.2612  0.3217
  651MPD2    H5 9697   3.483   0.479  10.428 -1.8079 -0.4906  0.2940
  651MPD2    N1 9698   3.032   0.442  10.369 -0.1925  0.1447  0.4692
  651MPD2    H7 9699   3.059   0.444  10.467  2.6520  0.5328 -0.3241
  652TMC3    C1 9700   3.930   0.503  10.473  0.2197 -0.4554 -0.1118
  652TMC3    C2 9701   3.849   0.478  10.364 -0.0772 -0.3674  0.1580
  652TMC3    C3 9702   3.722   0.523  10.370 -0.2770  0.5290 -0.0460
  652TMC3    C4 9703   3.897   0.596  10.571 -0.0939  0.8953  0.1078
  652TMC3    C5 9704   3.775   0.654  10.553  0.1431 -1.1983  0.0992
  652TMC3    C6 9705   3.681   0.617  10.463  0.0156 -1.1254  0.6711
  652TMC3     C 9706   4.059   0.445  10.479  0.7281 -0.4137  0.2478
  652TMC3     O 9707   4.100   0.408  10.591  0.0602 -0.1406  0.1470
  652TMC3     H 9708   3.877   0.402  10.292 -1.3610 -1.5120  0.8728
  652TMC3    H1 9709   3.964   0.604  10.656 -0.0217 -0.1303  0.1542
  652TMC3    H2 9710   3.585   0.667  10.460  1.0035  0.8149  1.4281
  652TMC3    C7 9711   3.744   0.762  10.633  0.2729  0.5805 -0.3406
  652TMC3    C8 9712   3.623   0.465  10.276  0.6043 -0.4388 -0.4162
  652TMC3    O1 9713   3.632   0.769  10.683 -0.1407 -0.0801 -0.1045
  652TMC3    O2 9714   3.663   0.435  10.163  0.7312  0.1518 -0.5842
  653MPD2     C 9715   2.018   0.777  17.689 -0.8865 -0.4392 -0.5372
  653MPD2    C1 9716   2.031   0.854  17.574  0.1469 -0.2635  0.6063
  653MPD2    C2 9717   1.979   0.801  17.453 -0.1561 -0.6236  0.2888
  653MPD2    C3 9718   1.918   0.676  17.460 -0.1798 -0.1489 -0.0642
  653MPD2    C4 9719   1.907   0.605  17.574 -0.7050 -0.4155 -0.6480
  653MPD2    C5 9720   1.956   0.655  17.690 -0.4553 -0.2970  1.2115
  653MPD2     H 9721   1.968   0.862  17.364 -1.2854 -0.8978  0.2395
  653MPD2    H1 9722   1.886   0.499  17.573  1.2553 -0.8053 -0.1834
  653MPD2    H2 9723   2.060   0.807   0.044  1.7397 -0.1228 -1.8029
  653MPD2    H3 9724   1.948   0.604   0.046 -0.3281  0.2605  1.5165
  653MPD2     N 9725   1.870   0.621  17.337 -0.0223  0.6489  0.8379
  653MPD2    H5 9726   1.880   0.681  17.256  0.9298 -0.6708 -0.0309
  653MPD2    N1 9727   2.076   0.988  17.576  0.2359 -0.5514  0.1817
  653MPD2    H7 9728   2.095   1.027  17.484  2.7059  0.4232  1.1110
  654TMC3    C1 9729   1.785   0.476  17.177 -0.0093 -0.5129 -0.5660
  654TMC3    C2 9730   1.677   0.553  17.146 -0.3863 -0.7442  0.0902
  654TMC3    C3 9731   1.592   0.506  17.046  0.1296  0.4393 -0.0397
  654TMC3    C4 9732   1.800   0.351  17.125  0.0295 -0.6195  0.6632
  654TMC3    C5 9733   1.716   0.311  17.030  0.2896 -0.4680 -0.5763
  654TMC3    C6 9734   1.618   0.390  16.978  0.6040 -0.6198  0.0050
  654TMC3     C 9735   1.829   0.496  17.311  0.5340  0.4774 -0.6779
  654TMC3     O 9736   1.828   0.396  17.380  0.0617  0.6299  0.5573
  654TMC3     H 9737   1.647   0.647  17.192  1.3305 -0.7260  1.1603
  654TMC3    H1 9738   1.880   0.290  17.166 -0.2664 -1.0560  0.5808
  654TMC3    H2 9739   1.547   0.348  16.909 -1.4595  0.9546  1.1896
  654TMC3    C7 9740   1.733   0.189  16.956  0.4175  0.0249  0.0535
  654TMC3    C8 9741   1.462   0.569  17.040  1.1083 -0.6508  0.3881
  654TMC3    O1 9742   1.718   0.208  16.834 -0.1467  0.0421 -0.5153
  654TMC3    O2 9743   1.441   0.666  17.109 -0.1931 -0.1335 -0.0578
  655MPD2     C 9744   3.358   0.886  15.620 -0.9534 -0.1087  0.7291
  655MPD2    C1 9745   3.297   0.993  15.560 -0.7678  0.3606 -0.0806
  655MPD2    C2 9746   3.302   1.006  15.423  0.1486 -0.1386 -0.8275
  655MPD2    C3 9747   3.364   0.905  15.348 -0.3283 -0.0469 -0.0124
  655MPD2    C4 9748   3.418   0.793  15.417  0.0361  0.1713 -0.0135
  655MPD2    C5 9749   3.420   0.786  15.554 -0.5226 -0.3139 -0.3070
  655MPD2     H 9750   3.266   1.099  15.379  0.9180 -0.9888 -3.2468
  655MPD2    H1 9751   3.470   0.718  15.360  1.5233  0.9132  0.3747
  655MPD2    H2 9752   3.340   0.883  15.727  0.3956  0.3491  0.9787
  655MPD2    H3 9753   3.464   0.705  15.610 -1.6567 -0.3105  0.5975
  655MPD2     N 9754   3.362   0.898  15.211  0.7643 -0.0670 -0.8274
  655MPD2    H5 9755   3.404   0.814  15.171  2.6198  0.5420 -0.1360
  655MPD2    N1 9756   3.220   1.088  15.628 -0.3781 -0.2753 -0.1400
  655MPD2    H7 9757   3.184   1.164  15.571 -0.8902  1.7899  2.9734
  656TMC3    C1 9758   3.112   1.216  15.790 -0.5340  1.0914  0.3663
  656TMC3    C2 9759   3.081   1.234  15.918 -0.4987 -0.0550 -0.9636
  656TMC3    C3 9760   2.986   1.322  15.947  0.1432  0.5034  0.4474
  656TMC3    C4 9761   3.059   1.293  15.689  0.0956  0.5347 -0.5404
  656TMC3    C5 9762   2.960   1.382  15.724  0.3235 -0.0675  0.2936
  656TMC3    C6 9763   2.914   1.404  15.853 -1.4525  0.2750  0.0804
  656TMC3     C 9764   3.186   1.091  15.759  0.2534  0.2731 -0.5443
  656TMC3     O 9765   3.242   1.031  15.849 -0.1661 -0.3849  0.0850
  656TMC3     H 9766   3.125   1.176  15.998 -0.0666  1.1392 -0.3357
  656TMC3    H1 9767   3.082   1.285  15.583  1.7363 -3.5161  0.1071
  656TMC3    H2 9768   2.815   1.441  15.878 -1.1657  1.5301 -0.6505
  656TMC3    C7 9769   2.908   1.456  15.611 -0.2282  0.2452  0.0559
  656TMC3    C8 9770   2.910   1.282  16.062 -0.8428  0.1682  0.4795
  656TMC3    O1 9771   2.973   1.452  15.510  0.1004  0.1647  0.4792
  656TMC3    O2 9772   2.916   1.161  16.086 -0.3465 -0.4596  0.2596
  657TMC3    C1 9773   2.250   4.662  14.908 -0.0789 -0.3763  0.0102
  657TMC3    C2 9774   2.267   4.665  15.048 -0.3969  0.6230 -1.2278
  657TMC3    C3 9775   2.228   0.040  15.112 -0.0438  0.2096  0.3034
  657TMC3    C4 9776   2.198   0.034  14.835 -0.4591 -0.1654  0.1007
  657TMC3    C5 9777   2.162   0.141  14.913  0.5329  0.0787 -0.6681
  657TMC3    C6 9778   2.173   0.150  15.049 -0.3135 -0.3460  0.1329
  657TMC3     C 9779   2.232   4.534  14.837 -0.3886 -1.1089 -0.3520
  657TMC3     O 9780   2.160   4.520  14.738 -0.1240 -0.1806 -0.4617
  657TMC3     H 9781   2.280   4.574  15.105 -0.6178  1.2127 -0.2420
  657TMC3    H1 9782   2.158   0.015  14.737  2.5869 -0.2836 -1.1349
  657TMC3    H2 9783   2.162   0.244  15.101  3.3437 -0.1928  0.5960
  657TMC3    C7 9784   2.098   0.248  14.835 -0.0097  0.8806  0.2678
  657TMC3    C8 9785   2.246   0.051  15.258 -0.3562  0.0944 -0.7139
  657TMC3    O1 9786   2.112   0.243  14.715 -0.4838  0.4763  0.2603
  657TMC3    O2 9787   2.178   0.144  15.304 -0.2399  0.1040 -0.4471
  658MPD2     C 9788   3.553   0.381  14.642 -0.5105 -0.3258  0.8770
  658MPD2    C1 9789   3.531   0.518  14.636 -0.0762  0.5760  0.1348
  658MPD2    C2 9790   3.575   0.588  14.525 -0.5897  0.8853  0.3741
  658MPD2    C3 9791   3.655   0.530  14.431 -0.0029  0.5431 -0.6804
  658MPD2    C4 9792   3.690   0.395  14.439 -0.4104 -0.2270 -1.0110
  658MPD2    C5 9793   3.625   0.318  14.539 -0.6542  0.6634 -0.6742
  658MPD2     H 9794   3.541   0.689  14.506 -0.4335  0.6531 -1.1378
  658MPD2    H1 9795   3.758   0.346  14.371  1.4921  1.0614 -0.0369
  658MPD2    H2 9796   3.535   0.318  14.728  0.0878 -0.6767  0.7430
  658MPD2    H3 9797   3.653   0.213  14.547 -1.4334  0.4237 -1.1099
  658MPD2     N 9798   3.690   0.610  14.323  0.1333  0.4171 -0.6401
  658MPD2    H5 9799   3.660   0.705  14.300 -0.5584 -0.3328 -2.8387
  658MPD2    N1 9800   3.461   0.579  14.747 -0.3221 -0.4499  0.7521
  658MPD2    H7 9801   3.418   0.516  14.814  1.4361 -2.3270  0.1449
  659TMC3    C1 9802   3.345   0.738  14.861  0.3083  0.0649 -0.1772
  659TMC3    C2 9803   3.376   0.841  14.946 -0.1854 -0.5259 -0.7601
  659TMC3    C3 9804   3.283   0.925  14.996  0.1399  0.3226 -0.0591
  659TMC3    C4 9805   3.215   0.722  14.818  0.6905 -0.3942 -0.1413
  659TMC3    C5 9806   3.123   0.806  14.878 -0.3381  0.1078  0.0952
  659TMC3    C6 9807   3.150   0.908  14.966 -0.2377  0.3691  0.4409
  659TMC3     C 9808   3.433   0.714  14.754  0.3879 -0.2328 -0.0848
  659TMC3     O 9809   3.496   0.810  14.709  0.0063 -0.2445  0.6460
  659TMC3     H 9810   3.478   0.864  14.974  0.4048 -2.0793 -1.6432
  659TMC3    H1 9811   3.186   0.638  14.757  0.6552 -0.3568 -0.1756
  659TMC3    H2 9812   3.072   0.959  15.022  0.0134  0.4284  0.7405
  659TMC3    C7 9813   2.990   0.743  14.912  0.2549 -0.4954 -0.4017
  659TMC3    C8 9814   3.294   0.982  15.128  0.5790 -0.3915 -0.7090
  659TMC3    O1 9815   2.953   0.768  15.024 -0.2472  0.0905  0.1355
  659TMC3    O2 9816   3.215   1.064  15.163 -0.3828 -0.1701  0.9454
  660MPD2     C 9817   1.652   4.347  12.707 -0.1695  0.4187  0.2675
  660MPD2    C1 9818   1.517   4.367  12.687  0.1790  0.0278 -0.8555
  660MPD2    C2 9819   1.419   4.283  12.743 -0.4313  0.0062  0.2188
  660MPD2    C3 9820   1.461   4.182  12.827 -0.1409  0.8679  0.6493
  660MPD2    C4 9821   1.589   4.167  12.860  0.3190 -0.0734  0.0350
  660MPD2    C5 9822   1.683   4.243  12.795 -0.5075  0.0939  0.5281
  660MPD2     H 9823   1.315   4.306  12.723 -0.4345  0.3099  0.5768
  660MPD2    H1 9824   1.610   4.099  12.941 -3.7447  0.1932  1.3348
  660MPD2    H2 9825   1.731   4.409  12.666  0.6811 -0.6616  0.3039
  660MPD2    H3 9826   1.788   4.228  12.817 -0.4631  1.3220  1.1968
  660MPD2     N 9827   1.380   4.087  12.885 -0.3877 -0.8241 -0.4225
  660MPD2    H5 9828   1.419   4.019  12.950  2.7887  2.2391  0.8297
  660MPD2    N1 9829   1.473   4.469  12.592  0.5545 -1.0986 -0.1706
  660MPD2    H7 9830   1.549   4.521  12.549 -0.2638  0.7299  0.5505
  661TMC3    C1 9831   1.314   4.608  12.454  0.2414  0.0593  0.3391
  661TMC3    C2 9832   1.407   4.612  12.354  0.4672  0.2195 -0.2768
  661TMC3    C3 9833   1.358   4.642  12.227  0.1803 -0.9050 -0.0231
  661TMC3    C4 9834   1.179   4.629  12.438 -0.1430 -0.3224  0.0647
  661TMC3    C5 9835   1.139   4.662  12.312 -0.4613  0.5014 -0.6532
  661TMC3    C6 9836   1.220   4.661  12.202 -0.2204 -0.6204  0.3933
  661TMC3     C 9837   1.343   4.521  12.571 -0.0545 -0.0914  0.4589
  661TMC3     O 9838   1.243   4.483  12.634 -0.3910 -0.4187  0.4301
  661TMC3     H 9839   1.508   4.574  12.358 -0.0663 -1.1440  0.0760
  661TMC3    H1 9840   1.112   4.618  12.522  2.0118 -0.0507  1.8046
  661TMC3    H2 9841   1.179   4.672  12.103 -0.0793 -0.5544  0.3411
  661TMC3    C7 9842   0.998   4.660  12.289  0.2953  0.4226  0.1150
  661TMC3    C8 9843   1.443   4.648  12.116 -0.1692 -0.2778 -0.7622
  661TMC3    O1 9844   0.921   4.725  12.359 -0.1068  0.5550 -0.1358
  661TMC3    O2 9845   1.550   4.583  12.123  0.2302  0.3397  0.0634
  662MPD2     C 9846   1.700   3.965  16.923 -0.6101  0.3106 -0.0643
  662MPD2    C1 9847   1.592   3.885  16.955 -0.5658 -0.6294 -0.3198
  662MPD2    C2 9848   1.489   3.945  17.019  0.2578  0.7721  0.3321
  662MPD2    C3 9849   1.480   4.081  17.038  0.7475  0.1391  0.0246
  662MPD2    C4 9850   1.591   4.162  17.006  0.3833  0.7994  0.1580
  662MPD2    C5 9851   1.693   4.103  16.935  0.2990 -0.5222 -0.2809
  662MPD2     H 9852   1.402   3.886  17.045 -0.5992  1.5683 -0.7406
  662MPD2    H1 9853   1.594   4.270  17.022 -0.5024  0.8135  0.2225
  662MPD2    H2 9854   1.789   3.924  16.877 -1.1192  1.2052 -1.8250
  662MPD2    H3 9855   1.787   4.154  16.918  1.1085 -1.8928  0.0500
  662MPD2     N 9856   1.368   4.147  17.096 -0.0080 -0.2356 -0.8403
  662MPD2    H5 9857   1.371   4.246  17.116 -0.6580 -0.1555 -1.1174
  662MPD2    N1 9858   1.600   3.747  16.945 -0.1378  1.1573  0.3858
  662MPD2    H7 9859   1.544   3.689  17.007  0.0623  1.4113  0.8103
  663TMC3    C1 9860   1.691   3.542  16.916 -1.3023  0.0014 -0.0045
  663TMC3    C2 9861   1.667   3.525  17.050 -0.3081 -0.6372 -0.4843
  663TMC3    C3 9862   1.685   3.405  17.107  0.4652 -0.3986 -0.0995
  663TMC3    C4 9863   1.743   3.446  16.836 -0.6479  0.7288 -1.1661
  663TMC3    C5 9864   1.767   3.323  16.896  0.5952  0.4546  0.2817
  663TMC3    C6 9865   1.753   3.305  17.030 -0.2165 -0.4406  0.0137
  663TMC3     C 9866   1.692   3.679  16.871 -0.1613 -0.9594  0.1711
  663TMC3     O 9867   1.780   3.714  16.794  0.3198 -0.4651 -0.1401
  663TMC3     H 9868   1.664   3.607  17.121  1.0924  0.6482 -1.9014
  663TMC3    H1 9869   1.742   3.466  16.730  2.6883  0.8079 -1.2093
  663TMC3    H2 9870   1.790   3.216  17.080 -0.8890 -0.5984  0.2233
  663TMC3    C7 9871   1.736   3.209  16.815  0.0956 -0.0280  0.0678
  663TMC3    C8 9872   1.712   3.407  17.250 -0.2806  0.1093  0.2540
  663TMC3    O1 9873   1.722   3.216  16.695  0.4277  0.2669  0.1347
  663TMC3    O2 9874   1.792   3.326  17.295  0.3221  0.2643 -0.8258
  664MPD2     C 9875   4.364   1.915  17.724  0.3355  0.5144 -0.2461
  664MPD2    C1 9876   4.404   2.046   0.021  0.4396  0.0147 -0.2711
  664MPD2    C2 9877   4.408   2.080   0.153 -0.0281  1.0009 -0.2832
  664MPD2    C3 9878   4.344   1.996   0.247 -0.4089 -0.4255 -0.4256
  664MPD2    C4 9879   4.297   1.873   0.207 -0.0816  0.2933  0.2954
  664MPD2    C5 9880   4.309   1.834   0.075  0.3395  0.7172  0.6278
  664MPD2     H 9881   4.453   2.176   0.176 -1.1781  2.0619 -2.4406
  664MPD2    H1 9882   4.260   1.807   0.284 -1.0570 -0.2026 -0.6117
  664MPD2    H2 9883   4.376   1.878  17.623  0.9794  1.1009 -0.3824
  664MPD2    H3 9884   4.274   1.735   0.049  1.0157  0.0173  2.3528
  664MPD2     N 9885   4.352   2.024   0.390 -0.2188 -0.8798 -0.1888
  664MPD2    H5 9886   4.417   2.100   0.410  0.0133 -1.0506 -0.2940
  664MPD2    N1 9887   4.447   2.140  17.668 -1.3267 -0.3321  0.7229
  664MPD2    H7 9888   4.463   2.233  17.704  0.2066  0.2450 -1.4546
  665TMC3    C1 9889   4.303   2.018   0.626 -0.4955 -0.3517  0.5035
  665TMC3    C2 9890   4.247   1.943   0.725 -0.3596  0.0745  0.4785
  665TMC3    C3 9891   4.264   1.986   0.854 -0.2916  0.5901  0.2064
  665TMC3    C4 9892   4.363   2.134   0.645  0.7375 -0.3743 -1.2219
  665TMC3    C5 9893   4.376   2.175   0.779 -0.2600  0.1100 -0.2162
  665TMC3    C6 9894   4.333   2.100   0.884  0.0543  0.0291 -0.5112
  665TMC3     C 9895   4.276   1.971   0.485 -0.2623 -0.9266  0.3793
  665TMC3     O 9896   4.194   1.882   0.471  0.3943  0.2398  0.1274
  665TMC3     H 9897   4.197   1.850   0.702  0.1540 -0.2128  0.5416
  665TMC3    H1 9898   4.391   2.201   0.564  5.3572 -0.1150  0.5739
  665TMC3    H2 9899   4.357   2.133   0.984  1.3996 -0.1110 -0.7812
  665TMC3    C7 9900   4.447   2.297   0.792  0.0018  0.1956 -0.5998
  665TMC3    C8 9901   4.186   1.920   0.965  0.0305  0.7905  0.6122
  665TMC3    O1 9902   4.503   2.336   0.689 -0.5879  0.0617 -0.1792
  665TMC3    O2 9903   4.189   1.797   0.963  0.0863 -0.2190  0.1453
  666TMC3    C1 9904   3.782   1.708  10.114 -0.8022  0.1627  0.6348
  666TMC3    C2 9905   3.911   1.668  10.093 -0.5091 -0.0043  0.4226
  666TMC3    C3 9906   4.012   1.764  10.109  0.7864  0.1743 -0.1408
  666TMC3    C4 9907   3.748   1.837  10.142 -0.2025  0.2295 -0.6345
  666TMC3    C5 9908   3.844   1.926  10.147  0.2894  0.1519 -0.0699
  666TMC3    C6 9909   3.977   1.892  10.126 -0.2806 -0.7599  0.1166
  666TMC3     C 9910   3.697   1.611  10.186 -0.1186  0.8811 -0.1586
  666TMC3     O 9911   3.646   1.659  10.286 -0.0218  0.4604  0.0004
  666TMC3     H 9912   3.944   1.567  10.072  1.0596  0.8509 -1.1551
  666TMC3    H1 9913   3.652   1.875  10.177 -1.5762 -3.1096 -0.8553
  666TMC3    H2 9914   4.054   1.962  10.157 -1.9716  1.0913  0.1145
  666TMC3    C7 9915   3.808   2.065  10.167  0.4794  0.1107  0.2277
  666TMC3    C8 9916   4.127   1.708  10.167 -0.9626  0.6066 -0.3560
  666TMC3    O1 9917   3.690   2.087  10.173  0.4976  1.0251 -0.7479
  666TMC3    O2 9918   4.138   1.591  10.183 -0.4119 -0.0455  0.5553
  667MPD2     C 9919   0.833   2.221  14.490  0.1917 -0.5854 -0.2821
  667MPD2    C1 9920   0.802   2.168  14.614 -0.2056 -0.1106 -0.5529
  667MPD2    C2 9921   0.744   2.041  14.609 -0.1272  0.3900 -0.5466
  667MPD2    C3 9922   0.720   1.972  14.493 -0.5066  0.2160  0.4844
  667MPD2    C4 9923   0.759   2.026  14.378  0.3956  0.7990  0.1511
  667MPD2    C5 9924   0.814   2.151  14.378 -0.4774  0.1801  0.0415
  667MPD2     H 9925   0.698   2.006  14.701 -0.2368  1.8556 -0.0510
  667MPD2    H1 9926   0.740   1.972  14.286 -0.8943 -0.0387  0.9196
  667MPD2    H2 9927   0.869   2.323  14.483  1.5730 -1.0055  0.5761
  667MPD2    H3 9928   0.835   2.210  14.290 -0.1591  1.2973  0.8668
  667MPD2     N 9929   0.640   1.857  14.497  0.1990 -0.3887 -0.0551
  667MPD2    H5 9930   0.623   1.809  14.409  0.2900  1.1188 -0.9107
  667MPD2    N1 9931   0.797   2.248  14.729 -0.4065 -0.3713  0.4576
  667MPD2    H7 9932   0.745   2.212  14.809  2.7779 -0.7171  2.3856
  668TMC3    C1 9933   0.841   2.439  14.868 -0.0076  0.0561 -0.1448
  668TMC3    C2 9934   0.861   2.571  14.850  0.6926  0.1827  0.1726
  668TMC3    C3 9935   0.857   2.646  14.968 -0.0928  0.6413  0.1798
  668TMC3    C4 9936   0.819   2.373  14.982 -0.4977  0.5579  0.6012
  668TMC3    C5 9937   0.819   2.449  15.097 -0.1747  0.2540 -0.0876
  668TMC3    C6 9938   0.839   2.583  15.087  0.7991 -0.4653  0.3012
  668TMC3     C 9939   0.855   2.372  14.737 -0.2488 -1.1800 -0.7888
  668TMC3     O 9940   0.937   2.426  14.667 -0.2172 -0.4199  0.2486
  668TMC3     H 9941   0.871   2.615  14.751  0.0563 -0.0434  0.0112
  668TMC3    H1 9942   0.828   2.265  14.982 -0.9370  0.5206  0.2413
  668TMC3    H2 9943   0.842   2.647  15.175 -0.0216  1.2784 -0.9361
  668TMC3    C7 9944   0.792   2.390  15.224 -0.5522  0.8394 -0.1909
  668TMC3    C8 9945   0.872   2.788  14.967  0.7940 -0.6200 -0.3190
  668TMC3    O1 9946   0.827   2.460  15.318  0.0555  0.2431 -0.2336
  668TMC3    O2 9947   0.837   2.836  15.072 -0.0805 -0.4802 -0.0970
  669TMC3    C1 9948   3.786   1.973  14.532  0.4595  0.4939 -0.2192
  669TMC3    C2 9949   3.682   2.025  14.454  0.2837 -0.0717 -0.3570
  669TMC3    C3 9950   3.712   2.090  14.338 -0.0810 -0.1051  0.2174
  669TMC3    C4 9951   3.923   2.004  14.500  0.1768 -1.5285 -0.3615
  669TMC3    C5 9952   3.938   2.099  14.397 -0.5339 -0.6081  0.4909
  669TMC3    C6 9953   3.839   2.130  14.306 -0.4202 -0.2639 -0.4222
  669TMC3     C 9954   3.753   1.888  14.640  0.4683 -0.5242 -0.6231
  669TMC3     O 9955   3.641   1.903  14.680 -0.0667  0.2844 -0.1524
  669TMC3     H 9956   3.582   2.020  14.493  0.0545 -1.0115 -1.0646
  669TMC3    H1 9957   4.004   1.988  14.570 -1.3538 -2.2308  1.2610
  669TMC3    H2 9958   3.853   2.191  14.218 -0.2647  1.9123  1.1084
  669TMC3    C7 9959   4.069   2.137  14.372 -1.0637  0.2582 -0.7719
  669TMC3    C8 9960   3.600   2.125  14.256 -0.1690  0.1109 -0.0971
  669TMC3    O1 9961   4.163   2.076  14.411  0.3098 -0.1871  0.9152
  669TMC3    O2 9962   3.495   2.138  14.315 -0.6316 -0.2884  0.1836
  670MPD2     C 9963   1.437   0.120  13.416  0.3276  0.4944 -0.7664
  670MPD2    C1 9964   1.507   0.005  13.448  0.8412 -0.2291 -0.4288
  670MPD2    C2 9965   1.526   4.709  13.586  0.3654 -0.0626  0.3265
  670MPD2    C3 9966   1.461   0.046  13.683 -0.2427 -0.0657 -0.4816
  670MPD2    C4 9967   1.400   0.162  13.653  0.0178  0.1104 -0.8886
  670MPD2    C5 9968   1.389   0.197  13.520 -0.1994 -0.4382 -0.3609
  670MPD2     H 9969   1.573   4.615  13.613  0.0227 -0.0210  1.0674
  670MPD2    H1 9970   1.359   0.231  13.726 -1.7017 -1.0921 -0.7063
  670MPD2    H2 9971   1.415   0.148  13.314  1.3813 -0.8698 -1.3747
  670MPD2    H3 9972   1.348   0.296  13.506 -0.2248 -0.3519  0.3020
  670MPD2     N 9973   1.466   4.734  13.810 -0.0705  0.4937  0.2623
  670MPD2    H5 9974   1.516   4.650  13.835 -0.8355 -0.2756 -0.8160
  670MPD2    N1 9975   1.559   4.656  13.357 -0.0048 -0.1678 -0.1617
  670MPD2    H7 9976   1.601   4.568  13.385  0.2533 -0.4055 -1.2587
  671TMC3    C1 9977   1.399   4.692  14.033 -0.4879  0.2824 -0.3724
  671TMC3    C2 9978   1.523   4.661  14.077 -0.6972  0.4345 -0.9833
  671TMC3    C3 9979   1.536   4.567  14.174  0.1395 -0.5241  0.2799
  671TMC3    C4 9980   1.298   4.608  14.054  0.2931 -0.5529 -0.3693
  671TMC3    C5 9981   1.312   4.493  14.128 -0.2892 -0.3242 -0.7766
  671TMC3    C6 9982   1.436   4.470  14.183  0.6697 -0.3807 -0.2003
  671TMC3     C 9983   1.381   0.038  13.914 -0.0802 -0.7692  0.5313
  671TMC3     O 9984   1.307   0.136  13.931 -0.3208 -0.3027  0.2334
  671TMC3     H 9985   1.594   0.007  14.066 -1.1609  0.9068 -0.5259
  671TMC3    H1 9986   1.207   4.631  13.999  2.1702  2.7089 -2.1041
  671TMC3    H2 9987   1.459   4.379  14.237  0.7987  0.1689  0.6833
  671TMC3    C7 9988   1.259   4.377  14.058  0.2567 -0.0718  0.5415
  671TMC3    C8 9989   1.662   4.520  14.188 -0.9347  0.8917 -0.3417
  671TMC3    O1 9990   1.344   4.307  13.999  0.7782 -0.4523  0.0046
  671TMC3    O2 9991   1.729   4.528  14.086  0.0639  0.0046 -0.5210
  672MPD2     C 9992   1.916   0.273   1.302  0.2370 -0.0007  0.2743
  672MPD2    C1 9993   1.830   0.328   1.215 -0.1640 -0.5728  0.6571
  672MPD2    C2 9994   1.852   0.448   1.153  0.1210 -0.4202  0.0277
  672MPD2    C3 9995   1.965   0.520   1.192  0.2798 -0.0792 -0.2902
  672MPD2    C4 9996   2.058   0.461   1.273  0.1356  0.1948  0.2158
  672MPD2    C5 9997   2.033   0.336   1.320  0.1158 -0.6415 -1.1534
  672MPD2     H 9998   1.785   0.490   1.079  0.2561 -2.0009 -0.9837
  672MPD2    H1 9999   2.156   0.503   1.291 -0.0066  0.2112  0.9331
  672MPD2    H210000   1.900   0.174   1.345 -2.1233 -0.0291 -0.6718
  672MPD2    H310001   2.098   0.300   1.400 -0.3658  1.0618  0.0139
  672MPD2     N10002   1.990   0.654   1.149  0.2057 -0.0733  0.2691
  672MPD2    H510003   2.082   0.689   1.172 -0.7311  2.4307  0.1710
  672MPD2    N110004   1.712   0.261   1.171 -0.0020  0.3673 -0.2683
  672MPD2    H710005   1.653   0.300   1.098  0.8454  0.3291 -0.9720
  673TMC3    C110006   1.561   0.108   1.110 -0.1985 -1.0203  0.2278
  673TMC3    C210007   1.564   4.732   1.033 -0.2976  0.3489 -0.3360
  673TMC3    C310008   1.464   4.728   0.932 -0.3998  0.1278 -0.2586
  673TMC3    C410009   1.466   0.209   1.110 -0.1591  0.1192  0.1903
  673TMC3    C510010   1.371   0.189   1.017 -0.4462 -0.6082 -0.5320
  673TMC3    C610011   1.369   0.090   0.924 -0.7227 -0.3370 -0.0143
  673TMC3     C10012   1.674   0.134   1.189 -0.3151 -0.1144  0.5973
  673TMC3     O10013   1.722   0.046   1.256  0.4890 -0.3149 -0.6761
  673TMC3     H10014   1.649   4.666   1.046 -1.1053 -0.8604 -1.1748
  673TMC3    H110015   1.464   0.289   1.183 -0.8416 -1.5392  1.9797
  673TMC3    H210016   1.284   0.077   0.858 -0.8633 -1.7084  0.4535
  673TMC3    C710017   1.295   0.303   0.988 -0.2392  0.7354  0.3448
  673TMC3    C810018   1.486   4.659   0.813 -0.1655 -0.2753  0.2130
  673TMC3    O110019   1.281   0.379   1.084  0.1312 -0.3804  0.0698
  673TMC3    O210020   1.395   4.619   0.747 -0.1387 -0.0184 -0.2342
  674MPD2     C10021   1.529   0.151  17.256  0.2394  0.8926  0.4975
  674MPD2    C110022   1.518   0.032  17.324 -0.2226 -0.1144 -0.4672
  674MPD2    C210023   1.489   0.032  17.456  1.1644  0.0755 -0.8094
  674MPD2    C310024   1.484   0.152  17.524  0.0207  1.0079 -0.0927
  674MPD2    C410025   1.504   0.266  17.453 -0.5560 -0.4270 -0.8501
  674MPD2    C510026   1.527   0.269  17.319  0.2001  0.3277 -0.8591
  674MPD2     H10027   1.474   4.671  17.503  2.9618  0.4955  0.5974
  674MPD2    H110028   1.493   0.365  17.496  0.2096  0.1293 -1.9462
  674MPD2    H210029   1.532   0.140  17.148  2.7188  1.6866  0.4845
  674MPD2    H310030   1.546   0.361  17.266  0.0811  1.0016  0.2608
  674MPD2     N10031   1.454   0.159  17.661  0.3557  0.2417  0.6100
  674MPD2    H510032   1.435   0.075  17.714 -2.0367  1.0824  1.0538
  674MPD2    N110033   1.523   4.651  17.239  0.0736  0.9035 -0.5527
  674MPD2    H710034   1.509   4.683  17.144  2.7815  2.3665 -0.4473
  675TMC3    C110035   1.599   4.467  17.364  0.5445 -0.8656  0.1617
  675TMC3    C210036   1.586   4.329  17.372  0.4307 -0.5596  0.3141
  675TMC3    C310037   1.656   4.268  17.474  0.2066  0.0898 -0.1014
  675TMC3    C410038   1.690   4.544  17.432 -0.2843 -0.2755 -0.3406
  675TMC3    C510039   1.754   4.478  17.537 -0.8561 -0.1711 -0.1991
  675TMC3    C610040   1.738   4.342  17.557 -0.3152  0.5194  0.1257
  675TMC3     C10041   1.521   4.519  17.256  0.3361 -0.5159  0.3688
  675TMC3     O10042   1.473   4.434  17.175 -0.3010  0.0348 -0.3802
  675TMC3     H10043   1.527   4.271  17.303 -0.0175 -1.0186  1.0821
  675TMC3    H110044   1.722   4.642  17.401 -2.4804  0.8011  0.7928
  675TMC3    H210045   1.781   4.298  17.646  1.9586  0.6062 -0.9136
  675TMC3    C710046   1.796   4.558  17.654  0.8007  0.2328 -0.4656
  675TMC3    C810047   1.590   4.149  17.513  0.3745  0.0648  0.5464
  675TMC3    O110048   1.818   4.492   0.015 -0.6461 -0.0451  0.2870
  675TMC3    O210049   1.533   4.077  17.430  0.9257 -0.4087  0.0840
  676MPD2     C10050   0.179   2.763  11.083  0.3118 -0.2963 -0.2794
  676MPD2    C110051   0.052   2.748  11.131  0.1232  0.3080 -0.2934
  676MPD2    C210052   4.732   2.623  11.154 -0.8776  0.0388 -0.7488
  676MPD2    C310053   0.069   2.511  11.134  0.3274  0.5597 -0.2769
  676MPD2    C410054   0.202   2.523  11.089 -0.1013 -0.0917  0.2850
  676MPD2    C510055   0.255   2.648  11.059 -1.0306 -0.0359 -0.2273
  676MPD2     H10056   4.627   2.619  11.179 -0.7147 -0.8378 -0.1849
  676MPD2    H110057   0.269   2.439  11.084 -0.2547 -0.2219  0.4115
  676MPD2    H210058   0.220   2.860  11.060  2.8905 -1.2481  0.2805
  676MPD2    H310059   0.354   2.651  11.013  0.2562 -0.3364  2.5454
  676MPD2     N10060   0.020   2.381  11.132 -0.2122  0.5874 -0.2995
  676MPD2    H510061   0.075   2.304  11.094  1.2317  2.1364 -1.3341
  676MPD2    N110062   4.700   2.855  11.156 -0.1550 -0.1409 -0.2842
  676MPD2    H710063   4.611   2.842  11.204 -1.2696 -1.4533 -2.6891
  677TMC3    C110064   4.593   3.067  11.153  0.1147  0.9015 -0.5370
  677TMC3    C210065   4.475   3.004  11.108  0.8365  0.4155  0.0425
  677TMC3    C310066   4.366   3.088  11.118  0.1708 -0.1118  0.4046
  677TMC3    C410067   4.602   3.198  11.186  0.2251 -0.6375 -0.3963
  677TMC3    C510068   4.486   3.276  11.181  0.4759 -0.3272 -0.4946
  677TMC3    C610069   4.366   3.225  11.142  0.3648 -0.1792  0.0623
  677TMC3     C10070   4.721   2.993  11.139  0.4311  1.0062 -0.2400
  677TMC3     O10071   0.093   3.054  11.112 -0.1910 -0.1630 -0.5450
  677TMC3     H10072   4.453   2.900  11.091 -0.6964  0.6601  0.5459
  677TMC3    H110073   4.687   3.236  11.240  0.6916 -1.4561 -0.5608
  677TMC3    H210074   4.288   3.300  11.137  1.6813  1.0953 -1.3740
  677TMC3    C710075   4.462   3.366  11.295 -0.3719 -0.4887  0.2329
  677TMC3    C810076   4.259   3.020  11.195 -0.3368  0.7285  0.1580
  677TMC3    O110077   4.356   3.355  11.356  0.1265  0.3867  0.2931
  677TMC3    O210078   4.210   2.913  11.149 -0.1244  0.2237 -0.3875
  678MPD2     C10079   1.032   3.391   1.319  0.5494  0.3765  0.1351
  678MPD2    C110080   0.982   3.297   1.224 -0.3313  0.6776 -0.5773
  678MPD2    C210081   0.853   3.250   1.241 -0.2259  0.5566 -0.1350
  678MPD2    C310082   0.781   3.278   1.357 -0.1804 -0.0486 -0.7779
  678MPD2    C410083   0.837   3.377   1.448  0.5900  0.3311 -0.4244
  678MPD2    C510084   0.965   3.420   1.432 -0.4978 -0.0786  0.2530
  678MPD2     H10085   0.811   3.182   1.168  1.5370 -1.2668  0.5614
  678MPD2    H110086   0.783   3.420   1.532 -0.3220 -0.1178 -0.7830
  678MPD2    H210087   1.128   3.441   1.313  1.0342 -0.2976  2.2116
  678MPD2    H310088   1.007   3.498   1.495 -0.1017  0.1803 -0.3347
  678MPD2     N10089   0.646   3.237   1.356  0.0952  0.1566  0.5270
  678MPD2    H510090   0.608   3.173   1.287  0.3387  0.2748  0.2867
  678MPD2    N110091   1.054   3.251   1.116  0.2559 -1.1118 -0.1760
  678MPD2    H710092   1.003   3.200   1.044  0.6662 -1.7987  0.0173
  679TMC3    C110093   1.416   3.045   0.942  0.1119  0.1153 -0.8928
  679TMC3    C210094   1.376   3.154   1.019 -0.4042 -0.3478  0.4205
  679TMC3    C310095   1.243   3.189   1.006 -0.6273 -0.3014 -0.3658
  679TMC3    C410096   1.339   2.995   0.840 -0.0649  0.0318  0.1246
  679TMC3    C510097   1.208   3.033   0.830  0.7460 -0.3525 -0.8926
  679TMC3    C610098   1.154   3.129   0.916  0.4740 -0.1613 -0.5194
  679TMC3     C10099   1.560   3.016   0.923 -0.0715 -0.4176  0.5070
  679TMC3     O10100   1.592   2.929   0.841 -0.2247 -0.1333 -0.1186
  679TMC3     H10101   1.428   3.187   1.108  0.1276  0.5320 -0.2234
  679TMC3    H110102   1.376   2.919   0.772 -3.0001  0.4967 -1.9687
  679TMC3    H210103   1.057   3.172   0.897 -0.2400 -0.3338  2.7473
  679TMC3    C710104   1.162   3.038   0.692 -0.0758  1.2613  0.2174
  679TMC3    C810105   1.192   3.277   1.102  0.0366  0.1005  0.5337
  679TMC3    O110106   1.113   3.146   0.677 -0.0086 -0.3823 -0.2858
  679TMC3    O210107   1.264   3.345   1.170  0.2454 -0.4410 -0.1752
  680MPD2     C10108   1.265   1.971  13.855 -0.7071  1.0226  0.3002
  680MPD2    C110109   1.358   1.931  13.946 -1.1368  0.4465  0.4694
  680MPD2    C210110   1.428   2.018  14.020 -0.8301 -0.1915  1.7336
  680MPD2    C310111   1.404   2.151  13.998 -0.4836 -0.2947 -0.3115
  680MPD2    C410112   1.316   2.197  13.899 -0.4470  0.6337 -1.1159
  680MPD2    C510113   1.246   2.104  13.829 -0.1146  0.4905  0.2251
  680MPD2     H10114   1.487   1.979  14.102  1.0458 -0.2568  0.3590
  680MPD2    H110115   1.300   2.302  13.874  0.6319  1.0867  0.0873
  680MPD2    H210116   1.210   1.900  13.794  0.9205 -0.3344  0.4008
  680MPD2    H310117   1.186   2.144  13.748 -0.2690  1.1176  0.6521
  680MPD2     N10118   1.468   2.254  14.066  0.2112 -0.3354  0.0739
  680MPD2    H510119   1.458   2.345  14.023  0.5067 -0.8549 -1.0740
  680MPD2    N110120   1.366   1.791  13.962  0.4265  0.2258 -0.2651
  680MPD2    H710121   1.319   1.745  13.885  1.1892 -0.6800 -0.1966
  681TMC3    C110122   1.414   1.573  14.070 -0.1503 -0.3893  0.3404
  681TMC3    C210123   1.383   1.531  14.192  0.1467 -0.9515  0.5839
  681TMC3    C310124   1.317   1.417  14.203 -0.0287  0.6226 -0.4205
  681TMC3    C410125   1.386   1.502  13.957 -0.2801  0.1284  0.8691
  681TMC3    C510126   1.301   1.400  13.968 -0.1139  0.6117  0.2021
  681TMC3    C610127   1.263   1.354  14.092  0.7184 -0.2317 -0.5456
  681TMC3     C10128   1.438   1.722  14.060  0.1233 -0.2934  0.2771
  681TMC3     O10129   1.488   1.763  14.163  0.1655  0.1651  0.2952
  681TMC3     H10130   1.375   1.596  14.279 -0.9472  0.7916 -0.8230
  681TMC3    H110131   1.440   1.531  13.867  0.8880  0.2552  1.6001
  681TMC3    H210132   1.192   1.273  14.102  0.7202 -0.3975 -1.8643
  681TMC3    C710133   1.236   1.344  13.851 -0.0886  0.3589 -0.1130
  681TMC3    C810134   1.283   1.358  14.326  0.1633 -0.2421 -0.2566
  681TMC3    O110135   1.131   1.286  13.864  0.2643  0.0633  0.8104
  681TMC3    O210136   1.182   1.295  14.336 -0.3564  0.3613  0.4972
  682MPD2     C10137   3.562   3.122  10.634 -0.4180  0.5132  0.1738
  682MPD2    C110138   3.545   2.987  10.637 -0.1917  0.5140 -0.4344
  682MPD2    C210139   3.552   2.916  10.757 -0.4228  0.3358 -0.1528
  682MPD2    C310140   3.593   2.978  10.874  0.1834 -0.4030  0.4105
  682MPD2    C410141   3.612   3.112  10.870 -0.6929 -0.1501 -0.4517
  682MPD2    C510142   3.603   3.185  10.749  1.1576  0.6322 -0.3339
  682MPD2     H10143   3.524   2.811  10.760  1.4787 -0.1517  0.1810
  682MPD2    H110144   3.626   3.167  10.962 -0.2477 -0.7193 -0.1816
  682MPD2    H210145   3.563   3.181  10.543  1.2023 -0.0096 -0.1363
  682MPD2    H310146   3.624   3.292  10.749 -2.3695  1.3288 -0.0483
  682MPD2     N10147   3.604   2.922  10.999  0.0588  0.1439  0.3907
  682MPD2    H510148   3.639   2.980  11.075  0.1730  0.6968 -0.0862
  682MPD2    N110149   3.513   2.913  10.521  0.3643 -0.4288  0.3200
  682MPD2    H710150   3.489   2.816  10.539  1.6564 -1.1230 -1.5578
  683TMC3    C110151   3.666   2.779  11.382  0.0620 -0.5068 -0.0351
  683TMC3    C210152   3.704   2.651  11.401  0.1434  0.3604  0.0175
  683TMC3    C310153   3.706   2.574  11.286 -0.6608  0.3022  0.3010
  683TMC3    C410154   3.634   2.833  11.257 -0.1006  0.1631 -0.4381
  683TMC3    C510155   3.647   2.758  11.147  0.0120 -0.4683  0.3923
  683TMC3    C610156   3.679   2.627  11.163 -0.2780  0.7521  0.0426
  683TMC3     C10157   3.624   2.844  11.499 -0.1727 -0.3708 -0.1218
  683TMC3     O10158   3.632   2.966  11.491 -0.7303 -0.3533 -0.4127
  683TMC3     H10159   3.724   2.603  11.496  0.3878 -0.7172 -0.5828
  683TMC3    H110160   3.580   2.927  11.257  0.7468  0.6477  0.1887
  683TMC3    H210161   3.684   2.560  11.078  0.9099 -0.5999  1.1886
  683TMC3    C710162   3.581   2.794  11.028 -0.1654 -0.2218  0.2252
  683TMC3    C810163   3.693   2.434  11.292  0.2703  0.2652 -0.0639
  683TMC3    O110164   3.545   2.702  10.959 -0.3034 -0.8178  0.2821
  683TMC3    O210165   3.597   2.386  11.230 -0.5348  0.6763 -0.2856
  684MPD2     C10166   1.461   2.301  16.248  0.3397  0.3064  0.4738
  684MPD2    C110167   1.586   2.340  16.207  0.0294  1.0530 -0.0097
  684MPD2    C210168   1.627   2.471  16.232  0.6706 -0.3173  0.2159
  684MPD2    C310169   1.553   2.560  16.297  0.0486  0.1399  0.4973
  684MPD2    C410170   1.431   2.527  16.338  0.1455  0.6719 -0.0334
  684MPD2    C510171   1.384   2.400  16.307  0.5183  0.3181 -0.0535
  684MPD2     H10172   1.722   2.503  16.189  1.7198 -1.5516  1.6179
  684MPD2    H110173   1.364   2.589  16.397 -0.0612  2.1710 -1.8428
  684MPD2    H210174   1.416   2.205  16.224  2.1821 -1.0558  2.4847
  684MPD2    H310175   1.279   2.381  16.327  0.5896 -0.3155 -0.2798
  684MPD2     N10176   1.605   2.688  16.311 -0.0123  0.0616 -0.2755
  684MPD2    H510177   1.696   2.707  16.270  1.8458 -1.6708  3.1091
  684MPD2    N110178   1.671   2.260  16.122 -0.2680 -0.1304  0.3380
  684MPD2    H710179   1.751   2.319  16.102 -0.7265  0.8926  1.4960
  685TMC3    C110180   1.710   2.180  15.916 -0.3215  0.6949  0.0605
  685TMC3    C210181   1.641   2.243  15.820  0.1600  0.6074  0.7893
  685TMC3    C310182   1.707   2.340  15.750 -0.7375 -0.4595 -0.1912
  685TMC3    C410183   1.835   2.214  15.951  0.1484 -0.9234  0.2143
  685TMC3    C510184   1.900   2.313  15.889  0.5324 -0.1371 -0.4137
  685TMC3    C610185   1.840   2.371  15.783  0.0422  0.5333 -0.0764
  685TMC3     C10186   1.619   2.177  16.031  0.3311  0.2058 -0.7747
  685TMC3     O10187   1.501   2.138  16.017 -0.0782  0.6251  0.5271
  685TMC3     H10188   1.544   2.202  15.791 -0.0652 -0.3912  3.0042
  685TMC3    H110189   1.881   2.161  16.034 -1.0189 -0.1662  1.3452
  685TMC3    H210190   1.890   2.456  15.737 -1.8354  1.6832  0.0236
  685TMC3    C710191   1.997   2.377  15.969 -0.2269  0.5313 -0.3211
  685TMC3    C810192   1.635   2.472  15.743  0.5174 -0.1406  0.3540
  685TMC3    O110193   1.962   2.368  16.088 -1.0891 -0.1647 -0.2778
  685TMC3    O210194   1.701   2.569  15.700  0.1797 -0.1430  0.8071
  686MPD2     C10195   3.677   1.986  15.834  0.2299  0.3237 -0.4980
  686MPD2    C110196   3.541   1.992  15.810  0.7550 -0.0614 -0.2951
  686MPD2    C210197   3.482   1.903  15.723 -0.1633 -0.0556 -0.1343
  686MPD2    C310198   3.561   1.827  15.641  0.5212  0.3989 -0.6352
  686MPD2    C410199   3.695   1.827  15.657 -0.0672 -0.0138 -0.0721
  686MPD2    C510200   3.754   1.900  15.761 -0.5366  0.6166 -0.2932
  686MPD2     H10201   3.375   1.901  15.706  0.0630 -1.2360 -1.3470
  686MPD2    H110202   3.766   1.777  15.592  3.7582  0.3630  3.8464
  686MPD2    H210203   3.721   2.056  15.905  1.8013 -2.9416  1.7230
  686MPD2    H310204   3.861   1.893  15.775 -0.5430 -2.3603 -1.7062
  686MPD2     N10205   3.499   1.750  15.536 -0.2484  0.4194 -0.3924
  686MPD2    H510206   3.550   1.725  15.452  0.5650 -0.4976  0.3675
  686MPD2    N110207   3.473   2.085  15.895 -0.0985  0.1829  0.0306
  686MPD2    H710208   3.528   2.143  15.958 -0.1396 -1.3565  1.4898
  687TMC3    C110209   3.288   1.682  15.651 -0.3349  0.2466 -0.5004
  687TMC3    C210210   3.152   1.720  15.648  0.5746  0.2774 -0.0405
  687TMC3    C310211   3.089   1.717  15.767 -0.1213 -0.3393  0.0898
  687TMC3    C410212   3.357   1.643  15.768  0.7588  0.3797  0.2150
  687TMC3    C510213   3.283   1.642  15.882 -0.0391  0.3542 -0.0029
  687TMC3    C610214   3.151   1.680  15.881 -0.4773 -0.1685 -0.5658
  687TMC3     C10215   3.366   1.719  15.532 -0.0966  0.5722  0.3592
  687TMC3     O10216   3.293   1.723  15.432 -0.5304  0.0242 -0.4739
  687TMC3     H10217   3.100   1.756  15.559 -0.1702 -0.6162  0.0261
  687TMC3    H110218   3.458   1.603  15.762 -0.1788 -1.8664 -0.4571
  687TMC3    H210219   3.098   1.698  15.974  0.8042 -0.7398  0.2756
  687TMC3    C710220   3.351   1.704  15.995 -0.6460  0.0173  0.3972
  687TMC3    C810221   2.971   1.798  15.777 -0.1194 -0.0482 -0.2208
  687TMC3    O110222   3.283   1.779  16.065  0.0277  0.3177 -0.2331
  687TMC3    O210223   2.900   1.762  15.867 -0.4800  0.1836 -0.3513
  688MPD2     C10224   2.595   1.595  17.390 -0.6254  0.0401  0.5004
  688MPD2    C110225   2.507   1.502  17.339  0.1231  0.1127 -0.1747
  688MPD2    C210226   2.520   1.442  17.214 -0.1027 -0.7580 -0.2097
  688MPD2    C310227   2.630   1.471  17.144 -0.0502  0.2193  0.0544
  688MPD2    C410228   2.719   1.562  17.194 -0.2600 -0.1731 -0.4283
  688MPD2    C510229   2.705   1.618  17.318  0.0272 -0.6609  0.1542
  688MPD2     H10230   2.446   1.374  17.175  1.2486 -1.0336 -2.2831
  688MPD2    H110231   2.820   1.577  17.157 -0.2732  4.0286  1.1972
  688MPD2    H210232   2.588   1.635  17.490  0.9629  0.1108  0.5781
  688MPD2    H310233   2.781   1.680  17.364  0.4724 -1.1664  0.1035
  688MPD2     N10234   2.669   1.393  17.026 -0.2324  0.1267 -0.3011
  688MPD2    H510235   2.748   1.432  16.976  0.5980  1.4548  2.0691
  688MPD2    N110236   2.411   1.461  17.433 -0.2557 -0.4291  0.5426
  688MPD2    H710237   2.423   1.494  17.529  0.7278  2.3530 -0.5585
  689TMC3    C110238   2.221   1.354  17.532 -0.0921 -0.7649 -0.3943
  689TMC3    C210239   2.228   1.455  17.627 -0.2454  0.4401 -0.0056
  689TMC3    C310240   2.188   1.411   0.015 -0.0434  0.0938 -0.6484
  689TMC3    C410241   2.186   1.224  17.548 -0.5008  0.0104  0.2279
  689TMC3    C510242   2.144   1.195  17.672  0.3771  0.0090  0.4785
  689TMC3    C610243   2.137   1.288   0.040  0.0580 -1.0141 -0.1893
  689TMC3     C10244   2.304   1.375  17.414  0.1598  0.1199 -0.0279
  689TMC3     O10245   2.258   1.328  17.312  0.2330 -0.1503 -0.2590
  689TMC3     H10246   2.251   1.552  17.584  1.2275 -0.9260 -2.2826
  689TMC3    H110247   2.176   1.156  17.463 -1.4081 -1.8387  1.8085
  689TMC3    H210248   2.083   1.262   0.131 -1.3774 -1.1515 -1.0793
  689TMC3    C710249   2.101   1.059  17.697  0.7917 -0.3562  0.0384
  689TMC3    C810250   2.123   1.513   0.107  0.2918  0.1872  0.0178
  689TMC3    O110251   2.081   1.025   0.073  0.0531 -0.5845  0.4447
  689TMC3    O210252   2.040   1.468   0.185 -0.3745  0.1779  0.2824
  690MPD2     C10253   4.716   3.148  15.669 -0.2054  0.4310 -0.3004
  690MPD2    C110254   4.679   3.105  15.542 -0.5764 -0.0033 -0.5559
  690MPD2    C210255   0.035   3.122  15.437  0.4985 -0.7088  0.0456
  690MPD2    C310256   0.157   3.185  15.462  0.3306  0.8092 -0.0833
  690MPD2    C410257   0.194   3.209  15.586 -0.5725 -0.2744  0.1021
  690MPD2    C510258   0.108   3.183  15.684 -0.6965  0.6667 -0.5874
  690MPD2     H10259   0.011   3.094  15.336  2.3943  0.0643 -0.6110
  690MPD2    H110260   0.287   3.260  15.609 -0.7801 -0.7897  2.0868
  690MPD2    H210261   4.670   3.117  15.763 -0.1792 -0.7407 -0.6667
  690MPD2    H310262   0.143   3.201  15.785  1.6349 -1.2744 -1.0717
  690MPD2     N10263   0.244   3.218  15.352 -0.8235 -0.2468  0.4423
  690MPD2    H510264   0.206   3.200  15.259 -2.0246 -0.7914  1.0384
  690MPD2    N110265   4.561   3.041  15.508 -0.9479  0.2456  0.6710
  690MPD2    H710266   4.550   2.996  15.417  0.1773  1.7644 -0.2081
  691TMC3    C110267   4.357   2.918  15.542  0.2808 -0.2139 -0.3965
  691TMC3    C210268   4.244   2.913  15.620 -0.2753 -0.3530 -0.6992
  691TMC3    C310269   4.163   2.799  15.594  0.9524  0.6577 -0.3659
  691TMC3    C410270   4.390   2.827  15.439  0.1604  0.2317 -0.1317
  691TMC3    C510271   4.307   2.712  15.427 -0.9847 -0.0738  0.1449
  691TMC3    C610272   4.193   2.702  15.505  0.2928 -0.3724 -0.6232
  691TMC3     C10273   4.461   3.011  15.596  0.2414  0.9879 -0.4671
  691TMC3     O10274   4.447   3.060  15.704  0.4432  0.2083 -0.0832
  691TMC3     H10275   4.231   2.978  15.705  1.4125 -0.6093 -0.2501
  691TMC3    H110276   4.490   2.821  15.400  0.8931  0.2928  1.7475
  691TMC3    H210277   4.124   2.619  15.497 -0.5344  0.1719  0.9639
  691TMC3    C710278   4.384   2.588  15.412 -0.3271 -0.1511  0.3455
  691TMC3    C810279   4.055   2.768  15.680 -0.3358  0.0641 -0.0838
  691TMC3    O110280   4.502   2.601  15.433 -0.0187  0.2239  0.4123
  691TMC3    O210281   4.014   2.654  15.686 -0.0066  0.5298  0.3065
  692TMC3    C110282   1.086   4.054  15.933 -0.2525 -0.2675  0.3492
  692TMC3    C210283   1.204   4.124  15.942 -0.1442 -0.2812  0.5588
  692TMC3    C310284   1.322   4.059  15.949 -0.2366 -0.7179  0.1536
  692TMC3    C410285   1.089   3.917  15.939 -0.2517  0.7842  0.0046
  692TMC3    C510286   1.210   3.852  15.945  0.1044  0.6197 -0.1387
  692TMC3    C610287   1.327   3.918  15.962  0.5650 -0.2911  0.8867
  692TMC3     C10288   0.963   4.124  15.955 -0.1624  0.4977  0.2951
  692TMC3     O10289   0.980   4.236  16.001  0.3525  0.0042 -0.2666
  692TMC3     H10290   1.200   4.216  15.886  0.4651  0.6742  2.0782
  692TMC3    H110291   0.993   3.866  15.942  1.1343 -1.8070  0.1452
  692TMC3    H210292   1.424   3.871  15.952  1.1083  0.9928  0.1165
  692TMC3    C710293   1.205   3.714  15.903 -0.7967  0.1864 -0.0488
  692TMC3    C810294   1.386   4.117  16.069 -0.5208 -0.5584  0.0554
  692TMC3    O110295   1.099   3.674  15.860  0.4197 -0.0708 -0.4334
  692TMC3    O210296   1.454   4.040  16.136 -0.2149 -1.1319  0.4251
  693MPD2     C10297   0.689   2.020  11.255  0.1896  0.1345 -0.6536
  693MPD2    C110298   0.709   1.888  11.254  0.4808 -0.2718  0.6414
  693MPD2    C210299   0.828   1.841  11.307  0.2359 -0.9189 -0.0760
  693MPD2    C310300   0.926   1.922  11.361  0.3165  0.1368  0.6800
  693MPD2    C410301   0.902   2.057  11.367  0.7096 -0.0413  0.5244
  693MPD2    C510302   0.784   2.104  11.316 -0.7037 -0.0254  0.5481
  693MPD2     H10303   0.843   1.734  11.321  0.4238 -0.9896 -0.8225
  693MPD2    H110304   0.976   2.125  11.407 -0.4880  0.1216  2.4560
  693MPD2    H210305   0.593   2.065  11.232 -0.0075 -0.3727 -0.8078
  693MPD2    H310306   0.764   2.211  11.320 -2.9070 -0.4937  1.9089
  693MPD2     N10307   1.059   1.873  11.393 -0.3835 -0.1898 -0.2487
  693MPD2    H510308   1.124   1.947  11.420 -1.0955 -0.5788  2.4500
  693MPD2    N110309   0.615   1.795  11.204 -0.8134 -0.7245 -0.2508
  693MPD2    H710310   0.622   1.694  11.216  1.6802 -0.2216  2.6069
  694TMC3    C110311   0.422   1.721  11.109 -0.5212 -0.1214  0.5261
  694TMC3    C210312   0.359   1.724  10.990 -0.3087  0.3153 -0.0076
  694TMC3    C310313   0.267   1.622  10.969 -0.1466  0.3490 -0.4139
  694TMC3    C410314   0.389   1.645  11.220 -0.1238 -0.4379 -0.3330
  694TMC3    C510315   0.281   1.567  11.205  0.4636 -0.3270 -0.1518
  694TMC3    C610316   0.231   1.538  11.075  0.0151  0.3819 -0.1102
  694TMC3     C10317   0.508   1.827  11.129  0.1094 -1.2540 -0.0558
  694TMC3     O10318   0.473   1.933  11.083 -0.6961  0.1980 -0.7490
  694TMC3     H10319   0.397   1.786  10.909 -0.8112  2.8255  1.6879
  694TMC3    H110320   0.428   1.661  11.320 -0.7649  1.2455 -0.3475
  694TMC3    H210321   0.159   1.460  11.055  1.3374 -0.3443 -2.0659
  694TMC3    C710322   0.227   1.496  11.321  0.3556 -0.5222 -0.3760
  694TMC3    C810323   0.192   1.621  10.837 -0.0729 -0.0763 -0.0527
  694TMC3    O110324   0.281   1.531  11.426 -0.5379 -0.0316 -0.1679
  694TMC3    O210325   0.110   1.537  10.818  0.0552 -0.1292  0.3165
  695MPD2     C10326   1.995   3.909  13.398  0.0383  0.8392 -0.1341
  695MPD2    C110327   1.925   3.949  13.510 -0.0698  0.0950  0.2730
  695MPD2    C210328   1.802   4.001  13.490 -0.9557 -0.0143  0.2139
  695MPD2    C310329   1.736   3.996  13.369  0.3275 -0.8010 -0.4578
  695MPD2    C410330   1.808   3.936  13.263 -1.1752 -0.3312  0.2761
  695MPD2    C510331   1.937   3.901  13.284 -0.4077 -0.0468 -0.4798
  695MPD2     H10332   1.738   4.045  13.566 -4.3743  0.0911 -2.7302
  695MPD2    H110333   1.762   3.927  13.165  1.7605 -0.9261 -1.0720
  695MPD2    H210334   2.100   3.885  13.409 -0.3199 -0.2390  0.9792
  695MPD2    H310335   1.987   3.871  13.192 -0.1788 -1.4581  0.1008
  695MPD2     N10336   1.601   4.032  13.370  0.0757  0.6334  0.3275
  695MPD2    H510337   1.566   4.084  13.450 -1.4532  0.2280 -0.0899
  695MPD2    N110338   1.977   3.958  13.638 -0.0735  0.0494 -0.0016
  695MPD2    H710339   1.928   4.017  13.704 -0.3597  0.8626 -0.9441
  696TMC3    C110340   1.393   4.076  13.299 -0.4580 -0.6094 -0.5179
  696TMC3    C210341   1.360   4.048  13.431 -0.3619  0.3578 -0.0171
  696TMC3    C310342   1.240   4.105  13.473 -0.5521 -0.6657  0.6538
  696TMC3    C410343   1.348   4.182  13.223 -0.4263  0.3053 -0.8656
  696TMC3    C510344   1.244   4.243  13.286  0.0781 -0.1576  0.6096
  696TMC3    C610345   1.178   4.204  13.401  0.0695  0.4308 -0.6222
  696TMC3     C10346   1.527   4.035  13.259  0.3502 -0.7670 -0.5872
  696TMC3     O10347   1.550   4.000  13.143  0.1039 -0.4429 -0.5729
  696TMC3     H10348   1.402   3.971  13.494 -1.5154 -1.5006 -1.5173
  696TMC3    H110349   1.389   4.225  13.132 -0.4868  0.1178 -0.9828
  696TMC3    H210350   1.087   4.247  13.441 -0.1125 -2.2561  1.8577
  696TMC3    C710351   1.233   4.383  13.257  0.3847 -0.0216 -0.8130
  696TMC3    C810352   1.212   4.087  13.619  0.1539  0.0036  0.2365
  696TMC3    O110353   1.274   4.424  13.150 -0.5126 -0.0553 -0.5195
  696TMC3    O210354   1.310   4.070  13.688  0.2467 -0.1834  0.2222
  697MPD2     C10355   1.072   1.253  15.734 -0.4858 -0.0144  0.2116
  697MPD2    C110356   1.065   1.184  15.614  0.9784  0.3264 -0.1062
  697MPD2    C210357   1.051   1.258  15.496  0.3007  0.0266 -0.0096
  697MPD2    C310358   1.058   1.391  15.486  0.3206 -0.2723  0.3974
  697MPD2    C410359   1.063   1.456  15.607  0.0702  0.1601  0.2314
  697MPD2    C510360   1.062   1.391  15.729  0.0820 -0.8174 -0.0403
  697MPD2     H10361   1.028   1.197  15.409 -1.6850  0.7906 -0.0285
  697MPD2    H110362   1.063   1.564  15.615  1.0289  0.1876 -0.2097
  697MPD2    H210363   1.056   1.214  15.834 -0.7227 -0.3017  0.0613
  697MPD2    H310364   1.051   1.452  15.818 -2.0531 -0.5707 -0.4559
  697MPD2     N10365   1.058   1.451  15.358  0.4050 -0.4132  0.0104
  697MPD2    H510366   1.034   1.389  15.281 -2.0174  1.9053 -1.1106
  697MPD2    N110367   1.048   1.043  15.603  0.0397  0.6209 -0.2805
  697MPD2    H710368   1.035   0.999  15.513 -0.3419  1.0020 -0.4088
  698TMC3    C110369   1.099   1.611  15.196  0.0370 -0.3646 -0.4751
  698TMC3    C210370   1.182   1.714  15.162  0.1682 -0.4109 -1.2349
  698TMC3    C310371   1.149   1.779  15.046 -0.0027 -0.5815  0.7424
  698TMC3    C410372   0.985   1.571  15.134 -0.2688  0.2940  1.0760
  698TMC3    C510373   0.955   1.637  15.018  0.0824 -0.2950  0.0297
  698TMC3    C610374   1.043   1.744  14.970  1.3792 -0.4561 -0.1610
  698TMC3     C10375   1.103   1.579  15.332  0.3299 -0.2550 -0.9691
  698TMC3     O10376   1.156   1.658  15.405 -0.1791 -0.0260 -0.2025
  698TMC3     H10377   1.275   1.722  15.217 -1.8635 -0.3757  2.2501
  698TMC3    H110378   0.919   1.500  15.183 -0.9866 -0.1410 -0.5346
  698TMC3    H210379   1.015   1.802  14.882  0.6465  0.3578  0.6058
  698TMC3    C710380   0.885   1.564  14.911  0.4698 -0.1009 -0.2811
  698TMC3    C810381   1.262   1.831  14.970 -0.1543 -0.2733  0.8353
  698TMC3    O110382   0.864   1.626  14.808 -0.1280 -0.3637 -0.6296
  698TMC3    O210383   1.250   1.829  14.848 -0.5641 -0.0368  0.2978
  699TMC3    C110384   1.174   3.962  12.921 -0.4686 -0.4396 -0.0756
  699TMC3    C210385   1.217   3.932  13.046  0.2463  0.5594 -0.3371
  699TMC3    C310386   1.126   3.903  13.138  0.1528  0.2797 -0.7264
  699TMC3    C410387   1.046   3.954  12.885  0.0608 -0.2043  0.3613
  699TMC3    C510388   0.959   3.904  12.975  0.0096 -1.4047 -0.0149
  699TMC3    C610389   0.993   3.879  13.106 -0.3413 -0.4585 -0.0358
  699TMC3     C10390   1.249   4.059  12.843 -0.1316  0.8281 -0.5490
  699TMC3     O10391   1.191   4.099  12.742  0.2644  0.3002 -0.0134
  699TMC3     H10392   1.325   3.930  13.060  0.5767 -0.6514 -2.9513
  699TMC3    H110393   1.016   3.969  12.782  2.3779  0.5929 -0.1937
  699TMC3    H210394   0.917   3.857  13.180 -0.5991 -0.8719 -0.4271
  699TMC3    C710395   0.817   3.901  12.931  0.0260  0.0926  0.5937
  699TMC3    C810396   1.169   3.797  13.237  0.3932 -0.6518 -0.3055
  699TMC3    O110397   0.732   3.889  13.020  0.2862 -0.1119  0.4460
  699TMC3    O210398   1.086   3.736  13.304  0.1028  0.0064  0.2632
  700TMC3    C110399   4.673   1.784  17.554 -0.5436  0.6846  0.3886
  700TMC3    C210400   4.721   1.659  17.541 -0.0690 -0.3463  0.3861
  700TMC3    C310401   0.101   1.623  17.602 -0.1759  0.3511 -0.5922
  700TMC3    C410402   4.720   1.868  17.648  0.0157 -0.1912 -0.1708
  700TMC3    C510403   0.102   1.828  17.708 -0.1408  0.3556 -0.5108
  700TMC3    C610404   0.160   1.703  17.698  0.3371  0.1618  0.2705
  700TMC3     C10405   4.659   1.857  17.430  0.6191 -0.0548 -0.0838
  700TMC3     O10406   4.707   1.969  17.430 -0.2011 -0.2655  0.0754
  700TMC3     H10407   4.700   1.608  17.447  1.6249 -1.7540  0.7539
  700TMC3    H110408   4.686   1.970  17.662 -1.5678 -0.3751 -2.7092
  700TMC3    H210409   0.254   1.669   0.001  0.2508 -1.6198 -0.9530
  700TMC3    C710410   0.204   1.931  17.711  0.8262 -0.2023 -0.4105
  700TMC3    C810411   0.163   1.494  17.572  0.0704  0.3037  0.2580
  700TMC3    O110412   0.308   1.914   0.027  0.3367 -0.3207 -0.0839
  700TMC3    O210413   0.279   1.482  17.599  0.6218 -0.2298  0.2841
  701TMC3    C110414   0.248   0.251  15.686 -0.3373  0.3463  0.0537
  701TMC3    C210415   0.301   0.173  15.585 -0.1369 -0.3046 -0.2634
  701TMC3    C310416   0.417   0.221  15.522 -0.6726 -1.0980  0.6286
  701TMC3    C410417   0.305   0.372  15.729 -0.4446 -0.2393 -0.0548
  701TMC3    C510418   0.418   0.416  15.658 -0.2652 -0.9013  0.8560
  701TMC3    C610419   0.480   0.338  15.559  0.0985  0.1760 -0.1110
  701TMC3     C10420   0.142   0.184  15.755 -0.2567 -0.0015 -0.1211
  701TMC3     O10421   0.146   0.062  15.750 -0.2850 -0.2501 -0.1129
  701TMC3     H10422   0.270   0.072  15.560  2.1251 -0.8342 -0.9016
  701TMC3    H110423   0.265   0.436  15.806  1.7411 -0.6294  1.3954
  701TMC3    H210424   0.562   0.383  15.505  1.5788 -0.2425  1.7812
  701TMC3    C710425   0.468   0.549  15.651  0.5476 -0.2410 -0.2940
  701TMC3    C810426   0.421   0.189  15.381 -0.0084 -0.3191 -0.3958
  701TMC3    O110427   0.488   0.602  15.543  0.2922 -0.6404  0.1126
  701TMC3    O210428   0.527   0.204  15.320  0.1523 -0.0490 -0.4583
  702MPD2     C10429   0.067   2.185  10.441  0.0497  0.3099  0.4257
  702MPD2    C110430   0.013   2.285  10.525 -0.4242 -0.6262 -0.2292
  702MPD2    C210431   0.013   2.413  10.478  0.2642  0.1726 -0.2842
  702MPD2    C310432   0.057   2.446  10.347 -0.3979  0.2878  0.2038
  702MPD2    C410433   0.118   2.347  10.273 -0.2044 -0.1653  0.1987
  702MPD2    C510434   0.128   2.219  10.320 -0.8596  0.3093  0.1467
  702MPD2     H10435   4.724   2.492  10.548  1.5932 -0.4851  0.9019
  702MPD2    H110436   0.175   2.382  10.187 -0.8308  0.2530 -0.0389
  702MPD2    H210437   0.098   2.088  10.477 -0.7249 -0.5526 -1.2309
  702MPD2    H310438   0.187   2.146  10.264  2.6759  0.0649  4.1466
  702MPD2     N10439   0.070   2.581  10.300  0.1796 -0.4408  0.4067
  702MPD2    H510440   0.106   2.597  10.206  0.8574 -0.5860  0.6449
  702MPD2    N110441   4.703   2.257  10.654  0.2100  0.2272  0.2624
  702MPD2    H710442   4.678   2.340  10.708  0.9715  0.4744  0.2382
  703TMC3    C110443   0.051   2.819  10.296  0.3807  0.3991  0.2358
  703TMC3    C210444   4.716   2.933  10.340 -0.0405 -0.3442  0.2981
  703TMC3    C310445   4.734   3.053  10.281 -0.2604 -0.2164 -0.7072
  703TMC3    C410446   0.152   2.839  10.205  0.1160  0.0172 -0.1280
  703TMC3    C510447   0.172   2.974  10.157  0.7235  0.1137  0.2849
  703TMC3    C610448   0.100   3.076  10.195 -0.1584 -0.2929 -0.5402
  703TMC3     C10449   0.015   2.691  10.352  0.5237 -0.2517  0.2102
  703TMC3     O10450   4.680   2.695  10.453 -0.3095  0.7434 -0.0767
  703TMC3     H10451   4.635   2.911  10.409 -0.5216 -1.4999 -0.6365
  703TMC3    H110452   0.222   2.763  10.175 -0.0037 -0.7443  1.4945
  703TMC3    H210453   0.120   3.177  10.163  1.4505 -0.5807 -0.4240
  703TMC3    C710454   0.285   2.989  10.068  0.5497 -0.0007  0.7306
  703TMC3    C810455   4.672   3.170  10.336  0.0654 -0.5622 -0.3888
  703TMC3    O110456   0.342   2.885  10.035 -0.1495  0.0495  0.1045
  703TMC3    O210457   0.010   3.263  10.355  0.0501  0.2831 -0.5375
  704TMC3    C110458   2.868   0.977  12.832  0.1459  0.6372  0.7359
  704TMC3    C210459   2.957   1.015  12.737 -0.1855 -0.5012  0.7417
  704TMC3    C310460   3.045   0.923  12.679 -1.0778  0.5342  0.0479
  704TMC3    C410461   2.860   0.848  12.870  0.3456  0.1234  0.1232
  704TMC3    C510462   2.954   0.763  12.817 -1.2491 -0.4783 -0.0304
  704TMC3    C610463   3.043   0.796  12.717 -0.0317 -0.4845  0.8928
  704TMC3     C10464   2.750   1.056  12.825  0.2803  0.1608 -0.7283
  704TMC3     O10465   2.663   1.020  12.904  0.1225 -0.3399  0.6833
  704TMC3     H10466   2.977   1.118  12.710  0.5865 -0.7054  0.5395
  704TMC3    H110467   2.785   0.809  12.938 -0.5094  0.6943 -0.4907
  704TMC3    H210468   3.097   0.712  12.673  1.2849  0.7614  0.1266
  704TMC3    C710469   2.906   0.629  12.823 -0.3910  0.0577  0.7232
  704TMC3    C810470   3.113   0.966  12.562  0.4917 -0.1223 -0.5234
  704TMC3    O110471   2.848   0.589  12.921  0.2777  0.1212 -0.3230
  704TMC3    O210472   3.048   1.049  12.499  0.0861 -0.5344  0.1466
  705MPD2     C10473   1.464   3.498  16.619  0.5992 -0.5684 -0.1187
  705MPD2    C110474   1.491   3.629  16.587  0.6829  0.3194  0.1896
  705MPD2    C210475   1.403   3.728  16.625  0.9479  0.5324  0.3879
  705MPD2    C310476   1.287   3.699  16.699  0.3807  0.1978  0.3629
  705MPD2    C410477   1.255   3.566  16.733  0.3853 -0.3703  0.1592
  705MPD2    C510478   1.349   3.477  16.697  1.1467  0.0211 -0.6643
  705MPD2     H10479   1.433   3.826  16.592  2.3846  0.1878  0.6704
  705MPD2    H110480   1.162   3.542  16.785  0.3344 -1.9061 -0.6581
  705MPD2    H210481   1.524   3.414  16.587  1.4773  0.6973 -1.7917
  705MPD2    H310482   1.318   3.374  16.709 -2.4820  1.5179  3.1338
  705MPD2     N10483   1.184   3.794  16.725  0.1002 -0.4257 -0.1972
  705MPD2    H510484   1.105   3.753  16.774 -1.7241  1.8638 -1.2048
  705MPD2    N110485   1.591   3.669  16.496  0.3314 -0.1761  0.2947
  705MPD2    H710486   1.596   3.765  16.463  0.9584 -0.1643  0.4189
  706TMC3    C110487   1.889   3.575  16.140 -0.0806 -0.0841 -0.6776
  706TMC3    C210488   1.896   3.706  16.100  0.0722  0.6935 -0.2868
  706TMC3    C310489   1.837   3.793  16.184  0.0676 -0.8235  0.1831
  706TMC3    C410490   1.837   3.541  16.263 -0.2294 -0.1713 -0.1587
  706TMC3    C510491   1.787   3.633  16.348 -0.5550 -0.8057 -0.4605
  706TMC3    C610492   1.773   3.756  16.302  0.4358 -0.4035  0.1582
  706TMC3     C10493   1.920   3.470  16.045 -0.7973  0.9475 -0.8961
  706TMC3     O10494   1.966   3.369  16.091 -0.2183 -0.0554 -0.0435
  706TMC3     H10495   1.940   3.727  16.004  1.6358  1.8213  0.6781
  706TMC3    H110496   1.845   3.434  16.281  0.3612  0.2186  1.9271
  706TMC3    H210497   1.732   3.832  16.367 -0.2809 -0.1533 -0.5895
  706TMC3    C710498   1.693   3.587  16.446 -0.5467 -0.4480  0.4449
  706TMC3    C810499   1.828   3.926  16.138 -0.2938 -0.9871 -0.7737
  706TMC3    O110500   1.717   3.470  16.475 -0.0534 -0.9210 -0.1671
  706TMC3    O210501   1.831   3.954  16.019  0.4116 -0.7982 -0.0359
  707TMC3    C110502   3.224   3.039   0.539 -1.0124  0.1706  0.1352
  707TMC3    C210503   3.184   3.016   0.667  0.6037 -0.3238 -0.7078
  707TMC3    C310504   3.073   2.940   0.694  0.1091 -0.8819 -0.0386
  707TMC3    C410505   3.152   2.990   0.437 -0.8561 -0.7575  0.1572
  707TMC3    C510506   3.028   2.930   0.467  0.1713 -0.1819 -0.1653
  707TMC3    C610507   2.982   2.913   0.597  0.6134  0.0816 -0.5761
  707TMC3     C10508   3.369   3.037   0.526  0.0047 -0.3836 -0.4938
  707TMC3     O10509   3.423   3.017   0.636  0.4580 -0.1018 -0.3208
  707TMC3     H10510   3.233   3.066   0.750  1.4225 -1.7677 -0.3313
  707TMC3    H110511   3.170   3.018   0.334 -0.0657  0.6712  0.6933
  707TMC3    H210512   2.883   2.877   0.624  0.1079  2.4029  0.6704
  707TMC3    C710513   2.994   2.837   0.359 -0.5993  0.0853  0.3376
  707TMC3    C810514   3.028   2.925   0.830  0.1059  0.1412  0.3686
  707TMC3    O110515   3.044   2.859   0.249 -0.1836  0.3410 -0.5675
  707TMC3    O210516   2.914   2.952   0.861  0.0100 -0.5003 -0.1136
  708MPD2     C10517   0.108   2.245  13.803  0.0912 -1.3550 -0.6965
  708MPD2    C110518   0.225   2.269  13.867  0.5659 -0.2290 -0.2392
  708MPD2    C210519   0.257   2.210  13.992  0.3919  0.1379  0.2592
  708MPD2    C310520   0.155   2.136  14.059 -0.4791  0.3877  0.3792
  708MPD2    C410521   0.033   2.122  13.990  0.7222 -0.4886  1.4314
  708MPD2    C510522   0.011   2.176  13.867 -0.4646 -0.0017  0.0152
  708MPD2     H10523   0.345   2.230  14.052 -0.6681  0.1923  1.8124
  708MPD2    H110524   4.684   2.069  14.032 -1.5746  1.4582 -0.7273
  708MPD2    H210525   0.075   2.309  13.722  3.2879  0.9537 -0.1818
  708MPD2    H310526   4.648   2.159  13.826 -0.1296  0.1196 -0.8322
  708MPD2     N10527   0.157   2.077  14.189  0.3901 -0.1434  0.0570
  708MPD2    H510528   0.070   2.039  14.226 -0.3128  1.6427  0.2014
  708MPD2    N110529   0.301   2.380  13.821  0.1128 -0.4493 -0.1495
  708MPD2    H710530   0.252   2.446  13.761  0.4037  0.5495  0.7022
  709TMC3    C110531   0.449   2.564  13.882 -0.5485  0.2216  0.2187
  709TMC3    C210532   0.401   2.633  13.772  0.1132 -0.1167 -0.3787
  709TMC3    C310533   0.333   2.745  13.796  0.0958 -0.0644  0.1198
  709TMC3    C410534   0.436   2.611  14.007 -0.5073  0.1547 -0.1691
  709TMC3    C510535   0.352   2.718  14.024 -0.5092 -0.5976  0.5386
  709TMC3    C610536   0.303   2.791  13.919 -0.3667  0.1728  0.1853
  709TMC3     C10537   0.426   2.416  13.876 -0.1068  0.3345  0.1790
  709TMC3     O10538   0.503   2.341  13.936  0.0649 -0.1461 -0.1480
  709TMC3     H10539   0.424   2.598  13.672  0.3780  0.0927 -0.3897
  709TMC3    H110540   0.484   2.561  14.091 -1.4378 -3.4197 -1.8055
  709TMC3    H210541   0.254   2.887  13.937 -0.9183 -0.1352  0.3408
  709TMC3    C710542   0.271   2.690  14.141 -0.4774 -0.2191  0.0339
  709TMC3    C810543   0.321   2.853  13.696 -0.3332  0.2648 -0.3248
  709TMC3    O110544   0.328   2.655  14.243  1.0549 -0.4824 -0.6103
  709TMC3    O210545   0.339   2.963  13.746 -0.2308  0.0209 -0.2498
  710TMC3    C110546   0.934   3.618   0.108 -0.2259  0.0941  0.5692
  710TMC3    C210547   0.992   3.620  17.725  0.0355 -0.3533  0.0010
  710TMC3    C310548   1.057   3.508  17.686  0.6172  0.2114 -0.2898
  710TMC3    C410549   0.948   3.515   0.192 -0.2056  0.1647 -0.2266
  710TMC3    C510550   1.010   3.402   0.149 -0.1121  0.0619 -0.3178
  710TMC3    C610551   1.065   3.393   0.023  0.2737  0.5958  0.0264
  710TMC3     C10552   0.891   3.752   0.158 -0.4412  0.4072 -0.2205
  710TMC3     O10553   0.904   3.846   0.081 -0.6137  0.4441  0.0694
  710TMC3     H10554   0.994   3.712  17.667 -2.6003 -0.4706 -0.2469
  710TMC3    H110555   0.880   3.504   0.276 -0.0968 -0.9221 -0.2703
  710TMC3    H210556   1.110   3.303  17.721 -0.1877  0.2455  0.2805
  710TMC3    C710557   1.047   3.304   0.245  0.1739 -0.0916  0.0682
  710TMC3    C810558   1.174   3.526  17.605  0.3883 -0.0356 -0.7314
  710TMC3    O110559   1.029   3.334   0.359  0.1268  0.1747  0.1944
  710TMC3    O210560   1.171   3.562  17.485 -0.6008  0.0924  0.0661
  711TMC3    C110561   0.873   0.042  14.924 -0.6207 -0.2048  0.2241
  711TMC3    C210562   0.792   0.033  15.039 -0.0432 -0.2414  0.0662
  711TMC3    C310563   0.830   0.104  15.150 -0.0408 -0.3392 -0.0974
  711TMC3    C410564   0.979   0.124  14.912  0.5819 -1.1819  0.3580
  711TMC3    C510565   1.020   0.181  15.031 -0.2416 -0.2050  0.3750
  711TMC3    C610566   0.943   0.182  15.144 -0.1150  0.0252 -0.2020
  711TMC3     C10567   0.882   4.653  14.855 -0.1873  0.0197 -0.2382
  711TMC3     O10568   0.780   4.621  14.797  0.5500 -0.0505 -0.0290
  711TMC3     H10569   0.706   4.702  15.037  0.7730 -1.2784 -0.7120
  711TMC3    H110570   1.041   0.124  14.823  0.0537 -0.3607 -0.0021
  711TMC3    H210571   0.979   0.242  15.227 -0.3790  1.6235 -1.2358
  711TMC3    C710572   1.162   0.165  15.057  0.0037 -0.0210  0.4108
  711TMC3    C810573   0.804   0.020  15.268 -0.0308 -0.2086  0.0383
  711TMC3    O110574   1.171   0.161  15.181 -0.2919  0.1550  0.0664
  711TMC3    O210575   0.719   4.667  15.266  0.2748 -0.6835 -0.2339
  712MPD2     C10576   2.170   0.905  13.579  0.2397  0.3117 -0.6041
  712MPD2    C110577   2.087   1.021  13.582 -0.0948 -0.5976 -0.7884
  712MPD2    C210578   2.129   1.127  13.659  0.2546 -0.2464  0.4711
  712MPD2    C310579   2.252   1.138  13.724 -0.0511 -0.0366 -0.7923
  712MPD2    C410580   2.337   1.029  13.710 -0.5484  0.2914  1.1480
  712MPD2    C510581   2.292   0.919  13.634 -0.1656  0.6797 -0.3022
  712MPD2     H10582   2.063   1.213  13.664  0.2238 -0.4350  3.1761
  712MPD2    H110583   2.435   1.029  13.756 -0.1849  0.6631  0.3708
  712MPD2    H210584   2.142   0.823  13.514 -0.9189  0.0485  0.2472
  712MPD2    H310585   2.354   0.832  13.615 -2.3322 -0.8027 -0.6281
  712MPD2     N10586   2.293   1.260  13.783 -0.0585 -0.4190  0.1320
  712MPD2    H510587   2.378   1.258  13.837 -0.3961  0.3917  0.6885
  712MPD2    N110588   1.973   1.033  13.499 -0.9865 -0.2922 -0.0689
  712MPD2    H710589   1.970   0.971  13.419  2.2543 -1.3912  0.6545
  713TMC3    C110590   2.311   1.490  13.813  0.1245  0.2405 -0.4172
  713TMC3    C210591   2.448   1.482  13.812 -0.0424 -0.2865  0.0509
  713TMC3    C310592   2.518   1.598  13.834  0.6049 -0.6968 -0.2052
  713TMC3    C410593   2.245   1.607  13.827  0.5053  0.6752  0.0351
  713TMC3    C510594   2.321   1.720  13.837  0.8401 -0.0682  0.4176
  713TMC3    C610595   2.458   1.724  13.837 -0.1221 -0.0587 -0.1521
  713TMC3     C10596   2.228   1.379  13.772  0.0483 -0.4431  0.3719
  713TMC3     O10597   2.121   1.417  13.725 -0.3065  0.6527  0.5225
  713TMC3     H10598   2.511   1.401  13.778  0.5397 -0.4488  1.5296
  713TMC3    H110599   2.137   1.612  13.839  0.4345 -0.1332 -0.2389
  713TMC3    H210600   2.504   1.822  13.834 -1.9346  0.8209  0.9719
  713TMC3    C710601   2.260   1.844  13.892  0.0882  0.2394  0.2723
  713TMC3    C810602   2.654   1.609  13.791  1.1871 -0.2381 -0.2577
  713TMC3    O110603   2.340   1.922  13.945  0.4646  0.1694 -0.1169
  713TMC3    O210604   2.679   1.704  13.713 -0.2737  0.1798  0.1832
  714MPD2     C10605   4.353   4.187   1.090  0.3554  0.2613 -0.0978
  714MPD2    C110606   4.344   4.153   1.219 -0.5456  0.0171 -0.3622
  714MPD2    C210607   4.240   4.204   1.299 -0.1406 -0.5174  0.3945
  714MPD2    C310608   4.143   4.289   1.246 -0.5388 -0.2890 -0.3663
  714MPD2    C410609   4.156   4.329   1.116 -0.7408 -0.4553 -0.1696
  714MPD2    C510610   4.255   4.270   1.045 -0.3501  0.2571  0.3550
  714MPD2     H10611   4.225   4.185   1.404  1.3400 -0.1119  0.6813
  714MPD2    H110612   4.084   4.390   1.063  0.8252  0.1035 -1.6429
  714MPD2    H210613   4.423   4.135   1.026 -1.1899  0.4508 -1.9406
  714MPD2    H310614   4.237   4.274   0.938 -2.0016  1.2355  0.6696
  714MPD2     N10615   4.027   4.317   1.319  0.1257 -0.3566 -0.7210
  714MPD2    H510616   4.019   4.261   1.403 -1.7746 -1.4861 -1.6565
  714MPD2    N110617   4.448   4.067   1.263  0.4012  0.1260  0.4122
  714MPD2    H710618   4.513   4.040   1.190  0.0758  1.5091 -0.3969
  715TMC3    C110619   4.584   3.960   1.415  0.3886  0.3015 -0.0291
  715TMC3    C210620   4.617   3.857   1.324  0.2842 -0.1515 -0.5882
  715TMC3    C310621   0.005   3.800   1.338  0.0168  0.1800 -0.5331
  715TMC3    C410622   4.674   4.008   1.502  0.1384 -0.0777  0.4960
  715TMC3    C510623   0.065   3.956   1.494 -0.3459  0.3537  0.1896
  715TMC3    C610624   0.100   3.843   1.423  0.5552 -0.0233  0.0936
  715TMC3     C10625   4.466   4.040   1.396 -0.5024 -0.1184  0.0097
  715TMC3     O10626   4.422   4.092   1.497  0.0998 -0.1756  0.3053
  715TMC3     H10627   4.551   3.821   1.245  0.0969 -2.4842  0.6164
  715TMC3    H110628   4.649   4.101   1.552 -0.1978  0.3881 -0.5353
  715TMC3    H210629   0.203   3.809   1.419  0.3478 -0.2653 -3.3507
  715TMC3    C710630   0.158   3.989   1.603  0.0314  0.3306  0.1663
  715TMC3    C810631   0.028   3.674   1.258 -0.6465 -0.2899 -0.5327
  715TMC3    O110632   0.242   3.907   1.629 -0.2231  0.4175 -0.5988
  715TMC3    O210633   4.673   3.634   1.187  0.0082 -0.2597 -0.0223
  716MPD2     C10634   4.516   2.335  10.094 -1.0255  0.1072  0.4389
  716MPD2    C110635   4.505   2.345   9.960  0.1670  0.3069  0.2155
  716MPD2    C210636   4.574   2.253   9.882  0.0116 -0.4243 -0.3330
  716MPD2    C310637   4.644   2.147   9.932  0.3710 -0.0752 -0.2068
  716MPD2    C410638   4.640   2.129  10.070  1.1233 -0.1636 -0.0867
  716MPD2    C510639   4.581   2.224  10.152  0.2196  0.1734  0.2112
  716MPD2     H10640   4.575   2.264   9.774  0.1468  0.9092 -0.1960
  716MPD2    H110641   4.685   2.038  10.108  0.0993 -1.3200 -1.6569
  716MPD2    H210642   4.483   2.412  10.161 -0.6774  0.1407  0.5728
  716MPD2    H310643   4.586   2.213  10.260 -0.6369 -0.7774  0.1506
  716MPD2     N10644   4.717   2.064   9.834 -0.0340  0.6337  0.1224
  716MPD2    H510645   4.725   2.105   9.741  0.7228 -0.5755 -0.3372
  716MPD2    N110646   4.445   2.460   9.910 -0.5430  0.5189  0.6821
  716MPD2    H710647   4.409   2.522   9.982 -3.3217  1.6092 -1.6667
  717TMC3    C110648   0.154   1.923   9.775  0.8126  0.5794 -0.2921
  717TMC3    C210649   0.168   2.006   9.669  1.0899  0.6437 -0.2752
  717TMC3    C310650   0.233   1.962   9.555  0.5395  0.0955 -0.4782
  717TMC3    C410651   0.218   1.800   9.768 -0.0037  0.9316  0.2408
  717TMC3    C510652   0.280   1.763   9.649  0.7590  0.4531 -0.3961
  717TMC3    C610653   0.291   1.843   9.540 -0.9050  0.8570  0.3931
  717TMC3     C10654   0.054   1.956   9.870  0.0909  0.2609 -0.0873
  717TMC3     O10655   0.056   1.896   9.976 -0.1511 -0.0263  0.4289
  717TMC3     H10656   0.143   2.111   9.677 -1.2634  0.2065 -1.7890
  717TMC3    H110657   0.218   1.735   9.854 -2.5478  2.0083  1.0414
  717TMC3    H210658   0.346   1.808   9.454 -1.1038  0.2114  0.5237
  717TMC3    C710659   0.240   1.630   9.619  0.3376  0.2367  0.2667
  717TMC3    C810660   0.235   2.062   9.446  0.7302 -0.2836 -0.2355
  717TMC3    O110661   0.257   1.546   9.708 -0.5128  0.2958  0.3671
  717TMC3    O210662   0.160   2.152   9.466 -0.0999  0.0716 -0.1319
  718MPD2     C10663   4.406   0.873  12.949  0.6240 -0.1268  0.1967
  718MPD2    C110664   4.354   0.994  12.932  0.3171 -0.0088 -0.3312
  718MPD2    C210665   4.220   1.018  12.937 -0.7412 -0.1695 -0.6461
  718MPD2    C310666   4.124   0.920  12.954 -0.2094 -0.2986 -0.0763
  718MPD2    C410667   4.177   0.788  12.986 -0.0903 -0.2474 -0.0670
  718MPD2    C510668   4.316   0.773  12.981  0.3545  0.1663 -0.1088
  718MPD2     H10669   4.189   1.120  12.916  0.5868  0.2873 -0.3883
  718MPD2    H110670   4.114   0.702  13.004 -0.6443  0.1081 -0.3140
  718MPD2    H210671   4.511   0.845  12.945  0.2595 -1.4377 -0.4485
  718MPD2    H310672   4.359   0.674  12.982  1.0801  0.4790 -0.2806
  718MPD2     N10673   3.985   0.953  12.939 -0.2499  0.4859  0.7232
  718MPD2    H510674   3.952   1.049  12.933 -4.4405 -0.9777 -0.2053
  718MPD2    N110675   4.430   1.105  12.904 -0.0938  0.0219 -0.0742
  718MPD2    H710676   4.383   1.194  12.893  1.8775  1.2053  0.9961
  719TMC3    C110677   4.590   1.236  12.810  0.3954 -0.7634 -0.1380
  719TMC3    C210678   4.503   1.335  12.839  0.2331 -0.4740 -0.3225
  719TMC3    C310679   4.445   1.417  12.746  0.1827 -0.0802 -0.0428
  719TMC3    C410680   4.625   1.222  12.680 -0.2589  0.2953 -0.0973
  719TMC3    C510681   4.559   1.288  12.582  0.7466 -0.2731 -0.9011
  719TMC3    C610682   4.466   1.386  12.610  0.1527 -0.1489  0.0512
  719TMC3     C10683   4.568   1.110  12.876 -0.5894  0.2183 -0.5395
  719TMC3     O10684   4.646   1.021  12.859  0.6108 -0.1433  0.6416
  719TMC3     H10685   4.474   1.362  12.940 -1.4220  0.2984 -0.9973
  719TMC3    H110686   4.703   1.153  12.651  1.2350  1.3320  1.4689
  719TMC3    H210687   4.420   1.450  12.536 -0.1756  0.1567  0.5189
  719TMC3    C710688   4.504   1.186  12.488  0.2561 -0.0106  0.4332
  719TMC3    C810689   4.301   1.425  12.769 -0.4061 -0.0268 -0.3524
  719TMC3    O110690   4.575   1.094  12.454 -0.1806  0.2981 -0.3989
  719TMC3    O210691   4.262   1.321  12.822  0.6173 -0.3353  0.1857
  720MPD2     C10692   2.402   2.312  14.182 -0.1050 -0.4288 -0.7474
  720MPD2    C110693   2.480   2.403  14.127  0.0445 -0.3476 -1.2088
  720MPD2    C210694   2.577   2.460  14.209 -0.4813  0.1534  0.1214
  720MPD2    C310695   2.590   2.429  14.340 -0.6361 -0.2592 -0.2180
  720MPD2    C410696   2.513   2.323  14.392 -0.8435 -0.1133  0.1635
  720MPD2    C510697   2.417   2.264  14.312 -0.6056  0.1452 -0.6758
  720MPD2     H10698   2.639   2.537  14.165 -0.7658  0.2346 -0.1389
  720MPD2    H110699   2.521   2.283  14.492 -0.2897  0.0682  0.1915
  720MPD2    H210700   2.323   2.261  14.128 -0.7940 -0.0651 -0.0953
  720MPD2    H310701   2.338   2.198  14.346 -1.3736  1.9435  0.9869
  720MPD2     N10702   2.699   2.489  14.404  0.1838 -0.5741 -0.6332
  720MPD2    H510703   2.759   2.549  14.347  1.8899 -1.2754  0.4083
  720MPD2    N110704   2.464   2.463  13.997 -0.3597 -0.4601  0.3105
  720MPD2    H710705   2.529   2.533  13.962  0.8396 -1.2669  0.8820
  721TMC3    C110706   2.869   2.538  14.562  0.1069 -0.1403  0.4180
  721TMC3    C210707   2.900   2.571  14.689  0.5777 -0.0322  0.0225
  721TMC3    C310708   3.012   2.654  14.709  1.0444  0.3233  0.2687
  721TMC3    C410709   2.947   2.577  14.458 -0.3434 -0.3926 -0.8104
  721TMC3    C510710   3.059   2.651  14.485  0.3127 -0.5704 -0.8272
  721TMC3    C610711   3.087   2.695  14.608 -0.5416 -0.1464  0.2510
  721TMC3     C10712   2.739   2.468  14.530 -0.2839  0.0195  0.5866
  721TMC3     O10713   2.690   2.399  14.620  0.2576  0.5283 -0.1096
  721TMC3     H10714   2.842   2.539  14.775 -1.3448 -0.8645 -1.5917
  721TMC3    H110715   2.935   2.528  14.363 -0.8466 -1.5531 -0.1444
  721TMC3    H210716   3.180   2.752  14.611 -0.3689 -0.4314  0.3127
  721TMC3    C710717   3.142   2.696  14.379  0.0283 -0.4387 -0.1644
  721TMC3    C810718   3.064   2.669  14.853  0.3061 -0.0279 -0.5310
  721TMC3    O110719   3.140   2.818  14.353  0.0955 -0.4534  0.8542
  721TMC3    O210720   2.984   2.645  14.939 -0.1398 -0.5656 -0.1893
  722MPD2     C10721   1.170   1.772  13.390 -0.2023  0.3909  0.7238
  722MPD2    C110722   1.184   1.882  13.313  0.1334  0.2561 -0.3085
  722MPD2    C210723   1.109   1.902  13.202 -0.1557 -0.2211  0.3596
  722MPD2    C310724   1.023   1.796  13.160  0.0648  0.1616  0.3734
  722MPD2    C410725   1.014   1.684  13.239  0.0775 -0.7021  0.0527
  722MPD2    C510726   1.085   1.676  13.358  0.1595  0.3325 -0.3106
  722MPD2     H10727   1.122   1.985  13.134 -1.0449 -0.3768 -0.0049
  722MPD2    H110728   0.957   1.597  13.208  1.4870 -1.7486  0.3808
  722MPD2    H210729   1.214   1.755  13.488 -2.8561 -1.2790  1.6046
  722MPD2    H310730   1.058   1.596  13.425  0.0430  0.9098  0.3269
  722MPD2     N10731   0.956   1.807  13.035 -0.4831 -0.4373 -0.3762
  722MPD2    H510732   0.981   1.888  12.980  2.6625 -0.2516  1.3530
  722MPD2    N110733   1.276   1.985  13.348 -0.6599  0.3717 -0.0382
  722MPD2    H710734   1.274   2.075  13.302 -0.0917  0.2788 -0.2408
  723TMC3    C110735   0.821   1.746  12.852  0.1955 -0.0434 -0.1476
  723TMC3    C210736   0.765   1.639  12.787  0.3744 -0.3898 -0.2689
  723TMC3    C310737   0.672   1.650  12.687 -0.2726  0.3394  0.0066
  723TMC3    C410738   0.767   1.871  12.829 -0.7242 -0.7672 -0.0666
  723TMC3    C510739   0.667   1.880  12.733 -0.3566  0.3567  0.0418
  723TMC3    C610740   0.619   1.773  12.661 -0.7785  0.8872 -0.1455
  723TMC3     C10741   0.863   1.720  12.987 -0.1722  0.4170  0.5280
  723TMC3     O10742   0.815   1.619  13.036  0.1532  0.0834 -0.1953
  723TMC3     H10743   0.798   1.540  12.817 -0.4732 -0.6588 -0.2311
  723TMC3    H110744   0.795   1.952  12.895 -1.4239 -0.9226  0.4244
  723TMC3    H210745   0.548   1.781  12.579 -1.4446  1.4987  0.4939
  723TMC3    C710746   0.636   2.008  12.665 -0.9594  0.0234 -0.0235
  723TMC3    C810747   0.589   1.548  12.648 -0.6969 -0.6031 -0.1793
  723TMC3    O110748   0.585   2.003  12.552 -0.0084  0.1035  0.0516
  723TMC3    O210749   0.470   1.565  12.628  0.5859 -0.0096 -0.8602
  724TMC3    C110750   1.973   4.501  10.331 -0.8458  1.1059  0.7750
  724TMC3    C210751   2.004   4.537  10.198 -0.7649  0.1540 -0.6508
  724TMC3    C310752   2.053   4.659  10.166  0.7138  0.0546  0.0197
  724TMC3    C410753   1.975   4.592  10.437  0.2483 -0.3728 -0.1435
  724TMC3    C510754   2.023   4.716  10.399  0.2610 -0.1640  0.6709
  724TMC3    C610755   2.073   0.016  10.273  0.4660  0.0141 -0.6999
  724TMC3     C10756   1.916   4.371  10.360  0.3831  0.5897  0.1520
  724TMC3     O10757   1.910   4.333  10.477  0.0282  0.1263  0.1146
  724TMC3     H10758   2.006   4.463  10.118 -0.2516 -0.8309  0.2736
  724TMC3    H110759   1.957   4.549  10.534 -1.0092  0.5946  0.0532
  724TMC3    H210760   2.123   0.110  10.252  2.1093  0.0787  3.4234
  724TMC3    C710761   2.036   0.089  10.492  0.7604  0.0105  0.3198
  724TMC3    C810762   2.143   4.671  10.058  0.5108 -0.1664  0.0012
  724TMC3    O110763   2.087   0.197  10.458  0.4891 -0.0475 -0.0721
  724TMC3    O210764   2.177   4.569  10.001  0.1137 -0.0876 -0.1557
  725TMC3    C110765   2.939   3.341  12.894  0.3528  0.0554 -0.4471
  725TMC3    C210766   2.870   3.353  12.774 -0.0514 -0.4143  0.6813
  725TMC3    C310767   2.871   3.231  12.713  0.3805 -0.0750  0.0428
  725TMC3    C410768   3.008   3.231  12.934 -0.2660  0.4257 -0.4146
  725TMC3    C510769   3.002   3.116  12.867 -0.4220 -0.0448  0.4906
  725TMC3    C610770   2.924   3.112  12.759  0.7145 -0.3306  0.3708
  725TMC3     C10771   2.969   3.465  12.954 -0.6338 -0.2180 -0.5829
  725TMC3     O10772   2.959   3.568  12.885 -0.5559  0.1660 -0.2745
  725TMC3     H10773   2.816   3.445  12.754  0.0090 -0.2393  1.3387
  725TMC3    H110774   3.058   3.233  13.030 -1.0853  0.4544  0.0105
  725TMC3    H210775   2.903   3.026  12.696 -1.4179  0.9210 -0.6285
  725TMC3    C710776   3.092   3.012  12.883 -0.3646 -0.1114 -0.1582
  725TMC3    C810777   2.822   3.228  12.576 -0.0680 -0.5683 -0.3664
  725TMC3    O110778   3.069   2.907  12.818  0.8318  0.0317 -0.4700
  725TMC3    O210779   2.797   3.118  12.531  0.3625  0.2870 -0.6262
  726MPD2     C10780   1.223   4.704  10.304 -0.0902 -0.0712  0.3950
  726MPD2    C110781   1.088   4.723  10.260  0.3803 -0.2067  0.3602
  726MPD2    C210782   0.995   4.628  10.297  0.4782 -0.6736 -0.6020
  726MPD2    C310783   1.037   4.533  10.391  0.0401  0.5123 -0.1537
  726MPD2    C410784   1.175   4.508  10.415 -0.1415 -0.5249  0.7606
  726MPD2    C510785   1.265   4.594  10.372  0.5756 -0.1483  0.5687
  726MPD2     H10786   0.890   4.642  10.274  0.7480  2.3135  0.0139
  726MPD2    H110787   1.202   4.422  10.475  2.1939 -0.8087 -0.6589
  726MPD2    H210788   1.299   0.045  10.288 -0.2292 -0.2060 -0.8906
  726MPD2    H310789   1.367   4.598  10.407  0.1469  2.2114  1.5975
  726MPD2     N10790   0.934   4.460  10.457  0.1618 -0.1549 -0.0801
  726MPD2    H510791   0.842   4.493  10.428  0.8291  1.5671 -0.2716
  726MPD2    N110792   1.045   0.110  10.206 -0.5271  0.4979 -0.1878
  726MPD2    H710793   0.951   0.115  10.169 -1.4880  2.0902  2.4723
  727TMC3    C110794   1.067   0.334  10.135 -0.4715  0.9028  0.1507
  727TMC3    C210795   1.104   0.459  10.173  0.2749  0.0848 -0.0146
  727TMC3    C310796   1.046   0.567  10.103  0.5721 -1.0335 -0.0826
  727TMC3    C410797   0.977   0.316  10.032  0.4526  0.0994 -0.7495
  727TMC3    C510798   0.925   0.426   9.964 -0.2057  0.5828 -0.1664
  727TMC3    C610799   0.950   0.554  10.009 -0.3418  0.2130  0.2194
  727TMC3     C10800   1.123   0.226  10.211  0.6891  0.1812 -1.0599
  727TMC3     O10801   1.221   0.253  10.278  0.0954  0.1729  0.0332
  727TMC3     H10802   1.172   0.473  10.257  0.5834  0.6369 -0.3572
  727TMC3    H110803   0.955   0.213  10.008 -2.1800  1.1320 -2.7608
  727TMC3    H210804   0.891   0.636   9.968  1.2514  0.2033 -2.0966
  727TMC3    C710805   0.825   0.406   9.858 -0.4160  0.6980 -0.5429
  727TMC3    C810806   1.079   0.698  10.164  0.2320  0.0437  0.1476
  727TMC3    O110807   0.787   0.293   9.842 -0.2189  0.2049  0.0591
  727TMC3    O210808   1.108   0.698  10.280  0.1656  0.3585 -0.6289
  728TMC3    C110809   0.431   3.308  15.237 -0.1645  0.3710 -1.2289
  728TMC3    C210810   0.525   3.406  15.252  0.5331 -0.4157  0.4232
  728TMC3    C310811   0.556   3.482  15.146 -1.2124  1.1330  0.0141
  728TMC3    C410812   0.365   3.289  15.116  0.2177  0.5025  0.1057
  728TMC3    C510813   0.392   3.383  15.017  0.0630  0.7336  0.0304
  728TMC3    C610814   0.491   3.478  15.030 -0.4459 -0.1917 -0.4571
  728TMC3     C10815   0.377   3.252  15.358  0.5213 -0.8942 -0.4516
  728TMC3     O10816   0.453   3.231  15.450 -0.3237  0.3271  0.0428
  728TMC3     H10817   0.575   3.422  15.346 -0.3443 -2.0225  1.1562
  728TMC3    H110818   0.303   3.202  15.099  0.1444  0.1847  1.9324
  728TMC3    H210819   0.529   3.542  14.951  1.8552 -0.7970  0.1371
  728TMC3    C710820   0.345   3.362  14.883  0.2306  0.2334  0.2515
  728TMC3    C810821   0.666   3.575  15.166  0.2505 -0.7340 -0.2316
  728TMC3    O110822   0.299   3.254  14.853  0.0662 -0.5858  0.1834
  728TMC3    O210823   0.764   3.539  15.229  0.0528 -0.2486 -0.0168
  729MPD2     C10824   2.173   4.637  16.376 -0.1052  0.7425  0.1815
  729MPD2    C110825   2.265   4.558  16.437  0.8084  0.0019  0.2008
  729MPD2    C210826   2.261   4.529  16.570  0.2513 -0.3424 -0.4473
  729MPD2    C310827   2.156   4.568  16.652 -0.4436  0.5042  0.4221
  729MPD2    C410828   2.055   4.643  16.590  0.1235 -0.2121  0.0081
  729MPD2    C510829   2.065   4.666  16.454  0.4437  0.5101 -0.3165
  729MPD2     H10830   2.350   4.485  16.614 -0.5220 -1.8380 -0.3980
  729MPD2    H110831   1.973   4.683  16.649  0.0314 -0.5573  0.1126
  729MPD2    H210832   2.169   4.667  16.272  1.1496 -1.1070 -0.3970
  729MPD2    H310833   1.988   4.728  16.409  0.1830 -1.1210 -2.1635
  729MPD2     N10834   2.156   4.563  16.790 -0.4341  0.4258 -0.1540
  729MPD2    H510835   2.099   4.629  16.842 -0.0793  0.1626  0.5641
  729MPD2    N110836   2.375   4.532  16.364 -0.7282  0.1385 -0.1837
  729MPD2    H710837   2.374   4.574  16.272  0.2885 -0.7696 -0.6127
  730TMC3    C110838   2.259   4.547  16.993  0.2807  0.2334 -0.1528
  730TMC3    C210839   2.371   4.508  17.062  0.0980  0.6091 -0.1247
  730TMC3    C310840   2.414   4.588  17.166 -0.4177 -0.6509  0.2529
  730TMC3    C410841   2.187   4.658  17.027 -0.7483 -0.7124 -0.4714
  730TMC3    C510842   2.231   0.001  17.129  0.8184  0.3413 -0.1292
  730TMC3    C610843   2.349   4.702  17.197 -0.1423 -0.6516  0.2256
  730TMC3     C10844   2.243   4.490  16.858 -0.0613  0.1905  0.1948
  730TMC3     O10845   2.315   4.397  16.828  0.1691  0.5522  0.3097
  730TMC3     H10846   2.432   4.425  17.027  0.1735  0.0802  1.2618
  730TMC3    H110847   2.097   4.696  16.979 -0.0653  0.9852 -0.4094
  730TMC3    H210848   2.380   0.025  17.282 -0.8240 -1.5394  1.0756
  730TMC3    C710849   2.177   0.131  17.151 -0.2772  0.1639  0.1792
  730TMC3    C810850   2.557   4.577  17.198 -0.4343 -0.4246  0.1787
  730TMC3    O110851   2.103   0.175  17.064  0.1000 -0.4511  0.5038
  730TMC3    O210852   2.607   4.468  17.188 -0.1208  0.0400 -0.0766
  731MPD2     C10853   2.357   2.755  12.475  0.3191 -0.3324  0.5321
  731MPD2    C110854   2.453   2.655  12.441  0.4528  0.3168  0.8083
  731MPD2    C210855   2.516   2.576  12.543 -0.5006 -0.3663 -1.4028
  731MPD2    C310856   2.472   2.590  12.674  0.3110  0.8747  0.3863
  731MPD2    C410857   2.378   2.687  12.704 -0.4319 -0.2196  0.0845
  731MPD2    C510858   2.323   2.766  12.607 -0.8873 -0.7216  0.3457
  731MPD2     H10859   2.591   2.499  12.525 -1.5262 -1.2914 -1.7020
  731MPD2    H110860   2.344   2.713  12.803 -1.4197  1.0112 -0.5614
  731MPD2    H210861   2.300   2.811  12.402  0.6795 -1.8553 -0.9306
  731MPD2    H310862   2.244   2.834  12.636  1.7322  1.2544  2.9282
  731MPD2     N10863   2.528   2.507  12.781 -0.1640  0.3526 -0.3369
  731MPD2    H510864   2.585   2.429  12.752  0.0814  0.3548  0.1489
  731MPD2    N110865   2.474   2.632  12.306  0.0537  0.0150  0.3366
  731MPD2    H710866   2.408   2.681  12.246  0.6121 -2.1347 -2.0611
  732TMC3    C110867   2.613   2.544  12.120  0.2636  0.1384  0.0138
  732TMC3    C210868   2.509   2.526  12.031 -0.2545 -0.5901  0.3321
  732TMC3    C310869   2.534   2.501  11.894 -0.2020 -0.3317  0.0039
  732TMC3    C410870   2.741   2.541  12.079 -0.4636  0.1854 -0.3252
  732TMC3    C510871   2.763   2.507  11.946  0.5640  0.9219  0.0645
  732TMC3    C610872   2.667   2.484  11.858  0.5526  0.2412  0.0324
  732TMC3     C10873   2.591   2.572  12.260 -0.3386  0.4878  0.2899
  732TMC3     O10874   2.678   2.522  12.328 -0.0176 -0.0722 -0.2278
  732TMC3     H10875   2.408   2.534  12.070  0.3430 -0.0625  1.7440
  732TMC3    H110876   2.821   2.578  12.142 -1.0385 -0.3561  0.7381
  732TMC3    H210877   2.693   2.449  11.759 -1.4693 -1.3011  0.0406
  732TMC3    C710878   2.897   2.464  11.905 -0.5967 -0.4938 -0.2749
  732TMC3    C810879   2.438   2.477  11.790 -0.1460  0.0272  0.3920
  732TMC3    O110880   2.918   2.444  11.790 -0.3499 -0.4906  0.1398
  732TMC3    O210881   2.475   2.423  11.686 -0.1008  0.1556  0.8451
  733TMC3    C110882   3.544   0.938  12.817  0.2473  0.3699 -0.1215
  733TMC3    C210883   3.643   0.876  12.883 -0.5374  0.0069  0.7610
  733TMC3    C310884   3.772   0.919  12.853 -0.4455 -0.2256 -0.4981
  733TMC3    C410885   3.572   1.034  12.725  0.6141 -0.5334  0.6455
  733TMC3    C510886   3.699   1.052  12.688 -0.3577  0.4016  1.1171
  733TMC3    C610887   3.807   0.995  12.744  0.3279 -0.0502 -0.4045
  733TMC3     C10888   3.422   0.969  12.890  0.1202  1.4925 -0.2721
  733TMC3     O10889   3.388   1.087  12.890  0.5696 -0.2277  0.4405
  733TMC3     H10890   3.635   0.820  12.975 -1.4029  1.1544  1.3861
  733TMC3    H110891   3.504   1.097  12.670 -0.1968 -0.9544  1.1626
  733TMC3    H210892   3.911   1.008  12.718  1.1757 -2.9808  1.5282
  733TMC3    C710893   3.719   1.180  12.618  0.4297 -0.2381 -0.2691
  733TMC3    C810894   3.877   0.867  12.942 -0.4373 -0.0519 -0.0999
  733TMC3    O110895   3.641   1.221  12.532  0.0292  0.2622  0.1173
  733TMC3    O210896   3.874   0.742  12.957  0.1319  0.5536  0.1124
  734MPD2     C10897   0.992   4.042  12.107  0.1271 -0.0399  0.0868
  734MPD2    C110898   0.934   3.922  12.056 -0.0784  0.2095 -0.0587
  734MPD2    C210899   0.995   3.869  11.943  0.9615  0.3010  0.2283
  734MPD2    C310900   1.093   3.935  11.867  0.1419 -0.2821 -0.7166
  734MPD2    C410901   1.122   4.060  11.907 -0.3103  0.6028  0.0623
  734MPD2    C510902   1.082   4.103  12.030  0.8038 -0.0958  0.8928
  734MPD2     H10903   0.952   3.775  11.909  0.9511  0.5078 -0.3342
  734MPD2    H110904   1.196   4.112  11.847 -1.7701  0.6811 -1.6636
  734MPD2    H210905   0.958   4.086  12.200  1.4880 -0.0912  0.6177
  734MPD2    H310906   1.126   4.191  12.076  1.4809 -0.0908  0.2269
  734MPD2     N10907   1.158   3.875  11.754 -0.5200  0.3121  0.6945
  734MPD2    H510908   1.237   3.921  11.708  1.0089 -0.9910  1.9987
  734MPD2    N110909   0.824   3.861  12.114 -0.3563 -0.0613  0.1161
  734MPD2    H710910   0.791   3.888  12.206 -2.8273 -0.0629 -0.7692
  735TMC3    C110911   0.674   3.696  12.176 -0.1299 -0.8038 -0.0100
  735TMC3    C210912   0.585   3.608  12.116  0.5382 -0.5507 -0.1188
  735TMC3    C310913   0.578   3.478  12.155 -0.4088 -0.3853  0.0694
  735TMC3    C410914   0.768   3.646  12.264 -0.1079  0.1939 -0.1210
  735TMC3    C510915   0.754   3.518  12.307 -0.1705 -0.3628  0.3676
  735TMC3    C610916   0.652   3.438  12.266 -0.4171 -0.4083 -0.6126
  735TMC3     C10917   0.753   3.755  12.067  0.0273  1.0602  0.2613
  735TMC3     O10918   0.771   3.691  11.964 -0.0136  0.0968  0.0484
  735TMC3     H10919   0.512   3.635  12.040  2.0689  0.1105 -1.3596
  735TMC3    H110920   0.855   3.706  12.288  0.7032 -1.4256  0.9743
  735TMC3    H210921   0.652   3.338  12.308 -0.4633  0.3669  1.2274
  735TMC3    C710922   0.882   3.456  12.345 -0.0184 -1.0262 -0.0570
  735TMC3    C810923   0.560   3.385  12.043 -0.4527 -0.3257 -0.6057
  735TMC3    O110924   0.984   3.526  12.341  0.7027 -0.9007  0.1465
  735TMC3    O210925   0.516   3.271  12.058 -0.0998 -0.1907 -0.0943
  736MPD2     C10926   0.935   3.102  12.402 -0.1081 -0.6822  0.0502
  736MPD2    C110927   0.977   3.231  12.368  0.5675  0.3388 -0.6475
  736MPD2    C210928   1.099   3.251  12.313  0.4137  0.4037  0.1063
  736MPD2    C310929   1.190   3.146  12.299  0.0958 -1.3763 -0.1163
  736MPD2    C410930   1.150   3.023  12.352 -0.0509 -0.2667  0.0302
  736MPD2    C510931   1.024   3.000  12.392 -0.0856 -0.0205  0.4154
  736MPD2     H10932   1.115   3.351  12.275  1.7979 -0.4336 -1.5339
  736MPD2    H110933   1.218   2.938  12.352 -1.1103 -1.1218 -0.2207
  736MPD2    H210934   0.838   3.091  12.449  0.3130  0.8866  1.2952
  736MPD2    H310935   0.996   2.902  12.426  0.2660  1.2189  4.2412
  736MPD2     N10936   1.320   3.169  12.250 -0.2578  0.8343 -0.2248
  736MPD2    H510937   1.373   3.085  12.227 -2.3346 -0.3389 -0.7021
  736MPD2    N110938   0.880   3.334  12.380 -0.5925  0.2488 -0.2725
  736MPD2    H710939   0.786   3.306  12.405  0.4588 -1.2507  1.9989
  737TMC3    C110940   1.486   3.277  12.134  0.3837  0.1325  0.4393
  737TMC3    C210941   1.507   3.390  12.059  0.2196  0.6283  0.1433
  737TMC3    C310942   1.534   3.369  11.929  0.6485 -0.2950  0.0164
  737TMC3    C410943   1.515   3.152  12.090  0.3588 -0.7045 -1.1584
  737TMC3    C510944   1.557   3.138  11.964 -0.1948 -0.6021 -0.0328
  737TMC3    C610945   1.559   3.241  11.880  0.5554 -0.4510 -0.1889
  737TMC3     C10946   1.373   3.287  12.220  0.6187 -0.4463 -0.1669
  737TMC3     O10947   1.338   3.400  12.258  0.0830 -0.9798  0.0921
  737TMC3     H10948   1.492   3.487  12.104  0.1611  0.5835  0.2198
  737TMC3    H110949   1.522   3.061  12.148 -0.1238  0.0957  0.1499
  737TMC3    H210950   1.552   3.215  11.775  0.3845  2.2944 -0.8600
  737TMC3    C710951   1.540   3.006  11.905  0.7566 -0.3781 -0.4838
  737TMC3    C810952   1.544   3.480  11.833  0.4151  0.1500  0.7203
  737TMC3    O110953   1.463   2.928  11.964  0.5818 -0.0523 -1.1936
  737TMC3    O210954   1.582   3.590  11.869  0.3036 -0.8708 -0.4394
  738MPD2     C10955   1.502   1.951  14.864  0.6209  0.0395  0.1081
  738MPD2    C110956   1.472   1.955  14.998 -0.3633 -0.6607  0.3428
  738MPD2    C210957   1.564   2.005  15.090  0.4521 -0.1523  0.1112
  738MPD2    C310958   1.671   2.076  15.041 -0.4742 -0.3176  0.3384
  738MPD2    C410959   1.688   2.084  14.909 -0.1322  0.0959  0.1554
  738MPD2    C510960   1.608   2.020  14.827 -0.5427 -0.3647 -0.6320
  738MPD2     H10961   1.546   2.009  15.197 -0.7767  0.7501 -0.1281
  738MPD2    H110962   1.781   2.124  14.870  0.0468 -1.5654 -1.1179
  738MPD2    H210963   1.450   1.892  14.789 -0.8058  1.5394 -0.0662
  738MPD2    H310964   1.627   2.025  14.720  3.0481 -0.4055  0.0324
  738MPD2     N10965   1.753   2.147  15.128 -0.2413 -0.6845  0.1336
  738MPD2    H510966   1.819   2.207  15.081  0.4512 -2.1703 -0.8015
  738MPD2    N110967   1.361   1.884  15.046  0.4264  0.5902 -0.3274
  738MPD2    H710968   1.342   1.882  15.145 -0.8997  0.5933 -0.5820
  739TMC3    C110969   1.901   2.196  15.287 -0.2662 -0.5519 -0.1273
  739TMC3    C210970   1.936   2.296  15.201  0.2041  0.4601 -0.1365
  739TMC3    C310971   2.046   2.276  15.125 -0.2294  0.3304  0.0432
  739TMC3    C410972   1.993   2.101  15.325  0.4130  0.0631  0.1478
  739TMC3    C510973   2.114   2.099  15.264  0.2519  0.3019  0.0189
  739TMC3    C610974   2.140   2.179  15.157 -0.7998 -0.4308 -0.3850
  739TMC3     C10975   1.774   2.133  15.262 -1.2856 -0.1013  0.5293
  739TMC3     O10976   1.735   2.056  15.351 -0.6232  0.0834  0.1507
  739TMC3     H10977   1.865   2.374  15.175 -1.3807  0.2423  3.5755
  739TMC3    H110978   1.968   2.016  15.387 -1.5121 -0.1154 -0.8590
  739TMC3    H210979   2.229   2.167  15.095 -1.0832  2.9640 -1.4383
  739TMC3    C710980   2.199   1.990  15.292 -0.1539 -0.0857 -0.3004
  739TMC3    C810981   2.025   2.317  14.983  0.1058  0.4763  0.5335
  739TMC3    O110982   2.235   1.962  15.408 -0.2431  0.4166 -0.1587
  739TMC3    O210983   1.911   2.342  14.948 -0.5242 -0.2531  0.6285
  740TMC3    C110984   1.995   3.193  14.630  0.7335 -0.8167  0.3629
  740TMC3    C210985   1.988   3.253  14.751  0.2475 -0.3218 -0.0002
  740TMC3    C310986   2.101   3.299  14.806  0.3292 -0.2621 -0.5300
  740TMC3    C410987   2.107   3.175  14.554 -0.3067 -0.2073 -0.1161
  740TMC3    C510988   2.222   3.221  14.619 -0.1379  0.0910 -0.1881
  740TMC3    C610989   2.222   3.289  14.740 -0.1839  0.3207 -0.2481
  740TMC3     C10990   1.868   3.168  14.557 -0.5920  0.6315  0.3851
  740TMC3     O10991   1.867   3.164  14.440  0.6001  0.4444  0.3593
  740TMC3     H10992   1.889   3.274  14.791  0.7976 -1.9278  2.2509
  740TMC3    H110993   2.106   3.112  14.465  3.2495 -1.3373  0.6760
  740TMC3    H210994   2.315   3.324  14.783 -0.6026  1.5368 -0.3315
  740TMC3    C710995   2.350   3.177  14.570  0.2419 -0.8017 -0.4689
  740TMC3    C810996   2.077   3.364  14.931 -0.2799  0.1178  0.6695
  740TMC3    O110997   2.432   3.171  14.655  0.1203 -0.2823 -0.2127
  740TMC3    O210998   1.976   3.322  14.990 -0.5668 -0.3875  0.2268
  741TMC3    C110999   1.741   2.791  14.696  0.3225 -0.6654 -0.1361
  741TMC3    C211000   1.663   2.723  14.614 -0.1877  1.0215  0.3772
  741TMC3    C311001   1.562   2.662  14.677 -0.4517  0.7003  0.2093
  741TMC3    C411002   1.728   2.796  14.832 -0.2297  0.0447  0.2992
  741TMC3    C511003   1.626   2.726  14.887  0.2043  0.4018 -0.6178
  741TMC3    C611004   1.526   2.673  14.814  0.0499  0.1611 -0.0549
  741TMC3     C11005   1.865   2.838  14.647  0.6584 -0.0002  0.2217
  741TMC3     O11006   1.958   2.845  14.727 -0.0678 -0.0353  1.1085
  741TMC3     H11007   1.680   2.699  14.510 -0.1224 -0.8348  0.8297
  741TMC3    H111008   1.792   2.839  14.908 -0.3904 -0.1869  0.5664
  741TMC3    H211009   1.430   2.660  14.862  0.2947 -1.0997  0.1003
  741TMC3    C711010   1.626   2.696  15.029 -0.2194 -0.1001  0.5047
  741TMC3    C811011   1.487   2.577  14.589 -0.2950 -0.2374  0.8517
  741TMC3    O111012   1.683   2.775  15.102  0.3480 -0.9272  0.3447
  741TMC3    O211013   1.484   2.602  14.468  0.5957  0.0463  0.4293
  742TMC3    C111014   1.863   1.250  15.541  0.1634 -0.1289 -0.4256
  742TMC3    C211015   1.818   1.273  15.414 -0.4066 -0.1890 -0.0242
  742TMC3    C311016   1.884   1.215  15.313 -0.8739 -0.0489  0.2505
  742TMC3    C411017   1.964   1.158  15.562 -0.6886  0.3916  0.1459
  742TMC3    C511018   2.017   1.099  15.456 -0.1480  0.0390 -0.2813
  742TMC3    C611019   1.984   1.129  15.327 -0.1009  0.0874  0.4121
  742TMC3     C11020   1.765   1.274  15.645  0.0675 -0.5064 -0.7778
  742TMC3     O11021   1.789   1.220  15.750  0.1983 -0.5923 -0.8899
  742TMC3     H11022   1.720   1.314  15.394 -0.7244 -1.2094 -0.5983
  742TMC3    H111023   2.007   1.138  15.660 -1.1084  1.4666  0.5557
  742TMC3    H211024   2.017   1.074  15.240 -1.0817  0.4708 -0.2040
  742TMC3    C711025   2.110   0.983  15.480  0.9946 -0.3832 -0.4644
  742TMC3    C811026   1.822   1.224  15.181  0.2542 -0.9223 -0.1858
  742TMC3    O111027   2.168   0.955  15.375  0.6669  0.5602  0.1501
  742TMC3    O211028   1.702   1.249  15.175 -0.4495 -0.0788 -0.0971
  743MPD2     C11029   3.596   2.755   1.885 -0.3808 -0.1728  0.4875
  743MPD2    C111030   3.653   2.636   1.834  0.4699  0.3007  0.2202
  743MPD2    C211031   3.767   2.583   1.887 -0.1286 -1.0977 -1.0090
  743MPD2    C311032   3.843   2.656   1.981 -0.0620 -0.2404  0.8473
  743MPD2    C411033   3.785   2.771   2.035  0.3739 -0.5288  0.5151
  743MPD2    C511034   3.657   2.817   1.986 -0.2863 -0.1157 -0.5788
  743MPD2     H11035   3.813   2.490   1.856  2.4082 -0.8334  1.9503
  743MPD2    H111036   3.837   2.834   2.106 -0.0930  0.2571  0.1548
  743MPD2    H211037   3.499   2.793   1.858  0.0807  1.2249  0.8010
  743MPD2    H311038   3.608   2.903   2.028  0.9808  0.8638 -1.1074
  743MPD2     N11039   3.968   2.608   2.027  0.4386  0.0881 -0.7100
  743MPD2    H511040   3.995   2.522   1.980 -2.9963 -1.5757  0.3659
  743MPD2    N111041   3.580   2.577   1.724  0.6354  0.3306 -0.5603
  743MPD2    H711042   3.508   2.633   1.679 -0.6618 -0.6534  0.3221
  744TMC3    C111043   3.548   2.434   1.539  0.0337  0.3319 -0.2180
  744TMC3    C211044   3.489   2.542   1.470  0.4577  0.3726  0.8363
  744TMC3    C311045   3.524   2.559   1.338 -0.1588 -0.2830 -0.4493
  744TMC3    C411046   3.614   2.331   1.481 -0.3430  0.9667 -0.9422
  744TMC3    C511047   3.650   2.359   1.351 -1.2764 -0.1974 -0.4274
  744TMC3    C611048   3.614   2.470   1.282  0.2823  0.1692  0.1487
  744TMC3     C11049   3.600   2.452   1.677 -0.5774 -0.2855  0.4096
  744TMC3     O11050   3.673   2.366   1.730 -0.4182  0.5513  0.0110
  744TMC3     H11051   3.419   2.610   1.517 -0.9359 -0.9103  0.5816
  744TMC3    H111052   3.648   2.248   1.543 -0.1346  0.2794 -1.9820
  744TMC3    H211053   3.648   2.477   1.179 -3.0584 -1.3214 -1.0469
  744TMC3    C711054   3.757   2.283   1.293 -0.0688 -0.2303  0.1787
  744TMC3    C811055   3.442   2.629   1.245  0.2818  0.5140  0.0214
  744TMC3    O111056   3.819   2.325   1.195 -0.4343  0.5710  0.3769
  744TMC3    O211057   3.486   2.635   1.130 -0.1397  0.8537 -0.5550
  745TMC3    C111058   1.816   1.175  13.385 -0.3598  0.3325 -0.3861
  745TMC3    C211059   1.713   1.257  13.415 -0.4515  0.2485 -0.8376
  745TMC3    C311060   1.688   1.369  13.347 -0.0635  0.2655 -0.7464
  745TMC3    C411061   1.903   1.209  13.286 -0.1952 -0.4858  0.3440
  745TMC3    C511062   1.871   1.318  13.209  0.6011  0.1817  0.0085
  745TMC3    C611063   1.773   1.408  13.246 -0.4984  0.2122 -0.2579
  745TMC3     C11064   1.873   1.134  13.509  0.9144  0.9398  0.1362
  745TMC3     O11065   1.847   1.199  13.611  0.4480 -0.1465 -0.2801
  745TMC3     H11066   1.650   1.224  13.497  0.8905 -0.8441 -0.2364
  745TMC3    H111067   1.987   1.151  13.252  0.3889  1.7295 -2.0256
  745TMC3    H211068   1.758   1.499  13.188 -1.7208  0.2607  0.1257
  745TMC3    C711069   1.964   1.365  13.106  0.1774  0.7573 -0.2178
  745TMC3    C811070   1.670   1.494  13.426 -0.2092  0.2242 -0.5295
  745TMC3    O111071   1.928   1.460  13.034  0.0701 -0.5825 -0.1489
  745TMC3    O211072   1.600   1.579  13.369 -0.2522 -0.0982  0.3110
  746TMC3    C111073   4.583   2.241  11.035  0.2450  0.1210 -0.9055
  746TMC3    C211074   4.665   2.205  10.931  0.3172  0.3005  0.2843
  746TMC3    C311075   4.603   2.137  10.836 -1.0890  0.3818 -0.2262
  746TMC3    C411076   4.444   2.208  11.043 -0.1098 -0.5602 -0.2214
  746TMC3    C511077   4.390   2.141  10.937 -0.3300  0.1852  0.5975
  746TMC3    C611078   4.471   2.100  10.836 -0.2415 -0.1648  0.8637
  746TMC3     C11079   4.620   2.354  11.118  0.1978  0.0349 -0.1300
  746TMC3     O11080   4.523   2.417  11.166  0.1242  0.0583 -0.2533
  746TMC3     H11081   0.036   2.223  10.929  0.3865 -0.5381 -3.2798
  746TMC3    H111082   4.380   2.241  11.124  0.2371  2.6116 -1.2467
  746TMC3    H211083   4.429   2.050  10.749  0.8507  0.5518 -0.0753
  746TMC3    C711084   4.252   2.100  10.937 -0.5127  0.1093 -0.3130
  746TMC3    C811085   4.664   2.133  10.703  0.3606 -0.6436  0.4271
  746TMC3    O111086   4.200   2.113  10.828 -0.0499 -0.4078 -0.3858
  746TMC3    O211087   4.630   2.045  10.629  0.1335 -0.1212 -0.3282
  747TMC3    C111088   1.776   2.836  10.951 -0.9594  0.2784  0.0494
  747TMC3    C211089   1.747   2.740  11.040  0.5960  0.4978 -0.2290
  747TMC3    C311090   1.797   2.760  11.166  0.3110  0.1969 -0.3440
  747TMC3    C411091   1.857   2.946  10.978  1.5843 -0.5510  0.4978
  747TMC3    C511092   1.912   2.952  11.097  0.4767 -0.4334 -0.3066
  747TMC3    C611093   1.877   2.865  11.197 -0.5198 -0.7284 -0.0629
  747TMC3     C11094   1.697   2.838  10.829  0.0170 -0.2844  0.2770
  747TMC3     O11095   1.682   2.947  10.780  0.8730  0.6932  0.3755
  747TMC3     H11096   1.657   2.680  11.027 -0.5083  2.0792  0.1695
  747TMC3    H111097   1.869   3.019  10.898 -3.8226 -1.2270 -0.9735
  747TMC3    H211098   1.923   2.874  11.295  2.7398 -1.3260 -1.5224
  747TMC3    C711099   2.024   3.034  11.129  0.5677  0.4945  0.5996
  747TMC3    C811100   1.706   2.705  11.268 -0.1894  0.5167 -0.1540
  747TMC3    O111101   2.084   3.028  11.235  0.0742  0.5703  0.5847
  747TMC3    O211102   1.637   2.611  11.240 -0.4116  0.1822  0.0573
  748MPD2     C11103   3.307   4.199   1.727 -0.3328  0.4413  0.7932
  748MPD2    C111104   3.298   4.093   1.646 -0.5096  0.2369  0.5104
  748MPD2    C211105   3.413   4.018   1.633  0.3633 -0.4887 -0.0586
  748MPD2    C311106   3.522   4.033   1.721 -0.5086 -0.0721 -0.3423
  748MPD2    C411107   3.533   4.140   1.805 -0.6664  0.0972 -0.0001
  748MPD2    C511108   3.419   4.223   1.802 -0.1944 -0.3458  0.2876
  748MPD2     H11109   3.416   3.933   1.566 -0.7890  0.9053 -1.8750
  748MPD2    H111110   3.607   4.165   1.879 -2.4503  2.6955  0.9009
  748MPD2    H211111   3.220   4.261   1.742 -2.0544 -1.9242  0.5455
  748MPD2    H311112   3.419   4.306   1.872  1.2540 -0.2739  0.2154
  748MPD2     N11113   3.621   3.938   1.708  0.2890 -0.0854  0.6673
  748MPD2    H511114   3.615   3.875   1.628 -0.7407 -0.2129  0.8399
  748MPD2    N111115   3.185   4.077   1.565  0.0769  0.7661 -0.4350
  748MPD2    H711116   3.123   4.158   1.561  0.7667  1.4982  3.6429
  749TMC3    C111117   3.815   3.830   1.737  0.2711  0.5603  0.4016
  749TMC3    C211118   3.864   3.725   1.808 -0.2596 -0.0140  0.4789
  749TMC3    C311119   3.939   3.627   1.752 -0.9638 -0.7729  0.1735
  749TMC3    C411120   3.846   3.847   1.606 -0.1282 -0.0638  0.1657
  749TMC3    C511121   3.917   3.744   1.548 -0.6111 -0.6363 -0.2339
  749TMC3    C611122   3.963   3.633   1.617  0.2583  1.0542  0.2851
  749TMC3     C11123   3.717   3.919   1.796  0.4019 -0.6726  0.8256
  749TMC3     O11124   3.742   3.972   1.899  0.0625  0.2194  0.1998
  749TMC3     H11125   3.822   3.708   1.906 -1.0337 -2.1055 -0.2175
  749TMC3    H111126   3.817   3.939   1.557 -0.0386  0.1121  0.4408
  749TMC3    H211127   4.017   3.552   1.570 -2.6921 -0.7091 -0.0911
  749TMC3    C711128   3.960   3.762   1.409 -1.0309 -0.3585  0.1805
  749TMC3    C811129   3.934   3.498   1.818 -0.1878 -0.6796 -0.1866
  749TMC3    O111130   4.027   3.668   1.362  0.2732  0.1162 -1.1844
  749TMC3    O211131   3.863   3.485   1.916  0.3369  0.1103 -0.4570
  750MPD2     C11132   0.287   4.391  11.294 -0.2627 -0.0843  0.4216
  750MPD2    C111133   0.153   4.375  11.325 -0.0487 -0.0509 -0.4692
  750MPD2    C211134   0.094   4.251  11.306  0.2205 -0.0834  0.8285
  750MPD2    C311135   0.153   4.151  11.236  0.1053 -0.9550 -0.0456
  750MPD2    C411136   0.286   4.174  11.200  0.2975  0.1398 -0.0770
  750MPD2    C511137   0.347   4.293  11.224 -0.1299 -0.1281 -0.2418
  750MPD2     H11138   4.724   4.238  11.331 -0.0549  0.8365  0.1322
  750MPD2    H111139   0.341   4.102  11.140 -1.1864 -1.2215  0.1966
  750MPD2    H211140   0.344   4.478  11.323 -0.2924  0.2108 -0.4017
  750MPD2    H311141   0.450   4.307  11.193 -0.4373 -0.5402 -1.4645
  750MPD2     N11142   0.089   4.035  11.195 -0.3123 -0.4424 -0.7806
  750MPD2    H511143   0.145   3.970  11.140  0.0406  0.4906 -1.5284
  750MPD2    N111144   0.083   4.492  11.367 -0.2216  0.0264  0.5993
  750MPD2    H711145   0.135   4.580  11.366 -0.8981  0.4121 -1.9268
  751TMC3    C111146   4.649   3.904  11.118 -0.1024 -0.1395 -0.3596
  751TMC3    C211147   4.547   3.819  11.155  0.7235  0.0452  0.2241
  751TMC3    C311148   4.511   3.723  11.065 -0.3262  0.3186  0.2294
  751TMC3    C411149   4.702   3.909  10.992 -0.0722 -0.1586 -0.6428
  751TMC3    C511150   4.663   3.807  10.909 -0.4615  0.4467  0.4755
  751TMC3    C611151   4.566   3.718  10.942  0.2989  0.0702  0.0395
  751TMC3     C11152   4.691   4.013  11.204 -0.1461  0.3043 -0.9926
  751TMC3     O11153   4.622   4.044  11.297  0.5433 -0.0518  0.3496
  751TMC3     H11154   4.499   3.818  11.252  2.0306 -0.3453  0.8710
  751TMC3    H111155   0.022   3.993  10.949  1.0647 -0.1482  0.8366
  751TMC3    H211156   4.526   3.649  10.869  3.0639 -1.2894 -0.1969
  751TMC3    C711157   4.684   3.829  10.761  0.7725  0.0917 -0.1403
  751TMC3    C811158   4.395   3.641  11.092 -0.0395 -0.0790 -0.1170
  751TMC3    O111159   4.697   3.946  10.725  0.5599  0.0673  0.3191
  751TMC3    O211160   4.403   3.537  11.028  0.3353  0.3869  0.0949
  752TMC3    C111161   2.953   4.195  17.288 -0.4009  0.4121  0.4215
  752TMC3    C211162   2.993   4.082  17.359 -0.0498  0.9365  0.2980
  752TMC3    C311163   2.923   4.032  17.468  0.1985  0.0421 -0.2207
  752TMC3    C411164   2.837   4.253  17.327  0.1636 -0.1727 -0.3426
  752TMC3    C511165   2.759   4.195  17.423 -0.3856  1.0329 -0.3243
  752TMC3    C611166   2.800   4.087  17.498  0.0826 -0.2682 -0.5802
  752TMC3     C11167   3.032   4.242  17.180  0.0796  0.0797  0.2001
  752TMC3     O11168   3.152   4.243  17.206  0.2834  0.2076 -0.2448
  752TMC3     H11169   3.084   4.031  17.327 -1.1069  0.5114 -2.0707
  752TMC3    H111170   2.807   4.343  17.276  2.3321 -0.0903 -1.4915
  752TMC3    H211171   2.746   4.052  17.586 -0.0515  1.1190 -0.1065
  752TMC3    C711172   2.646   4.264  17.471 -0.1700 -0.4613  0.4292
  752TMC3    C811173   2.977   3.925  17.548 -0.1856  0.0838 -0.4934
  752TMC3    O111174   2.550   4.210  17.523 -0.1444 -0.0280  0.1756
  752TMC3    O211175   2.968   3.930  17.670  0.1888 -0.3579  0.8380
  753TMC3    C111176   0.613   0.776  13.146  0.9673  0.1155 -0.3549
  753TMC3    C211177   0.640   0.762  13.277  0.1145  0.0763  0.4438
  753TMC3    C311178   0.667   0.636  13.320  0.6281 -0.0456 -0.1282
  753TMC3    C411179   0.625   0.672  13.051 -0.6498  0.1885 -0.1637
  753TMC3    C511180   0.647   0.548  13.107 -0.0168  0.3517 -0.3736
  753TMC3    C611181   0.669   0.528  13.235 -0.8710 -0.4830 -0.5960
  753TMC3     C11182   0.550   0.902  13.102 -0.4198  0.1532  0.2841
  753TMC3     O11183   0.534   0.990  13.186 -0.0860  0.5869  0.6220
  753TMC3     H11184   0.626   0.844  13.346 -3.7498  1.4911 -2.0377
  753TMC3    H111185   0.605   0.689  12.946 -0.3539  0.5123 -0.1696
  753TMC3    H211186   0.659   0.427  13.272  0.2368 -0.4648 -0.2214
  753TMC3    C711187   0.631   0.434  13.023  0.0166 -0.0300  0.9968
  753TMC3    C811188   0.635   0.604  13.459  0.1697  0.2449  0.7793
  753TMC3    O111189   0.551   0.436  12.930  0.2310 -0.5544 -0.3997
  753TMC3    O211190   0.587   0.493  13.482  0.1710  0.0701 -0.1321
  754MPD2     C11191   4.142   4.115  12.955  0.3636  0.2172  0.6098
  754MPD2    C111192   4.057   4.008  12.961  0.1793 -0.3412 -0.3460
  754MPD2    C211193   3.916   4.025  12.962 -0.4694 -0.0101 -0.3169
  754MPD2    C311194   3.865   4.152  12.944 -0.3549  0.3303  0.5771
  754MPD2    C411195   3.954   4.255  12.933 -0.2133 -0.2578 -0.1354
  754MPD2    C511196   4.086   4.239  12.944  0.0720 -0.0848  0.1865
  754MPD2     H11197   3.856   3.936  12.950  1.0085 -1.2742  1.6644
  754MPD2    H111198   3.923   4.358  12.926 -1.1770 -0.4605  1.1214
  754MPD2    H211199   4.249   4.098  12.953  0.5432  1.0916  2.5094
  754MPD2    H311200   4.152   4.325  12.944  2.1440 -1.6778  1.7740
  754MPD2     N11201   3.735   4.176  12.956 -0.1850 -0.3691 -0.5395
  754MPD2    H511202   3.700   4.271  12.947 -0.8461 -0.3372  2.3891
  754MPD2    N111203   4.121   3.884  12.959  0.1006  0.2661 -0.3657
  754MPD2    H711204   4.221   3.884  12.940  0.4521  1.8608  1.4362
  755MPD2     C11205   3.247   0.112  13.359  0.2305 -0.3877  0.0118
  755MPD2    C111206   3.244   4.733  13.440  0.7309  0.4605 -0.5706
  755MPD2    C211207   3.294   4.619  13.391 -0.9247  0.5730 -0.0880
  755MPD2    C311208   3.322   4.605  13.254 -0.1512 -0.2473 -0.2550
  755MPD2    C411209   3.323   4.714  13.172 -0.6800  0.1931  0.5331
  755MPD2    C511210   3.289   0.110  13.227 -0.0283 -0.1089  0.4458
  755MPD2     H11211   3.289   4.529  13.451 -0.9866 -0.3446 -1.4594
  755MPD2    H111212   3.354   4.702  13.069  0.1004 -1.8780  1.0028
  755MPD2    H211213   3.209   0.205  13.400  1.4845  0.0534  0.1778
  755MPD2    H311214   3.280   0.200  13.166  0.8838  0.4556  1.1324
  755MPD2     N11215   3.372   4.483  13.195  0.4825 -0.0481 -0.3270
  755MPD2    H511216   3.420   4.496  13.106 -0.0992  2.3478 -0.2968
  755MPD2    N111217   3.186   4.732  13.573  0.4700 -0.5898  0.3363
  755MPD2    H711218   3.183   4.650  13.633 -0.6581 -0.4248  0.5145
  756MPD2     C11219   4.090   0.388   9.690 -0.1169  0.1499 -0.0322
  756MPD2    C111220   4.017   0.288   9.750  0.5809  0.3231  0.3771
  756MPD2    C211221   3.900   0.245   9.685  0.4139  0.1729  0.3145
  756MPD2    C311222   3.851   0.303   9.568  0.2459  0.3058  0.7260
  756MPD2    C411223   3.921   0.409   9.519  0.1185  0.3513 -0.4606
  756MPD2    C511224   4.040   0.451   9.582 -0.3632  0.3253  0.5088
  756MPD2     H11225   3.853   0.157   9.728  2.5967 -1.4803 -0.6678
  756MPD2    H111226   3.895   0.460   9.428 -3.3893 -0.4457  0.0820
  756MPD2    H211227   4.179   0.435   9.730  3.3014 -5.3194 -1.1723
  756MPD2    H311228   4.099   0.531   9.538 -0.2514 -0.3766 -0.6160
  756MPD2     N11229   3.724   0.258   9.515  0.4654 -0.5680 -0.3641
  756MPD2    H511230   3.671   0.188   9.566 -0.3784 -0.9902 -1.8134
  756MPD2    N111231   4.059   0.207   9.861  0.4269 -0.1109 -0.1938
  756MPD2    H711232   3.995   0.135   9.892 -1.1889  1.5549  0.3294
  757MPD2     C11233   3.400   4.210   9.616 -0.2950  0.5192  0.2229
  757MPD2    C111234   3.498   4.287   9.682  0.8872 -0.2127 -0.5331
  757MPD2    C211235   3.508   4.419   9.650  0.5193  0.1408 -0.3162
  757MPD2    C311236   3.424   4.482   9.554  0.4132  0.1534 -0.1289
  757MPD2    C411237   3.336   4.400   9.493 -0.0160 -0.8229  0.0942
  757MPD2    C511238   3.322   4.273   9.525 -0.6008  1.4282 -0.0098
  757MPD2     H11239   3.584   4.475   9.702  1.2293 -2.2320  1.1967
  757MPD2    H111240   3.275   4.438   9.412  0.6709  0.5068  0.1925
  757MPD2    H211241   3.392   4.103   9.629  0.6493  0.5958  1.4675
  757MPD2    H311242   3.251   4.203   9.481  1.4941  0.0035 -1.1180
  757MPD2     N11243   3.436   4.620   9.527  0.0552  0.0550  0.0038
  757MPD2    H511244   3.519   4.668   9.561 -1.2537  2.1871  0.1991
  757MPD2    N111245   3.592   4.210   9.760 -0.0974  0.1818  1.0573
  757MPD2    H711246   3.570   4.111   9.760 -0.7594  0.3325 -2.2462
  758MPD2     C11247   3.948   3.827  15.720  0.2689  0.3131  0.5218
  758MPD2    C111248   3.979   3.707  15.781 -1.2623  0.2444 -0.5493
  758MPD2    C211249   3.933   3.697  15.912 -0.2386 -0.0205  0.4171
  758MPD2    C311250   3.892   3.809  15.983  0.3249 -0.5336 -0.3935
  758MPD2    C411251   3.877   3.933  15.922  0.2180 -0.2406  0.1413
  758MPD2    C511252   3.898   3.936  15.787  0.2734  0.0158 -0.2394
  758MPD2     H11253   3.932   3.603  15.966  0.7014 -0.3294 -0.0872
  758MPD2    H111254   3.843   4.017  15.981 -0.1859  0.4835 -1.1212
  758MPD2    H211255   3.963   3.838  15.613 -0.0803 -1.3106  0.2987
  758MPD2    H311256   3.877   4.027  15.734 -1.6428  0.1216  0.6814
  758MPD2     N11257   3.868   3.805  16.112  0.3077  0.8857 -0.0835
  758MPD2    H511258   3.832   3.891  16.153 -1.0713  0.2009  0.1139
  758MPD2    N111259   4.042   3.607  15.705 -0.6913 -0.2694 -0.3489
  758MPD2    H711260   4.084   3.629  15.615  1.4755  0.9089  0.9617
  759MPD2     C11261   3.717   1.700   9.741 -0.3629  0.2270 -0.0753
  759MPD2    C111262   3.618   1.778   9.802 -0.6986  0.4115 -0.2794
  759MPD2    C211263   3.636   1.911   9.795 -0.5053  0.2552 -0.0248
  759MPD2    C311264   3.741   1.976   9.737  0.3401 -0.2928  0.0399
  759MPD2    C411265   3.845   1.893   9.686 -0.0332 -0.2438  0.9682
  759MPD2    C511266   3.826   1.759   9.678  0.7473 -0.1816  1.2246
  759MPD2     H11267   3.551   1.965   9.836 -0.2031  0.2181  0.6586
  759MPD2    H111268   3.929   1.935   9.630 -1.7339  0.9918 -0.6606
  759MPD2    H211269   3.706   1.592   9.732 -1.7436  0.4718 -1.2730
  759MPD2    H311270   3.903   1.692   9.642 -2.0371 -1.6220 -2.0484
  759MPD2     N11271   3.727   2.115   9.733 -0.6969 -0.5376 -0.2612
  759MPD2    H511272   3.648   2.154   9.784 -0.7513 -0.4062 -0.4436
  759MPD2    N111273   3.497   1.729   9.857  0.0554  0.3732 -0.5574
  759MPD2    H711274   3.429   1.799   9.884 -0.9080 -0.4988 -0.7585
  760MPD2     C11275   2.479   4.339  11.909  0.3720  0.3254 -0.1672
  760MPD2    C111276   2.605   4.369  11.861  0.2949  0.8012  0.1045
  760MPD2    C211277   2.699   4.268  11.872  0.3750 -0.0667 -0.8205
  760MPD2    C311278   2.679   4.151  11.939 -0.6918  0.2577 -0.1034
  760MPD2    C411279   2.552   4.123  11.987 -0.7041  1.0054  0.3582
  760MPD2    C511280   2.452   4.216  11.962 -0.1403  0.0620  0.1700
  760MPD2     H11281   2.795   4.283  11.824  1.9699 -2.3849  1.6608
  760MPD2    H111282   2.514   4.041  12.046 -0.6271 -0.2370 -1.3295
  760MPD2    H211283   2.396   4.407  11.895  0.6483  0.4763 -1.0878
  760MPD2    H311284   2.351   4.204  11.998  0.3911 -1.5969  1.0893
  760MPD2     N11285   2.773   4.053  11.949  0.2957 -0.3867 -0.4441
  760MPD2    H511286   2.738   3.957  11.945  0.3921 -0.3425 -2.3328
  760MPD2    N111287   2.641   4.477  11.778 -0.2771 -0.2084  0.0053
  760MPD2    H711288   2.715   4.459  11.710 -0.7713 -2.3276  0.0202
  761MPD2     C11289   3.974   3.465  11.329  0.1597  0.8434 -0.3577
  761MPD2    C111290   4.028   3.429  11.204  0.2419 -0.9672  0.2456
  761MPD2    C211291   4.139   3.502  11.163  0.4871 -0.1768 -0.0032
  761MPD2    C311292   4.194   3.611  11.237  0.2443  0.2066 -0.4272
  761MPD2    C411293   4.137   3.648  11.359 -0.0433 -0.5060  0.5392
  761MPD2    C511294   4.023   3.580  11.392 -0.0842 -0.2858  0.4886
  761MPD2     H11295   4.192   3.476  11.072  0.1943  1.1833 -0.5613
  761MPD2    H111296   4.191   3.720  11.419 -2.8424  1.0000  1.2551
  761MPD2    H211297   3.882   3.420  11.364  2.0145 -0.1390  3.2023
  761MPD2    H311298   3.977   3.612  11.485 -0.3580 -0.6274  0.4681
  761MPD2     N11299   4.313   3.680  11.191  0.3010  0.3748 -0.1476
  761MPD2    H511300   4.328   3.768  11.240  0.8535  0.1797  0.0363
  761MPD2    N111301   3.978   3.311  11.138 -0.0653  0.3880 -0.7864
  761MPD2    H711302   3.894   3.265  11.174 -0.1613  0.1353 -1.3430
  762MPD2     C11303   4.371   3.323  10.715  0.0419 -0.6443  0.5910
  762MPD2    C111304   4.302   3.223  10.643  0.5823  0.5864  0.2046
  762MPD2    C211305   4.372   3.160  10.541 -0.3208  0.3967 -0.0254
  762MPD2    C311306   4.497   3.194  10.518 -0.6886  0.0838  0.0962
  762MPD2    C411307   4.569   3.280  10.593 -0.7350  0.4339 -0.3385
  762MPD2    C511308   4.504   3.351  10.689  0.3233  0.5380  0.5771
  762MPD2     H11309   4.319   3.094  10.473 -1.6665  2.7448 -1.2459
  762MPD2    H111310   4.669   3.317  10.575 -0.0495 -0.5401  1.3936
  762MPD2    H211311   4.330   3.375  10.801  1.5292 -0.3084  1.1053
  762MPD2    H311312   4.569   3.417  10.745 -0.5435  1.5938  0.3433
  762MPD2     N11313   4.557   3.134  10.407  0.2046  0.7498 -0.6008
  762MPD2    H511314   4.510   3.047  10.382  1.4143  0.0920 -0.5688
  762MPD2    N111315   4.169   3.201  10.674 -0.0337  0.5100 -0.7503
  762MPD2    H711316   4.139   3.254  10.755  0.1203 -1.1161  0.3739
  763MPD2     C11317   1.099   3.916  16.354  0.2690 -0.7445 -0.1893
  763MPD2    C111318   0.968   3.931  16.310 -0.1517  0.3999  0.6794
  763MPD2    C211319   0.917   4.059  16.320 -0.0664  1.2129  0.7612
  763MPD2    C311320   0.986   4.161  16.374 -0.2550  0.6814  0.1908
  763MPD2    C411321   1.115   4.148  16.407  0.1728 -1.1288 -0.8715
  763MPD2    C511322   1.175   4.028  16.391  0.4861 -0.4785 -0.4366
  763MPD2     H11323   0.816   4.084  16.288  0.6933  2.3364 -0.8179
  763MPD2    H111324   1.166   4.231  16.454  0.9869 -2.0421 -0.1592
  763MPD2    H211325   1.151   3.822  16.347  0.9654 -0.2709 -1.3420
  763MPD2    H311326   1.273   4.014  16.434 -0.7233  0.0738  2.4419
  763MPD2     N11327   0.917   4.289  16.383  0.1449  0.1119 -0.1819
  763MPD2    H511328   0.836   4.318  16.329 -0.8075 -0.7287  0.7935
  763MPD2    N111329   0.897   3.821  16.251 -0.0190  0.0260  0.1450
  763MPD2    H711330   0.801   3.848  16.228  0.8103  1.5365 -1.5274
  764MPD2     C11331   4.329   0.417   0.163  0.7028 -0.1008  0.0167
  764MPD2    C111332   4.208   0.409   0.093 -0.4272  0.0401  0.2830
  764MPD2    C211333   4.100   0.372   0.167  0.9361  0.8024  0.0847
  764MPD2    C311334   4.101   0.345   0.300 -0.5773  0.0126  0.3855
  764MPD2    C411335   4.225   0.352   0.365  0.5333 -0.0381 -0.9332
  764MPD2    C511336   4.335   0.391   0.296 -0.0380 -0.6158  0.4358
  764MPD2     H11337   4.002   0.354   0.123  1.2765  3.8659 -1.9279
  764MPD2    H111338   4.248   0.338   0.469  0.1914 -0.6881 -0.9380
  764MPD2    H211339   4.419   0.441   0.107  1.8026 -1.7245  1.0619
  764MPD2    H311340   4.428   0.404   0.350  0.4078 -4.7419  0.6903
  764MPD2     N11341   3.982   0.325   0.369  0.0212  0.1697 -0.0824
  764MPD2    H511342   3.901   0.316   0.309  1.5352 -2.1999 -1.7762
  764MPD2    N111343   4.183   0.435  17.696 -0.1817  0.5790 -0.2578
  764MPD2    H711344   4.086   0.428  17.666 -0.7470  2.0839  1.2653
  765MPD2     C11345   3.612   2.946  15.888 -0.6293  0.3515  0.0383
  765MPD2    C111346   3.691   3.053  15.848  0.1567  0.0518  0.2399
  765MPD2    C211347   3.822   3.027  15.806  0.8787 -0.1350  0.3743
  765MPD2    C311348   3.865   2.900  15.774  0.1448 -0.7637  0.6898
  765MPD2    C411349   3.776   2.797  15.794 -0.2518 -0.0417  0.2766
  765MPD2    C511350   3.657   2.819  15.856  0.1498 -0.2047 -0.6786
  765MPD2     H11351   3.887   3.113  15.792  0.1289 -0.2278 -3.5525
  765MPD2    H111352   3.807   2.695  15.773 -1.1726 -0.8356  2.7694
  765MPD2    H211353   3.513   2.945  15.933 -1.0127 -1.0072 -0.8425
  765MPD2    H311354   3.606   2.732  15.897 -0.0010 -0.3065 -1.0894
  765MPD2     N11355   3.994   2.886  15.712 -0.0257 -0.4252  0.6323
  765MPD2    H511356   4.042   2.972  15.688 -0.0522 -0.9712 -1.3568
  765MPD2    N111357   3.634   3.183  15.856 -0.2927  0.4870  0.8173
  765MPD2    H711358   3.542   3.183  15.901 -0.0883  1.9005  1.2362
  766MPD2     C11359   3.081   3.279  15.476  0.0273 -0.1697  0.6021
  766MPD2    C111360   3.217   3.267  15.485 -0.1086  1.3895  0.4501
  766MPD2    C211361   3.278   3.208  15.376  0.7954  0.5909 -0.2047
  766MPD2    C311362   3.210   3.159  15.264 -0.1328 -0.0796  0.3733
  766MPD2    C411363   3.072   3.155  15.269  0.1237 -0.2279 -0.4764
  766MPD2    C511364   3.012   3.219  15.380 -0.8697  0.6829  0.2116
  766MPD2     H11365   3.386   3.204  15.369  0.8977 -0.5639  1.9552
  766MPD2    H111366   3.017   3.108  15.188 -0.6019 -0.1476 -0.0368
  766MPD2    H211367   3.024   3.338  15.547 -0.6097 -1.0203  0.7960
  766MPD2    H311368   2.905   3.212  15.390 -0.8887  1.7969  0.6808
  766MPD2     N11369   3.265   3.108  15.147  0.3865 -0.0561 -0.0726
  766MPD2    H511370   3.196   3.098  15.073  0.7224  2.9882 -0.8109
  766MPD2    N111371   3.296   3.323  15.585 -0.2625  0.0429 -0.5745
  766MPD2    H711372   3.390   3.287  15.594 -0.2901 -0.2692 -1.4768
  767MPD2     C11373   2.854   3.303  15.059 -0.3262  0.1080  0.1711
  767MPD2    C111374   2.976   3.338  15.010 -0.3924 -0.6267  0.3578
  767MPD2    C211375   2.999   3.319  14.872  0.7319 -0.0936  0.0033
  767MPD2    C311376   2.907   3.271  14.790 -0.4814  0.9683 -0.0941
  767MPD2    C411377   2.793   3.235  14.839  0.5040 -0.3830 -0.2855
  767MPD2    C511378   2.759   3.259  14.970 -0.2639 -0.3323 -1.0184
  767MPD2     H11379   3.095   3.344  14.829  0.5279 -0.0666 -0.4350
  767MPD2    H111380   2.726   3.172  14.782 -0.4893  0.2253  0.2071
  767MPD2    H211381   2.829   3.319  15.163  1.4653  0.2810  0.5741
  767MPD2    H311382   2.668   3.212  15.007 -1.3813  0.7377 -2.4395
  767MPD2     N11383   2.942   3.256  14.653 -0.8383  0.8863  1.0196
  767MPD2    H511384   3.042   3.256  14.636 -0.9165 -0.7667  0.5280
  767MPD2    N111385   3.064   3.409  15.093  0.0730  0.1490  0.1166
  767MPD2    H711386   3.039   3.437  15.187 -0.1570 -1.5004  0.5485
  768MPD2     C11387   4.132   1.830  10.544 -0.0020 -0.5860 -0.9933
  768MPD2    C111388   4.052   1.751  10.624  0.2521 -0.5374 -0.2608
  768MPD2    C211389   4.098   1.707  10.749  0.5818  0.1031  0.3644
  768MPD2    C311390   4.224   1.744  10.793 -0.2515 -0.7723  0.4220
  768MPD2    C411391   4.298   1.821  10.713 -0.6474 -0.0374  0.1562
  768MPD2    C511392   4.259   1.862  10.592  0.3127 -0.1210 -0.5154
  768MPD2     H11393   4.029   1.659  10.817 -2.6421  2.0717 -1.5010
  768MPD2    H111394   4.399   1.846  10.745 -0.6421 -0.3068  0.3488
  768MPD2    H211395   4.094   1.882  10.457 -1.9390  1.7461  1.2521
  768MPD2    H311396   4.326   1.917  10.527 -0.9936  0.3436 -1.4588
  768MPD2     N11397   4.257   1.713  10.928 -0.2029  0.2284 -0.4506
  768MPD2    H511398   4.353   1.737  10.952 -0.5922  1.7759 -0.4204
  768MPD2    N111399   3.917   1.731  10.599  0.3143 -0.1558  0.2405
  768MPD2    H711400   3.875   1.655  10.652 -0.6315  1.6853  2.1083
  769MPD2     C11401   0.237   0.028  14.930 -0.3641 -0.1308  0.4410
  769MPD2    C111402   0.132   0.066  15.008 -0.1850 -0.1124 -0.3826
  769MPD2    C211403   0.156   0.106  15.141 -0.4450  0.1712  0.3401
  769MPD2    C311404   0.285   0.110  15.196 -0.3274 -1.1216  0.4670
  769MPD2    C411405   0.385   0.079  15.113 -0.2412  0.5788 -0.1068
  769MPD2    C511406   0.364   0.036  14.982 -0.4668  0.2356  0.2185
  769MPD2     H11407   0.074   0.124  15.208 -0.2724 -0.6149  0.7636
  769MPD2    H111408   0.492   0.077  15.132  0.1332 -0.8056 -2.2413
  769MPD2    H211409   0.221   4.719  14.832 -4.1970  2.7256 -0.2172
  769MPD2    H311410   0.442   4.730  14.920 -0.0108  0.3498  0.7153
  769MPD2     N11411   0.301   0.160  15.327 -0.5486 -0.2873 -0.2808
  769MPD2    H511412   0.217   0.182  15.380 -1.5021 -1.6173 -1.2373
  769MPD2    N111413   0.012   0.046  14.948  0.0117  0.4759 -0.4147
  769MPD2    H711414   0.017   4.735  14.857  0.0823 -0.6467  0.1575
  770MPD2     C11415   4.443   4.068  14.424  0.4723 -0.9067 -0.4498
  770MPD2    C111416   4.401   4.046  14.549 -0.3188  0.3688 -0.1293
  770MPD2    C211417   4.389   4.156  14.641 -0.2959  0.1056  0.0630
  770MPD2    C311418   4.431   4.284  14.603  0.2494 -0.0487  0.4878
  770MPD2    C411419   4.465   4.303  14.468 -0.1286 -0.4061  0.7092
  770MPD2    C511420   4.470   4.196  14.382 -0.5387 -0.0232 -0.2977
  770MPD2     H11421   4.345   4.148  14.740 -2.2722  1.8352 -0.6627
  770MPD2    H111422   4.501   4.397  14.427 -1.8504  0.5014  1.2677
  770MPD2    H211423   4.467   3.990  14.353  5.6956  0.6523 -0.4627
  770MPD2    H311424   4.507   4.215  14.281  0.9530 -0.6201  0.1430
  770MPD2     N11425   4.430   4.393  14.694 -0.0359 -0.1377 -0.1018
  770MPD2    H511426   4.407   4.375  14.791 -2.3307 -1.2515 -0.8558
  770MPD2    N111427   4.370   3.914  14.586  0.1287  0.6775  0.2125
  770MPD2    H711428   4.392   3.841  14.519  0.1561  1.5433 -0.7283
  771MPD2     C11429   1.102   2.702  13.741  0.6758 -0.5537 -0.5877
  771MPD2    C111430   1.049   2.825  13.716  0.5847  0.3073  0.6483
  771MPD2    C211431   0.942   2.836  13.630  0.0925  0.1881 -0.2795
  771MPD2    C311432   0.903   2.720  13.559  0.6761  0.2553  0.2236
  771MPD2    C411433   0.951   2.595  13.596  1.2576 -0.6560  0.2973
  771MPD2    C511434   1.056   2.589  13.689  0.5893  0.0966  0.1760
  771MPD2     H11435   0.913   2.933  13.593  0.5814 -0.4855 -2.4167
  771MPD2    H111436   0.916   2.498  13.562  0.1512 -0.1741  0.0570
  771MPD2    H211437   1.177   2.692  13.819 -1.0735  0.9588  1.2757
  771MPD2    H311438   1.097   2.490  13.708  0.1852 -0.4172 -1.6446
  771MPD2     N11439   0.808   2.733  13.454 -0.6728 -0.4204  0.1890
  771MPD2    H511440   0.778   2.825  13.422 -1.5198 -0.6893  0.2198
  771MPD2    N111441   1.102   2.945  13.763 -0.0639  0.2205  0.9059
  771MPD2    H711442   1.051   3.029  13.737 -1.0959 -0.4101  0.8986
  772MPD2     C11443   0.661   3.274  13.604 -0.4110  0.5419 -0.2673
  772MPD2    C111444   0.677   3.334  13.730 -0.6017 -0.6201 -0.5028
  772MPD2    C211445   0.562   3.376  13.796  0.4029  0.2108  0.3132
  772MPD2    C311446   0.436   3.367  13.741 -0.5218 -0.4663  0.2812
  772MPD2    C411447   0.429   3.328  13.614 -0.1004  0.1454 -0.2364
  772MPD2    C511448   0.540   3.279  13.550  0.1521 -0.3645  0.0714
  772MPD2     H11449   0.574   3.408  13.899  0.4625  3.5246 -0.7089
  772MPD2    H111450   0.335   3.328  13.560 -0.4814  0.8424  0.4437
  772MPD2    H211451   0.746   3.232  13.551  0.3163  3.0851 -1.1100
  772MPD2    H311452   0.523   3.250  13.447 -0.3894  0.3628 -0.0446
  772MPD2     N11453   0.315   3.399  13.812  0.1411 -0.1744  0.0578
  772MPD2    H511454   0.233   3.371  13.759 -1.3499  1.4710  1.4703
  772MPD2    N111455   0.807   3.330  13.791 -0.0860 -0.0167 -0.1636
  772MPD2    H711456   0.818   3.389  13.872 -0.2943 -0.4336  0.1647
  773MPD2     C11457   4.165   3.560   0.537 -0.4722  0.9356  0.4226
  773MPD2    C111458   4.261   3.549   0.440  0.3346 -0.4889 -0.2576
  773MPD2    C211459   4.378   3.479   0.463  0.0178 -0.3274 -0.0555
  773MPD2    C311460   4.390   3.416   0.582  0.1214 -0.3769  0.0264
  773MPD2    C411461   4.295   3.426   0.683 -0.3176  0.1683  0.4967
  773MPD2    C511462   4.181   3.498   0.660 -0.0449  0.1293  0.5275
  773MPD2     H11463   4.452   3.463   0.385  0.8514 -1.7469  1.0408
  773MPD2    H111464   4.302   3.377   0.779  0.8235  2.2254  1.4582
  773MPD2    H211465   4.078   3.624   0.524 -0.4721  0.6968 -0.7220
  773MPD2    H311466   4.109   3.512   0.741 -0.3553 -0.1082  0.2916
  773MPD2     N11467   4.504   3.337   0.594  0.2125  0.2210  0.1033
  773MPD2    H511468   4.562   3.324   0.512 -0.7396 -1.7217 -0.2513
  773MPD2    N111469   4.243   3.613   0.314 -0.2414  0.4470 -0.1156
  773MPD2    H711470   4.317   3.606   0.245  0.2266  1.7840  0.2556
  774MPD2     C11471   3.566   3.118  13.504 -0.5359  0.6700  0.4273
  774MPD2    C111472   3.590   3.220  13.593  0.1090 -0.3932 -0.6750
  774MPD2    C211473   3.646   3.333  13.534  0.1829 -1.1216  0.5557
  774MPD2    C311474   3.671   3.341  13.396 -0.3481  0.2463 -0.1500
  774MPD2    C411475   3.638   3.244  13.309  0.2135 -0.4813  0.1093
  774MPD2    C511476   3.583   3.127  13.365  0.5674  0.4288  0.2189
  774MPD2     H11477   3.676   3.410  13.603  0.2002 -0.5347 -0.1096
  774MPD2    H111478   3.652   3.255  13.202  3.3984 -1.0815  0.4505
  774MPD2    H211479   3.522   3.024  13.537  1.4419  0.7873  3.3345
  774MPD2    H311480   3.557   3.046  13.298  0.5735 -0.5545  1.4134
  774MPD2     N11481   3.721   3.460  13.347  0.0918 -0.1504  0.2525
  774MPD2    H511482   3.745   3.532  13.415  1.4852 -1.7234  1.4322
  774MPD2    N111483   3.571   3.203  13.729  0.7563  0.2295  0.2990
  774MPD2    H711484   3.516   3.123  13.757 -3.7490  2.6234 -1.8394
  775MPD2     C11485   0.586   0.086  15.774  0.3474  0.0935 -0.3084
  775MPD2    C111486   0.581   0.194  15.860 -0.7043  0.1414  0.8895
  775MPD2    C211487   0.681   0.290  15.839  0.9738  0.0975 -1.0049
  775MPD2    C311488   0.782   0.278  15.744  0.4990 -0.0633 -0.8655
  775MPD2    C411489   0.784   0.160  15.670  0.6675 -0.7214  1.3766
  775MPD2    C511490   0.690   0.061  15.685  0.6231 -1.2983  0.1823
  775MPD2     H11491   0.686   0.378  15.901 -3.5033  0.7418 -1.5654
  775MPD2    H111492   0.864   0.140  15.599 -0.4521 -1.6476  0.3930
  775MPD2    H211493   0.505   0.015  15.785 -0.5705  1.5889  2.7222
  775MPD2    H311494   0.689   4.710  15.619  1.9823 -0.6973 -0.6251
  775MPD2     N11495   0.862   0.384  15.708  0.0375 -0.0884 -0.1698
  775MPD2    H511496   0.917   0.356  15.627  0.4144  2.8139 -0.9064
  775MPD2    N111497   0.477   0.204  15.955  0.0999 -0.5711  0.9066
  775MPD2    H711498   0.400   0.138  15.955  0.2033 -0.6870  2.1177
  776MPD2     C11499   4.385   0.362  10.973 -0.7708 -0.0147 -0.1758
  776MPD2    C111500   4.502   0.342  11.046 -0.0025 -0.4819  0.0793
  776MPD2    C211501   4.605   0.419  11.015 -0.5251 -0.2093  0.6541
  776MPD2    C311502   4.609   0.521  10.922  0.4306 -0.2131  0.0099
  776MPD2    C411503   4.495   0.546  10.861  0.1541 -0.1502 -0.5324
  776MPD2    C511504   4.379   0.468  10.883  0.0187 -0.0233 -0.0303
  776MPD2     H11505   4.688   0.411  11.086 -1.1007 -1.2269  1.2196
  776MPD2    H111506   4.477   0.627  10.791  0.9415 -3.4980 -4.5831
  776MPD2    H211507   4.298   0.298  10.984 -0.5112 -0.3186  0.1123
  776MPD2    H311508   4.295   0.496  10.820 -0.6908 -1.2049  0.3724
  776MPD2     N11509   4.714   0.615  10.919 -0.2223  0.7326  0.4438
  776MPD2    H511510   4.686   0.707  10.886  2.1194  1.6668  1.0820
  776MPD2    N111511   4.505   0.240  11.142 -0.5546  0.4568  0.1419
  776MPD2    H711512   4.417   0.191  11.157  0.2278 -0.4860  1.6199
  777MPD2     C11513   4.726   2.628   1.067  0.3968  0.4168  0.0543
  777MPD2    C111514   4.618   2.590   1.138 -0.7577  0.1200 -0.6265
  777MPD2    C211515   4.526   2.497   1.084  0.2078 -0.2334 -0.4268
  777MPD2    C311516   4.552   2.444   0.961 -0.8363 -0.3300 -0.8719
  777MPD2    C411517   4.660   2.485   0.882 -0.5166  0.2159 -0.1521
  777MPD2    C511518   0.013   2.576   0.939 -0.9069  0.0331  0.6955
  777MPD2     H11519   4.435   2.462   1.131  1.0168 -0.7075  0.8078
  777MPD2    H111520   4.670   2.431   0.788  0.5620 -1.0456  0.6860
  777MPD2    H211521   0.058   2.704   1.107  0.8663  0.4409 -0.7620
  777MPD2    H311522   0.101   2.620   0.893 -1.3131 -0.9355 -0.9884
  777MPD2     N11523   4.452   2.349   0.918 -0.1892  0.1241 -0.2328
  777MPD2    H511524   4.376   2.333   0.983  1.8397 -1.0898  1.8225
  777MPD2    N111525   4.608   2.645   1.271 -0.0241 -0.3288  0.2032
  777MPD2    H711526   4.676   2.716   1.297 -1.2925  1.5437 -1.5837
  778MPD2     C11527   0.924   3.084  14.934 -0.2525  0.2039  0.0407
  778MPD2    C111528   0.949   2.989  14.836 -0.6410  0.4380  0.2445
  778MPD2    C211529   1.015   3.033  14.717  0.4004 -0.1876 -0.5852
  778MPD2    C311530   1.047   3.164  14.703 -0.0869 -0.7953  0.1772
  778MPD2    C411531   1.030   3.246  14.808 -0.5866 -0.4380 -0.2815
  778MPD2    C511532   0.974   3.206  14.923  0.2932  0.2238  0.1095
  778MPD2     H11533   1.029   2.961  14.637  1.9515 -0.5951  0.0482
  778MPD2    H111534   1.050   3.352  14.812  1.0559 -0.7633  0.2376
  778MPD2    H211535   0.886   3.059  15.032  2.0734 -0.7371  0.7172
  778MPD2    H311536   0.944   3.281  14.995  1.6047  0.9797 -0.1499
  778MPD2     N11537   1.107   3.209  14.584  0.4286 -0.3828 -0.0856
  778MPD2    H511538   1.101   3.137  14.513 -1.4327 -0.2711 -0.0276
  778MPD2    N111539   0.923   2.848  14.857  0.1138 -0.4642 -0.3016
  778MPD2    H711540   0.964   2.786  14.788  2.7527  0.7404  0.1624
  779MPD2     C11541   0.991   1.611  13.775  0.8573  0.5390 -1.4204
  779MPD2    C111542   0.966   1.608  13.910 -1.0128  0.4918 -0.0398
  779MPD2    C211543   0.943   1.732  13.970  0.0330  0.3824  0.0274
  779MPD2    C311544   0.939   1.850  13.896 -0.0956 -0.4885 -0.1534
  779MPD2    C411545   0.958   1.850  13.762  0.0603  0.1961 -0.8617
  779MPD2    C511546   0.987   1.728  13.706  0.4624  1.0886 -0.5026
  779MPD2     H11547   0.918   1.738  14.076  0.2467 -1.8832  0.2144
  779MPD2    H111548   0.954   1.938  13.698  2.0898  1.1526  0.3222
  779MPD2    H211549   1.021   1.520  13.724 -0.4928 -1.8067  1.9084
  779MPD2    H311550   1.004   1.716  13.599  0.8113 -1.6237 -0.1468
  779MPD2     N11551   0.913   1.973  13.971  0.0267  0.2010  0.4463
  779MPD2    H511552   0.947   1.967  14.067 -1.3801 -1.7202  0.8447
  779MPD2    N111553   0.951   1.482  13.971  0.4458  0.4770 -0.2171
  779MPD2    H711554   0.980   1.402  13.915  2.0815  0.5617  0.5225
  780MPD2     C11555   0.155   1.613   1.174  0.2528  0.2879 -0.3915
  780MPD2    C111556   0.119   1.542   1.058 -0.5362  0.0709 -0.1797
  780MPD2    C211557   0.156   1.599   0.941  0.0864  0.5431  0.1789
  780MPD2    C311558   0.228   1.717   0.934  0.2674  0.5294 -0.2306
  780MPD2    C411559   0.259   1.787   1.048 -0.6470 -0.5909 -0.0890
  780MPD2    C511560   0.222   1.731   1.170 -0.2119  0.2865  1.1357
  780MPD2     H11561   0.148   1.553   0.843  0.2147  2.2306 -0.6352
  780MPD2    H111562   0.314   1.881   1.050 -1.6221 -0.0270  0.1744
  780MPD2    H211563   0.126   1.562   1.265 -0.2070  1.7794  0.2889
  780MPD2    H311564   0.232   1.790   1.260  0.9812 -0.3325  1.4096
  780MPD2     N11565   0.257   1.766   0.800 -0.3044  0.1049  0.1932
  780MPD2    H511566   0.221   1.707   0.726 -2.1408 -0.5864  1.6531
  780MPD2    N111567   0.036   1.425   1.067  0.1792  0.1281  0.0629
  780MPD2    H711568   0.008   1.392   1.160 -0.4782  1.4095  0.3129
  781MPD2     C11569   2.501   2.971  12.054 -0.2931 -0.5910 -1.0820
  781MPD2    C111570   2.440   3.093  12.073  0.5699 -0.4665  0.6531
  781MPD2    C211571   2.446   3.193  11.973  0.1584 -0.4260  0.4071
  781MPD2    C311572   2.504   3.167  11.851  0.4522  0.5149 -0.3351
  781MPD2    C411573   2.547   3.040  11.825  0.1205 -0.2627 -0.3594
  781MPD2    C511574   2.555   2.946  11.927 -0.8596  0.1421 -0.3386
  781MPD2     H11575   2.404   3.291  11.993  0.0406 -0.0799 -1.5771
  781MPD2    H111576   2.593   3.015  11.731  3.7610  2.0948  0.7933
  781MPD2    H211577   2.512   2.902  12.137 -1.4106 -1.1562 -1.4031
  781MPD2    H311578   2.622   2.862  11.911 -2.2743 -0.9871 -0.3833
  781MPD2     N11579   2.516   3.263  11.749  0.0031 -0.0529  0.2426
  781MPD2    H511580   2.543   3.222  11.661  0.6973 -0.3187  0.5819
  781MPD2    N111581   2.395   3.135  12.205  0.0412  0.3710  0.3533
  781MPD2    H711582   2.337   3.218  12.212  0.0413  0.3720  0.3425
  782MPD2     C11583   0.122   4.335  10.147  0.1588  0.5022 -0.3444
  782MPD2    C111584   0.252   4.341  10.102 -0.3848  0.6036  0.2085
  782MPD2    C211585   0.356   4.338  10.193 -0.3128 -0.2839 -0.3003
  782MPD2    C311586   0.337   4.343  10.324  0.5844 -0.6177  0.4951
  782MPD2    C411587   0.211   4.332  10.375 -0.1253  0.8400  0.0318
  782MPD2    C511588   0.098   4.329  10.287 -0.2283 -0.2303  0.4187
  782MPD2     H11589   0.459   4.341  10.159  0.1463 -0.4046  1.0811
  782MPD2    H111590   0.189   4.325  10.481 -0.9211 -1.8598 -0.2924
  782MPD2    H211591   0.037   4.320  10.081 -0.6319  1.6869  0.4168
  782MPD2    H311592   4.733   4.328  10.330  0.4141 -0.5272  1.8910
  782MPD2     N11593   0.455   4.336  10.405  0.0105 -0.0200  0.1574
  782MPD2    H511594   0.546   4.349  10.361  0.9554 -3.3678  1.0963
  782MPD2    N111595   0.279   4.325   9.963  0.0049 -0.2634 -0.0333
  782MPD2    H711596   0.192   4.335   9.911 -0.6753  0.5544  1.2638
  783MPD2     C11597   4.651   3.625  10.463 -0.3018  0.2615  0.5126
  783MPD2    C111598   4.708   3.719  10.546  0.2320 -0.1803  0.1684
  783MPD2    C211599   0.063   3.805  10.496  0.1981  0.5273 -0.2674
  783MPD2    C311600   0.095   3.796  10.357 -0.1161 -0.1281  0.4250
  783MPD2    C411601   0.047   3.694  10.274 -0.5607  0.1535  0.0750
  783MPD2    C511602   4.693   3.609  10.333 -0.8885  0.4417  0.0071
  783MPD2     H11603   0.116   3.874  10.560  2.7271 -1.1923 -0.5059
  783MPD2    H111604   0.061   3.685  10.167 -0.4573 -0.8209  0.1663
  783MPD2    H211605   4.569   3.565  10.500  0.3900 -0.6593  0.5575
  783MPD2    H311606   4.654   3.529  10.272  1.1036 -1.6591  1.4792
  783MPD2     N11607   0.188   3.891  10.309 -0.8554 -0.2033  0.0550
  783MPD2    H511608   0.242   3.948  10.373 -2.1238 -0.5237  1.4071
  783MPD2    N111609   4.664   3.720  10.682 -0.4559  0.6214 -0.4168
  783MPD2    H711610   4.642   3.626  10.714 -1.0341  1.3769  1.4010
  784MPD2     C11611   1.815   4.552   0.431  1.1728  0.6205  0.0371
  784MPD2    C111612   1.875   4.627   0.520  0.6322 -0.0634  0.9122
  784MPD2    C211613   1.810   4.662   0.637 -0.0374 -0.0322 -0.3100
  784MPD2    C311614   1.678   4.627   0.660 -0.6191  0.2117  0.1822
  784MPD2    C411615   1.614   4.552   0.563 -0.3396  0.0065  0.0311
  784MPD2    C511616   1.681   4.518   0.441  0.4395 -0.3385  0.3385
  784MPD2     H11617   1.858   4.732   0.704 -1.4575 -1.8286  2.5607
  784MPD2    H111618   1.514   4.510   0.569 -0.7644  0.8421 -1.0357
  784MPD2    H211619   1.867   4.522   0.341  1.7154 -1.5348  1.0668
  784MPD2    H311620   1.634   4.440   0.381  0.6155 -0.9772  1.0346
  784MPD2     N11621   1.620   4.663   0.780 -0.6444 -0.1600 -0.0550
  784MPD2    H511622   1.678   4.721   0.840  2.8182 -0.9048 -2.6270
  784MPD2    N111623   2.014   4.678   0.503 -0.2142 -0.0549 -0.7415
  784MPD2    H711624   2.056   4.728   0.581 -1.3275 -2.5912  1.4467
  785MPD2     C11625   2.855   2.508  10.323 -0.7004 -0.0312 -0.1488
  785MPD2    C111626   2.719   2.513  10.321  0.0354 -0.2260 -1.4438
  785MPD2    C211627   2.654   2.451  10.214  0.1652 -0.3857  0.2416
  785MPD2    C311628   2.723   2.387  10.113 -0.3320  0.1121 -0.5470
  785MPD2    C411629   2.861   2.372  10.126 -0.4780 -0.8890 -0.5335
  785MPD2    C511630   2.925   2.426  10.234 -0.3159 -0.3599 -0.3754
  785MPD2     H11631   2.550   2.461  10.186  0.3992 -1.9982 -1.2024
  785MPD2    H111632   2.929   2.329  10.054  1.0667 -3.0934  2.2565
  785MPD2    H211633   2.911   2.558  10.401  0.1977  0.8014 -1.3317
  785MPD2    H311634   3.033   2.420  10.243 -0.4730 -0.6517  1.3322
  785MPD2     N11635   2.640   2.341  10.004 -0.1981  0.6065 -0.1595
  785MPD2    H511636   2.538   2.344  10.009 -0.0531 -1.2134  3.1656
  785MPD2    N111637   2.664   2.599  10.418 -0.0261 -0.1184  0.0726
  785MPD2    H711638   2.736   2.649  10.469 -0.3480 -0.3068  0.7101
  786MPD2     C11639   1.882   1.321  14.685 -0.3743 -0.4955  0.2930
  786MPD2    C111640   1.789   1.241  14.749  0.0425 -0.9300 -0.0204
  786MPD2    C211641   1.796   1.226  14.884 -0.1382 -0.0054 -0.1071
  786MPD2    C311642   1.893   1.289  14.952  0.3036 -0.1759 -0.6120
  786MPD2    C411643   1.983   1.368  14.890 -0.5176 -0.0565 -0.5091
  786MPD2    C511644   1.982   1.384  14.749 -0.1794  0.1896  0.4126
  786MPD2     H11645   1.720   1.167  14.933 -0.6193  1.1984  0.6042
  786MPD2    H111646   2.071   1.402  14.945 -1.4641 -0.8598  1.5142
  786MPD2    H211647   1.875   1.347  14.580  1.8667 -0.6789  0.1030
  786MPD2    H311648   2.052   1.441  14.689  0.4698 -2.0757 -0.9789
  786MPD2     N11649   1.916   1.266  15.085  0.8452  0.8693  0.3386
  786MPD2    H511650   2.006   1.301  15.117  0.2389  2.8551 -0.1328
  786MPD2    N111651   1.683   1.184  14.673  0.4795  0.0161 -0.0478
  786MPD2    H711652   1.611   1.134  14.725  0.3990 -1.3767 -1.4955
  787MPD2     C11653   1.443   0.838  14.999 -0.2549  0.3239 -0.5559
  787MPD2    C111654   1.428   0.766  14.881 -0.3097  0.0246 -0.1872
  787MPD2    C211655   1.453   0.632  14.893 -0.2914  0.2299  0.6314
  787MPD2    C311656   1.468   0.570  15.016 -0.2693 -0.2622 -0.1343
  787MPD2    C411657   1.470   0.647  15.132  0.2651 -0.2329 -0.3371
  787MPD2    C511658   1.465   0.781  15.116  0.6593  0.6127 -0.0125
  787MPD2     H11659   1.456   0.562  14.811  0.7919 -0.4905  1.2935
  787MPD2    H111660   1.478   0.614  15.235  1.3406 -0.8335 -0.6071
  787MPD2    H211661   1.438   0.946  14.996 -2.0190  0.2608  0.5195
  787MPD2    H311662   1.468   0.847  15.202  2.2674  0.4569  0.0507
  787MPD2     N11663   1.489   0.430  15.020  0.3656 -0.5400  0.3903
  787MPD2    H511664   1.488   0.383  14.930 -1.5316  0.9458 -0.3577
  787MPD2    N111665   1.421   0.839  14.761  0.1723 -0.2650 -0.3846
  787MPD2    H711666   1.418   0.940  14.769 -2.9213 -0.4421  0.5610
  788MPD2     C11667   3.511   4.046   0.870  0.6645 -0.0867  0.1631
  788MPD2    C111668   3.476   3.999   0.750  0.2812 -0.0415 -0.0615
  788MPD2    C211669   3.457   4.080   0.640  0.0342 -0.2442 -0.2005
  788MPD2    C311670   3.483   4.214   0.649 -0.5064 -0.7608  0.0726
  788MPD2    C411671   3.518   4.269   0.773  0.0533  0.9878  0.2544
  788MPD2    C511672   3.538   4.183   0.880 -0.3151 -0.2175  0.3847
  788MPD2     H11673   3.452   4.027   0.546 -0.0126 -2.4150  1.0213
  788MPD2    H111674   3.523   4.375   0.796 -4.7674  1.0243  1.3041
  788MPD2    H211675   3.508   3.990   0.963 -2.2940 -0.8608 -0.4039
  788MPD2    H311676   3.553   4.221   0.980  0.1763 -0.3458  0.3599
  788MPD2     N11677   3.470   4.306   0.539  0.8178 -0.8949  1.0105
  788MPD2    H511678   3.449   4.401   0.568  0.8045  0.3162 -2.9295
  788MPD2    N111679   3.469   3.860   0.727 -1.3574 -1.0708  0.9165
  788MPD2    H711680   3.430   3.825   0.640  0.2588  0.3491 -0.3704
  789MPD2     C11681   3.731   3.496  16.775  0.0586 -0.2256  0.4476
  789MPD2    C111682   3.659   3.532  16.665 -0.6146 -0.0915  0.1794
  789MPD2    C211683   3.573   3.640  16.670 -0.0307 -0.0443  0.7266
  789MPD2    C311684   3.565   3.706  16.794  0.0725 -0.3934 -0.4821
  789MPD2    C411685   3.637   3.666  16.901  0.4955  0.0299  0.4007
  789MPD2    C511686   3.710   3.556  16.894  0.0210 -0.7921 -0.5828
  789MPD2     H11687   3.531   3.679  16.578  1.1087 -0.3102  0.0915
  789MPD2    H111688   3.616   3.709  16.999 -0.5661 -0.6511  0.4693
  789MPD2    H211689   3.797   3.411  16.783  1.0511  0.7414  2.6023
  789MPD2    H311690   3.769   3.522  16.979  0.6937 -1.0554 -1.1541
  789MPD2     N11691   3.463   3.810  16.817  0.3273  0.5246  0.9394
  789MPD2    H511692   3.452   3.839  16.913  0.1878  1.0203  0.7741
  789MPD2    N111693   3.676   3.457  16.538  0.6125 -0.0925 -0.5150
  789MPD2    H711694   3.627   3.496  16.458  5.3838  2.6486 -2.1322
  790MPD2     C11695   0.296   0.001  13.247 -0.5906  0.4111 -0.2846
  790MPD2    C111696   0.179   0.072  13.258  0.7375 -0.0106  0.1963
  790MPD2    C211697   0.122   0.122  13.139  0.0739 -0.1702 -0.4056
  790MPD2    C311698   0.172   0.084  13.014 -0.1840  0.0120 -0.1065
  790MPD2    C411699   0.282   0.004  13.002 -0.3447  0.6639 -0.4867
  790MPD2    C511700   0.343   4.706  13.122 -0.8017 -0.4084  0.6568
  790MPD2     H11701   0.027   0.173  13.141  0.4554  0.5697 -1.6058
  790MPD2    H111702   0.326   4.706  12.909 -1.4195  2.0296 -1.4717
  790MPD2    H211703   0.356   4.704  13.331 -1.1945 -0.8064 -0.3336
  790MPD2    H311704   0.441   4.659  13.115 -0.4920  0.0209  2.1454
  790MPD2     N11705   0.119   0.137  12.894 -0.6943 -0.2481  0.2351
  790MPD2    H511706   0.024   0.172  12.897 -0.0700  1.0702  3.5642
  790MPD2    N111707   0.125   0.102  13.386 -0.9847 -0.7156  0.2827
  790MPD2    H711708   0.184   0.071  13.462 -1.0116  0.3795  0.7495
  791MPD2     C11709   4.287   0.382  12.854  0.4271  0.3552 -0.3587
  791MPD2    C111710   4.323   0.333  12.727  0.4653 -0.2485 -0.6243
  791MPD2    C211711   4.226   0.318  12.634 -0.2596 -0.6073  0.5683
  791MPD2    C311712   4.090   0.341  12.659 -0.0600  0.2334  0.5085
  791MPD2    C411713   4.061   0.380  12.784 -0.6443 -0.1029 -0.4722
  791MPD2    C511714   4.156   0.400  12.882 -0.1070 -0.0859  0.5140
  791MPD2     H11715   4.260   0.278  12.539  0.7810  1.9505 -0.1282
  791MPD2    H111716   3.961   0.401  12.821 -0.2814  3.7206 -1.6692
  791MPD2    H211717   4.359   0.390  12.935  1.2918 -2.5417 -0.8256
  791MPD2    H311718   4.139   0.413  12.988 -1.1909  0.0609  0.3309
  791MPD2     N11719   4.002   0.338  12.552 -0.1987 -0.4547 -0.5399
  791MPD2    H511720   4.045   0.330  12.460  2.4803  1.3670  0.5470
  791MPD2    N111721   4.461   0.303  12.700 -0.5560  0.4928  0.6216
  791MPD2    H711722   4.528   0.283  12.774 -0.9636  1.0410  1.1319
  792MPD2     C11723   4.662   4.441  11.046  0.0622  0.5708 -0.0255
  792MPD2    C111724   4.608   4.571  11.026  0.8486 -0.2005  0.3611
  792MPD2    C211725   4.477   4.588  11.064 -0.1613 -0.3720  0.9869
  792MPD2    C311726   4.411   4.498  11.140 -0.9582  0.1259 -0.5384
  792MPD2    C411727   4.466   4.372  11.155  0.0777  0.0059 -0.3323
  792MPD2    C511728   4.581   4.341  11.103  0.0116  0.4403 -0.4296
  792MPD2     H11729   4.432   4.684  11.044  2.6294  0.5306 -0.9333
  792MPD2    H111730   4.409   4.299  11.212 -0.3227 -0.8011 -1.7548
  792MPD2    H211731   0.023   4.413  11.003  0.5788  0.3812  1.2630
  792MPD2    H311732   4.621   4.241  11.092 -0.6193  0.2858 -1.3252
  792MPD2     N11733   4.284   4.520  11.207  0.0735  0.6224  0.3724
  792MPD2    H511734   4.250   4.444  11.264 -0.5521  0.8521  0.3124
  792MPD2    N111735   4.684   4.667  10.962  0.7060 -0.0149  0.4252
  792MPD2    H711736   0.045   4.636  10.949  0.5049  0.3410 -1.8185
  793MPD2     C11737   3.750   0.139  10.553 -0.1284 -0.4711 -0.2603
  793MPD2    C111738   3.880   0.089  10.576  0.4897 -0.5224  0.1964
  793MPD2    C211739   3.912   0.026  10.696 -0.1419 -1.4166  0.1755
  793MPD2    C311740   3.822   0.009  10.800  0.1074  0.8596  0.1362
  793MPD2    C411741   3.696   0.043  10.767 -0.0313  0.0945 -0.3239
  793MPD2    C511742   3.658   0.100  10.648  0.6858  0.5564  0.1396
  793MPD2     H11743   4.015   0.024  10.730  0.6939  2.8496 -2.1460
  793MPD2    H111744   3.613   0.022  10.833 -1.3374  1.2948 -1.5799
  793MPD2    H211745   3.720   0.190  10.462 -0.0739  0.0793  0.0313
  793MPD2    H311746   3.557   0.134  10.631 -0.1555 -1.2797  1.4833
  793MPD2     N11747   3.863   4.699  10.928  0.0807  0.4248  0.1549
  793MPD2    H511748   3.964   4.690  10.937 -0.0437 -1.4094 -0.3819
  793MPD2    N111749   3.976   0.088  10.476 -0.2633 -0.5068  0.7275
  793MPD2    H711750   4.067   0.056  10.510  0.3845  0.1199 -0.4296
  794MPD2     C11751   4.144   4.309  17.557 -0.3769 -0.9426 -0.3414
  794MPD2    C111752   4.113   4.191  17.494  0.5931  0.0338 -0.0159
  794MPD2    C211753   4.083   4.200  17.360 -0.7059 -0.5126  0.1172
  794MPD2    C311754   4.091   4.316  17.289  0.1370 -0.2858  0.5621
  794MPD2    C411755   4.144   4.430  17.347  0.4972 -0.5276 -0.6113
  794MPD2    C511756   4.167   4.429  17.485 -0.4784  0.2079  0.5749
  794MPD2     H11757   4.041   4.113  17.310 -0.8750  0.4525 -1.4251
  794MPD2    H111758   4.149   4.529  17.303  1.7322 -0.2241  0.2190
  794MPD2    H211759   4.156   4.315  17.665  0.9946  1.4968 -0.6236
  794MPD2    H311760   4.198   4.522  17.532  0.3814 -0.1683  0.7566
  794MPD2     N11761   4.030   4.336  17.162  0.3791 -0.6186  0.5886
  794MPD2    H511762   4.027   4.435  17.140  1.6940 -1.2210 -2.2993
  794MPD2    N111763   4.107   4.067  17.566  0.1533  0.3447  0.3751
  794MPD2    H711764   4.095   3.991  17.499  2.2951  1.1341 -0.9169
  795MPD2     C11765   1.898   2.209  13.917 -0.0381  0.5195  0.0667
  795MPD2    C111766   1.873   2.125  13.809  0.5378  0.2755 -0.4007
  795MPD2    C211767   1.950   2.012  13.798  1.0092  0.6051 -0.6309
  795MPD2    C311768   2.057   1.981  13.879  0.3126 -0.6891  0.7866
  795MPD2    C411769   2.093   2.068  13.976 -0.3277 -0.4172 -0.0700
  795MPD2    C511770   2.008   2.178  14.001  0.1599 -0.0236 -0.0849
  795MPD2     H11771   1.931   1.941  13.718  0.1017 -1.6797  1.6481
  795MPD2    H111772   2.167   2.034  14.048 -0.0359  0.4345  0.0235
  795MPD2    H211773   1.846   2.302  13.934  1.3504  1.2832  0.1872
  795MPD2    H311774   2.034   2.247  14.080 -1.8459 -1.5451  1.8922
  795MPD2     N11775   2.128   1.864  13.855  0.6842  0.4510 -0.3300
  795MPD2    H511776   2.075   1.802  13.796 -0.7785  0.7526  0.6502
  795MPD2    N111777   1.765   2.137  13.719  0.3617  0.1449 -0.2556
  795MPD2    H711778   1.752   2.067  13.647 -0.6594 -2.3903  2.4103
  796MPD2     C11779   1.365   3.243  15.828 -1.0847 -0.3191 -0.0843
  796MPD2    C111780   1.442   3.288  15.932  0.1009  0.0936  0.5855
  796MPD2    C211781   1.424   3.426  15.965 -0.0215 -0.2627  0.4623
  796MPD2    C311782   1.335   3.506  15.892  0.4772 -0.5573 -0.1419
  796MPD2    C411783   1.266   3.454  15.781  0.3780 -1.0832 -0.0257
  796MPD2    C511784   1.290   3.322  15.753  0.3446  0.1279  0.5396
  796MPD2     H11785   1.475   3.472  16.048 -0.4075  0.8820  0.0571
  796MPD2    H111786   1.223   3.522  15.709 -0.2193  0.6273  1.9306
  796MPD2    H211787   1.375   3.142  15.788 -0.8479  0.5459 -2.1895
  796MPD2    H311788   1.250   3.284  15.660 -0.5597 -2.3361  1.9514
  796MPD2     N11789   1.314   3.642  15.937  0.2819 -0.1541 -0.2992
  796MPD2    H511790   1.370   3.676  16.015  1.1535 -0.0743 -0.9630
  796MPD2    N111791   1.535   3.205  15.997 -0.0236  0.1825  0.2961
  796MPD2    H711792   1.539   3.115  15.949  1.8555  0.5321 -0.1983
  797MPD2     C11793   2.334   2.600  17.426 -0.2347 -0.4001 -0.1279
  797MPD2    C111794   2.394   2.717  17.459 -0.1542 -0.6710 -0.4039
  797MPD2    C211795   2.398   2.820  17.365 -0.2197  0.2401 -0.3802
  797MPD2    C311796   2.319   2.814  17.252 -0.2119 -0.5015 -0.2910
  797MPD2    C411797   2.267   2.690  17.221 -0.5446 -0.1445  0.4221
  797MPD2    C511798   2.268   2.590  17.307  0.3228 -0.1439  0.5326
  797MPD2     H11799   2.448   2.912  17.394  2.0741 -1.0066 -0.4047
  797MPD2    H111800   2.214   2.675  17.127 -0.4470 -1.1214  0.5235
  797MPD2    H211801   2.318   2.516  17.492 -0.7519 -0.9013 -0.8882
  797MPD2    H311802   2.221   2.497  17.278  2.2837 -0.5749 -1.2827
  797MPD2     N11803   2.290   2.926  17.171  0.0505 -0.0554  0.4066
  797MPD2    H511804   2.244   2.911  17.082 -0.6942 -0.2914  0.8324
  797MPD2    N111805   2.458   2.749  17.578  0.0899 -0.0546 -0.1431
  797MPD2    H711806   2.483   2.846  17.592 -0.6301 -0.1989  2.1849
  798MPD2     C11807   2.721   3.392  17.424  0.0583 -0.2209 -0.6232
  798MPD2    C111808   2.603   3.326  17.424 -0.2150 -0.0422 -0.1846
  798MPD2    C211809   2.579   3.226  17.522 -0.5811 -0.2700  0.0158
  798MPD2    C311810   2.670   3.198  17.621 -0.5429  0.0366  0.2756
  798MPD2    C411811   2.792   3.262  17.615  0.4191  0.0196  0.4474
  798MPD2    C511812   2.809   3.356  17.523 -0.0696  0.2046  0.3512
  798MPD2     H11813   2.488   3.167  17.517 -0.7723 -0.0811  1.3290
  798MPD2    H111814   2.871   3.242  17.687  0.0900 -1.6838  0.3330
  798MPD2    H211815   2.743   3.481  17.366 -1.1311  0.1746 -0.4584
  798MPD2    H311816   2.900   3.413  17.541 -0.1249  0.5578 -0.4860
  798MPD2     N11817   2.633   3.099  17.711 -0.2565 -0.8695  0.1781
  798MPD2    H511818   2.537   3.066  17.704  0.0771 -1.3903 -2.1472
  798MPD2    N111819   2.503   3.341  17.326  0.0475  0.2369  0.2960
  798MPD2    H711820   2.426   3.275  17.323  0.3110  0.0318 -2.2280
  799MPD2     C11821   1.447   0.065  14.439 -0.1717  0.1674  0.7150
  799MPD2    C111822   1.334   4.718  14.420  0.0632  0.7022  0.1029
  799MPD2    C211823   1.229   0.026  14.346  0.0031 -0.8177  0.0116
  799MPD2    C311824   1.238   0.146  14.275 -0.4036 -0.5337  0.1014
  799MPD2    C411825   1.356   0.219  14.273 -0.1761  0.5363  0.0046
  799MPD2    C511826   1.456   0.178  14.363  0.3811  0.1598  0.4006
  799MPD2     H11827   1.148   4.694  14.320  0.0151 -0.6923 -0.3619
  799MPD2    H111828   1.376   0.311  14.218 -1.5778  1.2376  0.6785
  799MPD2    H211829   1.532   0.045  14.503  0.7103 -0.0878 -0.5293
  799MPD2    H311830   1.541   0.244  14.367  1.3140 -1.0362  0.3985
  799MPD2     N11831   1.135   0.189  14.187 -0.5457 -0.4569 -0.2106
  799MPD2    H511832   1.158   0.271  14.133 -0.0781 -0.3955  0.0881
  799MPD2    N111833   1.317   4.595  14.493 -0.3090  0.6115  0.4977
  799MPD2    H711834   1.228   4.549  14.503 -0.8371  1.6995  0.8265
  800MPD2     C11835   1.724   1.758  13.851  0.3227 -0.3335  0.0645
  800MPD2    C111836   1.804   1.646  13.870  0.5500 -0.1834  0.3762
  800MPD2    C211837   1.809   1.549  13.767  0.8360  0.3986  0.4185
  800MPD2    C311838   1.725   1.577  13.651 -0.0718 -0.0628 -0.0913
  800MPD2    C411839   1.641   1.682  13.646 -0.3268  0.1984 -0.5937
  800MPD2    C511840   1.656   1.785  13.735 -0.4805 -0.3164 -0.3639
  800MPD2     H11841   1.884   1.470  13.766  1.9677  1.4874 -0.1170
  800MPD2    H111842   1.561   1.693  13.573  0.2050  0.9472 -1.0657
  800MPD2    H211843   1.723   1.832  13.930  1.6374 -0.4625  0.2058
  800MPD2    H311844   1.586   1.868  13.739 -1.2032 -0.8828 -1.2079
  800MPD2     N11845   1.725   1.484  13.546  0.5619  0.3141  0.3940
  800MPD2    H511846   1.778   1.403  13.575  1.8277  1.5280  1.4772
  800MPD2    N111847   1.886   1.639  13.990 -0.3274 -0.3256 -0.1599
  800MPD2    H711848   1.886   1.716  14.057  0.4493 -0.7116  0.2797
  801MPD2     C11849   2.134   2.010  14.515 -0.1928 -0.0468  0.4905
  801MPD2    C111850   2.079   1.886  14.499  0.4873 -0.1162 -0.0389
  801MPD2    C211851   2.005   1.825  14.600 -0.1406  0.4461  0.7125
  801MPD2    C311852   1.988   1.886  14.714  0.5712 -0.3999 -0.8019
  801MPD2    C411853   2.052   2.016  14.736  0.2548  0.8828  0.1008
  801MPD2    C511854   2.122   2.073  14.631  0.3137 -0.0324 -0.1296
  801MPD2     H11855   1.970   1.723  14.590  1.4554 -0.0216 -0.0417
  801MPD2    H111856   2.045   2.069  14.830  0.5699 -0.6759  1.0057
  801MPD2    H211857   2.198   2.057  14.442 -0.6173  0.8398  0.6840
  801MPD2    H311858   2.172   2.169  14.638  1.7760 -0.7062 -1.3441
  801MPD2     N11859   1.921   1.810  14.814  0.1241 -0.3670 -0.3978
  801MPD2    H511860   1.873   1.726  14.783 -0.5465 -0.7207  1.5818
  801MPD2    N111861   2.100   1.810  14.382  0.1078 -0.2540  0.0249
  801MPD2    H711862   2.072   1.713  14.379 -2.3776  0.4455  0.9559
  802MPD2     C11863   1.378   2.640   0.719  0.1254 -0.0296 -0.1720
  802MPD2    C111864   1.272   2.582   0.646  1.0488 -0.7828 -0.1168
  802MPD2    C211865   1.299   2.515   0.529 -0.1213 -0.0391 -0.2692
  802MPD2    C311866   1.429   2.496   0.484  0.3216 -0.5693 -0.1071
  802MPD2    C411867   1.531   2.539   0.564  0.1024 -0.2357 -0.1009
  802MPD2    C511868   1.507   2.612   0.680  0.5633  0.5925  0.0434
  802MPD2     H11869   1.218   2.478   0.466  1.9473 -1.6294 -1.9805
  802MPD2    H111870   1.637   2.535   0.539  0.2988  0.5640  0.5922
  802MPD2    H211871   1.370   2.682   0.819  0.3652 -0.0384 -0.1486
  802MPD2    H311872   1.584   2.648   0.746  0.2340  0.9057  0.2562
  802MPD2     N11873   1.471   2.428   0.365 -0.5147  0.7735  0.2065
  802MPD2    H511874   1.567   2.393   0.360 -0.5037  1.0271 -1.5266
  802MPD2    N111875   1.135   2.593   0.695  0.2386  0.0034 -0.5052
  802MPD2    H711876   1.062   2.567   0.630  0.4629 -1.6851 -0.0886
  803MPD2     C11877   2.738   0.945  11.797  0.0670 -0.3238  0.1956
  803MPD2    C111878   2.860   0.886  11.828 -0.1359  0.7149 -0.3810
  803MPD2    C211879   2.860   0.762  11.891 -0.1346 -0.4987  0.5493
  803MPD2    C311880   2.742   0.695  11.932 -0.1085 -0.7122  0.4726
  803MPD2    C411881   2.627   0.763  11.914  0.3703  0.3329  0.2749
  803MPD2    C511882   2.625   0.885  11.847  0.3304 -0.2957 -0.9842
  803MPD2     H11883   2.953   0.714  11.921 -0.5857  0.1077  2.8685
  803MPD2    H111884   2.536   0.725  11.959 -0.8795 -0.0112 -2.5627
  803MPD2    H211885   2.734   1.044  11.754 -0.4832 -0.1842  0.5699
  803MPD2    H311886   2.535   0.947  11.850 -1.1544 -2.5274  0.7155
  803MPD2     N11887   2.737   0.565  11.983  0.2916 -0.3493 -0.4021
  803MPD2    H511888   2.643   0.536  12.008  0.1899 -0.3319 -0.7567
  803MPD2    N111889   2.987   0.946  11.805  0.2741  0.1668  0.5575
  803MPD2    H711890   3.062   0.902  11.858  1.0245  0.5144 -0.2040
  804MPD2     C11891   2.036   1.597  16.973 -0.5916  0.2611 -0.6267
  804MPD2    C111892   2.085   1.539  17.087  1.3143  0.3119 -0.6058
  804MPD2    C211893   2.184   1.602  17.160 -0.0682 -0.1026  0.5357
  804MPD2    C311894   2.242   1.723  17.118  0.0185  0.1192  0.4276
  804MPD2    C411895   2.196   1.779  17.003  0.3263 -0.4350  0.1135
  804MPD2    C511896   2.086   1.724  16.937  0.5752  0.0393 -0.0286
  804MPD2     H11897   2.228   1.572  17.254  2.2046  2.9185  0.4584
  804MPD2    H111898   2.236   1.873  16.968  0.5263 -0.6146 -0.1420
  804MPD2    H211899   1.963   1.541  16.917 -0.6133 -1.3898  1.0592
  804MPD2    H311900   2.061   1.772  16.844  0.1077 -0.4761 -0.1716
  804MPD2     N11901   2.339   1.788  17.200  0.4728  0.0777 -0.2957
  804MPD2    H511902   2.340   1.759  17.298  0.6346  1.9565  0.2543
  804MPD2    N111903   2.040   1.414  17.137 -0.1161 -0.2857 -0.0128
  804MPD2    H711904   2.076   1.390  17.229  2.0570 -0.0671 -0.8029
  805MPD2     C11905   0.892   4.523  15.456 -0.3240 -0.5077 -0.2782
  805MPD2    C111906   0.950   4.649  15.438  0.2310 -0.1617  0.8458
  805MPD2    C211907   1.056   4.674  15.526  0.6698  0.3576  0.5591
  805MPD2    C311908   1.091   4.592  15.629  0.7185 -0.2334  0.1306
  805MPD2    C411909   1.017   4.482  15.659 -0.0401  0.4862  0.6904
  805MPD2    C511910   0.918   4.448  15.574 -0.6758 -0.4859 -0.1434
  805MPD2     H11911   1.124   0.018  15.500 -1.4664  2.7457  2.1989
  805MPD2    H111912   1.038   4.423  15.747 -0.1695  1.8802  1.6704
  805MPD2    H211913   0.814   4.483  15.393  0.2394 -0.6313 -0.9063
  805MPD2    H311914   0.873   4.352  15.595  0.2248 -0.6832  0.8923
  805MPD2     N11915   1.215   4.627  15.685  0.0717 -0.4299  0.4328
  805MPD2    H511916   1.261   4.712  15.654 -0.8643 -0.7919 -1.9808
  805MPD2    N111917   0.918   0.015  15.344  0.3246 -0.0966  0.5990
  805MPD2    H711918   0.991   0.084  15.330  1.2411 -1.0420  0.7235
  806MPD2     C11919   1.472   3.844   0.169  1.0188 -0.2756 -0.2167
  806MPD2    C111920   1.485   3.972   0.216 -0.0554  0.7768  0.0992
  806MPD2    C211921   1.511   4.070   0.119  0.0085  0.4431  0.4584
  806MPD2    C311922   1.536   4.039  17.727  0.3861  0.4205  0.5288
  806MPD2    C411923   1.521   3.909  17.680 -0.5276 -0.9105  0.5534
  806MPD2    C511924   1.487   3.815   0.033 -0.4743 -0.0547 -0.0106
  806MPD2     H11925   1.499   4.172   0.151  1.3200  0.3364  1.2619
  806MPD2    H111926   1.534   3.881  17.576 -0.0815 -0.0818  0.3862
  806MPD2    H211927   1.465   3.764   0.242  0.5897  0.3504  0.4385
  806MPD2    H311928   1.458   3.715   0.001  0.8017 -0.1982 -0.6986
  806MPD2     N11929   1.574   4.148  17.647 -0.0349  0.0700  0.1419
  806MPD2    H511930   1.589   4.237  17.694 -0.5259  0.3854 -0.2943
  806MPD2    N111931   1.466   4.002   0.355 -0.0653  0.4727  0.1032
  806MPD2    H711932   1.454   3.918   0.410  0.2473  0.6406  0.4333
  807MPD2     C11933   1.188   3.747   1.000  0.8353 -0.1914 -0.1299
  807MPD2    C111934   1.256   3.857   1.039 -0.8604  0.6634  0.3651
  807MPD2    C211935   1.273   3.890   1.167 -0.6092 -0.0946 -0.8846
  807MPD2    C311936   1.207   3.826   1.269 -0.1077  0.1593  0.3523
  807MPD2    C411937   1.125   3.722   1.239 -0.3457 -1.0646 -0.5385
  807MPD2    C511938   1.117   3.686   1.105  0.0638  0.0173 -0.2288
  807MPD2     H11939   1.329   3.978   1.197  2.0208 -2.8921  2.4564
  807MPD2    H111940   1.060   3.677   1.313  0.2378  0.0266  0.6397
  807MPD2    H211941   1.185   3.710   0.898 -1.0055  0.6394 -0.3804
  807MPD2    H311942   1.045   3.609   1.078 -3.2494  2.6491  1.0003
  807MPD2     N11943   1.230   3.884   1.394 -0.1021  0.0954  0.0857
  807MPD2    H511944   1.299   3.957   1.407 -0.2980  0.5121 -1.1619
  807MPD2    N111945   1.329   3.936   0.947 -0.1509  1.1074 -0.1531
  807MPD2    H711946   1.353   4.027   0.985 -1.0756  1.5832 -0.7115
  808MPD2     C11947   2.222   1.258  10.038 -0.2875 -0.3002 -0.4652
  808MPD2    C111948   2.345   1.252   9.969  0.6141 -0.4648  0.3858
  808MPD2    C211949   2.418   1.367   9.953  0.2729 -0.7186  0.0771
  808MPD2    C311950   2.376   1.488  10.005 -0.0988  0.4272 -0.4351
  808MPD2    C411951   2.259   1.493  10.081 -0.4887  0.1846 -0.2017
  808MPD2    C511952   2.190   1.373  10.093 -0.1910 -0.2538  0.1537
  808MPD2     H11953   2.502   1.367   9.884 -0.1550  1.3749 -0.4469
  808MPD2    H111954   2.229   1.580  10.139 -0.0588 -0.0915  0.4392
  808MPD2    H211955   2.157   1.172  10.051 -1.7544  0.9330  0.3878
  808MPD2    H311956   2.094   1.380  10.144 -0.4018  0.3987 -0.3445
  808MPD2     N11957   2.440   1.615   9.986  0.1184 -0.5433 -0.4574
  808MPD2    H511958   2.384   1.693  10.019 -0.8978 -0.5184 -2.2784
  808MPD2    N111959   2.392   1.131   9.911  0.6329  0.1688 -0.4089
  808MPD2    H711960   2.475   1.149   9.855  0.8802 -0.5310 -0.2623
  809MPD2     C11961   3.322   2.196   9.616  0.9440 -0.1746  0.4505
  809MPD2    C111962   3.299   2.060   9.608 -0.1296  0.2491 -0.3157
  809MPD2    C211963   3.178   2.008   9.653  0.4378 -0.2540  0.1160
  809MPD2    C311964   3.086   2.092   9.719  0.0853  0.1291 -0.4180
  809MPD2    C411965   3.114   2.226   9.720 -0.2529 -0.7101 -0.0888
  809MPD2    C511966   3.227   2.275   9.675  0.5294  0.2653  0.2406
  809MPD2     H11967   3.156   1.903   9.643  2.1914 -0.9072  2.9712
  809MPD2    H111968   3.036   2.293   9.754 -1.0587 -1.2166 -0.9623
  809MPD2    H211969   3.417   2.235   9.582 -1.0312  3.0278 -1.4136
  809MPD2    H311970   3.244   2.382   9.665  2.2478  0.1797  2.1469
  809MPD2     N11971   2.973   2.048   9.795  0.1200 -0.6117  0.2347
  809MPD2    H511972   2.914   2.124   9.827  0.4020 -0.5331  0.5682
  809MPD2    N111973   3.385   1.964   9.540  0.0410 -0.6619  0.1555
  809MPD2    H711974   3.361   1.865   9.539  1.1347 -0.9200 -1.2604
  810MPD2     C11975   1.724   0.556  11.037 -0.1926  0.1055  0.1823
  810MPD2    C111976   1.705   0.586  10.904 -0.3596  0.1915 -0.5419
  810MPD2    C211977   1.633   0.689  10.867 -0.4172  0.4079 -0.3242
  810MPD2    C311978   1.580   0.779  10.961  0.2327  1.1493 -0.6981
  810MPD2    C411979   1.587   0.752  11.093  0.2754  0.5941  0.9185
  810MPD2    C511980   1.658   0.638  11.129  0.5588  0.2306  0.1083
  810MPD2     H11981   1.606   0.702  10.763 -0.5376 -0.0841 -0.3553
  810MPD2    H111982   1.533   0.810  11.166  1.9553  2.0786  0.9981
  810MPD2    H211983   1.779   0.474  11.083  1.1054 -0.3404 -2.1701
  810MPD2    H311984   1.661   0.619  11.235  0.9372  1.5891  0.3409
  810MPD2     N11985   1.502   0.890  10.928 -0.6134 -0.3118 -0.5047
  810MPD2    H511986   1.455   0.931  11.008 -0.5192  0.2936 -0.7648
  810MPD2    N111987   1.753   0.496  10.806 -0.2261  0.3636  0.2528
  810MPD2    H711988   1.779   0.403  10.837 -1.0686  0.5430  1.4744
  811MPD2     C11989   1.402   0.405  10.002 -1.4507 -0.4611  0.0593
  811MPD2    C111990   1.476   0.486  10.090 -0.2140  0.3109  0.2844
  811MPD2    C211991   1.463   0.629  10.077  0.4223  0.3386  0.4589
  811MPD2    C311992   1.376   0.683   9.981 -0.1025  0.3255  0.2288
  811MPD2    C411993   1.313   0.602   9.891  1.1711  0.1439  0.1058
  811MPD2    C511994   1.333   0.460   9.899  0.5025  0.0745 -0.7236
  811MPD2     H11995   1.501   0.701  10.150 -1.6219  2.4626 -0.5679
  811MPD2    H111996   1.247   0.637   9.812 -1.3164  0.1145  2.1772
  811MPD2    H211997   1.403   0.297   9.997 -3.2346 -0.4933  0.1608
  811MPD2    H311998   1.280   0.390   9.836  0.8498 -2.0612  1.3863
  811MPD2     N11999   1.358   0.825   9.986 -0.2601  0.5703  0.2890
  811MPD2    H512000   1.411   0.872  10.058 -2.1516 -1.4605  3.0200
  811MPD2    N112001   1.560   0.420  10.184 -0.4218 -0.1303 -0.6376
  811MPD2    H712002   1.569   0.319  10.182  0.0983 -0.0785 -0.9144
  812MPD2     C12003   0.258   4.654  12.285  0.3155 -0.5055  0.3330
  812MPD2    C112004   0.319   0.024  12.230 -0.0150  0.1727  1.0711
  812MPD2    C212005   0.441   0.075  12.283 -0.0304 -0.0869 -0.1048
  812MPD2    C312006   0.492   0.020  12.399 -0.6425 -0.2519  0.2251
  812MPD2    C412007   0.422   4.656  12.460 -0.1756  0.1662  0.3510
  812MPD2    C512008   0.307   4.610  12.404 -0.1049  0.1055 -0.3127
  812MPD2     H12009   0.487   0.160  12.234 -0.5242  0.9190  1.1786
  812MPD2    H112010   0.453   4.617  12.556 -2.9899  0.4792  1.3877
  812MPD2    H212011   0.174   4.607  12.234  0.7767 -0.7790 -0.1792
  812MPD2    H312012   0.258   4.526  12.453  1.1688 -0.3827  0.1261
  812MPD2     N12013   0.609   0.082  12.451  0.0737 -0.7646 -0.0438
  812MPD2    H512014   0.667   0.149  12.400  0.2530 -0.7466  0.1833
  812MPD2    N112015   0.259   0.081  12.113 -0.1591  0.5238  0.4797
  812MPD2    H712016   0.170   0.037  12.091  0.0699 -1.0725  2.7398
  813MPD2     C12017   0.094   2.152  12.895 -0.5344  0.3896  0.5105
  813MPD2    C112018   0.097   2.273  12.964  0.9480  0.3562 -0.2804
  813MPD2    C212019   0.046   2.289  13.088 -0.6957  0.8753  0.0150
  813MPD2    C312020   4.704   2.187  13.143 -0.3715  0.5672 -0.3320
  813MPD2    C412021   4.690   2.063  13.078 -0.7556 -0.2874  0.2766
  813MPD2    C512022   0.014   2.059  12.953  0.7769 -0.3573  0.4879
  813MPD2     H12023   0.072   2.383  13.135 -0.9094  1.0106 -0.1370
  813MPD2    H112024   4.627   1.987  13.121 -0.2547 -0.6205  0.4162
  813MPD2    H212025   0.141   2.132  12.799 -0.5532  2.0161  0.1693
  813MPD2    H312026   4.735   1.970  12.893  1.8888 -1.2741  1.5859
  813MPD2     N12027   4.639   2.226  13.264  0.2815  0.1950 -0.3259
  813MPD2    H512028   4.648   2.323  13.295  0.3828  0.2956 -0.6677
  813MPD2    N112029   0.169   2.376  12.912 -0.0908 -0.2752  1.0220
  813MPD2    H712030   0.206   2.448  12.973 -0.9671 -0.5717  1.9003
  814MPD2     C12031   4.548   3.543  12.416 -0.1380 -0.7220 -0.6852
  814MPD2    C112032   4.586   3.584  12.296 -0.1586 -0.7030  0.0898
  814MPD2    C212033   4.681   3.683  12.290  0.4486  0.2405 -0.2262
  814MPD2    C312034   4.730   3.745  12.400  0.2724 -0.4343 -0.4642
  814MPD2    C412035   4.679   3.705  12.519 -0.3673 -0.3481 -0.4387
  814MPD2    C512036   4.584   3.610  12.530  0.1289 -0.0526  0.6360
  814MPD2     H12037   4.723   3.714  12.195 -0.3785 -1.6889 -1.2288
  814MPD2    H112038   4.704   3.755  12.611  0.4484  2.1676 -2.0179
  814MPD2    H212039   4.485   3.460  12.446  0.3267 -1.2437 -1.1519
  814MPD2    H312040   4.546   3.596  12.631 -0.2798  0.1188  0.5039
  814MPD2     N12041   0.090   3.855  12.395 -0.0436  0.2641 -0.1325
  814MPD2    H512042   0.099   3.904  12.483  0.4592 -0.0772  0.0068
  814MPD2    N112043   4.534   3.529  12.173  0.2083  0.7702  0.3723
  814MPD2    H712044   4.567   3.577  12.089  0.1297  3.0485  1.6264
  815MPD2     C12045   0.346   0.672  11.733 -0.0101 -0.2794 -0.0150
  815MPD2    C112046   0.271   0.767  11.663 -0.4399 -0.2097  0.1265
  815MPD2    C212047   0.131   0.780  11.694  0.4820  0.3998 -0.1227
  815MPD2    C312048   0.070   0.692  11.779 -0.2814  0.2766 -0.4529
  815MPD2    C412049   0.148   0.597  11.845  0.1775  0.9660 -0.5741
  815MPD2    C512050   0.285   0.586  11.826 -0.7979  0.5427 -0.0517
  815MPD2     H12051   0.077   0.863  11.650  0.7051  0.5991 -0.0181
  815MPD2    H112052   0.117   0.523  11.918 -2.4598  2.6862  0.0830
  815MPD2    H212053   0.451   0.653  11.714  0.3855  0.9405  0.9942
  815MPD2    H312054   0.354   0.518  11.874 -0.6859  0.6044 -0.1282
  815MPD2     N12055   4.667   0.715  11.794  0.4666 -0.7068 -0.7548
  815MPD2    H512056   4.621   0.783  11.734 -0.5330 -0.1575  0.6267
  815MPD2    N112057   0.342   0.852  11.572  0.0363  0.2304 -0.4334
  815MPD2    H712058   0.443   0.844  11.575 -0.0054  0.3131  1.2302
  816MPD2     C12059   0.021   1.184  17.428  0.3325 -0.3849  0.8579
  816MPD2    C112060   0.115   1.280  17.455  0.1955 -0.0055 -0.1390
  816MPD2    C212061   0.245   1.242  17.420 -0.8037  0.0490 -0.1095
  816MPD2    C312062   0.277   1.121  17.369  0.4548 -0.0830  0.2115
  816MPD2    C412063   0.183   1.030  17.347 -0.3946  0.7231 -0.0857
  816MPD2    C512064   0.055   1.064  17.373  0.2854 -0.1956 -0.1790
  816MPD2     H12065   0.327   1.312  17.428  0.2275 -0.9346 -2.3485
  816MPD2    H112066   0.209   0.938  17.295 -0.4445  0.0070  1.1417
  816MPD2    H212067   4.650   1.202  17.442 -0.0894 -1.2136 -1.2793
  816MPD2    H312068   4.710   1.000  17.339  0.2952 -0.0468 -0.4861
  816MPD2     N12069   0.411   1.109  17.325 -0.3983 -0.0699  0.0282
  816MPD2    H512070   0.477   1.184  17.340 -0.0710 -0.8646  2.5931
  816MPD2    N112071   0.077   1.405  17.509  0.8149  0.2857  0.2818
  816MPD2    H712072   4.713   1.422  17.521  0.4585 -1.8013  0.3766
  817MPD2     C12073   4.585   2.859  10.006 -0.0164  0.7263  0.3594
  817MPD2    C112074   4.682   2.878   9.909  0.1859 -0.7064 -0.2409
  817MPD2    C212075   4.701   3.006   9.857  0.5658  0.3548  0.4606
  817MPD2    C312076   4.624   3.111   9.906 -0.3627 -0.0187  0.3421
  817MPD2    C412077   4.515   3.092   9.991  0.3122  0.6660 -0.6051
  817MPD2    C512078   4.501   2.962  10.045 -0.8144 -0.0502  0.5129
  817MPD2     H12079   0.037   3.036   9.781  0.2679 -1.2118 -0.4220
  817MPD2    H112080   4.449   3.175  10.016 -0.4641 -0.2000  0.2361
  817MPD2    H212081   4.575   2.766  10.061 -0.3972 -0.0927 -1.1155
  817MPD2    H312082   4.420   2.943  10.114 -0.3961  1.3236  1.3787
  817MPD2     N12083   4.657   3.236   9.856 -0.4894  0.1484 -0.4359
  817MPD2    H512084   0.012   3.245   9.809  1.0159  2.1574  2.8156
  817MPD2    N112085   0.036   2.782   9.864  0.4770  0.4883  0.4535
  817MPD2    H712086   0.095   2.813   9.787 -0.3978  0.9017 -0.0530
  818MPD2     C12087   3.877   2.548   9.979  0.2358 -0.1702  0.5576
  818MPD2    C112088   3.768   2.495  10.045  0.1770  0.0393 -0.3813
  818MPD2    C212089   3.774   2.364  10.096 -0.2849  0.3393 -0.2270
  818MPD2    C312090   3.885   2.283  10.071  0.0867  0.2222 -0.8269
  818MPD2    C412091   3.987   2.333  10.001  0.3459  0.7415 -0.1423
  818MPD2    C512092   3.988   2.462   9.960  0.4757  0.0311 -0.6014
  818MPD2     H12093   3.690   2.328  10.155 -0.9267  0.0790 -1.3026
  818MPD2    H112094   4.074   2.271   9.981 -0.6490 -0.1544 -1.7148
  818MPD2    H212095   3.885   2.641   9.925  0.4820 -0.5358 -0.0449
  818MPD2    H312096   4.079   2.491   9.908  1.0508  2.3640  1.7346
  818MPD2     N12097   3.900   2.148  10.113 -0.6292 -0.9375  0.3296
  818MPD2    H512098   3.988   2.103  10.093 -0.3795 -0.8044  1.1448
  818MPD2    N112099   3.655   2.572  10.093 -0.2350 -0.1531 -0.1645
  818MPD2    H712100   3.590   2.527  10.157 -2.7384  1.0610 -1.8384
  819MPD2     C12101   1.878   4.555  15.707  0.2117  0.0667  1.1454
  819MPD2    C112102   1.829   4.427  15.717 -0.7250  0.1459  0.8022
  819MPD2    C212103   1.889   4.333  15.796  0.7461 -0.1309  0.2156
  819MPD2    C312104   2.018   4.362  15.857  1.0332  0.1050  0.4960
  819MPD2    C412105   2.071   4.485  15.832  0.4168  0.3426  0.0631
  819MPD2    C512106   2.002   4.575  15.759  0.3827 -0.6082  0.5155
  819MPD2     H12107   1.849   4.233  15.803 -1.5963  0.7355 -1.0058
  819MPD2    H112108   2.168   4.513  15.871  0.0944 -0.6380  1.5986
  819MPD2    H212109   1.832   4.635  15.650 -2.4381 -2.2868 -0.0360
  819MPD2    H312110   2.042   4.675  15.743  1.1025 -0.9273  0.3387
  819MPD2     N12111   2.069   4.267  15.949  0.4989 -0.2313 -0.4359
  819MPD2    H512112   2.008   4.190  15.974  0.3720  0.1212  0.3226
  819MPD2    N112113   1.704   4.395  15.646  0.1259 -0.2544 -0.1909
  819MPD2    H712114   1.684   4.460  15.570 -3.6262  1.1359  1.9534
  820MPD2     C12115   1.414   4.704  14.872  0.3585  0.5638 -0.2148
  820MPD2    C112116   1.325   0.000  14.976  1.1584 -0.0519 -0.1786
  820MPD2    C212117   1.334   4.659  15.093  0.3332 -0.3761  0.0364
  820MPD2    C312118   1.423   4.548  15.109  0.3992 -0.1946  0.3807
  820MPD2    C412119   1.509   4.520  15.007 -0.7764 -0.5313 -0.0191
  820MPD2    C512120   1.502   4.599  14.893 -0.2916 -0.8545  0.5628
  820MPD2     H12121   1.264   4.670  15.175  0.1119 -1.9797  0.0801
  820MPD2    H112122   1.576   4.435  15.015  0.3992  0.5447  1.6059
  820MPD2    H212123   1.409   0.016  14.774 -0.2954 -0.4217 -0.6645
  820MPD2    H312124   1.573   4.572  14.816 -0.4372 -0.8154  0.4168
  820MPD2     N12125   1.422   4.461  15.218 -0.2673  0.5508 -0.3418
  820MPD2    H512126   1.496   4.392  15.219  0.0532  0.8875 -0.5784
  820MPD2    N112127   1.239   0.114  14.958 -0.1312  0.2326  0.3445
  820MPD2    H712128   1.220   0.150  14.864 -2.7869 -0.8181  0.4891
  821MPD2     C12129   2.151   1.388  12.884 -0.1656  0.5025  0.0190
  821MPD2    C112130   2.188   1.351  13.014 -0.2464  0.3001 -0.3078
  821MPD2    C212131   2.324   1.339  13.047 -0.0009  0.5439 -0.3036
  821MPD2    C312132   2.421   1.374  12.951  0.2251 -0.4785  0.2015
  821MPD2    C412133   2.385   1.416  12.826 -0.0585  0.2307 -0.2079
  821MPD2    C512134   2.252   1.418  12.796  0.1148 -0.3709  0.2589
  821MPD2     H12135   2.351   1.317  13.150  0.3404 -1.3460 -0.8090
  821MPD2    H112136   2.457   1.457  12.756 -0.6395  1.1198 -0.2807
  821MPD2    H212137   2.047   1.384  12.856 -0.0391 -0.4005 -0.3195
  821MPD2    H312138   2.210   1.444  12.699  0.0558 -0.3532  0.2887
  821MPD2     N12139   2.564   1.366  12.976  1.0269  1.0819  0.6493
  821MPD2    H512140   2.623   1.406  12.904 -0.2605 -0.1012 -1.0571
  821MPD2    N112141   2.093   1.312  13.110  0.2013 -0.1383 -0.2511
  821MPD2    H712142   2.129   1.278  13.199  2.0331 -1.7511 -1.6136
  822MPD2     C12143   2.836   1.058  15.660 -0.4897 -0.5287 -0.4313
  822MPD2    C112144   2.801   1.005  15.784  0.5288 -0.0515  0.1113
  822MPD2    C212145   2.714   1.071  15.874  0.0187  0.6828  0.0092
  822MPD2    C312146   2.639   1.183  15.831  0.7179 -0.3410  0.1513
  822MPD2    C412147   2.652   1.218  15.698  0.1502  0.7778  0.5636
  822MPD2    C512148   2.755   1.162  15.619  0.2660 -0.1969 -0.1166
  822MPD2     H12149   2.715   1.032  15.975  1.8650  0.1258 -0.2295
  822MPD2    H112150   2.608   1.308  15.657  0.1162 -0.4581 -2.1075
  822MPD2    H212151   2.915   1.027  15.593  0.5562 -2.6263  1.7869
  822MPD2    H312152   2.768   1.189  15.514 -0.8053 -1.6794 -0.6374
  822MPD2     N12153   2.555   1.254  15.924  0.6224 -0.3707  0.0854
  822MPD2    H512154   2.535   1.209  16.014  2.5841 -0.7844  0.3135
  822MPD2    N112155   2.879   0.899  15.843  0.6324  0.4283 -0.4060
  822MPD2    H712156   2.868   0.899  15.944  1.8079  2.0752 -0.2836
  823MPD2     C12157   2.281   1.524  16.655 -0.0443  0.0050  0.4583
  823MPD2    C112158   2.285   1.422  16.565 -0.6986  0.1788 -0.1826
  823MPD2    C212159   2.278   1.288  16.607 -0.4779 -0.9464 -0.0076
  823MPD2    C312160   2.302   1.262  16.738 -0.2020 -0.4742 -0.2868
  823MPD2    C412161   2.301   1.354  16.835  0.6186  0.3152  0.0703
  823MPD2    C512162   2.290   1.485  16.788 -1.0289  0.2562 -0.0695
  823MPD2     H12163   2.277   1.213  16.530 -1.5774 -2.4196  1.4366
  823MPD2    H112164   2.304   1.333  16.941 -0.0215 -1.1044 -0.1891
  823MPD2    H212165   2.274   1.630  16.633 -2.0717  0.0162  1.1476
  823MPD2    H312166   2.280   1.568  16.857 -0.9675 -2.0167  2.6831
  823MPD2     N12167   2.332   1.132  16.786  0.0765  0.2163 -0.7766
  823MPD2    H512168   2.338   1.126  16.888  3.5822 -0.7091 -1.0458
  823MPD2    N112169   2.287   1.465  16.432  0.1732 -0.1012 -0.2961
  823MPD2    H712170   2.297   1.565  16.417  0.3662  0.1274  1.3523
  824MPD2     C12171   3.210   0.094  16.022  0.3637  0.8213 -0.0069
  824MPD2    C112172   3.210   0.169  15.910  0.2457 -0.4137 -0.1249
  824MPD2    C212173   3.218   0.116  15.779 -0.0478  0.1139  0.7533
  824MPD2    C312174   3.251   4.710  15.771  0.2693 -0.2407  0.1733
  824MPD2    C412175   3.259   4.634  15.888 -0.4272 -0.5339  0.1013
  824MPD2    C512176   3.238   4.690  16.013 -0.0475  0.0534 -0.2328
  824MPD2     H12177   3.217   0.177  15.689  0.7421 -1.8430 -0.5889
  824MPD2    H112178   3.262   4.526  15.881  0.7058 -0.4814 -0.1706
  824MPD2    H212179   3.199   0.138  16.120 -1.0407  0.3263  0.0527
  824MPD2    H312180   3.231   4.622  16.097  0.0824  1.0307  0.5642
  824MPD2     N12181   3.259   4.656  15.639 -0.4458 -0.2723 -0.4918
  824MPD2    H512182   3.233   4.711  15.558 -0.4148 -0.2562 -0.4910
  824MPD2    N112183   3.193   0.304  15.934  0.2210  0.6904  0.1005
  824MPD2    H712184   3.191   0.329  16.032  0.5330 -2.6503  0.9650
  825MPD2     C12185   3.584   4.618  14.839  0.0359  0.5281 -0.8504
  825MPD2    C112186   3.548   4.690  14.952  0.6423 -0.0876 -0.3227
  825MPD2    C212187   3.614   0.075  14.978 -0.5566 -0.3748 -0.5324
  825MPD2    C312188   3.694   0.130  14.882  0.5563  0.3108 -0.2564
  825MPD2    C412189   3.732   0.062  14.773  0.0857  0.2912 -0.3058
  825MPD2    C512190   3.680   4.673  14.750 -0.1290 -0.4060 -0.2237
  825MPD2     H12191   3.594   0.130  15.069 -0.0950  1.6970 -1.6879
  825MPD2    H112192   3.804   0.103  14.702 -0.1735 -1.6149 -1.6607
  825MPD2    H212193   3.532   4.525  14.817 -0.7058  0.3961  1.5005
  825MPD2    H312194   3.704   4.623  14.658  0.0378  0.1584 -0.4881
  825MPD2     N12195   3.756   0.260  14.893  0.2965  0.5453  0.2634
  825MPD2    H512196   3.823   0.281  14.819 -1.4536  3.2715 -0.5306
  825MPD2    N112197   3.466   4.629  15.049  0.2309  0.3372  0.5379
  825MPD2    H712198   3.417   4.543  15.026 -1.4020  1.4531 -0.1452
  826MPD2     C12199   3.540   0.344  13.474  0.2816 -0.1118 -0.0182
  826MPD2    C112200   3.584   0.396  13.356 -0.1411  0.1568 -0.2479
  826MPD2    C212201   3.561   0.528  13.320 -0.1101  0.3068 -0.0109
  826MPD2    C312202   3.499   0.612  13.411 -0.2472 -0.4381 -0.3150
  826MPD2    C412203   3.461   0.569  13.535  0.9857  0.0588  0.7281
  826MPD2    C512204   3.476   0.434  13.566 -0.4442 -0.4036 -0.8200
  826MPD2     H12205   3.594   0.555  13.221 -0.7793 -0.3726 -0.4127
  826MPD2    H112206   3.408   0.635  13.603  1.5743 -1.3721  2.5979
  826MPD2    H212207   3.567   0.240  13.490 -1.5822 -0.3256  1.7195
  826MPD2    H312208   3.449   0.403  13.667 -0.0037  0.6448 -0.3836
  826MPD2     N12209   3.455   0.742  13.377  0.1587 -0.9064  0.1146
  826MPD2    H512210   3.374   0.777  13.426  0.2544 -2.1620  1.1613
  826MPD2    N112211   3.626   0.292  13.268  0.2323  0.6461  0.0973
  826MPD2    H712212   3.650   0.201  13.308 -0.2746  2.2311  4.0037
  827MPD2     C12213   4.448   1.788   9.882  0.2000  0.7940  0.2097
  827MPD2    C112214   4.382   1.665   9.888 -0.0014  0.3360  0.3510
  827MPD2    C212215   4.281   1.639   9.796  0.2700  0.4797  0.2684
  827MPD2    C312216   4.252   1.733   9.693 -0.0059  0.0005 -0.5561
  827MPD2    C412217   4.314   1.857   9.704 -0.1084 -0.2485  0.5938
  827MPD2    C512218   4.410   1.880   9.795  0.0698  0.2700 -0.3408
  827MPD2     H12219   4.255   1.534   9.783  2.0605 -0.0553  1.0178
  827MPD2    H112220   4.281   1.939   9.641 -0.1652 -1.5615 -1.0878
  827MPD2    H212221   4.534   1.814   9.942 -0.5465 -0.3190  1.7475
  827MPD2    H312222   4.472   1.968   9.779  0.0794  0.4719  0.7852
  827MPD2     N12223   4.185   1.695   9.575  0.7451 -0.0319 -0.8469
  827MPD2    H512224   4.172   1.595   9.563  0.2069 -0.0203 -0.3619
  827MPD2    N112225   4.435   1.573   9.981 -0.1314  0.6268 -0.0432
  827MPD2    H712226   4.512   1.609  10.036 -0.0545 -0.5178  0.5973
  828MPD2     C12227   3.044   1.367  12.699 -0.0226 -0.6817  0.2209
  828MPD2    C112228   3.037   1.420  12.573  0.2877 -0.3731 -0.2135
  828MPD2    C212229   3.131   1.400  12.472  0.2121 -0.3261 -0.1625
  828MPD2    C312230   3.253   1.342  12.505  0.3754  0.0475  0.3960
  828MPD2    C412231   3.267   1.289  12.629 -0.1449 -0.4105 -0.0520
  828MPD2    C512232   3.163   1.294  12.719  0.0605  0.5462  0.7185
  828MPD2     H12233   3.106   1.440  12.375  0.2264  1.0890  0.4206
  828MPD2    H112234   3.362   1.250  12.663  0.4204  0.8935 -0.1428
  828MPD2    H212235   2.972   1.396  12.774  0.4591  1.7804 -0.2364
  828MPD2    H312236   3.182   1.262  12.821 -0.3556  1.6573  1.1387
  828MPD2     N12237   3.358   1.327  12.416 -0.3549 -0.5671 -0.5028
  828MPD2    H512238   3.440   1.277  12.449  0.7368  1.2278 -0.5000
  828MPD2    N112239   2.929   1.503  12.534  0.2004 -0.2099  0.0684
  828MPD2    H712240   2.961   1.557  12.455  0.5578 -0.7900 -0.1854
  829MPD2     C12241   2.840   1.897  11.770  0.1130 -0.1361  0.0575
  829MPD2    C112242   2.722   1.947  11.832  0.2844  0.0953 -0.4947
  829MPD2    C212243   2.700   1.926  11.969 -0.2388  0.8941  0.2644
  829MPD2    C312244   2.790   1.842  12.039 -0.1255  0.0953 -0.8015
  829MPD2    C412245   2.910   1.800  11.985 -0.1212  0.0304  0.6343
  829MPD2    C512246   2.921   1.820  11.851 -0.0351 -0.3947 -0.0651
  829MPD2     H12247   2.610   1.971  12.009  0.1682  2.1647 -0.2284
  829MPD2    H112248   2.973   1.732  12.041 -0.5812 -0.8165  0.1203
  829MPD2    H212249   2.863   1.901  11.664 -1.1699  0.1590 -0.2094
  829MPD2    H312250   3.011   1.788  11.800  1.0479 -1.8691  2.7741
  829MPD2     N12251   2.768   1.789  12.172 -0.6465 -0.8133 -0.6763
  829MPD2    H512252   2.841   1.732  12.213 -0.4467  0.2610  0.4663
  829MPD2    N112253   2.625   2.014  11.754  0.0964  0.1359  0.7037
  829MPD2    H712254   2.628   1.999  11.654 -0.2967  0.3358  0.6647
  830MPD2     C12255   2.220   3.623  15.873 -0.5733 -1.2149  0.3277
  830MPD2    C112256   2.254   3.754  15.867  0.5269 -0.6642 -0.1691
  830MPD2    C212257   2.307   3.801  15.749  0.5063 -0.2118 -0.0838
  830MPD2    C312258   2.334   3.714  15.645 -0.0582 -0.2513  0.3914
  830MPD2    C412259   2.314   3.579  15.655  0.8479  0.4114 -0.0407
  830MPD2    C512260   2.246   3.535  15.767  0.4725 -0.2437 -0.2847
  830MPD2     H12261   2.321   3.906  15.725 -3.0483  0.5500  1.0897
  830MPD2    H112262   2.355   3.510  15.582  2.8568  0.4147  1.0857
  830MPD2    H212263   2.169   3.581  15.959  0.5626 -0.0388  1.5571
  830MPD2    H312264   2.227   3.429  15.771 -0.5692  0.0157  1.6108
  830MPD2     N12265   2.419   3.753  15.532 -0.1508 -0.2697 -0.8435
  830MPD2    H512266   2.459   3.675  15.480 -1.3676 -1.0479 -0.6177
  830MPD2    N112267   2.225   3.849  15.969  0.3249  1.0322 -0.3467
  830MPD2    H712268   2.254   3.944  15.947  0.3595  0.8330 -1.1651
  831MPD2     C12269   2.723   1.419  16.351  0.2171 -0.9578 -0.0413
  831MPD2    C112270   2.754   1.334  16.242 -0.0344 -0.5896  0.3573
  831MPD2    C212271   2.690   1.216  16.240 -0.1216 -0.0989 -0.4236
  831MPD2    C312272   2.614   1.173  16.343  0.1904 -0.3839 -0.1275
  831MPD2    C412273   2.586   1.251  16.449 -0.3037  0.0418  0.7514
  831MPD2    C512274   2.644   1.373  16.449 -0.2415  1.1624  0.1801
  831MPD2     H12275   2.692   1.159  16.148  0.2505  1.8226 -1.5962
  831MPD2    H112276   2.529   1.224  16.537  1.2390  0.0822  1.7758
  831MPD2    H212277   2.762   1.519  16.357 -0.1650 -0.6895 -1.9052
  831MPD2    H312278   2.619   1.432  16.537  0.6114  1.1886  0.4017
  831MPD2     N12279   2.558   1.047  16.344  0.5843 -0.0538 -0.1562
  831MPD2    H512280   2.484   1.034  16.412 -0.5126  1.0803 -1.1439
  831MPD2    N112281   2.839   1.369  16.133  0.6793  0.9108 -0.2528
  831MPD2    H712282   2.850   1.467  16.107  1.0658  0.5774 -1.3384
  832MPD2     C12283   0.914   2.270  17.483 -0.0003  0.7624  0.6737
  832MPD2    C112284   0.926   2.349  17.376 -0.9432  0.4340  0.3146
  832MPD2    C212285   0.823   2.369  17.288  0.8894  0.1085 -0.4606
  832MPD2    C312286   0.696   2.310  17.309  0.9965 -0.5383 -0.5002
  832MPD2    C412287   0.693   2.214  17.411 -0.3205  0.5604 -0.9461
  832MPD2    C512288   0.800   2.192  17.491  0.3482  0.4095 -0.2113
  832MPD2     H12289   0.825   2.433  17.200 -0.9705  0.3302 -0.3348
  832MPD2    H112290   0.609   2.151  17.436 -0.7210  1.5075  0.0692
  832MPD2    H212291   0.999   2.241  17.544 -0.2896 -1.6810 -0.1080
  832MPD2    H312292   0.801   2.130  17.580  1.6357  1.7097  0.6963
  832MPD2     N12293   0.590   2.322  17.218 -0.3964  0.4805 -0.2899
  832MPD2    H512294   0.517   2.252  17.231 -2.0389  1.8515 -2.1323
  832MPD2    N112295   1.052   2.413  17.364 -0.2292 -0.1123  0.0081
  832MPD2    H712296   1.128   2.388  17.426  1.7316  2.0723 -1.5469
  833MPD2     C12297   3.330   3.558  12.798  0.4129  0.3761 -0.3292
  833MPD2    C112298   3.347   3.655  12.699  0.2971  0.3397  0.8819
  833MPD2    C212299   3.424   3.618  12.591 -0.1765 -0.0817  0.5857
  833MPD2    C312300   3.482   3.493  12.574 -0.3205  0.2319 -0.0721
  833MPD2    C412301   3.487   3.406  12.683  0.1506 -0.1339 -0.4349
  833MPD2    C512302   3.406   3.443  12.793  0.0473  0.7436  0.7936
  833MPD2     H12303   3.433   3.695  12.515  2.2496 -0.9885 -0.0508
  833MPD2    H112304   3.554   3.321  12.676  0.0212 -0.4203  1.9640
  833MPD2    H212305   3.266   3.565  12.885  0.0680 -1.3531 -0.4421
  833MPD2    H312306   3.406   3.375  12.877  1.7474  0.1529  0.3248
  833MPD2     N12307   3.551   3.464  12.457  0.4133  0.0547  0.5407
  833MPD2    H512308   3.614   3.384  12.459 -1.0391 -1.1150 -0.1815
  833MPD2    N112309   3.282   3.786  12.713  0.2593  0.2982 -0.0092
  833MPD2    H712310   3.232   3.803  12.799 -1.8213  1.2633 -1.4027
  834MPD2     C12311   3.457   2.709  11.805  0.0312  0.2579  0.2424
  834MPD2    C112312   3.524   2.805  11.725  0.0089  0.5014  0.5503
  834MPD2    C212313   3.541   2.929  11.779  0.9449  0.5252  0.0670
  834MPD2    C312314   3.481   2.966  11.898 -0.7650 -0.5406  0.0285
  834MPD2    C412315   3.403   2.873  11.962 -0.6578  0.9470  0.1460
  834MPD2    C512316   3.402   2.739  11.926 -0.3271  0.1254  0.9425
  834MPD2     H12317   3.587   3.009  11.723  0.3569 -0.8100 -2.3064
  834MPD2    H112318   3.352   2.905  12.052 -0.1414  1.3921  0.2836
  834MPD2    H212319   3.426   2.613  11.767 -0.0280 -0.5508  2.3723
  834MPD2    H312320   3.337   2.675  11.984 -0.1846 -2.2508 -1.5164
  834MPD2     N12321   3.507   3.097  11.951 -0.0309 -0.0487  0.0546
  834MPD2    H512322   3.561   3.161  11.893 -1.0175  0.5360 -0.2390
  834MPD2    N112323   3.563   2.763  11.597 -0.1398  0.9343 -0.5282
  834MPD2    H712324   3.555   2.664  11.578 -0.8034  0.6143  1.3631
  835MPD2     C12325   3.442   1.520  10.689 -0.1000  0.2412 -0.1719
  835MPD2    C112326   3.340   1.554  10.780 -0.2958 -0.1893 -0.0655
  835MPD2    C212327   3.373   1.547  10.916  0.1118 -0.3369 -0.4002
  835MPD2    C312328   3.488   1.491  10.965  0.5109  0.2020 -0.1901
  835MPD2    C412329   3.583   1.443  10.877  0.1257 -0.1417  0.3220
  835MPD2    C512330   3.555   1.465  10.744 -0.5038  0.1817  0.9659
  835MPD2     H12331   3.300   1.587  10.985 -0.6561 -0.9928 -0.8378
  835MPD2    H112332   3.677   1.394  10.899  0.6143  0.4642 -0.4048
  835MPD2    H212333   3.426   1.516  10.582 -2.6602  0.8547  0.2034
  835MPD2    H312334   3.632   1.434  10.675 -0.6984 -0.1614  0.9061
  835MPD2     N12335   3.530   1.498  11.100 -0.9531 -0.6173  0.3787
  835MPD2    H512336   3.623   1.474  11.131 -1.2950 -1.4548  0.7537
  835MPD2    N112337   3.222   1.622  10.741  0.0467 -1.1077  0.3478
  835MPD2    H712338   3.153   1.649  10.810 -2.0399  0.4716 -2.3712
  836MPD2     C12339   3.189   2.010  11.531  0.2319  0.5852 -0.1020
  836MPD2    C112340   3.275   1.933  11.605  0.2364  0.2832  0.5929
  836MPD2    C212341   3.260   1.933  11.742 -0.3344 -1.0122 -0.3557
  836MPD2    C312342   3.176   2.026  11.797  0.6570 -0.4702  0.3061
  836MPD2    C412343   3.099   2.112  11.722  0.4481  0.3168 -0.5280
  836MPD2    C512344   3.090   2.092  11.585  0.8365  0.5969  0.7852
  836MPD2     H12345   3.307   1.864  11.811  1.7930  0.4042 -0.3980
  836MPD2    H112346   3.035   2.183  11.774 -3.0299 -2.6220 -0.8024
  836MPD2    H212347   3.180   1.998  11.424  0.5243 -0.2048 -0.0334
  836MPD2    H312348   3.028   2.147  11.515  0.6901  0.4576  0.8051
  836MPD2     N12349   3.161   2.037  11.938 -1.2383 -0.3647 -0.3406
  836MPD2    H512350   3.095   2.104  11.976  0.0608  1.2765 -1.0110
  836MPD2    N112351   3.364   1.847  11.536  0.3545  0.2649  0.2127
  836MPD2    H712352   3.346   1.828  11.438 -2.3507 -0.3491  0.8165
  837MPD2     C12353   1.516   1.371  10.440  0.7100 -0.6870  0.4759
  837MPD2    C112354   1.428   1.432  10.350 -0.1715  0.1727  0.1920
  837MPD2    C212355   1.368   1.550  10.386 -0.2170 -0.4444 -0.2214
  837MPD2    C312356   1.364   1.578  10.518  0.2755 -0.9565  0.1847
  837MPD2    C412357   1.436   1.510  10.614  0.7493 -0.1337  0.3725
  837MPD2    C512358   1.521   1.411  10.571  0.1529 -0.5253 -0.5562
  837MPD2     H12359   1.310   1.613  10.320 -1.7873 -0.7746  0.8438
  837MPD2    H112360   1.427   1.534  10.719  0.2716 -1.9382  0.7353
  837MPD2    H212361   1.590   1.299  10.407 -0.0924 -1.4053  0.2536
  837MPD2    H312362   1.565   1.363  10.658  0.4729  0.3921 -0.2142
  837MPD2     N12363   1.273   1.685  10.549 -0.1610 -0.2705 -0.4629
  837MPD2    H512364   1.231   1.734  10.471 -0.3675 -2.0280 -1.4335
  837MPD2    N112365   1.405   1.387  10.221 -0.3389  0.1371  0.1132
  837MPD2    H712366   1.347   1.454  10.172  1.8791  0.1656 -2.4806
  838MPD2     C12367   0.193   4.304  12.073  0.1717  0.4089 -0.2483
  838MPD2    C112368   0.109   4.219  12.008 -0.2372  0.1828  0.5176
  838MPD2    C212369   4.714   4.195  12.056 -0.1535  0.6134 -0.3462
  838MPD2    C312370   4.671   4.260  12.174 -0.6347 -0.2134  0.5413
  838MPD2    C412371   0.030   4.333  12.245 -0.4931  0.2503 -0.0783
  838MPD2    C512372   0.162   4.343  12.203 -0.0414 -0.2562 -0.3338
  838MPD2     H12373   4.643   4.127  12.010 -1.6627  0.9810  1.4132
  838MPD2    H112374   4.730   4.392  12.328 -0.7528 -0.2616  0.1790
  838MPD2    H212375   0.294   4.320  12.038  0.2015  1.4484  0.3168
  838MPD2    H312376   0.238   4.386  12.268 -1.3598  1.4811  0.0452
  838MPD2     N12377   4.534   4.236  12.214 -0.6698 -0.1703 -0.3070
  838MPD2    H512378   4.494   4.151  12.174 -0.3776 -0.6037  0.3166
  838MPD2    N112379   0.154   4.161  11.887  0.0102  0.6193 -0.1018
  838MPD2    H712380   0.091   4.085  11.865 -1.6512  2.1760 -0.6845
  839MPD2     C12381   4.470   3.571  11.506 -0.6845 -0.3218 -0.5132
  839MPD2    C112382   4.566   3.556  11.414  0.3200  0.0482  0.8564
  839MPD2    C212383   4.673   3.645  11.427 -0.3529 -0.2679  0.1456
  839MPD2    C312384   4.669   3.757  11.512  1.0816  0.1164  0.4256
  839MPD2    C412385   4.556   3.771  11.590  0.4745  0.4325 -0.0224
  839MPD2    C512386   4.462   3.680  11.589  0.3200  0.2998  0.2192
  839MPD2     H12387   0.023   3.620  11.365  0.8554  1.2791  1.1956
  839MPD2    H112388   4.565   3.847  11.666  0.0820  0.3030  0.1535
  839MPD2    H212389   4.389   3.501  11.522 -0.9024  0.3298  1.2615
  839MPD2    H312390   4.388   3.695  11.666 -0.2393  0.3831 -0.3360
  839MPD2     N12391   0.029   3.853  11.520 -0.2178  0.5632 -0.1834
  839MPD2    H512392   0.019   3.932  11.584 -3.9091 -0.1017  0.0958
  839MPD2    N112393   4.562   3.460  11.310  0.7401 -0.1573 -0.7296
  839MPD2    H712394   4.641   3.456  11.247  0.8781  0.9055 -0.6169
  840MPD2     C12395   0.180   1.738  10.330 -0.0599  0.5193  0.1507
  840MPD2    C112396   0.124   1.627  10.400 -0.2457 -0.1092 -0.2395
  840MPD2    C212397   0.149   1.623  10.534  0.3340 -0.0182  0.5452
  840MPD2    C312398   0.212   1.722  10.605  0.1926  0.3725 -0.8214
  840MPD2    C412399   0.261   1.828  10.530 -0.1913  0.8031 -0.5881
  840MPD2    C512400   0.250   1.829  10.391 -0.2256  0.7114 -0.3170
  840MPD2     H12401   0.124   1.529  10.581  0.2681 -0.3347 -0.1191
  840MPD2    H112402   0.308   1.914  10.578 -2.3410  1.0219  1.1171
  840MPD2    H212403   0.183   1.742  10.222 -1.5380 -0.4408  0.0822
  840MPD2    H312404   0.276   1.917  10.334  1.2490  1.2781  1.2276
  840MPD2     N12405   0.224   1.723  10.748 -0.5336 -0.1251  0.0178
  840MPD2    H512406   0.270   1.809  10.778 -0.5358 -0.5261  1.1893
  840MPD2    N112407   0.041   1.542  10.326  0.8317 -0.3837 -0.4474
  840MPD2    H712408   0.025   1.555  10.226  2.0507 -0.8624 -0.7099
  841MPD2     C12409   4.444   1.644  14.371 -0.3054  0.4210 -0.3823
  841MPD2    C112410   4.497   1.525  14.425 -0.5674  0.3108 -0.9912
  841MPD2    C212411   4.635   1.500  14.420  0.5907  0.2123 -0.1564
  841MPD2    C312412   4.720   1.602  14.384  0.6414  0.3166 -0.2721
  841MPD2    C412413   4.670   1.724  14.342  0.2767 -0.3345 -0.6530
  841MPD2    C512414   4.531   1.744  14.342  0.0189  0.3098  1.0441
  841MPD2     H12415   4.682   1.410  14.459 -2.4577 -0.8554  1.0861
  841MPD2    H112416   4.729   1.814  14.327 -1.2365  0.5252 -1.4256
  841MPD2    H212417   4.338   1.663  14.358 -0.4646  0.5164  1.0506
  841MPD2    H312418   4.492   1.841  14.315  0.2860  0.1998  0.2569
  841MPD2     N12419   0.122   1.570  14.400  0.3155 -0.0114  0.4108
  841MPD2    H512420   0.148   1.477  14.431 -1.8822 -0.6449  0.3322
  841MPD2    N112421   4.412   1.413  14.459 -0.4905  0.3275 -0.7778
  841MPD2    H712422   4.454   1.320  14.464 -0.9896  0.1913  0.8533
  842MPD2     C12423   0.228   2.678  17.036  0.2846 -0.3140  0.4860
  842MPD2    C112424   0.120   2.600  16.996  0.0544  0.4553  0.2331
  842MPD2    C212425   0.057   2.527  17.092 -0.6013 -0.3418 -0.8507
  842MPD2    C312426   0.079   2.549  17.227 -0.4969  0.3729 -0.0548
  842MPD2    C412427   0.191   2.624  17.267  0.1369  0.2471  0.0995
  842MPD2    C512428   0.266   2.685  17.168  0.2116 -0.8761  0.4368
  842MPD2     H12429   4.708   2.461  17.075  0.4126 -1.6269 -0.9166
  842MPD2    H112430   0.226   2.643  17.368 -1.6519 -1.3753  1.0365
  842MPD2    H212431   0.274   2.741  16.961 -1.4040 -1.9838 -1.9477
  842MPD2    H312432   0.349   2.750  17.192 -1.5963  1.0449  1.4744
  842MPD2     N12433   4.731   2.488  17.319  0.0678  0.3085  0.4109
  842MPD2    H512434   4.663   2.420  17.287 -1.3497  1.1854  1.5451
  842MPD2    N112435   0.080   2.593  16.861  0.6374  0.2695  0.0035
  842MPD2    H712436   0.127   2.653  16.794  0.3995  0.4449 -0.0051
  843MPD2     C12437   2.081   3.552  17.403 -0.5111 -0.0627 -0.4652
  843MPD2    C112438   2.135   3.447  17.471  0.2519  0.1794  0.2553
  843MPD2    C212439   2.250   3.464  17.552  0.6922 -0.1165 -0.3038
  843MPD2    C312440   2.309   3.590  17.558  0.1066 -0.4194  0.1788
  843MPD2    C412441   2.246   3.696  17.490 -0.0337 -0.4242  0.2582
  843MPD2    C512442   2.139   3.676  17.413  0.1328  0.1123  0.6706
  843MPD2     H12443   2.303   3.379  17.594  0.2239 -0.7812 -1.0557
  843MPD2    H112444   2.289   3.796  17.483 -2.4990  0.6592  0.4041
  843MPD2    H212445   2.001   3.544  17.331 -1.2024  1.5880  0.1163
  843MPD2    H312446   2.094   3.754  17.353 -0.2840  1.0516  2.2147
  843MPD2     N12447   2.420   3.626  17.636  0.4749  0.0408  0.3220
  843MPD2    H512448   2.433   3.725  17.654  1.1053  0.4426 -2.4462
  843MPD2    N112449   2.077   3.323  17.452  0.0959 -0.0673 -0.3008
  843MPD2    H712450   2.004   3.312  17.382 -0.6653  0.7109  0.3667
  844MPD2     C12451   0.272   1.804  16.892  0.4174 -0.2220  0.4690
  844MPD2    C112452   0.314   1.861  16.781 -0.6020  0.2752  0.2097
  844MPD2    C212453   0.417   1.951  16.793  0.3824  0.4809 -0.1952
  844MPD2    C312454   0.480   1.977  16.905 -0.1182 -0.0202  0.0012
  844MPD2    C412455   0.446   1.909  17.018 -0.6075  0.2776 -0.2455
  844MPD2    C512456   0.339   1.824  17.006 -0.0443 -0.5087 -0.4073
  844MPD2     H12457   0.448   2.003  16.703 -1.3331  1.0238 -0.4803
  844MPD2    H112458   0.485   1.916  17.119  0.7121 -2.8130 -0.5200
  844MPD2    H212459   0.190   1.733  16.884 -0.8017  1.1317  0.7533
  844MPD2    H312460   0.289   1.769  17.085  0.7843  0.1724  0.5915
  844MPD2     N12461   0.594   2.059  16.890 -0.2428  0.3006  0.1024
  844MPD2    H512462   0.617   2.099  16.800  0.9503 -0.0543  0.2473
  844MPD2    N112463   0.271   1.818  16.652  0.0681  0.5918 -0.1846
  844MPD2    H712464   0.324   1.859  16.576 -3.2015  1.7474 -1.8319
  845MPD2     C12465   1.135   2.911  16.763 -0.3022 -0.4280 -0.4952
  845MPD2    C112466   1.130   2.879  16.896  0.0931  0.2157  0.5737
  845MPD2    C212467   1.045   2.780  16.937 -0.5997 -0.2217  0.4210
  845MPD2    C312468   0.975   2.708  16.845 -0.1129  0.2869 -0.5293
  845MPD2    C412469   0.982   2.738  16.711  0.5808 -0.1023  0.3749
  845MPD2    C512470   1.060   2.839  16.669  0.3379 -0.1376  0.0182
  845MPD2     H12471   1.047   2.744  17.039 -1.0254  0.5654  0.7113
  845MPD2    H112472   0.917   2.688  16.640  0.8956  2.7505 -1.9191
  845MPD2    H212473   1.200   2.990  16.727  0.2974  0.2723  2.1530
  845MPD2    H312474   1.075   2.863  16.564 -2.1399  1.4836  0.0399
  845MPD2     N12475   0.921   2.587  16.893 -0.2680  0.2583 -0.5293
  845MPD2    H512476   0.952   2.561  16.987  0.0122 -0.2125 -0.7509
  845MPD2    N112477   1.194   2.968  16.985  0.2903 -0.4055 -0.1393
  845MPD2    H712478   1.227   3.057  16.951  1.4864 -0.8127 -0.0507
  846MPD2     C12479   2.649   2.987  14.204  0.1502  0.1611  0.0200
  846MPD2    C112480   2.545   3.055  14.146  0.3392 -0.9334 -0.1435
  846MPD2    C212481   2.458   3.124  14.220 -0.2113 -0.6678 -0.3390
  846MPD2    C312482   2.457   3.108  14.356  0.4503 -0.0936 -0.4485
  846MPD2    C412483   2.547   3.021  14.415 -0.4087  0.2738  0.0242
  846MPD2    C512484   2.645   2.963  14.340 -0.2091  0.3468 -0.6405
  846MPD2     H12485   2.383   3.185  14.171 -0.3337 -0.6465 -0.1283
  846MPD2    H112486   2.534   3.000  14.520 -0.7808 -2.8059 -0.6452
  846MPD2    H212487   2.718   2.927  14.145  2.2365  4.7684 -2.2064
  846MPD2    H312488   2.720   2.895  14.377 -1.1204 -1.3026 -1.8144
  846MPD2     N12489   2.357   3.171  14.433 -0.3967  0.2254 -0.0104
  846MPD2    H512490   2.280   3.216  14.385  0.1175 -0.6405 -1.6440
  846MPD2    N112491   2.540   3.079  14.008  0.9194  0.7613 -0.0434
  846MPD2    H712492   2.463   3.139  13.980 -1.8053 -2.7450 -0.0942
  847MPD2     C12493   2.469   3.886  14.402  0.1285  0.5245  0.0384
  847MPD2    C112494   2.547   3.990  14.459 -0.3334  0.7907 -0.4877
  847MPD2    C212495   2.660   3.961  14.540 -0.4823 -0.2190  0.6053
  847MPD2    C312496   2.693   3.829  14.559 -0.2645  0.0425  0.7082
  847MPD2    C412497   2.607   3.727  14.516  0.7772  0.0924 -0.3451
  847MPD2    C512498   2.500   3.759  14.436  0.3462  0.1700  0.0675
  847MPD2     H12499   2.712   4.043  14.589  0.4137 -0.6650  0.3945
  847MPD2    H112500   2.627   3.624  14.544  0.7256 -0.1650 -1.2480
  847MPD2    H212501   2.389   3.900  14.330 -0.4072  0.5547  0.6341
  847MPD2    H312502   2.425   3.686  14.406 -0.3460  0.5622  0.8881
  847MPD2     N12503   2.797   3.804  14.646 -0.0260 -0.7261  0.2018
  847MPD2    H512504   2.848   3.886  14.676 -1.0699 -0.4935  1.3460
  847MPD2    N112505   2.530   4.120  14.434 -0.4320  0.2533  0.5270
  847MPD2    H712506   2.603   4.175  14.479 -1.0843  2.6988 -1.3996
  848MPD2     C12507   0.395   2.456  16.392 -0.0911 -0.0013  0.4139
  848MPD2    C112508   0.448   2.521  16.499  0.1363  0.0118 -0.2867
  848MPD2    C212509   0.534   2.627  16.470 -0.4327  0.2839  0.5202
  848MPD2    C312510   0.552   2.673  16.342 -0.1229 -0.0758  0.4746
  848MPD2    C412511   0.482   2.612  16.242 -0.1966 -0.3852  0.2620
  848MPD2    C512512   0.410   2.504  16.267 -0.6682 -0.3719  0.1647
  848MPD2     H12513   0.570   2.683  16.556  0.4329 -0.2652  0.5144
  848MPD2    H112514   0.503   2.635  16.138 -0.1282 -0.9572  0.1514
  848MPD2    H212515   0.324   2.375  16.401 -1.2670  1.1866  1.8596
  848MPD2    H312516   0.370   2.447  16.184 -0.0085  1.2406 -1.2732
  848MPD2     N12517   0.643   2.778  16.294 -0.0817 -0.6852  0.3951
  848MPD2    H512518   0.642   2.793  16.193 -1.4060  0.5097  0.5803
  848MPD2    N112519   0.436   2.475  16.630 -0.1665  0.4588 -0.4024
  848MPD2    H712520   0.490   2.525  16.700  1.0326 -2.3348  0.6503
  849MPD2     C12521   4.638   2.655  14.172 -0.5177 -0.2241  0.4156
  849MPD2    C112522   0.034   2.622  14.194 -0.2399  0.3574 -0.3199
  849MPD2    C212523   0.062   2.523  14.294  0.1786  0.5616  0.1437
  849MPD2    C312524   4.692   2.449  14.352  0.3252  0.3648 -1.0200
  849MPD2    C412525   4.559   2.482  14.316 -0.2696  0.2986  0.2306
  849MPD2    C512526   4.533   2.581  14.228  0.0721  0.7815 -0.4645
  849MPD2     H12527   0.167   2.504  14.317 -0.4825 -4.7335 -1.2693
  849MPD2    H112528   4.474   2.433  14.364 -0.5699 -1.5996 -2.2524
  849MPD2    H212529   4.611   2.728  14.096 -1.7752 -1.0737  0.0522
  849MPD2    H312530   4.428   2.606  14.214  0.2120  0.9076 -1.3346
  849MPD2     N12531   4.708   2.351  14.455 -0.4379 -0.2911  0.5916
  849MPD2    H512532   4.634   2.282  14.455  1.8716 -2.7435 -1.5248
  849MPD2    N112533   0.134   2.687  14.115 -0.1349 -0.6328 -0.8070
  849MPD2    H712534   0.107   2.729  14.027 -0.0133  0.8206 -0.1605
  850MPD2     C12535   2.547   0.505  14.822  0.0323 -0.6813  0.1896
  850MPD2    C112536   2.637   0.500  14.928  0.3087  0.6903 -0.0826
  850MPD2    C212537   2.758   0.562  14.925  0.7175  0.2796 -0.6255
  850MPD2    C312538   2.802   0.627  14.815 -0.5795 -0.7185  0.0448
  850MPD2    C412539   2.721   0.622  14.704 -0.5815  0.2878  0.0327
  850MPD2    C512540   2.597   0.569  14.707  0.3642  0.0624 -0.9585
  850MPD2     H12541   2.820   0.552  15.013 -1.0799  1.1422  0.7366
  850MPD2    H112542   2.756   0.662  14.610 -1.1280  0.6701 -0.0065
  850MPD2    H212543   2.448   0.460  14.822 -0.2980  0.0004 -2.0603
  850MPD2    H312544   2.543   0.576  14.613 -1.6015  0.6088  0.2170
  850MPD2     N12545   2.922   0.691  14.807  0.0496 -0.4962 -0.2127
  850MPD2    H512546   2.949   0.724  14.715  0.0387  2.5133  0.8785
  850MPD2    N112547   2.606   0.446  15.050  0.4189 -0.7926 -0.8415
  850MPD2    H712548   2.676   0.465  15.121 -1.5311 -0.2604  0.9412
  851MPD2     C12549   2.903   4.611  15.625 -0.0280  0.2544  0.5281
  851MPD2    C112550   2.792   4.611  15.539  0.5914 -0.6515 -0.2273
  851MPD2    C212551   2.740   4.487  15.501  0.5076 -0.3000 -0.0560
  851MPD2    C312552   2.798   4.374  15.547 -0.0127  0.0974  0.2638
  851MPD2    C412553   2.910   4.376  15.631  0.0371  0.3846  0.3988
  851MPD2    C512554   2.966   4.495  15.669  0.0650 -0.7285  0.4969
  851MPD2     H12555   2.652   4.480  15.438 -0.3627  0.0814  1.0971
  851MPD2    H112556   2.962   4.292  15.676  0.5158  1.2074  1.3846
  851MPD2    H212557   2.943   4.704  15.664  2.4237 -1.6502  2.5250
  851MPD2    H312558   3.059   4.497  15.725  0.4167 -2.7753 -0.0176
  851MPD2     N12559   2.755   4.251  15.490 -0.2579  1.0681  0.0189
  851MPD2    H512560   2.690   4.253  15.412  1.1552  0.1293 -1.1781
  851MPD2    N112561   2.741   0.002  15.495 -0.3042  0.0666  0.6146
  851MPD2    H712562   2.775   0.083  15.547  2.0524 -0.0773 -0.7539
  852MPD2     C12563   2.506   2.819   9.449  0.1547  0.5244  0.0267
  852MPD2    C112564   2.559   2.793   9.572 -0.1740 -0.9589 -0.5429
  852MPD2    C212565   2.635   2.893   9.643  0.2113  0.0110  0.8174
  852MPD2    C312566   2.647   3.022   9.595  0.3385 -0.4947  0.6817
  852MPD2    C412567   2.578   3.049   9.478 -0.3321  0.6253 -0.4117
  852MPD2    C512568   2.506   2.952   9.411  0.4526 -0.4293  0.5453
  852MPD2     H12569   2.688   2.864   9.733  0.7772  0.8144  0.7391
  852MPD2    H112570   2.580   3.151   9.442  0.4377  0.2638 -1.3655
  852MPD2    H212571   2.461   2.746   9.384  1.4461 -0.1972 -0.0620
  852MPD2    H312572   2.450   2.986   9.324 -0.4952 -2.3033  0.4083
  852MPD2     N12573   2.730   3.120   9.661  0.1558  0.2478 -0.2202
  852MPD2    H512574   2.756   3.108   9.758 -1.3868 -1.0555  0.0265
  852MPD2    N112575   2.542   2.662   9.634 -0.0651 -0.1424  0.1258
  852MPD2    H712576   2.595   2.644   9.719 -0.6270  1.9954  0.9321
  853MPD2     C12577   4.618   2.403  12.382 -0.1331  1.0819  0.1635
  853MPD2    C112578   4.572   2.521  12.320  0.3930  0.0490  0.6167
  853MPD2    C212579   4.554   2.523  12.190 -0.0117  0.1599 -0.9447
  853MPD2    C312580   4.608   2.418  12.117 -0.4992  0.0936 -0.8016
  853MPD2    C412581   4.664   2.306  12.178  0.2443  0.6734 -0.3176
  853MPD2    C512582   4.665   2.296  12.316 -0.5147 -0.2484 -0.2368
  853MPD2     H12583   4.504   2.607  12.143  2.3888  1.5966 -0.9172
  853MPD2    H112584   4.704   2.226  12.116 -0.5443  0.3657 -0.4398
  853MPD2    H212585   4.617   2.384  12.489  0.4997  0.3513  0.0335
  853MPD2    H312586   4.694   2.207  12.369 -0.9592 -1.7798 -2.5468
  853MPD2     N12587   4.585   2.408  11.974  0.2577  0.0326 -0.0142
  853MPD2    H512588   4.603   2.316  11.935  1.1598  1.0229 -1.9591
  853MPD2    N112589   4.498   2.619  12.399  0.1376 -0.1041 -0.1567
  853MPD2    H712590   4.444   2.689  12.349  1.7879  1.1737 -0.1345
  854MPD2     C12591   1.272   3.306  12.722  0.0699  0.2590 -0.0653
  854MPD2    C112592   1.403   3.291  12.771  0.3753 -0.6413  0.8081
  854MPD2    C212593   1.427   3.200  12.871  0.3073  0.2057 -0.4230
  854MPD2    C312594   1.325   3.109  12.900 -0.7083  0.2974  0.2220
  854MPD2    C412595   1.202   3.116  12.844  0.1244  0.6342 -0.3233
  854MPD2    C512596   1.183   3.210  12.745  0.1163  0.6840 -0.4789
  854MPD2     H12597   1.529   3.186  12.905  0.0456  0.3574  0.4327
  854MPD2    H112598   1.119   3.054  12.873  0.2773 -0.1303 -1.5036
  854MPD2    H212599   1.252   3.379  12.645 -0.0059  0.3383  0.0290
  854MPD2    H312600   1.087   3.210  12.694 -0.7854 -0.2872  1.2090
  854MPD2     N12601   1.347   2.994  12.985 -0.5048  0.9632  0.2828
  854MPD2    H512602   1.266   2.933  12.995 -1.8152  2.9737  1.8236
  854MPD2    N112603   1.501   3.373  12.716 -0.0732 -0.7873 -0.7824
  854MPD2    H712604   1.467   3.422  12.634  1.8327 -1.3367 -1.9155
  855MPD2     C12605   1.921   2.751  13.783  0.4632  0.3935  0.2564
  855MPD2    C112606   1.838   2.644  13.772  1.5602  0.4539 -0.0714
  855MPD2    C212607   1.769   2.630  13.647 -0.5094 -0.2022 -0.1378
  855MPD2    C312608   1.779   2.717  13.536 -0.5482 -0.1773 -0.6468
  855MPD2    C412609   1.870   2.811  13.558  0.4845 -0.0381  0.5005
  855MPD2    C512610   1.935   2.830  13.681 -0.5744  0.7612 -0.3205
  855MPD2     H12611   1.698   2.548  13.636 -0.6223  0.1442 -1.9440
  855MPD2    H112612   1.891   2.887  13.483 -0.4350 -0.6595 -0.3975
  855MPD2    H212613   1.989   2.772  13.866 -0.3495  1.5143  0.6504
  855MPD2    H312614   2.004   2.914  13.685 -0.3225  0.4917  1.4616
  855MPD2     N12615   1.706   2.727  13.419 -0.7383  0.5689 -0.8473
  855MPD2    H512616   1.708   2.814  13.366  2.7694  0.7050 -0.4902
  855MPD2    N112617   1.807   2.567  13.884 -1.0786 -0.2531  0.0866
  855MPD2    H712618   1.738   2.493  13.876  1.4652 -2.5162 -1.0262
  856MPD2     C12619   3.546   3.561  14.192  0.2191 -0.1609 -0.4053
  856MPD2    C112620   3.592   3.687  14.149 -0.8320 -0.1535  0.2133
  856MPD2    C212621   3.504   3.773  14.093  0.3408  0.9443  0.7934
  856MPD2    C312622   3.374   3.738  14.054 -0.1493 -0.3050  0.2370
  856MPD2    C412623   3.333   3.613  14.089 -0.3394 -0.2329  0.1805
  856MPD2    C512624   3.418   3.534  14.158 -0.2619 -0.7241  0.0133
  856MPD2     H12625   3.546   3.865  14.054  1.1044  0.5928  0.7964
  856MPD2    H112626   3.228   3.596  14.071  0.0713  0.7348 -3.2966
  856MPD2    H212627   3.597   3.492  14.258  0.5914 -1.6474 -2.2364
  856MPD2    H312628   3.374   3.448  14.207  3.6164 -2.5460  0.2965
  856MPD2     N12629   3.285   3.817  13.975 -0.2605  0.6454 -0.2006
  856MPD2    H512630   3.194   3.773  13.970 -0.1538  0.3781  0.1629
  856MPD2    N112631   3.738   3.715  14.158  0.1123 -0.2468 -0.1439
  856MPD2    H712632   3.773   3.798  14.112 -0.6670  0.6105  0.8210
  857MPD2     C12633   0.557   1.052  12.506  0.2385 -0.3824  0.0211
  857MPD2    C112634   0.686   1.104  12.496 -0.1210 -0.4670  0.0079
  857MPD2    C212635   0.723   1.234  12.525 -0.0253 -0.0949 -0.5769
  857MPD2    C312636   0.623   1.319  12.581  0.0658  0.0756 -0.0943
  857MPD2    C412637   0.492   1.277  12.580 -0.1150  0.3774  0.1732
  857MPD2    C512638   0.463   1.147  12.549 -0.2208 -0.2447  0.2890
  857MPD2     H12639   0.825   1.268  12.515  0.0973 -0.7733 -1.6318
  857MPD2    H112640   0.411   1.334  12.625 -0.9931 -0.5591 -0.2344
  857MPD2    H212641   0.529   0.948  12.489 -1.0541 -0.4334  2.4838
  857MPD2    H312642   0.360   1.115  12.553  0.8097 -3.3655  1.8765
  857MPD2     N12643   0.669   1.442  12.635  0.0195  0.2871  0.1816
  857MPD2    H512644   0.769   1.460  12.637 -0.1650  1.3361  0.2163
  857MPD2    N112645   0.785   1.004  12.455 -0.1966 -0.3954  0.6113
  857MPD2    H712646   0.744   0.918  12.420 -1.7690  0.9123 -0.7538
  858MPD2     C12647   0.649   0.118  16.922 -0.0697  0.4954 -0.0706
  858MPD2    C112648   0.786   0.111  16.890 -0.1237  0.0851  0.1186
  858MPD2    C212649   0.878   0.162  16.981 -0.3096  0.6577 -0.2760
  858MPD2    C312650   0.837   0.221  17.107  1.0417 -0.2216  0.0844
  858MPD2    C412651   0.706   0.237  17.134  0.0618 -0.2750 -0.1300
  858MPD2    C512652   0.614   0.177  17.046  1.1074  0.3217  0.3289
  858MPD2     H12653   0.982   0.157  16.952 -0.5313  4.5609 -1.7396
  858MPD2    H112654   0.676   0.265  17.234 -0.1546  2.6708 -1.0159
  858MPD2    H212655   0.576   0.078  16.853 -1.3801  1.0753  0.9858
  858MPD2    H312656   0.509   0.178  17.072  0.7343  2.5191 -1.3182
  858MPD2     N12657   0.923   0.269  17.204 -0.2785  0.5142  0.1982
  858MPD2    H512658   0.890   0.330  17.278  1.9586  1.7705  0.1355
  858MPD2    N112659   0.826   0.041  16.772 -0.4208  0.6192  0.2226
  858MPD2    H712660   0.752   4.714  16.741 -1.5403  0.3309  3.4633
  859MPD2     C12661   4.231   1.866  14.998  0.4100 -0.0281  0.4947
  859MPD2    C112662   4.364   1.865  15.028 -0.1559  0.7550  1.1578
  859MPD2    C212663   4.413   1.742  15.068 -0.2562 -0.1445 -0.4969
  859MPD2    C312664   4.324   1.640  15.101  0.2226  0.0600  0.5172
  859MPD2    C412665   4.189   1.650  15.088 -0.5229  0.5871  0.3288
  859MPD2    C512666   4.147   1.764  15.024  0.5731 -0.6828 -0.8935
  859MPD2     H12667   4.519   1.738  15.091 -0.1546 -0.1990 -0.9927
  859MPD2    H112668   4.118   1.570  15.104  0.3047 -0.1491  0.2929
  859MPD2    H212669   4.188   1.955  14.952  0.3471  0.2786  1.1420
  859MPD2    H312670   4.041   1.783  15.009  0.3852 -1.5028 -0.5846
  859MPD2     N12671   4.365   1.516  15.161 -0.6961 -0.0838  0.2787
  859MPD2    H512672   4.301   1.437  15.161  0.2853 -0.8878 -1.8727
  859MPD2    N112673   4.448   1.979  14.987 -0.9875  0.3017  0.0556
  859MPD2    H712674   4.406   2.068  14.963 -0.3589  0.5763  0.0022
  860MPD2     C12675   2.176   2.461  11.655  0.4153  0.3357  0.1257
  860MPD2    C112676   2.188   2.487  11.783 -0.2243  0.0145 -0.4384
  860MPD2    C212677   2.071   2.498  11.857  0.3717  0.6394  0.3285
  860MPD2    C312678   1.946   2.481  11.799  0.0649 -0.1138 -0.1616
  860MPD2    C412679   1.936   2.453  11.663 -0.0571 -0.1628 -0.1353
  860MPD2    C512680   2.053   2.447  11.588 -0.3311 -0.3471 -0.7676
  860MPD2     H12681   2.077   2.521  11.963  1.3279 -2.0725  0.8636
  860MPD2    H112682   1.837   2.435  11.622 -0.5600  0.7962  0.6574
  860MPD2    H212683   2.263   2.446  11.592  0.9397  0.9903  0.6963
  860MPD2    H312684   2.040   2.433  11.482 -0.4956 -0.4651 -0.7321
  860MPD2     N12685   1.836   2.492  11.887 -0.0306 -0.0185  0.1099
  860MPD2    H512686   1.864   2.504  11.984  2.2843 -2.4871 -0.2532
  860MPD2    N112687   2.317   2.503  11.847  0.7519  0.4845 -0.6277
  860MPD2    H712688   2.314   2.532  11.944  1.3020 -2.5006  0.2940
  861MPD2     C12689   1.379   0.498  10.703 -0.2013 -1.0647 -0.4281
  861MPD2    C112690   1.305   0.577  10.786 -0.0469 -0.0032  0.5960
  861MPD2    C212691   1.224   0.681  10.738 -0.0589  0.1710  0.2989
  861MPD2    C312692   1.205   0.687  10.600 -0.0463  0.0522 -0.4165
  861MPD2    C412693   1.278   0.602  10.516 -0.3773 -0.1138 -0.8012
  861MPD2    C512694   1.360   0.510  10.567 -0.5419 -0.5910  0.8790
  861MPD2     H12695   1.176   0.753  10.803  2.1470  2.1751 -0.2687
  861MPD2    H112696   1.286   0.616  10.408 -1.4185  0.2651 -0.8334
  861MPD2    H212697   1.448   0.425  10.744  0.7937 -0.4997 -1.0806
  861MPD2    H312698   1.407   0.440  10.499  0.3413  0.9096 -0.0417
  861MPD2     N12699   1.114   0.778  10.540 -0.1258 -0.0761 -0.1872
  861MPD2    H512700   1.096   0.756  10.443 -0.0826  1.9193 -0.6360
  861MPD2    N112701   1.304   0.568  10.930 -0.4586 -0.4894 -0.7211
  861MPD2    H712702   1.239   0.637  10.966  0.5497 -0.4555  1.0163
  862MPD2     C12703   0.588   0.591  10.070 -0.0109 -0.0730 -0.1300
  862MPD2    C112704   0.669   0.576  10.180 -0.3684  0.2021  0.2796
  862MPD2    C212705   0.701   0.446  10.220  0.8566 -0.3186 -0.2230
  862MPD2    C312706   0.622   0.335  10.174 -0.3302  0.0715 -0.0204
  862MPD2    C412707   0.548   0.349  10.064  0.4133  0.7262  0.3417
  862MPD2    C512708   0.529   0.475  10.021  0.2532 -0.0811  0.2385
  862MPD2     H12709   0.771   0.441  10.302  2.0245  0.2149 -1.1849
  862MPD2    H112710   0.487   0.274  10.015 -0.5134  0.9008  1.2170
  862MPD2    H212711   0.552   0.689  10.040  0.3042  0.2847  0.6648
  862MPD2    H312712   0.452   0.483   9.945 -0.7806 -0.3899  1.2593
  862MPD2     N12713   0.621   0.219  10.251  0.4115  0.2264 -0.2244
  862MPD2    H512714   0.675   0.223  10.336  1.0620 -1.2378 -0.5667
  862MPD2    N112715   0.727   0.671  10.264  0.7545 -0.1976 -0.5785
  862MPD2    H712716   0.793   0.644  10.336 -0.4959  0.3879  0.7871
  863MPD2     C12717   4.212   3.325  16.619 -0.0059 -0.0924  0.1520
  863MPD2    C112718   4.185   3.449  16.668  0.5147 -0.3044  0.1418
  863MPD2    C212719   4.248   3.489  16.780  0.5349 -0.1771 -0.5162
  863MPD2    C312720   4.340   3.409  16.849 -0.2589  0.4335 -1.1868
  863MPD2    C412721   4.361   3.277  16.801  0.6091  0.7907 -0.3983
  863MPD2    C512722   4.290   3.232  16.689  0.1383  0.0724 -0.3536
  863MPD2     H12723   4.223   3.587  16.820  0.6034  0.6032 -2.4155
  863MPD2    H112724   4.430   3.207  16.847  0.4750  1.3467  0.6461
  863MPD2    H212725   4.157   3.282  16.535 -1.3507  1.6429  0.1502
  863MPD2    H312726   4.297   3.129  16.656  1.0015  0.2574 -0.7393
  863MPD2     N12727   4.420   3.454  16.959  0.8542  0.4549  0.9969
  863MPD2    H512728   4.475   3.378  16.999 -1.1282 -1.2960  0.4147
  863MPD2    N112729   4.094   3.530  16.599  0.1466  0.2217 -0.1764
  863MPD2    H712730   4.066   3.489  16.510  0.6247  1.3716 -0.8499
  864MPD2     C12731   4.632   0.562  17.403  0.5981  0.3822  0.4451
  864MPD2    C112732   4.673   0.484  17.295 -0.1655  0.6459 -0.0858
  864MPD2    C212733   0.054   0.520  17.231  0.1329  0.1600 -0.4837
  864MPD2    C312734   0.127   0.633  17.271  0.1195  0.5581  0.1569
  864MPD2    C412735   0.082   0.707  17.375  0.4900  0.6064 -0.1681
  864MPD2    C512736   4.706   0.669  17.446  0.1690 -0.3359  0.2097
  864MPD2     H12737   0.093   0.464  17.147  0.7436  0.3913 -0.3528
  864MPD2    H112738   0.146   0.788  17.409 -0.8201  0.9332  1.5261
  864MPD2    H212739   4.546   0.538  17.465  0.5128  3.1743  1.4297
  864MPD2    H312740   4.672   0.728  17.530 -2.0959  0.8367 -1.5178
  864MPD2     N12741   0.242   0.678  17.203 -0.4023  0.3383 -0.0829
  864MPD2    H512742   0.281   0.770  17.221 -0.3847 -0.1292  2.1872
  864MPD2    N112743   4.606   0.364  17.263  0.0014  0.3435  0.4108
  864MPD2    H712744   4.543   0.327  17.333  0.1776 -0.4471  0.1584
  865MPD2     C12745   0.022   0.755  16.393 -0.2839 -0.6025  0.3898
  865MPD2    C112746   0.127   0.660  16.404  0.3778  0.1184 -0.5206
  865MPD2    C212747   0.215   0.687  16.507  0.0204 -0.0776  0.1376
  865MPD2    C312748   0.208   0.793  16.589  0.3306  0.2839 -0.0696
  865MPD2    C412749   0.090   0.872  16.583 -0.3305 -0.7262 -0.0928
  865MPD2    C512750   0.006   0.853  16.479 -0.2506 -0.2407  0.0560
  865MPD2     H12751   0.299   0.619  16.521 -0.2100 -0.2254  0.7993
  865MPD2    H112752   0.077   0.956  16.651 -1.3302  0.1658 -1.3889
  865MPD2    H212753   4.686   0.741  16.312  1.7007 -0.1610 -1.4545
  865MPD2    H312754   4.650   0.912  16.482  0.2031  0.3228  2.6648
  865MPD2     N12755   0.318   0.816  16.673 -0.6234  0.3404  0.3201
  865MPD2    H512756   0.389   0.744  16.665  1.3396  1.9053  3.4649
  865MPD2    N112757   0.152   0.551  16.317  0.3928  0.0819  0.6743
  865MPD2    H712758   0.238   0.500  16.332  0.7615  0.6170  0.3633
  866MPD2     C12759   1.513   1.260  11.514  0.1131  0.0683 -0.1091
  866MPD2    C112760   1.537   1.149  11.435  0.1148  0.7474 -0.6014
  866MPD2    C212761   1.435   1.110  11.351  0.5104  0.1007 -0.0912
  866MPD2    C312762   1.306   1.163  11.355 -0.3740 -0.5261 -0.5190
  866MPD2    C412763   1.284   1.259  11.449 -0.1615 -1.2068  0.5144
  866MPD2    C512764   1.389   1.318  11.521 -0.5708  0.3091  0.1706
  866MPD2     H12765   1.457   1.035  11.276 -0.8148 -0.2101 -0.1795
  866MPD2    H112766   1.186   1.306  11.452  1.2476  1.8210 -1.0954
  866MPD2    H212767   1.600   1.296  11.567 -0.0299  2.1608 -1.2959
  866MPD2    H312768   1.363   1.409  11.575 -0.9385  2.4093 -3.5494
  866MPD2     N12769   1.196   1.130  11.272 -0.3166 -0.6667  0.2795
  866MPD2    H512770   1.118   1.194  11.272 -0.5561 -0.9304  4.4080
  866MPD2    N112771   1.662   1.075  11.439 -0.3617 -0.7713 -0.0187
  866MPD2    H712772   1.746   1.121  11.473 -0.0622 -1.2205 -0.1534
  867MPD2     C12773   3.736   0.183  16.853 -0.4599 -1.0540  0.6069
  867MPD2    C112774   3.832   0.115  16.931 -0.0631 -0.3344 -0.7824
  867MPD2    C212775   3.893   0.194  17.021 -0.0084  0.3330  1.0224
  867MPD2    C312776   3.862   0.326  17.043  0.3745  0.4499 -0.4488
  867MPD2    C412777   3.763   0.387  16.965 -0.3028  0.9167  0.1167
  867MPD2    C512778   3.699   0.312  16.873  0.2743 -0.2033  0.0437
  867MPD2     H12779   3.975   0.149  17.075 -0.2153 -1.1139  0.1415
  867MPD2    H112780   3.750   0.495  16.964 -0.3131  0.9309  1.3285
  867MPD2    H212781   3.683   0.124  16.780 -1.5806  0.8579 -0.1111
  867MPD2    H312782   3.616   0.348  16.814  0.0794 -1.4767 -0.4489
  867MPD2     N12783   3.929   0.405  17.132  0.4169  0.7180  0.3172
  867MPD2    H512784   3.904   0.503  17.136  0.6628  0.7737  0.5045
  867MPD2    N112785   3.869   4.713  16.924  0.0049 -0.1425 -0.0359
  867MPD2    H712786   3.946   4.683  16.983 -0.5749  2.4169  1.9998
  868MPD2     C12787   0.660   3.819  12.611 -0.2987 -0.5394  0.6770
  868MPD2    C112788   0.664   3.877  12.737 -0.8770 -0.7976  0.1692
  868MPD2    C212789   0.546   3.922  12.799 -0.4400  0.4530  0.6909
  868MPD2    C312790   0.425   3.905  12.740 -0.7234 -0.8076 -0.1155
  868MPD2    C412791   0.423   3.855  12.614  0.0441  0.1279 -0.0796
  868MPD2    C512792   0.538   3.805  12.553 -0.1139  0.6640 -0.6187
  868MPD2     H12793   0.546   3.958  12.901 -0.8230  3.1905 -0.2739
  868MPD2    H112794   0.333   3.841  12.556 -0.3717 -1.3825  0.9516
  868MPD2    H212795   0.751   3.779  12.568  0.5035  0.5562  1.3423
  868MPD2    H312796   0.527   3.760  12.455  2.2145 -0.4376 -0.3778
  868MPD2     N12797   0.315   3.956  12.808 -0.1904  1.0688  0.7150
  868MPD2    H512798   0.334   3.993  12.901 -0.0128  0.0657  1.0713
  868MPD2    N112799   0.793   3.885  12.795  0.2351 -0.6203 -0.4321
  868MPD2    H712800   0.867   3.856  12.732  1.3596  1.7021 -0.1738
  869MPD2     C12801   1.505   2.522   1.026  0.3301  0.1405 -0.1740
  869MPD2    C112802   1.585   2.622   1.069 -0.2719  0.2230  0.3600
  869MPD2    C212803   1.716   2.617   1.028 -0.1423  0.0232  0.1804
  869MPD2    C312804   1.766   2.522   0.948 -0.1147  0.1920  1.0024
  869MPD2    C412805   1.679   2.415   0.907 -0.7458  0.6103 -0.0051
  869MPD2    C512806   1.543   2.422   0.942  0.1565  0.0509  0.2977
  869MPD2     H12807   1.761   2.716   1.031  0.6797 -0.3896  1.4680
  869MPD2    H112808   1.708   2.341   0.833 -0.0562  0.1137  0.7554
  869MPD2    H212809   1.404   2.520   1.066 -0.0969 -2.0932 -1.3515
  869MPD2    H312810   1.475   2.344   0.909  1.0232 -0.7089  0.3144
  869MPD2     N12811   1.903   2.544   0.902 -0.3273 -0.6639 -0.0510
  869MPD2    H512812   1.952   2.625   0.939 -0.0719 -1.0278  0.4013
  869MPD2    N112813   1.534   2.721   1.160 -0.3876 -0.5809  0.1855
  869MPD2    H712814   1.434   2.731   1.177 -0.2743  2.1135 -0.7565
  870MPD2     C12815   0.114   0.731   1.015 -0.0665 -0.3962 -0.4884
  870MPD2    C112816   0.148   0.854   1.049 -0.2798  0.5186 -0.3927
  870MPD2    C212817   0.168   0.951   0.950  0.3036 -0.6456 -0.1858
  870MPD2    C312818   0.138   0.928   0.816 -0.5263  0.7419  0.3875
  870MPD2    C412819   0.098   0.797   0.782 -0.0526 -0.0779  0.5370
  870MPD2    C512820   0.096   0.706   0.883 -0.5402  0.2309 -0.0501
  870MPD2     H12821   0.212   1.046   0.974 -0.3526 -0.8123  1.6680
  870MPD2    H112822   0.093   0.753   0.683 -2.1892 -1.4930  1.2646
  870MPD2    H212823   0.103   0.648   1.083  2.6887  0.2302  0.7480
  870MPD2    H312824   0.083   0.601   0.862  0.9024 -0.4813  2.6258
  870MPD2     N12825   0.164   1.031   0.724 -0.3478  0.4144  0.4632
  870MPD2    H512826   0.179   1.124   0.761 -3.3782  1.3543 -0.6302
  870MPD2    N112827   0.168   0.888   1.184  0.3658  0.4503  0.2556
  870MPD2    H712828   0.163   0.809   1.247  0.9914 -1.6562 -2.3513
  871MPD2     C12829   2.686   0.596  16.352 -0.3401  0.0835 -0.5938
  871MPD2    C112830   2.630   0.531  16.455  0.3358 -0.0133  0.0553
  871MPD2    C212831   2.619   0.393  16.451 -0.5083  0.4416  0.1801
  871MPD2    C312832   2.694   0.329  16.353  0.0805 -0.5862 -0.4689
  871MPD2    C412833   2.758   0.404  16.253 -0.0369 -0.4329  0.4147
  871MPD2    C512834   2.738   0.539  16.242 -0.1680 -0.4326 -0.3523
  871MPD2     H12835   2.570   0.335  16.528 -0.4483 -2.4213 -1.9467
  871MPD2    H112836   2.817   0.357  16.175  0.6564  0.1813  0.5607
  871MPD2    H212837   2.694   0.704  16.347 -0.7183  0.1359 -0.1386
  871MPD2    H312838   2.790   0.587  16.161  2.1006 -1.3422  0.5719
  871MPD2     N12839   2.687   0.191  16.359 -0.1557  0.5871 -0.4424
  871MPD2    H512840   2.631   0.154  16.435  0.7897 -2.6919 -1.3274
  871MPD2    N112841   2.578   0.615  16.557 -0.3683  0.2369 -0.5706
  871MPD2    H712842   2.612   0.711  16.557  1.6091 -0.4703 -0.7562
  872MPD2     C12843   3.573   2.633  14.113  0.3265 -0.3108  0.0203
  872MPD2    C112844   3.504   2.747  14.142  0.7006  0.5627 -0.3310
  872MPD2    C212845   3.379   2.730  14.204 -0.6022 -0.1805  0.6628
  872MPD2    C312846   3.338   2.614  14.258 -0.2106  0.3100  0.3818
  872MPD2    C412847   3.412   2.503  14.234  0.1121 -0.0053  0.0068
  872MPD2    C512848   3.529   2.512  14.158  0.3634 -0.2766  0.3223
  872MPD2     H12849   3.311   2.814  14.214  1.1370  1.0478  2.2629
  872MPD2    H112850   3.393   2.408  14.283  0.0414 -0.8024 -1.5846
  872MPD2    H212851   3.673   2.622  14.071  0.3970 -0.5937  0.2637
  872MPD2    H312852   3.577   2.420  14.127 -0.4914 -1.0155  1.1639
  872MPD2     N12853   3.228   2.596  14.340 -0.0727  0.1233  0.7679
  872MPD2    H512854   3.222   2.509  14.393  0.9469 -0.7183 -0.5060
  872MPD2    N112855   3.549   2.873  14.103 -0.0043 -0.1044 -0.1042
  872MPD2    H712856   3.488   2.954  14.113 -0.0457  0.3993 -4.3983
  873MPD2     C12857   0.520   2.749   1.054  0.9641 -0.5017  0.5369
  873MPD2    C112858   0.408   2.764   1.136  0.0202 -0.2273  0.2797
  873MPD2    C212859   0.334   2.651   1.148 -0.5489 -0.4673  0.2454
  873MPD2    C312860   0.363   2.533   1.076  0.0558 -0.0983 -1.0592
  873MPD2    C412861   0.466   2.535   0.982 -0.0486 -0.3248 -0.3452
  873MPD2    C512862   0.550   2.644   0.979  0.3020  1.4305  0.1963
  873MPD2     H12863   0.250   2.647   1.216  0.8942  1.9959  2.1466
  873MPD2    H112864   0.498   2.461   0.909 -0.1456 -0.7026  0.0003
  873MPD2    H212865   0.592   2.831   1.053  0.5779 -0.2024 -2.9841
  873MPD2    H312866   0.639   2.638   0.918 -0.2322  1.2195 -0.5610
  873MPD2     N12867   0.302   2.409   1.093  0.5565  0.5382  0.2055
  873MPD2    H512868   0.322   2.353   1.010  0.1806  0.0061  0.4770
  873MPD2    N112869   0.376   2.880   1.210 -0.5753 -0.1728 -0.3940
  873MPD2    H712870   0.454   2.944   1.197 -1.5273  0.4475 -3.2832
  874MPD2     C12871   0.049   2.953  16.100  0.1886  0.6078  0.6973
  874MPD2    C112872   0.120   2.893  16.202 -0.9406 -0.1665 -0.3624
  874MPD2    C212873   0.253   2.919  16.220  0.7551 -0.3660  0.1851
  874MPD2    C312874   0.324   3.003  16.140 -0.5746 -0.3273  0.1974
  874MPD2    C412875   0.257   3.063  16.035  0.3568  0.4799 -0.3355
  874MPD2    C512876   0.121   3.035  16.020 -0.2651 -0.6352  0.5128
  874MPD2     H12877   0.311   2.860  16.290  0.3586  0.6683  1.3622
  874MPD2    H112878   0.310   3.127  15.966  0.5719  1.1665  0.4842
  874MPD2    H212879   4.676   2.942  16.090  0.2563  1.3553 -0.8692
  874MPD2    H312880   0.059   3.094  15.952 -0.8653 -1.1011  0.6546
  874MPD2     N12881   0.462   3.033  16.173  0.2618  0.0574 -0.7229
  874MPD2    H512882   0.494   2.984  16.257  0.2882  0.6517 -0.3868
  874MPD2    N112883   0.039   2.818  16.291 -0.0656 -0.3811 -0.1065
  874MPD2    H712884   4.678   2.799  16.263 -0.3212 -1.2637  1.4031
  875MPD2     C12885   0.749   1.099  14.710  0.2467 -0.6617  0.5531
  875MPD2    C112886   0.800   1.212  14.644 -0.4720 -0.3689 -0.7182
  875MPD2    C212887   0.833   1.329  14.715 -0.4630  0.1984  1.0939
  875MPD2    C312888   0.829   1.324  14.857  0.1206 -0.1982 -0.2313
  875MPD2    C412889   0.787   1.207  14.922 -0.2308  0.1350 -0.0601
  875MPD2    C512890   0.748   1.096  14.847  0.0943  0.2910 -0.7104
  875MPD2     H12891   0.870   1.415  14.662 -1.9936  1.3421  1.8795
  875MPD2    H112892   0.786   1.193  15.029  3.3296 -2.6213 -0.3349
  875MPD2    H212893   0.735   1.005  14.659 -0.7825 -0.2263  0.0356
  875MPD2    H312894   0.738   0.995  14.886  0.0476  0.7952  0.5825
  875MPD2     N12895   0.873   1.429  14.941 -0.7921 -0.0440 -0.0166
  875MPD2    H512896   0.877   1.408  15.040 -0.3766 -0.7688 -0.1830
  875MPD2    N112897   0.821   1.214  14.500 -0.2330  0.0204  0.5958
  875MPD2    H712898   0.845   1.301  14.452 -2.5759 -0.6077 -1.7714
  876MPD2     C12899   4.573   2.608  16.084  0.2210 -0.2966 -0.1108
  876MPD2    C112900   4.692   2.539  16.079  0.0235  0.7819  0.1959
  876MPD2    C212901   4.701   2.421  16.150 -0.6425  0.3553 -0.1666
  876MPD2    C312902   4.597   2.368  16.218 -0.1705 -0.1207  0.4155
  876MPD2    C412903   4.478   2.435  16.216 -0.2278  0.0278  0.5919
  876MPD2    C512904   4.460   2.552  16.146 -0.1458  0.0698  0.0119
  876MPD2     H12905   0.058   2.364  16.157 -0.6420  0.3053 -0.5824
  876MPD2    H112906   4.405   2.392  16.284 -0.0909  2.5910  2.3586
  876MPD2    H212907   4.558   2.697  16.024  0.5254  1.4597  2.4426
  876MPD2    H312908   4.359   2.589  16.136 -0.6412 -1.3629 -0.1936
  876MPD2     N12909   4.622   2.246  16.277 -0.1452 -1.1881  0.0687
  876MPD2    H512910   4.717   2.215  16.257  0.5885 -0.7135  2.8188
  876MPD2    N112911   0.067   2.591  16.006  0.0712 -0.6204  0.1069
  876MPD2    H712912   0.047   2.674  15.953 -0.3905 -1.0650 -0.4110
  877MPD2     C12913   0.068   2.804  15.372 -0.1169  0.1954  0.1218
  877MPD2    C112914   0.200   2.848  15.379  0.1795 -0.5111 -0.2576
  877MPD2    C212915   0.259   2.876  15.250  0.0703  0.3172 -0.2354
  877MPD2    C312916   0.188   2.862  15.127 -0.7253  0.0890  0.1410
  877MPD2    C412917   0.060   2.798  15.133  0.7615  0.9023 -0.3411
  877MPD2    C512918   4.734   2.776  15.254  0.2509 -0.1935  0.6441
  877MPD2     H12919   0.360   2.916  15.254  0.5782 -1.0448  0.4894
  877MPD2    H112920   0.010   2.757  15.047 -0.0291 -1.0196  1.0372
  877MPD2    H212921   0.014   2.770  15.459  0.9877 -2.2996 -0.1636
  877MPD2    H312922   4.635   2.734  15.268  0.9371 -1.7202  0.9330
  877MPD2     N12923   0.250   2.889  15.004 -0.0546 -0.1148  0.2652
  877MPD2    H512924   0.200   2.862  14.920 -0.8003 -1.2201  1.0734
  877MPD2    N112925   0.274   2.851  15.497 -0.0776  0.2912  0.3470
  877MPD2    H712926   0.374   2.855  15.482 -0.1493  1.2790  0.1387
  878MPD2     C12927   0.315   3.069  13.238 -0.0969  0.5082 -0.2151
  878MPD2    C112928   0.302   2.932  13.215  0.0182  0.1090 -0.1826
  878MPD2    C212929   0.293   2.847  13.325 -0.7269 -1.0454  1.0126
  878MPD2    C312930   0.300   2.899  13.455 -0.3523  0.4396 -0.6000
  878MPD2    C412931   0.324   3.036  13.469  0.2137  0.5235  0.3474
  878MPD2    C512932   0.323   3.120  13.362 -0.4913  0.2521 -0.2191
  878MPD2     H12933   0.278   2.741  13.312  0.2932 -0.8046 -2.0783
  878MPD2    H112934   0.314   3.086  13.565 -3.0708 -0.6677  0.6257
  878MPD2    H212935   0.324   3.136  13.153  2.1721  0.6049  0.1038
  878MPD2    H312936   0.324   3.227  13.383 -0.6521  0.2331 -0.1159
  878MPD2     N12937   0.291   2.815  13.568 -0.2079 -0.2289 -0.1449
  878MPD2    H512938   0.273   2.716  13.560 -1.1281 -0.2670  2.4024
  878MPD2    N112939   0.313   2.890  13.080  0.2512 -0.1313 -0.1274
  878MPD2    H712940   0.310   2.950  12.999 -0.4525  1.1702  0.8544
  879MPD2     C12941   0.446   3.694  16.941  0.0150 -0.3593  0.5279
  879MPD2    C112942   0.361   3.619  17.020 -0.1805 -1.1573  0.5084
  879MPD2    C212943   0.297   3.512  16.965  0.2690 -0.2715  0.1541
  879MPD2    C312944   0.311   3.480  16.833  0.2084  0.1272 -0.2375
  879MPD2    C412945   0.386   3.558  16.752  0.4747  0.0603 -0.4046
  879MPD2    C512946   0.458   3.661  16.810  0.0569  0.2400 -0.5620
  879MPD2     H12947   0.232   3.462  17.037  1.3337 -1.2473  0.4422
  879MPD2    H112948   0.397   3.530  16.648 -1.8359 -0.2383 -0.5691
  879MPD2    H212949   0.510   3.773  16.979 -1.5892  0.7392  0.9730
  879MPD2    H312950   0.526   3.716  16.746  0.3596  0.1821 -0.2908
  879MPD2     N12951   0.235   3.382  16.759 -1.0986  0.1857 -0.2731
  879MPD2    H512952   0.255   3.375  16.660  1.2194  0.0698  0.1958
  879MPD2    N112953   0.342   3.658  17.153  0.0427 -0.5957 -0.1708
  879MPD2    H712954   0.384   3.745  17.185  2.2723 -1.3426 -1.1003
  880MPD2     C12955   1.052   0.666   0.732 -1.0601 -0.0815 -0.6922
  880MPD2    C112956   1.148   0.618   0.646  0.3957 -0.4287  0.4725
  880MPD2    C212957   1.224   0.505   0.677 -0.0407 -0.2187  0.0340
  880MPD2    C312958   1.206   0.446   0.805 -0.3081  0.7265  0.7321
  880MPD2    C412959   1.110   0.501   0.891 -0.4676 -0.4492 -0.1881
  880MPD2    C512960   1.035   0.606   0.854 -0.0250 -0.5426  0.0091
  880MPD2     H12961   1.291   0.467   0.601 -0.8341 -1.3843 -0.0775
  880MPD2    H112962   1.078   0.450   0.981 -0.8907  1.4185  0.7018
  880MPD2    H212963   1.004   0.756   0.696 -0.2544  0.8388  0.5643
  880MPD2    H312964   0.958   0.652   0.916 -1.1207 -2.1789 -0.1532
  880MPD2     N12965   1.278   0.330   0.850 -0.2433  0.0081  0.0511
  880MPD2    H512966   1.344   0.287   0.786 -2.4454 -1.1388 -1.4342
  880MPD2    N112967   1.151   0.675   0.514 -0.0123  0.4442  0.0663
  880MPD2    H712968   1.070   0.732   0.494  0.8737  1.7113  0.0690
  881MPD2     C12969   1.763   1.205  17.728  0.4576  0.1177  0.6587
  881MPD2    C112970   1.694   1.140  17.623 -0.2559 -0.6475  0.1588
  881MPD2    C212971   1.604   1.040  17.662  0.7384 -0.1915 -0.2190
  881MPD2    C312972   1.562   1.022   0.057 -0.1622  0.6049 -0.3047
  881MPD2    C412973   1.632   1.100   0.150  0.1124  0.3636  0.1435
  881MPD2    C512974   1.731   1.186   0.117 -0.1344 -0.4892 -0.2792
  881MPD2     H12975   1.551   0.977  17.591 -0.7244  1.6040 -0.6891
  881MPD2    H112976   1.604   1.093   0.255 -1.8771 -3.6086 -0.6474
  881MPD2    H212977   1.827   1.287  17.701 -1.8906  2.1955  1.3898
  881MPD2    H312978   1.785   1.233   0.199  0.7525 -0.1753 -1.0480
  881MPD2     N12979   1.454   0.941   0.095 -0.0933  0.4632  0.2316
  881MPD2    H512980   1.431   0.931   0.194 -0.3648  1.7846  0.2915
  881MPD2    N112981   1.750   1.147  17.494  0.3769  0.1258 -0.2589
  881MPD2    H712982   1.825   1.214  17.479 -0.4217  0.8917 -0.7897
  882MPD2     C12983   0.305   3.046  14.175 -0.1565  0.3269 -0.3603
  882MPD2    C112984   0.231   3.030  14.288 -0.8315 -0.6830  0.1497
  882MPD2    C212985   0.095   3.022  14.284 -0.5470  0.7548 -0.6346
  882MPD2    C312986   0.016   3.058  14.177  0.3037  0.0683 -0.6195
  882MPD2    C412987   0.092   3.103  14.069 -0.1418 -0.2988  0.5637
  882MPD2    C512988   0.226   3.090  14.072 -0.6425  0.3738  0.1856
  882MPD2     H12989   0.044   2.990  14.374  2.5322 -0.6826  0.5893
  882MPD2    H112990   0.050   3.129  13.972 -0.3101  1.5990  1.1378
  882MPD2    H212991   0.413   3.053  14.167  0.0629 -2.6762 -0.1582
  882MPD2    H312992   0.281   3.115  13.982 -0.5050  0.4728  0.2986
  882MPD2     N12993   4.610   3.053  14.173 -0.3516 -0.0482 -0.0936
  882MPD2    H512994   4.567   3.015  14.256 -1.3924 -0.2336 -0.7071
  882MPD2    N112995   0.302   3.004  14.404 -0.1072  0.2068  0.2445
  882MPD2    H712996   0.402   3.014  14.388  0.2644 -2.8132  0.5933
  883MPD2     C12997   2.035   2.672  16.403  0.0895  0.4414  0.2317
  883MPD2    C112998   2.107   2.760  16.319 -0.3778 -0.5740 -0.2421
  883MPD2    C212999   2.222   2.817  16.366  0.2378 -0.6473 -0.0286
  883MPD2    C313000   2.268   2.790  16.497 -0.0903 -0.1712  0.1646
  883MPD2    C413001   2.196   2.699  16.576  0.5858 -0.4405  0.0783
  883MPD2    C513002   2.076   2.648  16.531  0.1194  0.5056  0.0367
  883MPD2     H13003   2.280   2.877  16.297 -1.8003 -1.4638 -2.4372
  883MPD2    H113004   2.230   2.668  16.674  1.4198 -1.5229 -0.5565
  883MPD2    H213005   1.943   2.621  16.374  2.2997 -1.2642 -3.7821
  883MPD2    H313006   2.018   2.579  16.590  0.9066 -1.3278 -1.3348
  883MPD2     N13007   2.391   2.838  16.542 -0.2749  0.5664 -0.0667
  883MPD2    H513008   2.433   2.900  16.474  0.2416  0.7354  0.4029
  883MPD2    N113009   2.083   2.788  16.185  0.0514 -0.3713  0.2174
  883MPD2    H713010   2.150   2.842  16.131  1.3996 -2.1839  0.0862
  884MPD2     C13011   4.075   3.441  15.206  0.4015  0.0347 -0.4277
  884MPD2    C113012   4.007   3.478  15.096 -0.6925  0.2864  0.3931
  884MPD2    C213013   3.872   3.498  15.106  1.7367  0.4260  0.8072
  884MPD2    C313014   3.799   3.484  15.223 -0.1749  0.0212 -0.0408
  884MPD2    C413015   3.869   3.444  15.336  0.2422  0.0952 -0.1239
  884MPD2    C513016   4.005   3.427  15.328  0.4398 -0.4458 -0.1938
  884MPD2     H13017   3.819   3.532  15.018 -0.5459 -1.1957  1.5431
  884MPD2    H113018   3.823   3.424  15.432  1.8095 -2.2377  0.1375
  884MPD2    H213019   4.180   3.415  15.196  0.8718  1.7659  0.1165
  884MPD2    H313020   4.047   3.380  15.416 -0.9233  1.6187  1.5565
  884MPD2     N13021   3.657   3.507  15.226 -0.2605  0.1573  0.2050
  884MPD2    H513022   3.615   3.544  15.141 -3.7017  0.8761  2.2217
  884MPD2    N113023   4.070   3.516  14.970  0.0517 -0.0346  0.1697
  884MPD2    H713024   4.016   3.551  14.892  2.2274 -0.8333 -1.7165
  885MPD2     C13025   1.926   3.869   0.191 -0.0675 -0.0021 -0.0570
  885MPD2    C113026   2.062   3.862   0.164 -0.1103  0.6811  0.7897
  885MPD2    C213027   2.114   3.894   0.035  0.3155 -0.4092 -0.3663
  885MPD2    C313028   2.028   3.942  17.682 -0.5195 -1.0962 -0.4477
  885MPD2    C413029   1.892   3.941  17.710  0.2404 -0.4043  0.3558
  885MPD2    C513030   1.846   3.900   0.088 -0.2261  0.0434  0.0162
  885MPD2     H13031   2.221   3.888   0.016  0.7546  0.6646  1.7879
  885MPD2    H113032   1.815   3.973  17.641  0.3163 -0.8991  0.0414
  885MPD2    H213033   1.883   3.842   0.287 -0.4783  2.7025  0.5255
  885MPD2    H313034   1.738   3.894   0.103 -0.4817 -0.4872 -1.9120
  885MPD2     N13035   2.074   4.003  17.565 -0.4338  0.1402  0.0367
  885MPD2    H513036   2.175   4.000  17.568 -0.3778  1.4922 -0.3382
  885MPD2    N113037   2.141   3.831   0.273  0.2045 -0.1374  0.0244
  885MPD2    H713038   2.102   3.848   0.365 -1.5528 -0.7572 -0.6238
  886MPD2     C13039   3.501   1.886  15.161 -0.6446 -0.1233  0.6639
  886MPD2    C113040   3.631   1.927  15.130 -0.6497 -0.2666  0.8562
  886MPD2    C213041   3.653   2.024  15.037 -0.1227  0.1829  0.0636
  886MPD2    C313042   3.548   2.086  14.976  0.6145 -0.8917  0.0645
  886MPD2    C413043   3.418   2.039  14.998 -0.2693 -0.7973  0.4369
  886MPD2    C513044   3.396   1.947  15.097  0.2369 -0.3784  0.6927
  886MPD2     H13045   3.757   2.043  15.012 -0.1151 -1.1284 -0.8915
  886MPD2    H113046   3.335   2.088  14.947  2.4572  0.8003 -2.4567
  886MPD2    H213047   3.478   1.819  15.243 -1.6143 -0.7454 -0.1169
  886MPD2    H313048   3.297   1.923  15.135 -0.4968  0.8386 -0.4496
  886MPD2     N13049   3.587   2.171  14.868  0.2903  0.3216  0.1425
  886MPD2    H513050   3.683   2.200  14.862  0.2570  0.3665 -0.1842
  886MPD2    N113051   3.746   1.875  15.191  0.0925 -0.1926  0.8253
  886MPD2    H713052   3.831   1.924  15.163 -0.3817 -0.4365 -1.0346
  887MPD2     C13053   4.435   2.075  15.322 -0.1162  0.2589 -0.7904
  887MPD2    C113054   4.302   2.103  15.347  0.2476  0.5158  0.2569
  887MPD2    C213055   4.265   2.236  15.364 -0.4173 -0.1692  0.0079
  887MPD2    C313056   4.354   2.342  15.371  1.0265 -0.2820 -0.2589
  887MPD2    C413057   4.486   2.312  15.345 -0.7271 -0.4008 -0.2576
  887MPD2    C513058   4.527   2.179  15.326 -0.8583  0.6171  0.9140
  887MPD2     H13059   4.164   2.253  15.397 -0.0588  1.4936  0.2571
  887MPD2    H113060   4.567   2.383  15.339  0.4271 -1.5537  1.8092
  887MPD2    H213061   4.477   1.975  15.317 -0.4626  0.0175  0.9763
  887MPD2    H313062   4.632   2.164  15.305 -1.2195 -1.8484  0.9268
  887MPD2     N13063   4.305   2.476  15.380 -0.1461  0.3011 -0.0230
  887MPD2    H513064   4.204   2.480  15.377 -0.1758  0.0263  0.6830
  887MPD2    N113065   4.201   2.001  15.354 -0.4769  0.3991  0.4269
  887MPD2    H713066   4.105   2.034  15.364 -0.4453  0.8384 -0.7276
  888MPD2     C13067   1.107   2.144  15.081 -0.3963 -0.0630  0.0130
  888MPD2    C113068   1.078   2.191  15.213  0.2548  0.2877  0.0552
  888MPD2    C213069   1.111   2.321  15.230 -0.8306  0.3196  0.0151
  888MPD2    C313070   1.147   2.399  15.128 -0.3291  0.3240  0.0238
  888MPD2    C413071   1.148   2.352  15.005 -0.0166  0.4129 -0.4989
  888MPD2    C513072   1.129   2.222  14.974  0.0887 -0.2867  0.5134
  888MPD2     H13073   1.103   2.367  15.328 -0.9155  0.1696  0.0789
  888MPD2    H113074   1.186   2.417  14.927 -0.4765  0.0598 -1.0136
  888MPD2    H213075   1.089   2.041  15.052 -1.6128  0.1213  0.1446
  888MPD2    H313076   1.123   2.186  14.872  0.6129 -1.1463  0.7862
  888MPD2     N13077   1.171   2.539  15.157 -0.0115 -0.4118 -0.5136
  888MPD2    H513078   1.186   2.565  15.254  0.5412  0.3107 -0.7886
  888MPD2    N113079   1.020   2.121  15.318  0.5042  0.6684 -0.0581
  888MPD2    H713080   1.013   2.156  15.413 -4.1645 -1.6548  0.4675
  889MPD2     C13081   0.604   2.291  12.593 -0.3547  0.2812  1.5843
  889MPD2    C113082   0.640   2.243  12.714 -0.0382 -1.0487 -0.3257
  889MPD2    C213083   0.627   2.325  12.822  0.3906  0.6263 -0.6181
  889MPD2    C313084   0.608   2.462  12.802  0.1526 -0.2346  0.5225
  889MPD2    C413085   0.568   2.508  12.682  0.1354  0.9296  0.6284
  889MPD2    C513086   0.556   2.419  12.578  0.8226 -0.3757  0.1692
  889MPD2     H13087   0.631   2.292  12.925 -1.0943  0.3337 -0.6570
  889MPD2    H113088   0.549   2.615  12.683  0.5135  0.9830  1.8943
  889MPD2    H213089   0.582   2.231  12.506 -1.3209  0.2003  1.8899
  889MPD2    H313090   0.511   2.457  12.487 -1.4251  1.2900  1.9987
  889MPD2     N13091   0.623   2.549  12.916 -0.0727  0.2099  0.0237
  889MPD2    H513092   0.638   2.501  13.004  2.3447 -1.1749 -1.1680
  889MPD2    N113093   0.655   2.112  12.751  0.1035 -0.6116 -0.1486
  889MPD2    H713094   0.679   2.102  12.849  3.4382  0.0604 -0.9020
  890MPD2     C13095   0.406   3.525  14.400 -0.2111  0.1401  0.1357
  890MPD2    C113096   0.442   3.631  14.482  0.0360 -0.2946 -0.6664
  890MPD2    C213097   0.420   3.609  14.621  0.9289  0.4295  0.2220
  890MPD2    C313098   0.371   3.489  14.666  0.1896 -0.3425 -0.3126
  890MPD2    C413099   0.340   3.382  14.582  0.4829 -0.4491  0.8878
  890MPD2    C513100   0.362   3.401  14.444 -0.5230  0.1559  0.3735
  890MPD2     H13101   0.444   3.684  14.695  0.2303  2.4345 -1.5924
  890MPD2    H113102   0.308   3.283  14.611  0.9493 -1.3656 -1.7759
  890MPD2    H213103   0.406   3.533  14.292 -0.0546 -0.4848  0.0900
  890MPD2    H313104   0.350   3.324  14.369 -1.5918  1.4565 -0.7954
  890MPD2     N13105   0.379   3.468  14.802 -0.6155 -0.1743 -0.1494
  890MPD2    H513106   0.412   3.548  14.854 -1.1488 -1.1284  1.6679
  890MPD2    N113107   0.514   3.739  14.427 -0.0923 -0.6117  0.2175
  890MPD2    H713108   0.531   3.739  14.327 -1.1736  1.0048  0.0364
  891MPD2     C13109   2.826   1.866  16.491  0.5825 -0.0960 -0.5820
  891MPD2    C113110   2.869   1.995  16.489  0.2329  0.5861 -0.8172
  891MPD2    C213111   3.003   2.018  16.528 -0.2719 -0.1969 -0.0378
  891MPD2    C313112   3.093   1.918  16.556  0.0525 -0.0767  0.0914
  891MPD2    C413113   3.047   1.791  16.551 -0.1662 -0.5172 -0.0149
  891MPD2    C513114   2.915   1.764  16.514 -0.8472 -0.8580 -0.6927
  891MPD2     H13115   3.037   2.121  16.520 -1.8274  0.3711  0.5352
  891MPD2    H113116   3.108   1.708  16.585 -0.3266 -0.9265 -0.7395
  891MPD2    H213117   2.727   1.830  16.465 -0.0765  0.4459  1.1724
  891MPD2    H313118   2.872   1.664  16.513  0.0378 -1.2232 -2.9969
  891MPD2     N13119   3.227   1.947  16.593  0.5425 -0.6730 -0.8215
  891MPD2    H513120   3.242   2.046  16.610 -2.1404 -0.4373  0.1460
  891MPD2    N113121   2.776   2.097  16.482  0.1033  0.4998 -0.3920
  891MPD2    H713122   2.677   2.075  16.476  0.4812 -1.7334  1.4555
  892MPD2     C13123   4.072   3.122  14.797 -0.3978  0.0981  0.2947
  892MPD2    C113124   3.973   3.114  14.702 -0.2434 -0.7578 -0.4532
  892MPD2    C213125   4.018   3.082  14.574  0.1891  0.1849 -0.2955
  892MPD2    C313126   4.154   3.057  14.552  0.3471  0.0827 -0.1373
  892MPD2    C413127   4.246   3.087  14.653  0.6136 -0.3187  0.6809
  892MPD2    C513128   4.199   3.115  14.771  0.0328  0.4175 -0.2697
  892MPD2     H13129   3.941   3.076  14.498 -0.1804 -0.2402  0.1120
  892MPD2    H113130   4.353   3.076  14.634  0.3852 -1.4888  0.0292
  892MPD2    H213131   4.050   3.141  14.902 -0.5776 -1.5241  0.5593
  892MPD2    H313132   4.280   3.142  14.837  0.9107 -0.6112 -0.9186
  892MPD2     N13133   4.208   3.010  14.430  0.0048 -0.2125 -0.0654
  892MPD2    H513134   4.308   2.996  14.423  0.2435  0.0371  2.9444
  892MPD2    N113135   3.835   3.130  14.723 -0.1932  0.1907 -0.3507
  892MPD2    H713136   3.767   3.118  14.649  1.0886  0.0746 -1.5146
  893MPD2     C13137   0.313   2.298   1.590 -0.1457  1.0875 -0.1465
  893MPD2    C113138   0.309   2.223   1.472  0.0567  0.4682 -0.3113
  893MPD2    C213139   0.211   2.130   1.456  0.4332  0.3099  0.3550
  893MPD2    C313140   0.115   2.112   1.552 -0.0570 -0.0788  0.6061
  893MPD2    C413141   0.121   2.192   1.666 -0.3727  0.0521 -0.4052
  893MPD2    C513142   0.210   2.289   1.684 -0.3687 -0.3205 -0.5545
  893MPD2     H13143   0.212   2.067   1.368  1.4814 -0.2098  0.7493
  893MPD2    H113144   0.044   2.179   1.742  0.6245  3.3010  1.1354
  893MPD2    H213145   0.399   2.360   1.614  0.4987 -0.9721  2.9018
  893MPD2    H313146   0.217   2.327   1.785 -1.4311 -0.4323 -0.4407
  893MPD2     N13147   0.020   2.010   1.561  0.2739  0.4095  0.0432
  893MPD2    H513148   4.722   2.006   1.657  1.8094 -2.5975  0.4283
  893MPD2    N113149   0.412   2.245   1.387 -0.8112  0.1980 -0.6137
  893MPD2    H713150   0.476   2.317   1.420  1.0605 -2.0375  0.5702
  894MPD2     C13151   3.295   3.840   1.085  0.5017  0.2720  0.3411
  894MPD2    C113152   3.266   3.972   1.057 -0.6578 -0.3415 -0.0043
  894MPD2    C213153   3.332   4.068   1.132  0.1675 -0.1685  0.8642
  894MPD2    C313154   3.420   4.029   1.227 -0.5440 -0.5683  0.2650
  894MPD2    C413155   3.447   3.896   1.249  0.5781  0.4651  0.0440
  894MPD2    C513156   3.391   3.805   1.171  0.0123 -0.1537 -0.3667
  894MPD2     H13157   3.329   4.173   1.105 -1.9053 -0.3926  0.2824
  894MPD2    H113158   3.519   3.863   1.324 -0.4515 -0.7527  0.4874
  894MPD2    H213159   3.257   3.762   1.020  0.1509 -1.3794  2.5215
  894MPD2    H313160   3.432   3.705   1.173 -1.6055 -0.7572  1.6316
  894MPD2     N13161   3.483   4.132   1.296  0.2833 -0.2943  0.4158
  894MPD2    H513162   3.461   4.228   1.272 -0.8630 -1.0778 -1.6990
  894MPD2    N113163   3.191   4.019   0.945  0.0265  0.0794 -0.0797
  894MPD2    H713164   3.184   4.119   0.928  0.0070  0.2091  0.7007
  895MPD2     C13165   3.752   2.139  13.545  0.1462 -0.0912  0.0380
  895MPD2    C113166   3.696   2.169  13.424  0.5503 -0.0305 -0.3050
  895MPD2    C213167   3.639   2.073  13.338  0.5288  0.2684  1.0781
  895MPD2    C313168   3.629   1.938  13.385 -0.1933 -0.5306 -0.1989
  895MPD2    C413169   3.707   1.911  13.502 -0.3335 -0.1451  0.9048
  895MPD2    C513170   3.759   2.011  13.582 -0.5596  0.3412  0.8456
  895MPD2     H13171   3.577   2.106  13.256  5.6488  2.4053 -1.8989
  895MPD2    H113172   3.712   1.810  13.542 -1.9817 -0.4017  0.4761
  895MPD2    H213173   3.801   2.206  13.615  0.7168 -1.4294  0.9203
  895MPD2    H313174   3.814   1.974  13.667  0.5834  1.4969  0.5947
  895MPD2     N13175   3.562   1.835  13.312  0.0884 -0.4930  0.6615
  895MPD2    H513176   3.563   1.744  13.355  1.5147 -1.1860 -0.8380
  895MPD2    N113177   3.684   2.295  13.365  0.7096  0.0263  0.0851
  895MPD2    H713178   3.647   2.293  13.271 -1.8383  1.7094  1.0428
  896MPD2     C13179   0.985   4.669   1.715  0.1702  1.0207 -0.2884
  896MPD2    C113180   0.955   4.621   1.587 -0.6911 -0.5401 -0.3306
  896MPD2    C213181   0.873   4.519   1.568 -0.2251  0.2990  0.3228
  896MPD2    C313182   0.822   4.452   1.676 -0.6886 -0.6868  0.1846
  896MPD2    C413183   0.855   4.492   1.800 -0.0807 -0.4755 -0.1179
  896MPD2    C513184   0.944   4.594   1.820 -0.1859 -0.0578 -0.0405
  896MPD2     H13185   0.849   4.476   1.471 -1.7163 -0.2005  0.9083
  896MPD2    H113186   0.842   4.426   1.885  1.0172  4.1403  3.6453
  896MPD2    H213187   1.050   0.018   1.733  1.0333  0.2107  0.3747
  896MPD2    H313188   0.993   4.611   1.915 -1.4276 -0.3312  0.6483
  896MPD2     N13189   0.716   4.358   1.646 -0.2932  0.3062 -0.0560
  896MPD2    H513190   0.708   4.328   1.549  2.5982  0.7988 -0.4472
  896MPD2    N113191   1.002   4.704   1.480  0.3249 -0.1935  0.1096
  896MPD2    H713192   1.046   0.056   1.508 -0.7079 -0.1628  1.6311
  897MPD2     C13193   1.722   1.618  10.785  0.7699  0.4851 -0.1525
  897MPD2    C113194   1.613   1.704  10.790 -0.6660  0.0686  0.1172
  897MPD2    C213195   1.532   1.689  10.900 -0.6914  0.0632  0.0090
  897MPD2    C313196   1.563   1.620  11.012 -0.2850  0.2898  0.3365
  897MPD2    C413197   1.672   1.535  11.009  0.0200 -0.3439 -0.1324
  897MPD2    C513198   1.749   1.536  10.892 -0.4521  0.3161 -0.1388
  897MPD2     H13199   1.448   1.758  10.898 -0.3968  0.4775  1.6194
  897MPD2    H113200   1.693   1.456  11.080  2.3759 -1.7024 -2.3420
  897MPD2    H213201   1.784   1.613  10.697  0.5059  0.7433 -0.3526
  897MPD2    H313202   1.833   1.468  10.883  1.0800  1.9905  1.5221
  897MPD2     N13203   1.490   1.630  11.137  0.1668  0.0256  0.5175
  897MPD2    H513204   1.402   1.679  11.141  0.2743  0.0390  2.8110
  897MPD2    N113205   1.598   1.782  10.673  0.0833  0.1251  0.1918
  897MPD2    H713206   1.659   1.753  10.597 -1.1734 -3.6276  0.6191
  898MPD2     C13207   3.415   2.249   0.019 -0.2920  0.3900 -0.2784
  898MPD2    C113208   3.529   2.275  17.683 -0.0730  0.1048  0.3167
  898MPD2    C213209   3.536   2.398  17.618  0.2252  0.6520 -0.0951
  898MPD2    C313210   3.438   2.498  17.633  0.3988 -0.7624 -0.3053
  898MPD2    C413211   3.330   2.474  17.709  0.2375 -0.5670  0.2112
  898MPD2    C513212   3.323   2.351   0.024 -0.1769  0.0596  0.5597
  898MPD2     H13213   3.627   2.417  17.562  0.7352 -0.1278  0.4549
  898MPD2    H113214   3.253   2.546  17.734 -0.0786 -0.9098  0.2210
  898MPD2    H213215   3.390   2.154   0.066  0.1280 -0.0353 -0.9166
  898MPD2    H313216   3.236   2.338   0.087  0.0330  1.5584  1.1595
  898MPD2     N13217   3.456   2.623  17.565 -0.2056 -0.7146  1.0232
  898MPD2    H513218   3.534   2.630  17.500 -0.7848  0.5895  0.4599
  898MPD2    N113219   3.627   2.169  17.671 -0.2902 -0.4328  0.3553
  898MPD2    H713220   3.697   2.174  17.598 -0.3997  2.3848  0.4318
  899MPD2     C13221   0.185   3.147  17.280 -0.2078 -0.5320  0.4678
  899MPD2    C113222   0.091   3.206  17.357  0.3177  0.1307  0.0371
  899MPD2    C213223   0.056   3.140  17.479 -0.5375 -0.9228  0.0535
  899MPD2    C313224   0.118   3.023  17.510 -0.6385  0.3473 -0.0337
  899MPD2    C413225   0.203   2.963  17.429  0.3482 -0.0222 -0.4397
  899MPD2    C513226   0.245   3.028  17.315  0.1943 -0.3001 -1.1691
  899MPD2     H13227   4.714   3.175  17.547 -2.5035  1.4682 -3.4506
  899MPD2    H113228   0.238   2.861  17.441 -0.8082 -0.5709 -1.7163
  899MPD2    H213229   0.225   3.190  17.189 -1.1931  1.4697  0.9845
  899MPD2    H313230   0.323   2.984  17.254  0.8973 -1.3752  0.5127
  899MPD2     N13231   0.066   2.940  17.611  0.1781 -0.0220  0.1586
  899MPD2    H513232   0.093   2.842  17.613  0.9716  0.2212  1.3157
  899MPD2    N113233   0.017   3.323  17.312 -0.3301 -0.1938 -0.6572
  899MPD2    H713234   0.037   3.355  17.218 -1.1959  0.0190 -0.7646
  900MPD2     C13235   4.278   0.090  12.333 -0.7972 -0.1951 -0.1294
  900MPD2    C113236   4.169   0.008  12.339  0.0840 -1.0467  0.0410
  900MPD2    C213237   4.095   4.734  12.215 -0.6191  0.4176  0.0175
  900MPD2    C313238   4.119   0.091  12.114 -0.7903  0.1779  0.0072
  900MPD2    C413239   4.234   0.169  12.119 -0.1383  0.4125 -0.3370
  900MPD2    C513240   4.310   0.168  12.232  0.0315  0.1035  0.3933
  900MPD2     H13241   4.019   4.658  12.202  0.6498 -0.9480  0.5839
  900MPD2    H113242   4.263   0.241  12.043 -0.2332  0.5505 -0.2430
  900MPD2    H213243   4.343   0.091  12.420  1.1777  1.1656 -1.6512
  900MPD2    H313244   4.407   0.217  12.230  0.0183 -0.0165 -3.2460
  900MPD2     N13245   4.037   0.088  11.998  0.3056  0.0542 -0.4984
  900MPD2    H513246   3.968   0.014  12.002  1.7367 -1.3070 -0.7226
  900MPD2    N113247   4.130   4.670  12.452  0.0564  0.3179 -0.1021
  900MPD2    H713248   4.194   4.690  12.528 -1.3534  0.3745  1.0670
  901MPD2     C13249   3.751   3.653  12.726  0.2631  0.0139  0.1926
  901MPD2    C113250   3.886   3.652  12.689 -0.4461  0.0397  0.0683
  901MPD2    C213251   3.945   3.769  12.650  0.1827  0.1785  0.7134
  901MPD2    C313252   3.872   3.884  12.627  0.5514 -0.1633  0.0926
  901MPD2    C413253   3.739   3.875  12.664  1.2976 -0.2393  0.4061
  901MPD2    C513254   3.678   3.771  12.721  0.5924 -0.5779 -0.6791
  901MPD2     H13255   4.050   3.769  12.622  0.0046  0.5840  0.0633
  901MPD2    H113256   3.665   3.954  12.650  0.5192 -0.7656  1.5519
  901MPD2    H213257   3.709   3.564  12.772 -1.4655  0.9702  0.4903
  901MPD2    H313258   3.571   3.772  12.738  0.6825  2.3587 -0.3969
  901MPD2     N13259   3.942   4.003  12.601  0.3678 -0.2072  0.2450
  901MPD2    H513260   4.041   3.982  12.590  0.0370 -0.6999 -1.8789
  901MPD2    N113261   3.945   3.522  12.689 -0.5070  0.5453  0.3826
  901MPD2    H713262   3.893   3.448  12.735  1.4791 -1.9722 -1.3857
  902MPD2     C13263   3.448   3.013  13.015 -0.6539  0.5270 -0.3150
  902MPD2    C113264   3.342   2.967  12.941 -0.1457  0.0949 -0.3463
  902MPD2    C213265   3.363   2.850  12.871  0.0701  0.1262  0.4058
  902MPD2    C313266   3.481   2.775  12.878 -1.0769 -0.1974 -0.1709
  902MPD2    C413267   3.585   2.829  12.940 -0.2767  0.3160 -0.1003
  902MPD2    C513268   3.569   2.944  13.007  0.9945  0.2523  0.3977
  902MPD2     H13269   3.280   2.810  12.813  1.2800 -1.7756 -0.0178
  902MPD2    H113270   3.684   2.784  12.934 -1.7171 -2.5760 -2.7668
  902MPD2    H213271   3.437   3.108  13.066 -1.0344 -0.1430  0.8586
  902MPD2    H313272   3.656   2.991  13.052  0.2989  0.4403  1.5569
  902MPD2     N13273   3.495   2.652  12.804  0.2703 -0.6467  0.2776
  902MPD2    H513274   3.592   2.622  12.791  0.1833 -1.0087  0.4865
  902MPD2    N113275   3.216   3.040  12.948  0.1442 -0.4091 -0.4948
  902MPD2    H713276   3.232   3.132  12.988 -2.1039 -0.6126  0.8938
  903MPD2     C13277   3.386   2.351  12.023 -0.0092  0.0818  0.5512
  903MPD2    C113278   3.315   2.338  12.137  0.6551 -0.4025 -0.0393
  903MPD2    C213279   3.169   2.351  12.133 -0.3779 -0.1306 -1.0988
  903MPD2    C313280   3.113   2.396  12.009 -0.2962 -0.3261 -0.2531
  903MPD2    C413281   3.198   2.418  11.901 -0.0957 -0.4445  0.2059
  903MPD2    C513282   3.329   2.382  11.907  0.0098 -0.1986  0.3069
  903MPD2     H13283   3.108   2.356  12.223 -0.1322  0.5408 -0.9694
  903MPD2    H113284   3.170   2.449  11.801  1.4709 -2.8942 -1.0055
  903MPD2    H213285   3.495   2.345  12.019 -0.0523 -0.1920 -0.2676
  903MPD2    H313286   3.397   2.388  11.823 -0.9649  2.4622 -0.3067
  903MPD2     N13287   2.978   2.430  12.012 -0.0527 -1.0546 -0.3010
  903MPD2    H513288   2.935   2.421  12.103  0.3290  1.6958  0.1446
  903MPD2    N113289   3.386   2.309  12.257  0.5655 -0.3175 -0.1358
  903MPD2    H713290   3.486   2.326  12.253  0.5762 -0.8618 -1.9242
  904MPD2     C13291   3.173   1.947  13.665  0.3571 -0.3980 -0.0894
  904MPD2    C113292   3.137   1.894  13.786  0.1419  0.6243  0.5711
  904MPD2    C213293   3.230   1.854  13.876 -0.1709 -0.4058 -0.6507
  904MPD2    C313294   3.365   1.859  13.842 -0.3456  0.8454 -0.5237
  904MPD2    C413295   3.402   1.921  13.718  0.1790 -0.0779 -0.0315
  904MPD2    C513296   3.303   1.954  13.634  0.0787 -0.2372 -0.4265
  904MPD2     H13297   3.204   1.800  13.966  1.7671 -0.7951 -0.3157
  904MPD2    H113298   3.501   1.950  13.686  0.1688 -2.7036 -2.4596
  904MPD2    H213299   3.103   1.998  13.599  2.2992 -0.1590 -1.9364
  904MPD2    H313300   3.323   2.014  13.546 -1.9486  1.2868  0.1358
  904MPD2     N13301   3.452   1.825  13.951 -0.0381 -0.2174  0.0152
  904MPD2    H513302   3.409   1.804  14.040 -1.7933  1.0011 -0.5489
  904MPD2    N113303   3.004   1.902  13.832  0.2439  0.2938  0.8774
  904MPD2    H713304   2.988   1.877  13.929  1.8452 -2.7179  0.3659
  905MPD2     C13305   3.215   2.357  13.500 -0.1643  0.1752 -0.3911
  905MPD2    C113306   3.096   2.300  13.483  0.2297  0.2508  0.0828
  905MPD2    C213307   3.082   2.207  13.385  0.5420 -0.5742  0.3929
  905MPD2    C313308   3.186   2.154  13.314  0.1317  0.3583  0.2956
  905MPD2    C413309   3.304   2.219  13.323 -0.7257  0.5241 -0.5274
  905MPD2    C513310   3.322   2.313  13.423 -0.3757  0.6790  0.3281
  905MPD2     H13311   2.983   2.165  13.368 -0.2337  1.9041 -1.1063
  905MPD2    H113312   3.392   2.196  13.265 -0.5964 -0.2049 -0.0413
  905MPD2    H213313   3.225   2.435  13.575 -4.4578 -1.7793  2.2504
  905MPD2    H313314   3.419   2.354  13.447  0.6721 -1.3886 -0.4021
  905MPD2     N13315   3.178   2.040  13.235  0.3149  0.0139  0.4799
  905MPD2    H513316   3.264   2.012  13.189  0.3310 -0.3269  0.7195
  905MPD2    N113317   2.998   2.349  13.567  0.0403 -0.1209  0.4224
  905MPD2    H713318   3.021   2.413  13.642  1.4823  0.0715 -0.1960
  906MPD2     C13319   0.103   1.304  11.521  0.2123  0.0702  0.1123
  906MPD2    C113320   0.064   1.323  11.390 -0.6013 -0.0265 -0.4251
  906MPD2    C213321   4.698   1.236  11.340  0.2751  0.0392  0.1922
  906MPD2    C313322   4.632   1.147  11.429 -0.0465 -0.6515  0.2098
  906MPD2    C413323   4.670   1.145  11.561  0.0123 -0.1802  0.0893
  906MPD2    C513324   0.043   1.219  11.608 -0.9021 -0.0528  0.3752
  906MPD2     H13325   4.690   1.234  11.232 -0.5527 -1.3551  0.2835
  906MPD2    H113326   4.625   1.067  11.621  1.2592 -1.2525 -0.3513
  906MPD2    H213327   0.180   1.365  11.567 -1.5177  1.9949  0.4706
  906MPD2    H313328   0.066   1.214  11.714 -2.6279 -0.4693  0.7270
  906MPD2     N13329   4.538   1.055  11.374  0.3207  0.1421  0.2451
  906MPD2    H513330   4.502   0.987  11.439  0.2664 -1.8204 -1.8339
  906MPD2    N113331   0.121   1.414  11.298 -0.5582  0.5408 -0.2390
  906MPD2    H713332   0.083   1.404  11.204 -1.8222 -1.1868  0.4588
  907MPD2     C13333   3.719   0.975  15.362  0.1740 -0.3611  0.0833
  907MPD2    C113334   3.732   0.839  15.368 -0.0430 -0.2540 -0.4407
  907MPD2    C213335   3.771   0.783  15.485 -0.1882 -0.6113 -0.1495
  907MPD2    C313336   3.779   0.856  15.601  0.1738 -0.9032  0.3138
  907MPD2    C413337   3.767   0.993  15.591  0.5963 -0.9585 -0.1542
  907MPD2    C513338   3.737   1.054  15.473  0.2018 -0.5777 -0.3248
  907MPD2     H13339   3.798   0.678  15.489  1.1466 -0.2606  0.1975
  907MPD2    H113340   3.767   1.054  15.681 -1.5752  0.2176 -0.9462
  907MPD2    H213341   3.681   1.033  15.279 -1.1123  0.9359  1.5879
  907MPD2    H313342   3.717   1.160  15.478  2.6215 -0.2149  1.3606
  907MPD2     N13343   3.807   0.794  15.729  0.4206 -0.7638 -0.2623
  907MPD2    H513344   3.808   0.693  15.741  2.6272 -0.8006 -0.6292
  907MPD2    N113345   3.735   0.762  15.252  0.3507 -0.3438  0.3739
  907MPD2    H713346   3.761   0.666  15.269 -1.7797 -0.4918  2.7931
  908MPD2     C13347   1.768   1.487   9.929 -0.0408  0.2150 -0.3307
  908MPD2    C113348   1.772   1.449  10.063  0.1298  0.0496 -0.6584
  908MPD2    C213349   1.716   1.536  10.153 -0.4170 -0.2169 -0.3631
  908MPD2    C313350   1.662   1.653  10.115  0.3345 -0.1799 -0.0233
  908MPD2    C413351   1.661   1.689   9.988  0.5111  0.5336  0.3594
  908MPD2    C513352   1.709   1.601   9.895 -0.5854  0.3016 -0.6978
  908MPD2     H13353   1.698   1.508  10.256 -0.1697  1.6425  0.1862
  908MPD2    H113354   1.649   1.793   9.957  0.7001  0.2653 -0.6059
  908MPD2    H213355   1.798   1.419   9.850  2.8102  0.7983  0.2519
  908MPD2    H313356   1.695   1.616   9.788  2.1756  0.7250 -1.0024
  908MPD2     N13357   1.619   1.737  10.216  0.2327 -0.2883  0.3225
  908MPD2    H513358   1.664   1.721  10.306 -1.7372 -2.0799  0.9696
  908MPD2    N113359   1.808   1.313  10.091 -0.7723 -0.4961 -0.1488
  908MPD2    H713360   1.811   1.254  10.009 -2.5685 -1.6035  0.5983
  909MPD2     C13361   2.309   4.248  11.567 -0.0618  0.3333  0.5184
  909MPD2    C113362   2.296   4.385  11.557 -0.4747 -0.2178 -0.3643
  909MPD2    C213363   2.215   4.449  11.649 -0.1707 -0.4254 -0.0054
  909MPD2    C313364   2.152   4.378  11.745 -0.2671 -0.3164  0.0912
  909MPD2    C413365   2.164   4.242  11.751  0.1536 -0.7340 -1.2211
  909MPD2    C513366   2.235   4.174  11.653  0.4910  0.1922  0.4753
  909MPD2     H13367   2.210   4.557  11.640 -2.4587 -0.5687 -0.4187
  909MPD2    H113368   2.107   4.176  11.815 -1.1705  1.4806 -0.1255
  909MPD2    H213369   2.389   4.204  11.509 -0.6343  2.4426 -1.9058
  909MPD2    H313370   2.236   4.066  11.654 -0.3953  0.1669 -2.2082
  909MPD2     N13371   2.079   4.439  11.846  0.2505 -0.0506  1.0586
  909MPD2    H513372   2.049   4.376  11.920  0.0757  1.7242  2.5088
  909MPD2    N113373   2.387   4.455  11.475  0.2288 -0.1071 -0.2377
  909MPD2    H713374   2.387   4.554  11.498  0.6766 -0.2347  0.2751
  910MPD2     C13375   3.696   1.300  15.837 -0.4481 -0.3163  0.0556
  910MPD2    C113376   3.581   1.235  15.797  0.0203 -1.2754 -0.3078
  910MPD2    C213377   3.520   1.276  15.678 -0.5665 -0.0678  0.2677
  910MPD2    C313378   3.574   1.378  15.603  0.5617  0.0637  0.4583
  910MPD2    C413379   3.690   1.434  15.645 -0.8442  0.1911  0.3744
  910MPD2    C513380   3.755   1.386  15.758  0.5117  0.3918 -0.1125
  910MPD2     H13381   3.423   1.236  15.649 -0.6094  0.6684 -0.5912
  910MPD2    H113382   3.748   1.508  15.592  0.4756 -2.0116 -1.2621
  910MPD2    H213383   3.750   1.256  15.920 -0.2149  0.0517  0.0985
  910MPD2    H313384   3.854   1.428  15.770  0.3165  0.4411  1.2967
  910MPD2     N13385   3.511   1.421  15.484 -0.0848  0.7734  0.2662
  910MPD2    H513386   3.564   1.481  15.422  1.0974 -0.6701 -0.1375
  910MPD2    N113387   3.525   1.122  15.871  0.5985 -0.0499  0.7772
  910MPD2    H713388   3.461   1.055  15.831 -0.3334  2.1025 -1.3364
  911MPD2     C13389   1.115   1.970  16.696  0.3662 -0.0644  0.1039
  911MPD2    C113390   1.198   2.076  16.668  0.8339  0.7040  0.3868
  911MPD2    C213391   1.153   2.195  16.628 -0.1522  0.2385  0.1720
  911MPD2    C313392   1.021   2.206  16.604 -0.4056 -0.4220  0.1741
  911MPD2    C413393   0.933   2.107  16.639 -0.1633 -0.1925 -1.0946
  911MPD2    C513394   0.980   1.991  16.690 -0.5997 -0.3882 -0.4705
  911MPD2     H13395   1.221   2.272  16.593 -1.4258  1.3545  0.1657
  911MPD2    H113396   0.827   2.127  16.625 -0.2274 -0.4527 -0.9941
  911MPD2    H213397   1.140   1.866  16.716  0.7058  0.4395  2.3233
  911MPD2    H313398   0.912   1.912  16.719  0.4671 -0.5113  1.7145
  911MPD2     N13399   0.956   2.313  16.543  0.2001 -0.4239 -0.2997
  911MPD2    H513400   0.859   2.302  16.517 -0.9388  2.3163  2.9055
  911MPD2    N113401   1.339   2.048  16.680 -0.3568 -0.9800 -0.3572
  911MPD2    H713402   1.362   1.950  16.693 -1.0268 -0.8227  2.0567
  912MPD2     C13403   0.558   2.163  15.943 -0.1251  0.6066  1.7233
  912MPD2    C113404   0.573   2.175  16.081 -0.2207 -0.3726 -0.2048
  912MPD2    C213405   0.516   2.085  16.166 -0.0240 -0.1035  0.0381
  912MPD2    C313406   0.458   1.966  16.117  0.0213 -0.1644 -0.2674
  912MPD2    C413407   0.443   1.956  15.980 -0.2531 -0.1467  0.5805
  912MPD2    C513408   0.491   2.053  15.893  0.4959  0.8927  0.3236
  912MPD2     H13409   0.531   2.103  16.272  0.3863 -0.4775  0.0437
  912MPD2    H113410   0.376   1.890  15.925  0.3376  0.0320 -0.3484
  912MPD2    H213411   0.598   2.238  15.876 -1.1265 -0.6420 -0.2738
  912MPD2    H313412   0.474   2.033  15.788  1.0790  0.4471  0.3179
  912MPD2     N13413   0.412   1.875  16.206 -0.2167 -0.0278  0.3316
  912MPD2    H513414   0.421   1.890  16.306  0.1418 -0.3951  0.3555
  912MPD2    N113415   0.645   2.285  16.125  0.3659 -0.6891 -0.3235
  912MPD2    H713416   0.665   2.331  16.036  0.5796  0.7020  0.4544
  913MPD2     C13417   1.760   3.454  10.631  0.3097  0.3218 -0.2685
  913MPD2    C113418   1.845   3.538  10.696 -1.2309 -0.2541  0.2053
  913MPD2    C213419   1.932   3.616  10.620  0.1425 -0.1439  0.8876
  913MPD2    C313420   1.930   3.614  10.485 -0.1689 -0.4220 -0.4304
  913MPD2    C413421   1.853   3.525  10.420 -0.0842  0.1983 -0.7331
  913MPD2    C513422   1.767   3.442  10.494 -0.6352 -0.2343  0.2772
  913MPD2     H13423   2.007   3.669  10.677 -1.5650  2.0203  1.1184
  913MPD2    H113424   1.856   3.514  10.312  2.7013  1.1290 -0.7455
  913MPD2    H213425   1.681   3.397  10.679 -0.5367  1.5333 -0.2245
  913MPD2    H313426   1.700   3.378  10.437 -0.4942  1.0611 -1.3356
  913MPD2     N13427   2.008   3.707  10.405  0.3260  0.2134 -0.1171
  913MPD2    H513428   2.000   3.693  10.304 -0.5038 -0.3525  0.0284
  913MPD2    N113429   1.845   3.525  10.843 -0.2682  0.3269  0.5800
  913MPD2    H713430   1.782   3.456  10.881 -1.1151 -0.4110 -2.2620
  914MPD2     C13431   3.990   3.770  12.038  0.5528 -0.0006 -0.5520
  914MPD2    C113432   4.035   3.798  12.164  1.3654 -0.3223 -0.2779
  914MPD2    C213433   4.028   3.699  12.259  0.6726 -0.4284 -0.4644
  914MPD2    C313434   3.988   3.573  12.226 -0.1945  0.4842  0.0736
  914MPD2    C413435   3.938   3.550  12.100 -0.1505 -0.0948 -0.1311
  914MPD2    C513436   3.934   3.644  12.010 -0.0926 -0.5748  0.7191
  914MPD2     H13437   4.053   3.712  12.363 -2.6491 -1.4619  0.4738
  914MPD2    H113438   3.897   3.452  12.077  1.8629 -1.0182  0.1496
  914MPD2    H213439   3.978   3.849  11.964 -2.0693 -0.9361 -1.1180
  914MPD2    H313440   3.882   3.625  11.917  2.3627  0.0977 -0.8139
  914MPD2     N13441   4.019   3.475  12.317  0.1928  0.5391  0.0421
  914MPD2    H513442   4.053   3.496  12.411 -1.4650 -0.6319  0.8981
  914MPD2    N113443   4.074   3.932  12.186  0.6906 -0.3051 -0.2097
  914MPD2    H713444   4.066   3.998  12.109 -0.1704 -0.2699 -0.0925
  915MPD2     C13445   1.874   3.259  15.591 -0.0362 -0.2783 -0.7437
  915MPD2    C113446   1.793   3.371  15.590  0.2518  0.0596  0.7754
  915MPD2    C213447   1.789   3.447  15.704 -0.3913 -0.8113  0.3718
  915MPD2    C313448   1.872   3.420  15.808  0.0000 -1.1119  0.3086
  915MPD2    C413449   1.976   3.328  15.796  0.1860  0.1036  0.4308
  915MPD2    C513450   1.970   3.237  15.690 -0.3088 -0.0221  0.0546
  915MPD2     H13451   1.712   3.522  15.716 -0.4305 -0.7710 -0.1527
  915MPD2    H113452   2.049   3.322  15.876  1.6889 -0.4600 -1.0166
  915MPD2    H213453   1.855   3.186  15.513  2.0323 -0.5773 -0.9777
  915MPD2    H313454   2.043   3.157  15.680 -0.5014 -0.0930 -0.7874
  915MPD2     N13455   1.868   3.501  15.924  0.1750  0.3175  0.6788
  915MPD2    H513456   1.805   3.580  15.926 -0.1911  0.0299  0.4266
  915MPD2    N113457   1.700   3.394  15.493 -0.7009  0.7224  0.3759
  915MPD2    H713458   1.631   3.463  15.517 -2.4527 -1.4791  1.6591
  916MPD2     C13459   0.096   2.011  15.804  0.3919 -0.2237 -0.3129
  916MPD2    C113460   0.085   1.898  15.877  0.6546 -0.3072 -0.3342
  916MPD2    C213461   0.143   1.783  15.827  0.0593 -0.0278  0.5509
  916MPD2    C313462   0.207   1.786  15.702 -0.2680  0.2396  0.0248
  916MPD2    C413463   0.222   1.899  15.632 -0.0903 -0.4379  0.5760
  916MPD2    C513464   0.166   2.013  15.689  0.1906  0.6418  0.0652
  916MPD2     H13465   0.135   1.693  15.886  0.6384 -1.1231 -1.0267
  916MPD2    H113466   0.259   1.902  15.530  0.6791  2.9207  0.9559
  916MPD2    H213467   0.044   2.101  15.836 -1.6772 -0.8326 -1.9030
  916MPD2    H313468   0.174   2.098  15.623  0.2936 -1.4346 -2.6053
  916MPD2     N13469   0.255   1.665  15.657 -0.1211 -0.1209  0.0804
  916MPD2    H513470   0.264   1.593  15.728  2.3258  1.3659  1.2944
  916MPD2    N113471   0.024   1.909  16.002 -0.0025  0.3301 -0.3312
  916MPD2    H713472   4.733   2.004  16.028  3.4671  1.9543 -2.7714
  917MPD2     C13473   0.793   3.788  11.244 -0.3411 -0.3237  0.2006
  917MPD2    C113474   0.828   3.874  11.342  0.4342 -0.3143  0.7196
  917MPD2    C213475   0.925   3.970  11.315 -1.0492 -0.6849 -0.0819
  917MPD2    C313476   0.984   3.981  11.194 -0.0368 -0.9608  0.0826
  917MPD2    C413477   0.941   3.893  11.089 -0.4152 -0.2813 -0.6734
  917MPD2    C513478   0.837   3.809  11.117  0.2515 -0.5540  0.2037
  917MPD2     H13479   0.950   4.043  11.390  1.8002 -1.0678 -0.6511
  917MPD2    H113480   0.982   3.905  10.990 -0.0057 -0.6486 -0.5453
  917MPD2    H213481   0.726   3.706  11.266 -1.9104  0.8326 -0.2807
  917MPD2    H313482   0.809   3.737  11.040  0.1299 -0.5560  0.2491
  917MPD2     N13483   1.083   4.069  11.165 -0.1573  0.7488 -0.5746
  917MPD2    H513484   1.096   4.095  11.067 -0.7070 -1.6372 -1.2803
  917MPD2    N113485   0.767   3.856  11.466 -0.0099 -0.2577  0.3802
  917MPD2    H713486   0.693   3.787  11.469  0.6954 -1.1871 -3.7295
  918MPD2     C13487   0.720   4.578  12.200  0.1338  0.0988  0.6360
  918MPD2    C113488   0.833   4.506  12.170 -0.0337 -0.0805  0.0736
  918MPD2    C213489   0.828   4.382  12.116  0.0259 -0.1818 -0.5034
  918MPD2    C313490   0.708   4.321  12.071  0.5078  0.3710  0.7391
  918MPD2    C413491   0.593   4.397  12.093  0.4265  0.1534 -0.8765
  918MPD2    C513492   0.606   4.523  12.161 -0.8017  0.4755  0.4340
  918MPD2     H13493   0.918   4.327  12.092  0.6482 -0.2074  1.8647
  918MPD2    H113494   0.499   4.355  12.060 -0.7614  0.9484  1.5363
  918MPD2    H213495   0.735   4.678  12.241 -0.5438  0.6411 -0.4435
  918MPD2    H313496   0.520   4.584  12.187 -0.7782  0.4800  0.4994
  918MPD2     N13497   0.707   4.200  11.998 -0.2059 -0.3191  0.1530
  918MPD2    H513498   0.801   4.172  11.972 -1.0908 -1.2814 -2.0304
  918MPD2    N113499   0.965   4.561  12.198 -0.4784 -0.2829 -0.1437
  918MPD2    H713500   1.040   4.519  12.143 -2.4301 -0.8072 -2.3974
  919MPD2     C13501   1.608   3.602  11.566 -0.4752 -0.2600  0.2272
  919MPD2    C113502   1.520   3.496  11.582  0.1971 -0.1292 -0.1069
  919MPD2    C213503   1.477   3.433  11.468 -0.9729 -0.0630 -0.1605
  919MPD2    C313504   1.490   3.489  11.346  0.3575  0.1310 -0.5612
  919MPD2    C413505   1.575   3.597  11.327 -0.9014 -0.1031  0.3427
  919MPD2    C513506   1.625   3.655  11.440  0.4904  0.2123  0.4620
  919MPD2     H13507   1.421   3.341  11.477  0.4590 -1.0522 -1.3674
  919MPD2    H113508   1.605   3.646  11.235 -1.4823  0.9524  0.7252
  919MPD2    H213509   1.654   3.650  11.651 -3.2432 -0.5941  1.9049
  919MPD2    H313510   1.702   3.731  11.433  0.8184 -0.2452 -0.8531
  919MPD2     N13511   1.421   3.430  11.237  0.1522 -0.2752  0.7326
  919MPD2    H513512   1.443   3.471  11.146 -1.3035 -0.4985  0.2950
  919MPD2    N113513   1.490   3.438  11.711  0.3058  0.9263 -0.4472
  919MPD2    H713514   1.441   3.349  11.712  1.1100  0.4702 -2.2676
  920MPD2     C13515   1.545   3.023  10.333  0.6631 -0.3871  0.0185
  920MPD2    C113516   1.409   3.022  10.350 -0.3644  0.1895  0.9973
  920MPD2    C213517   1.358   3.083  10.464 -0.6984 -0.1851  0.9210
  920MPD2    C313518   1.435   3.139  10.556 -0.1482  0.2067  0.6916
  920MPD2    C413519   1.568   3.129  10.549  0.7358 -0.3508 -0.1475
  920MPD2    C513520   1.623   3.079  10.431 -0.2803 -0.1301  0.6188
  920MPD2     H13521   1.251   3.084  10.482 -0.3840 -2.1581  2.8602
  920MPD2    H113522   1.630   3.150  10.636 -0.5007  0.5739  0.5003
  920MPD2    H213523   1.598   2.988  10.245 -1.3744  2.1262 -2.2049
  920MPD2    H313524   1.729   3.068  10.412 -0.7476 -2.2327 -0.7319
  920MPD2     N13525   1.362   3.200  10.659  0.2670  0.1817  0.4672
  920MPD2    H513526   1.262   3.210  10.646  0.1434 -1.7910 -0.2196
  920MPD2    N113527   1.330   2.959  10.247 -0.2174 -0.1359 -0.0108
  920MPD2    H713528   1.382   2.899  10.184  0.0881  0.8788 -0.7233
  921MPD2     C13529   2.186   2.523  16.907 -0.3324 -1.1028 -0.3014
  921MPD2    C113530   2.225   2.411  16.833 -0.2912 -0.0133 -0.3725
  921MPD2    C213531   2.125   2.316  16.823 -0.3109  0.1240 -0.4149
  921MPD2    C313532   1.998   2.326  16.869 -0.2569 -0.2583  0.0446
  921MPD2    C413533   1.966   2.444  16.933 -1.0299  0.2319  0.0781
  921MPD2    C513534   2.061   2.538  16.957  0.2229  0.3057 -0.2642
  921MPD2     H13535   2.146   2.238  16.751 -4.3910 -3.3061  2.1074
  921MPD2    H113536   1.860   2.454  16.949 -1.1313 -0.3792 -0.2082
  921MPD2    H213537   2.257   2.604  16.918 -0.6373 -1.1512  2.0681
  921MPD2    H313538   2.030   2.626  17.012 -0.3617 -1.2180  1.8441
  921MPD2     N13539   1.894   2.234  16.845  0.3525  0.0267 -0.0467
  921MPD2    H513540   1.800   2.273  16.851 -0.3732 -1.4294 -1.9280
  921MPD2    N113541   2.348   2.419  16.759  0.5053  0.3157 -0.0008
  921MPD2    H713542   2.394   2.509  16.762  1.0698 -0.0304  1.9080
  922MPD2     C13543   3.017   0.062  17.181 -0.0261  0.6614  0.5680
  922MPD2    C113544   2.935   0.149  17.246  0.1209 -0.0843 -0.2626
  922MPD2    C213545   2.800   0.116  17.257 -0.3464  1.0193 -0.6714
  922MPD2    C313546   2.761   4.726  17.224 -0.0408  0.1990 -0.3976
  922MPD2    C413547   2.848   4.634  17.193 -0.1906  0.1631 -0.3376
  922MPD2    C513548   2.977   4.666  17.162  0.2816  0.0922  0.3484
  922MPD2     H13549   2.733   0.195  17.290  2.8504  3.1579  0.7852
  922MPD2    H113550   2.811   4.539  17.157  1.3380 -1.3516  2.1572
  922MPD2    H213551   3.118   0.093  17.157  0.4869 -1.9827 -0.7055
  922MPD2    H313552   3.038   4.591  17.112  0.5332  1.8146 -1.9584
  922MPD2     N13553   2.617   4.695  17.220  0.5100  0.1913 -0.0874
  922MPD2    H513554   2.563   0.046  17.213 -1.8192 -1.3031 -0.1340
  922MPD2    N113555   2.981   0.274  17.292 -0.0933  0.3008 -0.0947
  922MPD2    H713556   2.909   0.334  17.333 -1.0228  0.1307 -1.4849
  923MPD2     C13557   0.268   2.223   8.958  0.0658  0.0128 -0.5250
  923MPD2    C113558   0.209   2.283   9.069 -0.5796 -0.3861  0.1962
  923MPD2    C213559   0.221   2.218   9.191  0.3241  0.4852 -0.4449
  923MPD2    C313560   0.291   2.092   9.208 -0.0528  0.5548  0.2516
  923MPD2    C413561   0.357   2.048   9.095 -0.0333 -0.2254 -0.1117
  923MPD2    C513562   0.344   2.105   8.976  0.6644  0.5060  0.1015
  923MPD2     H13563   0.183   2.266   9.280 -0.3123 -1.3077  0.2463
  923MPD2    H113564   0.428   1.966   9.096 -1.3876 -1.4015 -1.5135
  923MPD2    H213565   0.255   2.255   8.856 -3.8638 -0.4119 -0.1720
  923MPD2    H313566   0.392   2.060   8.890 -0.2097 -1.0544  0.4326
  923MPD2     N13567   0.311   2.033   9.336  0.8132 -0.2173  1.0436
  923MPD2    H513568   0.370   1.950   9.336 -0.6173 -1.2378  2.4779
  923MPD2    N113569   0.142   2.408   9.037 -0.3773  0.1755  0.1699
  923MPD2    H713570   0.150   2.440   8.941 -1.3097 -0.7091 -0.2000
  924MPD2     C13571   4.152   4.723  15.837  0.3331 -0.2994  0.3245
  924MPD2    C113572   4.120   0.022  15.964 -0.4232 -0.1605  0.4355
  924MPD2    C213573   4.112   0.155  15.996 -0.5576  0.0110  0.5309
  924MPD2    C313574   4.130   0.256  15.899 -0.3936 -0.7438 -0.1449
  924MPD2    C413575   4.153   0.220  15.766 -0.2407  0.2247 -0.3549
  924MPD2    C513576   4.166   0.088  15.736  0.3520 -0.0944  0.8301
  924MPD2     H13577   4.086   0.187  16.096 -2.1808 -2.1993  0.8089
  924MPD2    H113578   4.155   0.291  15.684 -2.9494  3.1337  2.1007
  924MPD2    H213579   4.153   4.616  15.818 -4.3799 -0.3182  0.2183
  924MPD2    H313580   4.183   0.063  15.632 -0.8870 -0.6144  0.7576
  924MPD2     N13581   4.105   0.394  15.914  0.1086  0.2609 -0.5107
  924MPD2    H513582   4.126   0.461  15.840 -0.3478 -0.4562 -1.2985
  924MPD2    N113583   4.099   4.656  16.054  0.3281 -0.8442  0.0745
  924MPD2    H713584   4.078   4.565  16.014  1.0627 -0.4244 -1.2635
  925MPD2     C13585   3.411   2.706  14.974 -1.2259  0.6381  0.2663
  925MPD2    C113586   3.272   2.714  14.981  0.7883 -0.1214  0.2185
  925MPD2    C213587   3.211   2.728  15.099 -0.6272 -0.2796 -0.0527
  925MPD2    C313588   3.297   2.725  15.212  1.3857  0.4445 -0.0475
  925MPD2    C413589   3.432   2.713  15.208  1.0013 -0.3296 -0.4632
  925MPD2    C513590   3.483   2.706  15.084  0.3556  0.2509  0.4039
  925MPD2     H13591   3.103   2.736  15.103 -0.5488  0.9125 -0.3101
  925MPD2    H113592   3.499   2.719  15.293 -1.3530 -0.2596  1.3750
  925MPD2    H213593   3.463   2.701  14.879 -0.5491  2.2466  0.5404
  925MPD2    H313594   3.590   2.692  15.080 -0.0005 -2.0223 -0.8588
  925MPD2     N13595   3.254   2.737  15.345  0.1745 -0.2970 -0.8135
  925MPD2    H513596   3.327   2.730  15.415 -1.3348 -1.6542  0.6310
  925MPD2    N113597   3.197   2.699  14.866 -0.3489 -0.1811 -0.6071
  925MPD2    H713598   3.239   2.699  14.773  0.3346 -1.0434 -0.3045
  926MPD2     C13599   1.135   1.285  13.571  0.3101 -0.4524  1.2433
  926MPD2    C113600   1.250   1.350  13.600 -0.7248  0.7752 -0.2651
  926MPD2    C213601   1.320   1.408  13.489  0.5665 -0.6826 -0.3662
  926MPD2    C313602   1.278   1.393  13.354  0.2304  0.1970 -0.4134
  926MPD2    C413603   1.172   1.310  13.332  0.1322 -0.4481 -0.4418
  926MPD2    C513604   1.101   1.264  13.441 -0.2681  0.7071 -0.0624
  926MPD2     H13605   1.405   1.473  13.502 -0.0306  0.1382 -0.5288
  926MPD2    H113606   1.129   1.304  13.233 -1.3931 -0.2438  0.2091
  926MPD2    H213607   1.065   1.250  13.647 -3.2473 -0.1457 -1.8569
  926MPD2    H313608   1.009   1.208  13.426 -0.2506  0.8879 -0.8844
  926MPD2     N13609   1.337   1.476  13.254  0.2086 -0.0825 -0.5915
  926MPD2    H513610   1.420   1.530  13.278  1.1410 -2.3164  1.1985
  926MPD2    N113611   1.299   1.371  13.735 -0.0481 -0.4048 -0.0075
  926MPD2    H713612   1.384   1.425  13.749 -1.1634  0.8347  1.9787
  927MPD2     C13613   1.502   3.431  17.723 -0.3723 -0.2511  0.0693
  927MPD2    C113614   1.414   3.473  17.631  0.2606 -0.4995  0.0479
  927MPD2    C213615   1.452   3.491  17.500  0.4030 -0.4422 -1.1165
  927MPD2    C313616   1.573   3.455  17.454  0.7236 -0.1133 -0.7377
  927MPD2    C413617   1.658   3.401  17.546  0.0073  0.4743 -0.2684
  927MPD2    C513618   1.619   3.376  17.673 -0.3691 -0.5416 -0.0792
  927MPD2     H13619   1.381   3.529  17.427 -1.4852  0.6355  1.2951
  927MPD2    H113620   1.754   3.358  17.521 -0.0949 -2.3706  4.3657
  927MPD2    H213621   1.476   3.421   0.089  1.7807  0.0337  0.6309
  927MPD2    H313622   1.696   3.324  17.729 -1.0688 -0.4239  0.9897
  927MPD2     N13623   1.604   3.468  17.313  0.6706 -0.3074 -0.1308
  927MPD2    H513624   1.538   3.520  17.257 -0.2217 -1.4945 -0.1762
  927MPD2    N113625   1.282   3.484  17.674 -0.7147  0.2415  0.7355
  927MPD2    H713626   1.273   3.462   0.034 -1.4968 -2.2185  0.0965
  928MPD2     C13627   3.821   1.932   1.338 -0.3740  0.0264  0.3869
  928MPD2    C113628   3.854   2.059   1.298  0.2545 -0.1299 -0.4515
  928MPD2    C213629   3.954   2.084   1.205  0.4791  0.3831 -0.2173
  928MPD2    C313630   4.020   1.978   1.143 -0.1630 -0.9388 -0.6279
  928MPD2    C413631   3.996   1.851   1.191  0.1756 -0.1584 -0.1048
  928MPD2    C513632   3.894   1.829   1.281  1.5997 -0.1271 -0.4822
  928MPD2     H13633   3.990   2.186   1.195 -0.7535  0.9298  0.8447
  928MPD2    H113634   4.043   1.768   1.140  0.1206 -0.9898  1.1909
  928MPD2    H213635   3.746   1.908   1.413  1.6944 -1.2107  2.0441
  928MPD2    H313636   3.856   1.730   1.301  1.3270  0.3649  1.4641
  928MPD2     N13637   4.117   2.011   1.050 -0.1544 -0.2785  0.4385
  928MPD2    H513638   4.123   2.110   1.028 -0.3569 -0.7359 -1.6672
  928MPD2    N113639   3.775   2.162   1.352 -0.0563  0.3142  0.4963
  928MPD2    H713640   3.709   2.143   1.426  2.1900  0.5540  2.5664
  929MPD2     C13641   4.560   1.789  10.423  0.1313  0.7298  0.6461
  929MPD2    C113642   4.472   1.684  10.440 -0.0343  0.4477 -0.1820
  929MPD2    C213643   4.370   1.667  10.344 -0.2043 -0.0315 -1.1716
  929MPD2    C313644   4.344   1.778  10.254 -0.8968  0.7517 -0.6066
  929MPD2    C413645   4.431   1.882  10.246 -0.6715 -0.0263  0.2277
  929MPD2    C513646   4.540   1.881  10.326  0.1858 -0.3340  0.5384
  929MPD2     H13647   4.294   1.591  10.357 -0.8858  0.7741 -0.3803
  929MPD2    H113648   4.414   1.967  10.181 -0.4840  0.1747  0.4422
  929MPD2    H213649   4.648   1.799  10.486  2.3803  0.4335 -2.4037
  929MPD2    H313650   4.608   1.964  10.315 -0.9533  0.4169 -0.9006
  929MPD2     N13651   4.228   1.794  10.172 -0.8607 -0.0437  0.5194
  929MPD2    H513652   4.221   1.879  10.117 -0.7973 -1.4740 -1.6988
  929MPD2    N113653   4.497   1.597  10.546  0.3391 -0.1102 -0.1810
  929MPD2    H713654   4.568   1.626  10.613  0.3414 -0.1862 -0.1498
  930MPD2     C13655   0.923   4.267  13.991  0.0167 -0.7305 -0.7743
  930MPD2    C113656   1.061   4.279  13.970  1.0392  0.3481 -0.2482
  930MPD2    C213657   1.115   4.214  13.859 -0.2761 -1.0084 -0.6759
  930MPD2    C313658   1.030   4.145  13.768  0.5868 -0.5273  0.8053
  930MPD2    C413659   0.893   4.138  13.794  0.0526 -0.1732  0.9069
  930MPD2    C513660   0.845   4.197  13.907  0.0714 -0.4361 -0.0401
  930MPD2     H13661   1.222   4.220  13.842 -0.5580  0.8364 -1.8003
  930MPD2    H113662   0.826   4.095  13.720  2.3267  1.3893 -2.0407
  930MPD2    H213663   0.870   4.314  14.074  2.7566 -0.5351  0.8725
  930MPD2    H313664   0.739   4.198  13.928 -0.2377 -0.2091 -1.6754
  930MPD2     N13665   1.078   4.095  13.645  0.1809  0.2789  0.1570
  930MPD2    H513666   1.014   4.082  13.567 -0.5779 -2.4377  1.2391
  930MPD2    N113667   1.124   4.370  14.056  0.3064 -0.3299 -0.7019
  930MPD2    H713668   1.074   4.437  14.114  0.1595 -1.9300  0.9767
  931MPD2     C13669   1.160   2.951   0.190  0.3517 -0.9387 -0.1227
  931MPD2    C113670   1.138   3.064   0.262 -0.1867  0.0781 -0.0739
  931MPD2    C213671   1.159   3.072   0.400  0.4285  0.2053 -0.1193
  931MPD2    C313672   1.195   2.954   0.465 -0.0706  0.1765 -0.0691
  931MPD2    C413673   1.203   2.840   0.387  0.0828  0.6024  0.1910
  931MPD2    C513674   1.189   2.835   0.250  0.4677 -0.2408  0.6106
  931MPD2     H13675   1.134   3.160   0.458 -0.9162 -0.6532  0.6024
  931MPD2    H113676   1.233   2.750   0.439  0.3358  2.3104  2.9840
  931MPD2    H213677   1.162   2.943   0.082  1.7635  0.4674 -0.2022
  931MPD2    H313678   1.220   2.743   0.202 -0.7676 -1.8819  2.9546
  931MPD2     N13679   1.208   2.941   0.608  0.3162  0.6329 -0.2897
  931MPD2    H513680   1.245   2.852   0.638  2.5315  1.9004  0.7780
  931MPD2    N113681   1.087   3.182   0.194 -0.1762  0.4747 -0.3235
  931MPD2    H713682   1.091   3.171   0.093 -1.0518 -0.5084 -0.2429
  932MPD2     C13683   3.684   2.150  11.393 -0.2674  0.1082 -0.8260
  932MPD2    C113684   3.793   2.235  11.412  0.3115  0.0760 -0.8251
  932MPD2    C213685   3.905   2.190  11.477 -0.0167  0.3616 -0.3344
  932MPD2    C313686   3.910   2.073  11.536  0.1220 -0.0570  0.8042
  932MPD2    C413687   3.793   1.989  11.527  0.0247 -0.5028  0.1113
  932MPD2    C513688   3.687   2.025  11.444  0.0249  0.6595  0.4014
  932MPD2     H13689   3.990   2.257  11.466  1.0007 -0.9703 -0.5020
  932MPD2    H113690   3.800   1.889  11.567 -4.3285 -0.7658  0.3030
  932MPD2    H213691   3.596   2.175  11.336 -0.4229  0.0057 -0.6292
  932MPD2    H313692   3.607   1.953  11.427  1.0641 -0.5871  0.7623
  932MPD2     N13693   4.016   2.023  11.611  0.4270 -0.0020 -0.2200
  932MPD2    H513694   4.006   1.934  11.658  1.0659  0.9543  1.7038
  932MPD2    N113695   3.788   2.369  11.371  0.5413  0.5388  0.0704
  932MPD2    H713696   3.860   2.429  11.408  0.8199 -0.5978  1.3660
  933MPD2     C13697   3.151   2.830   1.323  0.4359  0.6648  0.1242
  933MPD2    C113698   3.240   2.770   1.240 -0.5126 -0.0858  0.5160
  933MPD2    C213699   3.236   2.780   1.101  0.1963  0.8363 -0.1057
  933MPD2    C313700   3.133   2.863   1.049 -0.0452 -0.3550 -0.0069
  933MPD2    C413701   3.036   2.915   1.133 -1.1116 -0.3470 -0.0052
  933MPD2    C513702   3.052   2.903   1.265 -0.0562  0.0109 -0.3536
  933MPD2     H13703   3.311   2.743   1.033 -0.8204 -0.3273 -0.5976
  933MPD2    H113704   2.963   2.980   1.087 -1.5287  1.1196  2.7688
  933MPD2    H213705   3.161   2.818   1.430 -1.4614  1.0168  0.3406
  933MPD2    H313706   2.979   2.950   1.330 -1.8729 -2.5567 -0.5188
  933MPD2     N13707   3.131   2.879   0.909 -0.5140  0.5636  0.8260
  933MPD2    H513708   3.208   2.843   0.854 -2.5510 -2.7973  0.1597
  933MPD2    N113709   3.340   2.691   1.306 -0.1643 -0.5643  0.1748
  933MPD2    H713710   3.334   2.685   1.408 -1.6171 -0.1044  0.1226
  934MPD2     C13711   0.300   4.277   2.009  0.1663 -0.0292  0.4776
  934MPD2    C113712   0.359   4.168   1.956 -0.5948  0.0036  0.7329
  934MPD2    C213713   0.309   4.113   1.836  0.0221  0.6118  0.8779
  934MPD2    C313714   0.191   4.160   1.784 -0.7026  0.8280  0.4594
  934MPD2    C413715   0.127   4.263   1.848  0.1640  0.3797  0.2181
  934MPD2    C513716   0.184   4.329   1.948 -0.7813 -0.1676 -0.6548
  934MPD2     H13717   0.358   4.028   1.790  1.5012  0.4625  2.6905
  934MPD2    H113718   0.031   4.305   1.820  0.5342  0.4595 -0.9166
  934MPD2    H213719   0.334   4.325   2.100 -0.0181  2.0209 -0.5355
  934MPD2    H313720   0.141   4.417   1.994  1.1260  0.9594 -1.0573
  934MPD2     N13721   0.127   4.106   1.675  0.5830 -0.0399 -0.2997
  934MPD2    H513722   0.039   4.149   1.651 -0.7592 -1.6526  1.7458
  934MPD2    N113723   0.480   4.111   2.010 -0.0703  0.5035 -0.4683
  934MPD2    H713724   0.526   4.031   1.968  0.2213 -0.7313  2.1759
  935MPD2     C13725   0.249   3.249   1.106  0.7279 -0.2225  0.1787
  935MPD2    C113726   0.113   3.277   1.133  0.2836  0.2762 -0.1396
  935MPD2    C213727   0.089   3.396   1.184  0.0752  0.0424  0.2177
  935MPD2    C313728   0.189   3.494   1.208 -0.2208  0.3190 -0.4337
  935MPD2    C413729   0.320   3.458   1.200  0.5220 -0.3053  0.3844
  935MPD2    C513730   0.349   3.340   1.138  0.9099 -0.1767 -0.0659
  935MPD2     H13731   4.718   3.413   1.199 -0.2625 -2.1275  0.2063
  935MPD2    H113732   0.401   3.521   1.235 -0.7482  1.1489  0.7407
  935MPD2    H213733   0.280   3.152   1.069  1.3276  0.6563 -1.6307
  935MPD2    H313734   0.451   3.304   1.142  0.8757  0.0458  2.5269
  935MPD2     N13735   0.151   3.611   1.275 -0.5046 -0.2901 -0.2964
  935MPD2    H513736   0.225   3.661   1.324 -1.5562 -0.1709  1.1753
  935MPD2    N113737   0.008   3.186   1.115 -0.0579  0.2730  0.3490
  935MPD2    H713738   4.651   3.215   1.146 -1.0195  1.5943 -3.8600
  936MPD2     C13739   3.857   1.418  12.518  0.0950 -0.2770  0.3752
  936MPD2    C113740   3.886   1.366  12.642  0.4671 -0.4848  0.6668
  936MPD2    C213741   4.009   1.396  12.703 -0.1811  0.3890 -0.0937
  936MPD2    C313742   4.100   1.479  12.636 -0.5119  0.0688 -0.2636
  936MPD2    C413743   4.062   1.547  12.524  0.4048 -0.1204 -0.1072
  936MPD2    C513744   3.938   1.512  12.468  0.7281 -0.6192 -0.4137
  936MPD2     H13745   4.041   1.353  12.797  2.2656 -1.1861 -1.6452
  936MPD2    H113746   4.132   1.608  12.468  2.1024  0.6203  2.8484
  936MPD2    H213747   3.770   1.387  12.462 -1.4102  0.9743  1.9876
  936MPD2    H313748   3.912   1.558  12.373 -1.3290 -0.8781  0.0215
  936MPD2     N13749   4.230   1.509  12.681  0.0032 -0.8947  0.4412
  936MPD2    H513750   4.281   1.580  12.631  0.0226  0.0614  1.8220
  936MPD2    N113751   3.824   1.243  12.683  0.3355 -0.6701 -0.9642
  936MPD2    H713752   3.849   1.200  12.771 -0.1211 -0.2610 -0.6411
  937MPD2     C13753   1.500   2.772  11.729  0.0123  0.3173 -0.0302
  937MPD2    C113754   1.602   2.864  11.718  0.2934 -0.0579 -1.2688
  937MPD2    C213755   1.674   2.857  11.607 -0.1833  0.3419 -0.5922
  937MPD2    C313756   1.649   2.766  11.505 -0.3427 -0.6967 -0.5555
  937MPD2    C413757   1.571   2.657  11.532 -0.7037 -0.1943 -0.0184
  937MPD2    C513758   1.493   2.670  11.644  0.5494  0.6438  0.7164
  937MPD2     H13759   1.747   2.936  11.588  2.0424 -1.1571  1.6612
  937MPD2    H113760   1.556   2.584  11.453 -1.7395 -0.3960  0.3715
  937MPD2    H213761   1.422   2.778  11.804  1.0127  0.5727  0.9844
  937MPD2    H313762   1.407   2.607  11.662 -1.0111  1.9434 -2.1496
  937MPD2     N13763   1.721   2.779  11.385  0.2886  0.3635 -0.1191
  937MPD2    H513764   1.774   2.866  11.386 -2.2378  1.8994  0.7241
  937MPD2    N113765   1.619   2.976  11.793 -0.7141  0.3417 -0.0386
  937MPD2    H713766   1.687   3.043  11.759 -0.7708 -0.3340 -1.4753
  938MPD2     C13767   4.004   4.013   0.964 -0.2063  0.4931  0.2696
  938MPD2    C113768   4.083   3.909   1.012 -0.1495  0.0571  0.0609
  938MPD2    C213769   4.055   3.864   1.138  0.3026 -0.3286  0.4091
  938MPD2    C313770   3.943   3.912   1.208  0.2269  0.0617  0.7314
  938MPD2    C413771   3.863   4.009   1.149  0.1645  0.6058  0.2514
  938MPD2    C513772   3.901   4.066   1.034 -0.2110  0.0788 -0.1841
  938MPD2     H13773   4.123   3.788   1.176  2.4611  0.0465 -2.7431
  938MPD2    H113774   3.772   4.039   1.199 -0.0857  1.4167 -0.6882
  938MPD2    H213775   4.019   4.059   0.867 -1.4860  2.7825  1.1728
  938MPD2    H313776   3.844   4.153   1.002  2.2584  1.8671  0.2224
  938MPD2     N13777   3.909   3.872   1.341  0.5486  0.7579  0.6271
  938MPD2    H513778   3.832   3.918   1.388  2.3523  2.4003  1.9492
  938MPD2    N113779   4.185   3.851   0.935 -0.3874  0.0216  0.3876
  938MPD2    H713780   4.251   3.787   0.976  0.1166 -0.5322 -1.2957
  939MPD2     C13781   0.526   0.011   1.469 -0.5266  0.0708 -0.2284
  939MPD2    C113782   0.468   0.119   1.419 -0.2549 -0.0403 -0.2004
  939MPD2    C213783   0.480   0.141   1.284  1.1408  0.4199  0.1901
  939MPD2    C313784   0.547   0.056   1.201 -0.3208 -0.1478 -0.3336
  939MPD2    C413785   0.609   4.682   1.256  0.5908  0.6662  0.2828
  939MPD2    C513786   0.591   4.658   1.387  0.0949 -0.7916  0.0955
  939MPD2     H13787   0.436   0.232   1.243  2.3829 -0.9979 -4.2948
  939MPD2    H113788   0.665   4.613   1.194  1.6759  3.5346 -1.9274
  939MPD2    H213789   0.512   4.707   1.570 -1.1714 -2.0259 -1.1266
  939MPD2    H313790   0.635   4.570   1.433 -0.7280 -2.2368 -1.8824
  939MPD2     N13791   0.550   0.084   1.060  0.6016  0.4047  0.1445
  939MPD2    H513792   0.509   0.173   1.032 -1.2817 -0.3006  0.6366
  939MPD2    N113793   0.394   0.199   1.511 -0.4471 -0.0641 -0.0603
  939MPD2    H713794   0.391   0.168   1.607 -1.1724  2.0909  0.6174
  940MPD2     C13795   0.169   0.438  13.214  0.5890 -0.3280  0.2438
  940MPD2    C113796   0.062   0.522  13.222  0.1788  0.4943  0.6364
  940MPD2    C213797   0.030   0.585  13.101  0.6824 -0.0856  0.1376
  940MPD2    C313798   0.092   0.549  12.980  0.4643 -0.4493  0.0220
  940MPD2    C413799   0.205   0.473  12.983  0.3449 -0.4528 -0.4680
  940MPD2    C513800   0.243   0.415  13.101  0.4668  0.2901 -0.3364
  940MPD2     H13801   4.686   0.658  13.112  0.5503 -0.3888  1.2685
  940MPD2    H113802   0.251   0.449  12.887 -1.2788  2.1058 -1.8827
  940MPD2    H213803   0.198   0.364  13.287  0.5111 -0.0183  0.5906
  940MPD2    H313804   0.319   0.337  13.104  1.1807  0.9583 -1.1383
  940MPD2     N13805   0.050   0.592  12.855  0.0319 -0.5711  0.1147
  940MPD2    H513806   0.114   0.601  12.777  1.2732 -1.4364  1.0199
  940MPD2    N113807   4.714   0.542  13.331 -0.0843 -0.7211 -0.2201
  940MPD2    H713808   4.640   0.607  13.305  0.7396 -0.4508 -1.8751
  941MPD2     C13809   3.391   0.509   9.664 -0.4577 -0.2131  0.6245
  941MPD2    C113810   3.485   0.428   9.729 -0.4734  0.8054  0.2022
  941MPD2    C213811   3.438   0.310   9.780  0.0949 -0.6938  0.0212
  941MPD2    C313812   3.307   0.270   9.762 -0.2426 -0.5969  0.2220
  941MPD2    C413813   3.216   0.353   9.697  0.0435  0.0155  0.7224
  941MPD2    C513814   3.262   0.468   9.649 -0.6260  0.1801 -0.5400
  941MPD2     H13815   3.511   0.243   9.824  2.2964  1.4185 -0.4184
  941MPD2    H113816   3.112   0.325   9.688 -0.2221  0.9272  0.9659
  941MPD2    H213817   3.412   0.609   9.628 -1.3034  0.1158  1.0509
  941MPD2    H313818   3.205   0.548   9.603 -0.8862 -0.9155 -2.1058
  941MPD2     N13819   3.252   0.139   9.800  0.9064  0.2882 -0.4152
  941MPD2    H513820   3.156   0.120   9.771  0.8836  0.9466 -0.7566
  941MPD2    N113821   3.618   0.468   9.749 -0.2800 -0.1720  0.0259
  941MPD2    H713822   3.687   0.407   9.792 -0.3263 -1.6885 -2.0265
  942MPD2     C13823   3.327   2.519   9.409 -0.1479 -0.0452 -0.8590
  942MPD2    C113824   3.390   2.405   9.357  0.2161 -0.0825  0.4587
  942MPD2    C213825   3.529   2.417   9.337 -0.4464 -0.4619 -0.8415
  942MPD2    C313826   3.595   2.539   9.339  0.2265 -0.0948 -0.1275
  942MPD2    C413827   3.524   2.643   9.394 -0.1672  0.5100  0.8806
  942MPD2    C513828   3.393   2.635   9.428  0.3130  0.6616 -0.3990
  942MPD2     H13829   3.576   2.330   9.293 -1.5042 -1.5958  0.2766
  942MPD2    H113830   3.566   2.743   9.406 -0.5497  0.9386 -1.4507
  942MPD2    H213831   3.221   2.514   9.431 -0.5004  0.8093 -2.3555
  942MPD2    H313832   3.341   2.723   9.464 -0.4201  0.2724 -0.4914
  942MPD2     N13833   3.724   2.567   9.295 -0.1043  0.3729 -0.1894
  942MPD2    H513834   3.747   2.666   9.295  4.6335 -0.7147 -0.0799
  942MPD2    N113835   3.332   2.283   9.323 -0.7460 -0.0658 -0.3862
  942MPD2    H713836   3.400   2.208   9.318 -1.7497 -1.0439  0.7122
  943MPD2     C13837   2.406   0.842  10.251  0.7495  0.1450 -0.5523
  943MPD2    C113838   2.429   0.739  10.342 -0.0681  0.0387 -0.3446
  943MPD2    C213839   2.407   0.757  10.479  0.4466 -0.7329  0.6740
  943MPD2    C313840   2.364   0.881  10.525  0.5802 -0.1377 -0.1626
  943MPD2    C413841   2.333   0.981  10.434 -0.2439 -1.0641 -0.7686
  943MPD2    C513842   2.360   0.960  10.298 -0.2277 -0.2984  0.5119
  943MPD2     H13843   2.429   0.675  10.546  2.1708 -0.7062  0.1507
  943MPD2    H113844   2.304   1.082  10.463 -0.7981 -0.1963 -4.2422
  943MPD2    H213845   2.411   0.819  10.146 -0.6356  2.3871 -1.1100
  943MPD2    H313846   2.321   1.035  10.230 -0.6169 -1.0756 -0.1261
  943MPD2     N13847   2.340   0.905  10.663 -0.4752  0.4584  0.2798
  943MPD2    H513848   2.287   0.990  10.679  0.3987  1.2042 -0.7772
  943MPD2    N113849   2.469   0.615  10.286  0.0186 -0.1435 -0.1903
  943MPD2    H713850   2.502   0.608  10.190 -0.8168  0.5313 -0.5174
  944MPD2     C13851   1.995   4.143  10.784 -0.7463  0.7104 -0.0884
  944MPD2    C113852   2.065   4.074  10.878  0.4749  0.4300  0.7301
  944MPD2    C213853   2.053   4.113  11.015  0.3169 -0.5228 -0.2721
  944MPD2    C313854   1.969   4.213  11.049  0.3437 -0.3457  0.1579
  944MPD2    C413855   1.901   4.283  10.951  0.2426  0.1008 -0.5350
  944MPD2    C513856   1.914   4.244  10.820 -0.8895  0.5258  0.4172
  944MPD2     H13857   2.118   4.075  11.094  1.6568  0.1241 -1.0575
  944MPD2    H113858   1.845   4.373  10.974  0.9005  0.4240 -0.1864
  944MPD2    H213859   2.002   4.129  10.677 -1.1528 -1.8345  0.2226
  944MPD2    H313860   1.859   4.301  10.746  2.7385  1.7530 -1.3212
  944MPD2     N13861   1.963   4.244  11.185 -0.1845 -0.1939 -0.4053
  944MPD2    H513862   2.028   4.189  11.241 -0.7213 -0.7325 -0.3066
  944MPD2    N113863   2.149   3.974  10.830  0.0703 -0.3866 -0.9081
  944MPD2    H713864   2.159   3.958  10.730 -0.0932  0.1764 -1.0150
    1TMC1    C113865   4.220   0.067  14.464 -0.4514 -0.3572 -0.2601
    1TMC1    C213866   4.140   4.730  14.546  0.4597 -0.1135  0.1914
    1TMC1    C313867   4.062   4.633  14.486 -1.0228  0.5476 -0.6418
    1TMC1    C413868   4.224   0.064  14.326  0.0137 -0.3051  0.3359
    1TMC1    C513869   4.142   4.701  14.271  0.7285 -0.1350  0.6801
    1TMC1    C613870   4.072   4.609  14.350 -0.0482  0.6193 -0.0384
    1TMC1     C13871   4.292   0.164  14.539 -1.3249  0.9406  0.0547
    1TMC1     O13872   4.277   0.157  14.661 -0.4160 -0.1203  0.2468
    1TMC1     H13873   4.142   4.730  14.655  1.4438  3.3046  0.1901
    1TMC1    H113874   4.279   0.129  14.259 -2.4421  0.6564 -0.7252
    1TMC1    H213875   4.024   4.525  14.301  1.1587 -0.6037  0.8403
    1TMC1    C713876   4.121   4.712  14.129  0.4317 -0.0829 -0.2028
    1TMC1    C813877   4.032   4.517  14.566 -0.0852  0.6745  0.2348
    1TMC1    O113878   4.209   4.709  14.045  0.4221 -0.3427  0.2651
    1TMC1    O213879   4.079   4.490  14.674  0.2864  0.0314  0.0390
    1TMC1    O313880   3.996   4.672  14.119  0.1125 -0.2773 -0.3152
    1TMC1    H313881   3.947   4.703  14.198  2.2149  0.6597  0.6282
    1TMC1    O513882   3.917   4.452  14.515  0.4622 -0.3726 -1.0342
    1TMC1    H513883   3.866   4.508  14.454  0.2547  1.8159  1.1498
    2MPD2     C13884   4.635   0.539  14.579  0.1304  0.2252 -0.2032
    2MPD2    C113885   4.647   0.480  14.456 -0.0284  0.1441 -0.2796
    2MPD2    C213886   4.566   0.375  14.423 -0.3241  0.2247 -1.0118
    2MPD2    C313887   4.466   0.336  14.509  0.0132 -0.2187  0.0915
    2MPD2    C413888   4.455   0.392  14.634 -0.0219 -0.4309  0.4319
    2MPD2    C513889   4.542   0.495  14.668 -0.6493 -0.1251  0.3594
    2MPD2     H13890   4.581   0.319  14.331  0.8580  0.4675 -0.9747
    2MPD2    H113891   4.376   0.363  14.703  0.8404  0.6933  1.8898
    2MPD2    H213892   4.691   0.625  14.612  0.5207  0.4111 -1.3547
    2MPD2    H313893   4.536   0.545  14.764  0.4407 -0.5766  0.6596
    2MPD2     N13894   4.386   0.231  14.460 -0.6159  0.0616 -0.1659
    2MPD2    H513895   4.408   0.196  14.367 -1.4760  0.4267 -0.5080
    2MPD2    N113896   0.003   0.538  14.366 -0.0375  0.4231 -0.6896
    2MPD2    H713897   0.041   0.630  14.390  2.0067 -0.5706 -0.1319
    3TMC2    C113898   0.146   0.583  14.179  0.3437  0.6705  0.6977
    3TMC2    C213899   0.210   0.686  14.245  0.2090 -0.5677 -0.8317
    3TMC2    C313900   0.302   0.766  14.170  0.8101  0.0242 -0.2227
    3TMC2    C413901   0.169   0.552  14.043  0.4360  0.0730  0.3115
    3TMC2    C513902   0.254   0.639  13.982 -0.2271  0.6178  0.2618
    3TMC2    C613903   0.321   0.742  14.043  0.2586 -0.4172 -0.0926
    3TMC2     C13904   0.058   0.485  14.252  0.1622  0.2213  0.0809
    3TMC2     O13905   0.048   0.377  14.195 -0.9229 -0.0283 -0.6692
    3TMC2     H13906   0.183   0.716  14.345  0.5519  0.0973 -0.9379
    3TMC2    H113907   0.117   0.471  13.994 -2.7333  1.3698  1.5552
    3TMC2    H213908   0.382   0.813  13.989  0.8868 -0.2125  0.8854
    3TMC2    C713909   0.252   0.626  13.839 -0.7236 -0.2313  0.0628
    3TMC2    C813910   0.376   0.876  14.234 -0.0454  0.3517 -0.1550
    3TMC2    O113911   0.207   0.521  13.793  0.9317  0.0621  0.1156
    3TMC2    O213912   0.485   0.907  14.192 -0.1296 -0.1482  0.3378
    3TMC2    O513913   0.281   0.946  14.304  0.1423  0.6295 -0.0018
    3TMC2    H513914   0.195   0.901  14.311 -0.2748  1.1333 -1.6922
    4TMC2    C113915   0.591   1.473  13.389 -0.1467 -1.4712 -0.4762
    4TMC2    C213916   0.694   1.429  13.307 -0.1061  0.5185 -0.2944
    4TMC2    C313917   0.704   1.292  13.287  0.6182 -0.2574  0.3087
    4TMC2    C413918   0.505   1.379  13.451  0.7332  0.5279  0.7121
    4TMC2    C513919   0.525   1.250  13.423 -0.5319 -0.1411 -0.6842
    4TMC2    C613920   0.631   1.205  13.349 -0.1068 -0.7001  0.0132
    4TMC2     C13921   0.532   1.599  13.362 -0.0166  0.3252  0.2970
    4TMC2     O13922   0.610   1.679  13.306 -0.3105 -0.0997  0.1858
    4TMC2     H13923   0.772   1.493  13.267 -2.1867  2.8150 -0.6627
    4TMC2    H113924   0.431   1.421  13.518 -0.2985  0.0752 -0.1310
    4TMC2    H213925   0.649   1.099  13.336  1.0848 -0.7196  1.7699
    4TMC2    C713926   0.451   1.155  13.497 -0.1656  0.1413 -0.4555
    4TMC2    C813927   0.806   1.253  13.198 -0.3844 -0.1385  0.0222
    4TMC2    O113928   0.403   1.192  13.603 -0.2367  0.0705  0.3366
    4TMC2    O213929   0.883   1.159  13.216 -0.0229  0.3025 -0.8454
    4TMC2    O513930   0.784   1.324  13.082  0.0897 -0.5217 -0.5620
    4TMC2    H513931   0.692   1.358  13.092  0.3550 -0.1568  0.5802
    5MPD2     C13932   0.143   1.938  13.357  0.1917 -0.6017 -0.8107
    5MPD2    C113933   0.094   1.807  13.358 -0.0358  0.0060 -0.8871
    5MPD2    C213934   0.177   1.697  13.356  0.3838  0.0004  0.6380
    5MPD2    C313935   0.317   1.716  13.375  0.2843  0.1347 -0.0135
    5MPD2    C413936   0.370   1.847  13.368 -0.1416 -1.1343 -0.5433
    5MPD2    C513937   0.277   1.945  13.351 -0.3009  0.0616 -0.8203
    5MPD2     H13938   0.132   1.600  13.372  3.4148 -1.2494  1.5636
    5MPD2    H113939   0.473   1.880  13.367 -0.3536 -0.4722 -0.1499
    5MPD2    H213940   0.079   2.024  13.345 -0.7563 -1.0681  1.0235
    5MPD2    H313941   0.322   2.042  13.336 -0.4671  0.1183 -0.9394
    5MPD2     N13942   0.396   1.600  13.382 -0.0093  0.2630  0.1882
    5MPD2    H513943   0.344   1.514  13.367  1.7312 -0.5893 -0.9501
    5MPD2    N113944   4.688   1.800  13.360  0.2233 -0.3656 -0.0833
    5MPD2    H713945   4.630   1.879  13.386  1.4126  0.0417  1.3240
    6MPD1     C13946   3.545   2.616  12.227 -0.1959  0.4156  0.2012
    6MPD1    C113947   3.517   2.644  12.358 -1.1311  0.0810  0.5876
    6MPD1    C213948   3.619   2.650  12.457 -0.5486  0.2493  0.0369
    6MPD1    C313949   3.742   2.603  12.418  0.7364 -0.0117 -0.6446
    6MPD1    C413950   3.766   2.565  12.291  0.3621  0.2139 -0.1027
    6MPD1    C513951   3.672   2.581  12.196 -0.3456 -0.4427  0.1219
    6MPD1     H13952   3.596   2.684  12.557 -0.9074  0.9156 -0.2680
    6MPD1    H113953   3.865   2.545  12.252  0.3778  0.4662 -0.1946
    6MPD1    H213954   3.476   2.632  12.145 -0.0875 -0.1812 -0.0058
    6MPD1    H313955   3.701   2.559  12.094 -4.0059  1.4376 -1.3311
    6MPD1     N13956   3.854   2.592  12.506  0.2629 -0.3523  0.4756
    6MPD1    H513957   3.945   2.574  12.465  0.8412  1.2134  1.0720
    6MPD1    N113958   3.393   2.706  12.393 -0.4321 -0.0766 -0.1392
    6MPD1    H613959   3.321   2.676  12.327 -0.3272  0.5371 -0.5333
    6MPD1    H713960   3.373   2.692  12.492  0.9396  0.2335  0.1910
    7MPD2     C13961   4.048   2.403  13.322  0.1694  0.1725  0.4901
    7MPD2    C113962   4.101   2.356  13.206 -0.0262  0.3285 -0.2154
    7MPD2    C213963   4.162   2.232  13.212 -0.4206  0.0619  0.6225
    7MPD2    C313964   4.137   2.152  13.324  0.3658  0.4002 -0.0836
    7MPD2    C413965   4.073   2.205  13.428 -0.3865 -0.3429 -0.5704
    7MPD2    C513966   4.038   2.335  13.436 -0.2061  0.3031 -0.4774
    7MPD2     H13967   4.208   2.190  13.123  0.3817  0.8347  0.6628
    7MPD2    H113968   4.074   2.149  13.521 -0.3697 -1.2302 -1.1132
    7MPD2    H213969   4.003   2.502  13.327  2.1765  1.1150 -0.2741
    7MPD2    H313970   3.996   2.386  13.522  0.8797 -0.5539  0.5630
    7MPD2     N13971   4.211   2.032  13.321 -0.6627 -0.0935 -0.8787
    7MPD2    H513972   4.270   2.019  13.240 -0.2395 -1.4915 -0.3345
    7MPD2    N113973   4.113   2.429  13.085 -0.4454  0.2524  0.9198
    7MPD2    H713974   4.154   2.384  13.004 -0.4912  0.1080  0.9762
    8TMC3    C113975   4.281   1.820  13.362  0.1605  0.0174 -0.0060
    8TMC3    C213976   4.408   1.779  13.390 -0.1777  0.6757 -0.2550
    8TMC3    C313977   4.481   1.720  13.292 -0.2789 -0.2017 -0.6566
    8TMC3    C413978   4.242   1.811  13.230  0.3585  0.4232  0.1707
    8TMC3    C513979   4.316   1.748  13.131 -0.5972  0.2311  0.0895
    8TMC3    C613980   4.439   1.709  13.162 -0.5103 -0.1018 -1.1128
    8TMC3     C13981   4.226   1.941  13.424  0.6311  0.1708  0.5809
    8TMC3     O13982   4.232   1.951  13.547  0.0775 -0.2345 -0.1478
    8TMC3     H13983   4.445   1.801  13.489 -2.2390 -0.6860  0.8224
    8TMC3    H113984   4.139   1.838  13.210  0.5029 -0.0562 -1.2546
    8TMC3    H213985   4.504   1.647  13.103 -0.1177 -1.1535  0.4296
    8TMC3    C713986   4.285   1.798  12.999  0.0599  0.3313 -0.2291
    8TMC3    C813987   4.618   1.688  13.314 -0.6469  0.2829  0.1568
    8TMC3    O113988   4.167   1.825  12.980  0.4386 -0.5108  0.3904
    8TMC3    O213989   4.669   1.592  13.256 -0.7725 -0.2579 -0.4960
    9TMC3    C113990   3.977   2.588  12.716  0.0992 -0.1081 -0.3317
    9TMC3    C213991   4.077   2.520  12.645 -0.0376  0.3536  0.2802
    9TMC3    C313992   4.183   2.479  12.718  0.4965  0.7558  0.0003
    9TMC3    C413993   3.988   2.612  12.849  0.4833 -0.4285 -0.5009
    9TMC3    C513994   4.097   2.573  12.915 -0.7187 -0.3780 -0.0443
    9TMC3    C613995   4.193   2.498  12.852 -0.1789  0.4914 -0.7063
    9TMC3     C13996   3.854   2.631  12.641 -0.0763  0.1815  0.0862
    9TMC3     O13997   3.764   2.678  12.711  0.1819 -0.2265  0.1468
    9TMC3     H13998   4.081   2.492  12.540 -5.9665 -1.2563  0.4744
    9TMC3    H113999   3.913   2.662  12.910 -0.6448 -0.3787 -1.9362
    9TMC3    H214000   4.286   2.474  12.903 -0.9063  0.1051  0.4300
    9TMC3    C714001   4.076   2.556  13.057  0.3925 -0.1441 -0.0533
    9TMC3    C814002   4.258   2.372  12.657  0.2911  0.4420  0.4503
    9TMC3    O114003   4.003   2.642  13.111 -0.1852  0.8172  0.2112
    9TMC3    O214004   4.284   2.390  12.540  0.4706 -0.5043 -0.0494
   10MPD2     C14005   4.510   1.930  12.731  0.3796 -0.4626  0.1940
   10MPD2    C114006   4.399   1.925  12.820 -0.2638 -0.0334 -0.3590
   10MPD2    C214007   4.323   2.043  12.823 -0.4284  0.5502  0.0259
   10MPD2    C314008   4.342   2.156  12.739  0.0288  0.4648 -0.6560
   10MPD2    C414009   4.456   2.155  12.659 -0.1270 -0.1143 -0.3504
   10MPD2    C514010   4.535   2.043  12.668  0.6422  0.2114 -0.6210
   10MPD2     H14011   4.236   2.044  12.889  1.2319 -2.4279  2.2894
   10MPD2    H114012   4.492   2.230  12.589 -1.1206  1.2180  0.5776
   10MPD2    H214013   4.583   1.850  12.730  0.7904 -0.0587 -1.6390
   10MPD2    H314014   4.619   2.045  12.599  0.7691  0.0339 -0.4713
   10MPD2     N14015   4.250   2.262  12.740  0.9585  0.5603  0.4540
   10MPD2    H514016   4.174   2.261  12.807  0.4394 -0.3342 -0.1620
   10MPD2    N114017   4.395   1.812  12.912 -0.1486 -0.3383  0.0059
   10MPD2    H714018   4.482   1.765  12.933 -0.6291 -1.1184  0.2794
   11MPD2     C14019   0.267   0.681  13.550  0.2631 -0.6098  0.0026
   11MPD2    C114020   0.286   0.778  13.649 -0.4854  0.2049 -0.0316
   11MPD2    C214021   0.332   0.908  13.610  0.0601 -0.1508  0.5576
   11MPD2    C314022   0.358   0.928  13.474 -0.1051  0.5916  0.3832
   11MPD2    C414023   0.335   0.838  13.375 -0.3925  0.1942 -1.0857
   11MPD2    C514024   0.293   0.710  13.411  0.1085 -0.4299 -0.1658
   11MPD2     H14025   0.362   0.986  13.679 -2.3878  0.9880  0.3294
   11MPD2    H114026   0.352   0.869  13.273 -0.1731 -2.5549 -1.9009
   11MPD2    H214027   0.240   0.576  13.561 -0.3836 -0.8541 -3.7485
   11MPD2    H314028   0.298   0.633  13.336  2.0301  1.4784 -2.0009
   11MPD2     N14029   0.430   1.041  13.427 -0.2235 -0.1169 -0.1000
   11MPD2    H514030   0.450   1.043  13.327  1.7154  1.8567  0.3180
   11MPD2    N114031   0.270   0.750  13.781  0.2755  0.1217 -0.6089
   11MPD2    H714032   0.288   0.827  13.845 -1.6763  0.4139 -0.4023
    1MPD1     C14033   2.113   2.075  17.292 -1.2522 -0.5941  0.5889
    1MPD1    C114034   2.204   2.098  17.393 -0.8973  0.0850 -0.2426
    1MPD1    C214035   2.310   2.184  17.372  0.0151  0.2671  0.5133
    1MPD1    C314036   2.333   2.233  17.242 -0.4463  0.1747 -0.3155
    1MPD1    C414037   2.242   2.200  17.140 -0.0197  0.3621 -0.2425
    1MPD1    C514038   2.137   2.116  17.165  0.2760 -0.0276 -0.2211
    1MPD1     H14039   2.377   2.208  17.454  1.2390  0.5796 -0.5658
    1MPD1    H114040   2.251   2.247  17.043  1.0719 -0.4865 -0.5475
    1MPD1    H214041   2.022   2.021  17.315  0.4907 -2.6292  2.8112
    1MPD1    H314042   2.069   2.097  17.084 -0.7782 -1.1143  0.9269
    1MPD1     N14043   2.443   2.319  17.212  0.1277 -0.3760 -0.7497
    1MPD1    H514044   2.436   2.357  17.118  0.0812 -1.0720 -1.0257
    1MPD1    N114045   2.180   2.054  17.523 -0.0038 -0.7034 -0.6238
    1MPD1    H614046   2.115   1.976  17.532 -1.1334  0.2701 -0.4678
    1MPD1    H714047   2.260   2.034  17.584 -1.0101 -1.6965  0.3763
    2MPD1     C14048   3.138   3.139  17.467  0.2432 -1.0970  0.3025
    2MPD1    C114049   3.065   3.182  17.359  0.2110  1.1341  0.6337
    2MPD1    C214050   2.975   3.092  17.308 -0.0073 -0.2070  0.0811
    2MPD1    C314051   2.938   2.979  17.375  0.3653  0.8505  0.1531
    2MPD1    C414052   2.991   2.959  17.501  0.1202  0.0814 -0.8722
    2MPD1    C514053   3.100   3.028  17.541 -0.5003 -0.3835  0.4812
    2MPD1     H14054   2.932   3.096  17.209 -0.3844 -1.3489  0.2023
    2MPD1    H114055   2.964   2.873  17.562  2.6873 -0.4728 -0.5076
    2MPD1    H214056   3.227   3.191  17.501 -0.7747 -0.0063  1.2728
    2MPD1    H314057   3.162   2.990  17.622 -0.8738  1.7249  1.7824
    2MPD1     N14058   2.862   2.885  17.309  0.3472 -0.0022  0.2092
    2MPD1    H514059   2.858   2.909  17.211  1.6562 -0.1654  0.1260
    2MPD1    N114060   3.104   3.284  17.270 -0.2600  0.3058 -0.3122
    2MPD1    H614061   3.027   3.319  17.212 -1.5418 -1.4533  0.3258
    2MPD1    H714062   3.154   3.358  17.318 -0.1380  0.7307 -1.0831
    3TMC3    C114063   2.737   2.686  17.270  0.7634  0.2337  0.6069
    3TMC3    C214064   2.753   2.697  17.135  0.8289  0.2160  0.4895
    3TMC3    C314065   2.693   2.608  17.050  0.4880 -0.4577  0.0537
    3TMC3    C414066   2.671   2.579  17.322  0.7899 -0.4832  0.8244
    3TMC3    C514067   2.613   2.485  17.233  0.1447  0.1940 -0.0022
    3TMC3    C614068   2.622   2.501  17.096  0.0694  0.3687 -0.4138
    3TMC3     C14069   2.800   2.774  17.365 -0.3413  0.2516 -0.0415
    3TMC3     O14070   2.792   2.745  17.482  0.2198  0.0102  0.0287
    3TMC3     H14071   2.811   2.778  17.092  2.2136 -0.5154  0.9770
    3TMC3    H114072   2.676   2.566  17.429 -0.7000  0.1860  0.9741
    3TMC3    H214073   2.570   2.432  17.031  1.9984 -0.9828 -0.5134
    3TMC3    C714074   2.550   2.364  17.293 -0.1373 -0.1150  0.1400
    3TMC3    C814075   2.733   2.604  16.913  0.4282 -0.4824 -0.3969
    3TMC3    O114076   2.574   2.347  17.411  0.9968  0.2702 -0.4934
    3TMC3    O214077   2.673   2.519  16.852  0.0683 -0.3482  0.0758
    4MPD1     C14078   3.048   2.749  16.523 -0.0136  0.5823 -0.2376
    4MPD1    C114079   3.118   2.744  16.637  0.4044  0.9076 -0.1542
    4MPD1    C214080   3.057   2.701  16.755 -0.5038 -0.0843 -0.2534
    4MPD1    C314081   2.921   2.672  16.753 -0.0326 -0.4727 -1.4095
    4MPD1    C414082   2.853   2.667  16.635 -0.0384  0.4288  0.1135
    4MPD1    C514083   2.922   2.700  16.523  0.5423  0.0899  0.7025
    4MPD1     H14084   3.110   2.705  16.849  0.9565  1.0117 -1.1182
    4MPD1    H114085   2.748   2.641  16.629 -0.3214  1.5248  0.2971
    4MPD1    H214086   3.091   2.791  16.433  3.7299  2.5568  2.5046
    4MPD1    H314087   2.870   2.710  16.429 -0.6087 -1.1913  1.2014
    4MPD1     N14088   2.858   2.660  16.883  0.0317  0.4002  0.1640
    4MPD1    H514089   2.920   2.693  16.956  3.2280 -0.3605 -2.2018
    4MPD1    N114090   3.236   2.819  16.652 -0.4180 -0.3733 -0.4227
    4MPD1    H614091   3.299   2.802  16.574  0.6767 -0.1944  0.4406
    4MPD1    H714092   3.291   2.803  16.736 -0.0447  0.3759 -0.5295
    1TCq1    O114093   3.574   2.029  11.807 -0.4170  0.0435  0.3183
    1TCq1    C114094   3.596   2.051  11.941  0.1379  0.0420 -0.1477
    1TCq1    O214095   3.629   2.161  11.985 -0.2608  0.2211 -0.1078
    1TCq1    C214096   3.603   1.929  12.018 -0.3243  0.5637 -0.6363
    1TCq1    C314097   3.670   1.819  11.973 -0.2005  0.6290  0.5560
    1TCq1    C414098   3.740   1.754  12.072 -0.6920 -0.8383 -0.0424
    1TCq1    C514099   3.700   1.763  12.208  0.2943 -0.4587  0.6090
    1TCq1    C614100   3.620   1.871  12.244  0.4473 -0.0001 -0.1269
    1TCq1    C714101   3.564   1.953  12.151 -0.0965 -0.0073  0.1717
    1TCq1    C814102   3.589   1.901  12.381 -0.0937  0.2363  0.0128
    1TCq1    O414103   3.483   1.949  12.409 -1.0344 -0.6857 -0.2283
    1TCq1    C914104   3.825   1.638  12.042 -0.1692 -0.1799  0.2881
    1TCq1    O514105   3.874   1.639  11.928  0.4773 -0.7841  0.0067
    1TCq1    O614106   3.845   1.550  12.132  0.5076  0.2555  0.1543
    1TCq1    H114107   3.535   1.941  11.787  1.4484 -0.9248  0.8352
    1TCq1    H214108   3.710   1.803  11.874 -1.6110 -0.1668  0.1081
    1TCq1    H314109   3.750   1.702  12.282 -0.4424 -0.1657  1.3564
    1TCq1    H414110   3.514   2.047  12.173 -0.8746 -0.4184  0.1504
    2MPD1     C14111   3.665   1.835  12.891  0.3799 -0.0265 -0.3480
    2MPD1    C114112   3.768   1.777  12.817  0.3069  0.5678  0.8203
    2MPD1    C214113   3.753   1.773  12.677  0.1519 -0.1206  0.0412
    2MPD1    C314114   3.657   1.843  12.612  0.1623  0.0577 -0.3866
    2MPD1    C414115   3.568   1.922  12.684 -0.4778 -0.7059 -0.2942
    2MPD1    C514116   3.571   1.913  12.819  0.9511  0.5360 -0.0862
    2MPD1     H14117   3.825   1.714  12.621  0.9067  0.8194  0.0235
    2MPD1    H114118   3.483   1.974  12.642 -0.8007 -0.3694  0.7760
    2MPD1    H214119   3.663   1.833  12.999 -0.2147  0.8106 -0.3456
    2MPD1    H314120   3.498   1.974  12.872 -0.2677 -2.4282  1.6546
    2MPD1     N14121   3.670   1.839  12.474  0.1187  0.5220  0.5036
    2MPD1    H514122   3.753   1.793  12.438 -0.2241  0.1945  0.1360
    2MPD1    N114123   3.867   1.688  12.868  0.6770  0.8888 -0.3940
    2MPD1    H614124   3.942   1.686  12.799  1.6503  2.1295  0.6224
    2MPD1    H714125   3.900   1.711  12.961  3.3983  0.1938 -1.1819
    1TMC1    C114126   4.518   4.523   1.166  0.1699 -0.0879  0.5538
    1TMC1    C214127   4.403   4.535   1.235  0.4070  0.0541 -1.4985
    1TMC1    C314128   4.404   4.492   1.363 -0.0587 -0.0913  0.4968
    1TMC1    C414129   4.624   4.449   1.207 -0.3350 -0.2800 -0.0830
    1TMC1    C514130   4.619   4.397   1.329  0.1473  0.0213  0.1616
    1TMC1    C614131   4.510   4.417   1.415  0.3485  0.0078 -0.4038
    1TMC1     C14132   4.510   4.582   1.027  0.1705  0.5557  0.3129
    1TMC1     O14133   4.414   4.660   1.009  0.1617  0.0310  0.3302
    1TMC1     H14134   4.310   4.567   1.189 -0.5208  0.1806  0.4679
    1TMC1    H114135   4.712   4.441   1.144  0.1007  0.4180  0.4386
    1TMC1    H214136   4.496   4.370   1.511 -1.0232 -0.3307 -0.7661
    1TMC1    C714137   4.718   4.297   1.357 -0.3119  0.2507  0.0766
    1TMC1    C814138   4.289   4.515   1.448  0.1686  0.1039  0.4843
    1TMC1    O114139   0.068   4.257   1.276  0.2052  0.7416 -0.1108
    1TMC1    O214140   4.248   4.429   1.528 -0.3401 -0.0787  0.0363
    1TMC1    O314141   0.002   4.308   1.487 -0.0122 -0.0738  0.3171
    1TMC1    H314142   4.675   4.359   1.543 -1.5090  0.7808 -2.1025
    1TMC1    O514143   4.218   4.615   1.396 -0.4556 -0.0887 -0.1910
    1TMC1    H514144   4.266   4.659   1.323 -0.6463 -1.1502 -0.9528
    2MPD1     C14145   4.576   4.601   0.514  0.0698  0.2816 -0.1365
    2MPD1    C114146   4.667   4.511   0.565  0.1777  0.2455  0.0946
    2MPD1    C214147   4.665   4.484   0.703 -0.4440 -0.6925  0.0766
    2MPD1    C314148   4.578   4.547   0.791  0.2413  1.0566  0.6444
    2MPD1    C414149   4.486   4.636   0.733 -0.8334 -0.6738 -0.5315
    2MPD1    C514150   4.493   4.665   0.597  0.0572 -0.1384 -0.0358
    2MPD1     H14151   0.003   4.412   0.737  0.5837  0.4748  0.3451
    2MPD1    H114152   4.405   4.683   0.787  0.9679  1.7109  0.1317
    2MPD1    H214153   4.578   4.633   0.410  1.5644  0.8054  0.0486
    2MPD1    H314154   4.415   4.731   0.560  0.3266  2.1838  3.5104
    2MPD1     N14155   4.584   4.517   0.931  0.1606  0.5110  0.0976
    2MPD1    H514156   4.644   4.440   0.958 -0.2585  0.6110  1.3196
    2MPD1    N114157   0.020   4.434   0.487  1.0996 -0.0211  0.2695
    2MPD1    H614158   0.098   4.392   0.538  1.3135 -0.0373 -0.0614
    2MPD1    H714159   0.042   4.457   0.390 -0.1312 -1.6159 -0.3939
    1MPD1     C14160   0.383   2.955  12.426 -0.1941  0.0225 -0.1886
    1MPD1    C114161   0.445   3.053  12.341  0.1798 -0.4203 -0.7314
    1MPD1    C214162   0.552   3.013  12.267  0.3522  0.1485 -0.6471
    1MPD1    C314163   0.609   2.888  12.280 -0.4267  0.2352 -0.3928
    1MPD1    C414164   0.544   2.792  12.360  0.2728 -0.5185 -0.2367
    1MPD1    C514165   0.437   2.831  12.432  0.0247 -0.1180 -0.3604
    1MPD1     H14166   0.601   3.087  12.205 -0.6543  3.0450  1.9962
    1MPD1    H114167   0.596   2.698  12.377 -0.6278 -1.0426 -0.3605
    1MPD1    H214168   0.308   2.987  12.498 -0.8755  0.5996 -1.1656
    1MPD1    H314169   0.391   2.759  12.498 -1.9417  0.7650 -0.7749
    1MPD1     N14170   0.727   2.867  12.205 -0.7504 -1.0970 -0.4621
    1MPD1    H514171   0.759   2.943  12.146 -1.0326  1.5085  2.7183
    1MPD1    N114172   0.409   3.186  12.352  0.2450 -0.0999 -0.4694
    1MPD1    H614173   0.407   3.227  12.259 -2.1858  0.2585 -0.2783
    1MPD1    H714174   0.316   3.192  12.394  0.9781  0.6532  1.0176
    2MPD1     C14175   4.316   2.720  10.852 -0.7448  0.3513  0.1231
    2MPD1    C114176   4.381   2.611  10.885 -0.0066 -0.1146 -0.7948
    2MPD1    C214177   4.515   2.608  10.852 -0.4610 -0.0033 -0.5036
    2MPD1    C314178   4.589   2.715  10.803 -0.8084 -0.5786  0.0938
    2MPD1    C414179   4.524   2.834  10.781 -0.2353 -0.0692  0.8631
    2MPD1    C514180   4.387   2.823  10.802  0.4852 -0.0713 -0.0585
    2MPD1     H14181   4.558   2.510  10.867  0.1958 -0.0586 -2.8226
    2MPD1    H114182   4.568   2.927  10.747  0.7802 -0.3865  1.3016
    2MPD1    H214183   4.208   2.721  10.861 -0.8950  0.7121 -1.6757
    2MPD1    H314184   4.326   2.908  10.775  2.4001  1.8207  1.4886
    2MPD1     N14185   4.727   2.713  10.754 -0.2124 -0.0306  0.3991
    2MPD1    H514186   0.027   2.802  10.721  0.3686 -1.2406 -2.2159
    2MPD1    N114187   4.313   2.500  10.936 -0.6423 -0.0606  0.4868
    2MPD1    H614188   4.229   2.522  10.989  1.6752  0.0440  4.0671
    2MPD1    H714189   4.371   2.431  10.983  0.3924 -1.7108 -3.1639
    3MPD1     C14190   0.757   3.173  10.303 -0.0112 -0.6463 -0.2191
    3MPD1    C114191   0.812   3.112  10.407 -1.0146 -0.0403  0.0767
    3MPD1    C214192   0.737   3.040  10.496  0.7876 -0.1041 -0.6462
    3MPD1    C314193   0.607   3.003  10.463  1.0725  0.3009  0.1995
    3MPD1    C414194   0.559   3.053  10.350  0.1659  0.1208  0.1285
    3MPD1    C514195   0.629   3.143  10.276 -0.0085  0.4655  0.2168
    3MPD1     H14196   0.776   2.999  10.589 -2.4448 -1.8824 -0.0621
    3MPD1    H114197   0.469   3.017  10.303  0.5376 -1.0904  0.3566
    3MPD1    H214198   0.805   3.242  10.234 -0.0901 -0.6327 -0.2608
    3MPD1    H314199   0.584   3.158  10.179  0.0737  0.2284  0.1408
    3MPD1     N14200   0.531   2.921  10.547 -0.2925  0.7055  0.3441
    3MPD1    H514201   0.587   2.883  10.623 -1.2428 -1.9432 -0.3117
    3MPD1    N114202   0.936   3.150  10.458  0.2985  0.0445  0.1274
    3MPD1    H614203   1.005   3.138  10.385  0.5034 -1.1708  0.5388
    3MPD1    H714204   0.968   3.079  10.523  1.3594 -0.6122 -1.1231
    4MPD2     C14205   1.065   3.048  11.576 -0.1038  0.0021  0.4300
    4MPD2    C114206   1.104   2.930  11.634 -0.4697  0.3163 -0.1942
    4MPD2    C214207   1.150   2.826  11.556 -0.7164 -0.8428  0.3059
    4MPD2    C314208   1.139   2.833  11.414 -0.2488  0.5852 -1.1360
    4MPD2    C414209   1.089   2.945  11.352 -0.3152  0.5502 -0.1324
    4MPD2    C514210   1.061   3.053  11.435  0.5848  0.1846 -0.1708
    4MPD2     H14211   1.191   2.741  11.610 -0.3062 -0.6795  0.2525
    4MPD2    H114212   1.072   2.948  11.245 -0.5903 -1.8746 -0.1680
    4MPD2    H214213   1.013   3.128  11.626  0.6585 -0.8943  2.6484
    4MPD2    H314214   1.030   3.145  11.388 -2.3484 -0.5243  0.4001
    4MPD2     N14215   1.172   2.724  11.331  0.3373 -0.5632  0.2952
    4MPD2    H514216   1.159   2.739  11.232 -1.3860 -3.0187  0.1738
    4MPD2    N114217   1.119   2.907  11.770  0.0274  0.3145  0.1321
    4MPD2    H714218   1.176   2.826  11.790  0.1586  1.0275  2.5968
    5TMC3    C114219   1.089   2.909  12.005 -0.5388 -0.3638  0.2876
    5TMC3    C214220   0.978   2.896  12.071 -0.0849 -0.1212 -0.2212
    5TMC3    C314221   0.944   2.773  12.128  0.1575 -0.2024 -0.1351
    5TMC3    C414222   1.175   2.801  11.999  0.3141  0.3417  0.2820
    5TMC3    C514223   1.130   2.682  12.033 -0.8304  0.6577 -0.4161
    5TMC3    C614224   1.016   2.660  12.104  0.2975  0.4037 -0.1227
    5TMC3     C14225   1.078   2.988  11.879  0.2166 -0.1842 -0.3436
    5TMC3     O14226   1.015   3.091  11.881  0.7615  0.7818 -0.2992
    5TMC3     H14227   0.928   2.988  12.099  2.4747  1.2666 -0.2504
    5TMC3    H114228   1.272   2.796  11.951  1.1272 -2.6178  2.2635
    5TMC3    H214229   0.985   2.559  12.130  0.1692  0.3091 -0.6456
    5TMC3    C714230   1.161   2.587  11.930  0.2982  0.1238 -0.9747
    5TMC3    C814231   0.814   2.757  12.210 -1.0589 -0.2814 -0.1406
    5TMC3    O114232   1.180   2.639  11.823 -0.1138 -0.7927 -0.4630
    5TMC3    O214233   0.802   2.653  12.272  0.6027  0.1400  0.6428
    6TMC3    C114234   0.208   2.616  10.695 -0.0581 -0.4045  0.3598
    6TMC3    C214235   0.243   2.734  10.635 -0.0157 -0.4550  0.5862
    6TMC3    C314236   0.378   2.758  10.608  0.5082 -0.1149  0.5333
    6TMC3    C414237   0.303   2.520  10.729  0.2890 -1.0583 -0.1743
    6TMC3    C514238   0.438   2.545  10.693 -0.0725 -0.1865  0.3707
    6TMC3    C614239   0.470   2.667  10.636  0.2442  0.0530  0.4904
    6TMC3     C14240   0.076   2.602  10.753  0.2678 -0.8794 -0.3123
    6TMC3     O14241   0.050   2.492  10.795  0.8857  0.0510  0.5595
    6TMC3     H14242   0.176   2.818  10.621  1.8889  0.6542 -1.9460
    6TMC3    H114243   0.270   2.435  10.786  1.3324 -2.2936 -1.4024
    6TMC3    H214244   0.572   2.683  10.606 -0.2294  0.5935 -0.8069
    6TMC3    C714245   0.532   2.484  10.779  0.0118  0.2301  0.1323
    6TMC3    C814246   0.405   2.884  10.538  0.0141  0.0102  1.0363
    6TMC3    O114247   0.595   2.558  10.857  0.0138  0.7450 -0.0570
    6TMC3    O214248   0.317   2.947  10.478  0.5495 -0.0709 -0.0850
    7MPD2     C14249   1.217   2.123  11.722  0.0248 -0.2812  0.2308
    7MPD2    C114250   1.212   2.250  11.666  0.1934 -0.5759  0.5442
    7MPD2    C214251   1.192   2.359  11.746 -0.8448 -0.0802 -0.1492
    7MPD2    C314252   1.165   2.345  11.882  0.0021  0.1907  0.4275
    7MPD2    C414253   1.160   2.217  11.940  0.5242 -0.0019  0.0180
    7MPD2    C514254   1.182   2.109  11.854  0.2924  0.2041  0.3708
    7MPD2     H14255   1.181   2.456  11.697 -0.6976  2.4517  4.8050
    7MPD2    H114256   1.118   2.194  12.038  0.1760 -0.6361 -0.2805
    7MPD2    H214257   1.226   2.037  11.657 -2.3605 -0.1276 -0.3013
    7MPD2    H314258   1.155   2.017  11.904  1.8235 -0.2388  0.3786
    7MPD2     N14259   1.142   2.455  11.967 -0.6539 -0.4014 -0.0783
    7MPD2    H514260   1.132   2.430  12.065  2.2922 -0.2126  0.2644
    7MPD2    N114261   1.233   2.288  11.531 -0.3386  0.7974 -0.0160
    7MPD2    H714262   1.226   2.388  11.513  0.5512  0.7703 -0.5155
    8TMC3    C114263   1.253   2.286  11.302  0.1105 -0.5906  0.2691
    8TMC3    C214264   1.158   2.264  11.208 -0.1060  0.0817  0.1801
    8TMC3    C314265   1.103   2.371  11.143  0.2630  0.9431  0.6569
    8TMC3    C414266   1.309   2.407  11.321  1.0009  0.1692 -0.3440
    8TMC3    C514267   1.258   2.515  11.263  0.0181  0.4067  0.0262
    8TMC3    C614268   1.147   2.499  11.181  0.7594 -0.1955  0.3202
    8TMC3     C14269   1.246   2.209  11.421 -0.3812  0.0093  0.2443
    8TMC3     O14270   1.243   2.086  11.415  0.4214  0.6561  0.1460
    8TMC3     H14271   1.122   2.163  11.193  1.1738 -0.3083 -0.2635
    8TMC3    H114272   1.390   2.418  11.392  0.1741 -1.7986  0.9049
    8TMC3    H214273   1.082   2.581  11.154  0.3644 -0.6404 -0.0923
    8TMC3    C714274   1.220   2.603  11.373 -0.1095 -1.0812  0.3834
    8TMC3    C814275   0.975   2.369  11.073  1.1319  0.1662 -0.0106
    8TMC3    O114276   1.226   2.554  11.484 -1.0130  0.6440 -0.0418
    8TMC3    O214277   0.922   2.480  11.043 -0.1499 -0.2539 -0.3935
    9MPD2     C14278   0.788   2.081  10.941 -0.3211  0.5920 -0.2305
    9MPD2    C114279   0.812   2.214  10.971 -0.3028 -0.0522  0.0646
    9MPD2    C214280   0.727   2.306  10.912 -0.3513 -0.5884  0.1487
    9MPD2    C314281   0.619   2.265  10.843 -0.1248 -0.2557  0.2960
    9MPD2    C414282   0.595   2.131  10.823  0.6853 -0.1683 -0.5345
    9MPD2    C514283   0.685   2.037  10.860  0.1840 -0.0265 -0.5068
    9MPD2     H14284   0.757   2.410  10.913  1.7472 -1.2163  2.8976
    9MPD2    H114285   0.525   2.093  10.749 -2.0628  1.1862  1.3721
    9MPD2    H214286   0.856   2.004  10.975  0.5565  0.2560 -2.7487
    9MPD2    H314287   0.653   1.934  10.849  2.2060 -0.6149 -0.8247
    9MPD2     N14288   0.524   2.352  10.784 -0.2910  0.0117  0.0199
    9MPD2    H514289   0.453   2.304  10.730 -1.1179 -1.4482  2.3700
    9MPD2    N114290   0.929   2.243  11.042 -0.3474 -0.2703 -0.4755
    9MPD2    H714291   0.990   2.166  11.066  0.7324  1.3913  2.1560
    1MPD1     C14292   4.546   0.981  15.830 -0.1284 -0.0478 -0.0060
    1MPD1    C114293   4.605   1.063  15.924 -0.0619 -0.6972 -0.5506
    1MPD1    C214294   4.629   1.199  15.883 -0.4650 -0.3280  0.3762
    1MPD1    C314295   4.596   1.234  15.754  0.0611  0.1194  0.0434
    1MPD1    C414296   4.538   1.150  15.666  0.0958  0.4078  0.3735
    1MPD1    C514297   4.513   1.024  15.702  0.3582 -0.4792  0.0619
    1MPD1     H14298   4.655   1.274  15.957 -2.3494 -0.0349  0.7563
    1MPD1    H114299   4.506   1.177  15.566  0.1210 -1.5536 -0.1624
    1MPD1    H214300   4.532   0.876  15.854 -0.2486 -0.2290 -0.8559
    1MPD1    H314301   4.457   0.958  15.637  1.0415 -1.4309  0.4367
    1MPD1     N14302   4.618   1.374  15.717 -0.3428 -0.0385 -0.0124
    1MPD1    H514303   4.624   1.438  15.795 -1.9761  1.1162 -0.8407
    1MPD1    N114304   4.628   1.011  16.054  0.3152  0.0207  0.1171
    1MPD1    H614305   4.700   1.059  16.108  1.7376  0.3755 -2.0628
    1MPD1    H714306   4.645   0.910  16.054  0.1690  0.0094 -2.6586
    2TMC2    C114307   4.551   1.765  15.636  0.2599 -0.0789 -0.4415
    2TMC2    C214308   4.612   1.827  15.528 -0.0906  0.3663  0.7625
    2TMC2    C314309   4.686   1.747  15.453 -0.8022 -0.2918 -0.3063
    2TMC2    C414310   4.561   1.632  15.666  0.3921 -0.3574  0.7003
    2TMC2    C514311   4.639   1.556  15.584 -0.0136  0.3497 -0.3389
    2TMC2    C614312   4.702   1.611  15.466 -0.0445 -1.0495 -0.6796
    2TMC2     C14313   4.487   1.849  15.738  0.5134  0.2321 -0.5293
    2TMC2     O14314   4.428   1.784  15.822 -0.1227 -0.6352 -0.0072
    2TMC2     H14315   4.603   1.933  15.507 -0.8544  1.1501  4.9959
    2TMC2    H114316   4.510   1.585  15.750 -1.6223 -1.2810 -1.0349
    2TMC2    H214317   0.026   1.543  15.405  1.0265 -0.0645 -0.7465
    2TMC2    C714318   4.630   1.417  15.589  0.0561  0.5792 -0.4410
    2TMC2    C814319   0.020   1.816  15.348  0.6931  1.0330 -0.4471
    2TMC2    O114320   4.662   1.352  15.489 -0.5261  0.0469 -0.5031
    2TMC2    O214321   0.016   1.937  15.333  0.5844  0.0389 -0.0431
    2TMC2    O514322   0.041   1.738  15.244 -0.6487 -0.2565  0.1129
    2TMC2    H514323   4.733   1.650  15.246  1.2890 -1.1343  2.8381
    3MPD1     C14324   4.344   2.285  15.965  0.3951 -0.3847 -0.4976
    3MPD1    C114325   4.427   2.320  15.857  0.2952  0.3601  0.0244
    3MPD1    C214326   4.477   2.221  15.770  0.1077  0.4556  1.1743
    3MPD1    C314327   4.458   2.088  15.810  0.1519  0.0277 -0.3346
    3MPD1    C414328   4.385   2.056  15.927 -0.1732 -0.2068 -0.4874
    3MPD1    C514329   4.342   2.157  16.005 -0.0565 -0.1998 -0.1295
    3MPD1     H14330   4.526   2.252  15.678 -0.1215  1.8323  1.5198
    3MPD1    H114331   4.361   1.955  15.959 -1.6690  0.7084  1.2522
    3MPD1    H214332   4.300   2.366  16.020  1.6265 -1.9174  2.7300
    3MPD1    H314333   4.290   2.125  16.094  0.6670  1.8323  1.0449
    3MPD1     N14334   4.509   1.988  15.720  0.3634 -0.2955  0.2358
    3MPD1    H514335   4.563   2.023  15.641 -0.2755 -0.4968 -0.2919
    3MPD1    N114336   4.432   2.452  15.817  0.1626 -0.3148 -0.3765
    3MPD1    H614337   4.518   2.469  15.766  0.8364 -2.8886 -0.0608
    3MPD1    H714338   4.425   2.512  15.900  0.6331 -1.9360  0.8235
    1TMC1    C114339   3.822   0.697  13.566  0.3739 -0.2112  0.0009
    1TMC1    C214340   3.858   0.567  13.538  0.1470 -0.8396 -0.0646
    1TMC1    C314341   3.934   0.543  13.430  0.2690 -0.1695 -0.1483
    1TMC1    C414342   3.877   0.797  13.486 -0.8694  0.2936 -0.5068
    1TMC1    C514343   3.950   0.770  13.378  0.4301 -0.0511 -0.2526
    1TMC1    C614344   3.977   0.642  13.347 -0.6360 -0.5921 -0.4121
    1TMC1     C14345   3.735   0.739  13.669 -0.2949 -0.3014 -0.1998
    1TMC1     O14346   3.668   0.837  13.641 -0.7442  0.0886 -0.2596
    1TMC1     H14347   3.811   0.484  13.590  1.1162 -0.4585  1.4072
    1TMC1    H114348   3.867   0.900  13.515  0.6543  0.6244 -1.1632
    1TMC1    H214349   4.041   0.627  13.261  0.0231  0.0511 -0.0303
    1TMC1    C714350   3.974   0.873  13.288  0.4297 -0.4106 -0.1073
    1TMC1    C814351   3.955   0.404  13.403  0.0860 -0.0679  0.4230
    1TMC1    O114352   4.083   0.924  13.266 -0.2034  0.5185 -0.3029
    1TMC1    O214353   3.954   0.313  13.488 -0.1417 -0.4719  0.5877
    1TMC1    O314354   3.857   0.929  13.262  0.1402  0.0013  0.3994
    1TMC1    H314355   3.782   0.865  13.260 -0.8303  1.2320 -1.8127
    1TMC1    O514356   4.022   0.393  13.279 -0.2071  0.0025 -0.0598
    1TMC1    H514357   3.988   0.455  13.211  2.9467  0.3821 -1.3112
    2MPD2     C14358   3.495   0.699  13.852  0.1156  0.4343  0.0975
    2MPD2    C114359   3.608   0.616  13.845  0.4862  0.2004  0.7039
    2MPD2    C214360   3.613   0.511  13.934 -0.1191  0.0535  0.3083
    2MPD2    C314361   3.502   0.472  14.012  0.0101 -0.0582  0.4706
    2MPD2    C414362   3.392   0.549  14.005 -0.5652  1.2117  0.3082
    2MPD2    C514363   3.388   0.668  13.929  0.6229  0.2728 -0.2543
    2MPD2     H14364   3.707   0.459  13.942 -0.2440 -0.2455 -0.1883
    2MPD2    H114365   3.304   0.524  14.062 -1.1699 -0.2199 -1.2637
    2MPD2    H214366   3.492   0.789  13.791 -0.6362  0.0008 -0.5172
    2MPD2    H314367   3.301   0.733  13.930  1.3031  1.1920 -0.1426
    2MPD2     N14368   3.515   0.358  14.091  0.4698  0.3743 -0.2690
    2MPD2    H514369   3.603   0.309  14.077 -0.3144 -1.2199  0.4759
    2MPD2    N114370   3.719   0.641  13.761 -0.3313  0.4532  0.1865
    2MPD2    H714371   3.788   0.567  13.751 -1.0943 -0.3937  1.0731
    3TCq1    O114372   3.220   4.622  14.424 -0.1934 -0.2624  0.1480
    3TCq1    C114373   3.308   4.696  14.490 -0.2720  0.6678 -0.0222
    3TCq1    O214374   3.353   4.671  14.601  0.0584 -0.1178  0.1733
    3TCq1    C214375   3.396   0.008  14.393  0.3722  0.3289  0.3302
    3TCq1    C314376   3.530   4.703  14.401 -0.0840 -0.2161 -0.6390
    3TCq1    C414377   3.620   0.031  14.319  0.4853 -0.4801 -0.4068
    3TCq1    C514378   3.586   0.139  14.236 -1.1314  0.0589 -0.1537
    3TCq1    C614379   3.460   0.189  14.249 -0.2037 -0.3609 -0.3332
    3TCq1    C714380   3.363   0.124  14.323 -0.0573 -0.4145  0.3710
    3TCq1    C814381   3.416   0.312  14.182  0.1349 -1.3303  0.4273
    3TCq1    O414382   3.308   0.357  14.221 -0.0015 -0.3093  0.2814
    3TCq1    C914383   3.748   4.723  14.328 -0.2308 -0.2328  0.1506
    3TCq1    O514384   3.838   0.069  14.291  0.2122  0.3426 -0.5579
    3TCq1    O614385   3.775   4.605  14.370  0.6616  0.1264 -0.1098
    3TCq1    H114386   3.208   4.640  14.329  1.5478 -0.9402 -0.2045
    3TCq1    H214387   3.567   4.617  14.456 -1.1612 -0.1752  0.1571
    3TCq1    H314388   3.668   0.197  14.195 -0.1110 -0.3755  1.2728
    3TCq1    H414389   3.260   0.157  14.315 -0.2831 -1.5687 -1.6300
    1MPD2     C14390   2.944   1.114  14.723  0.0661  0.1857 -0.0591
    1MPD2    C114391   2.837   1.039  14.673  0.4663  0.3536 -0.6612
    1MPD2    C214392   2.858   0.933  14.587 -0.0218  0.9500  0.1441
    1MPD2    C314393   2.985   0.893  14.566 -1.1706 -0.3612  0.5343
    1MPD2    C414394   3.092   0.955  14.622  0.3757  0.3522 -0.0667
    1MPD2    C514395   3.072   1.065  14.702 -0.3333 -0.7796 -0.2117
    1MPD2     H14396   2.774   0.882  14.542  1.4524 -0.6201 -0.8023
    1MPD2    H114397   3.193   0.926  14.596 -0.4317 -1.5183 -1.1232
    1MPD2    H214398   2.920   1.204  14.778 -0.4328 -0.6452  1.0910
    1MPD2    H314399   3.155   1.125  14.737 -1.2066  0.7593 -0.7748
    1MPD2     N14400   2.990   0.793  14.465 -0.0241 -0.5402  0.3171
    1MPD2    H514401   2.900   0.770  14.423 -0.6131  2.0917  0.1084
    1MPD2    N114402   2.703   1.074  14.708 -0.1025  0.5498 -0.1438
    1MPD2    H714403   2.691   1.162  14.756  0.6271 -0.3983  1.7801
    2TMC3    C114404   2.465   1.083  14.706  0.4226  0.8641 -0.4744
    2TMC3    C214405   2.364   1.000  14.676  1.3910 -0.1033  0.0713
    2TMC3    C314406   2.264   1.038  14.591 -1.0466  0.3183  0.0331
    2TMC3    C414407   2.466   1.213  14.665 -0.1855 -0.0563 -0.2991
    2TMC3    C514408   2.362   1.249  14.586 -0.0143 -0.0460 -0.4899
    2TMC3    C614409   2.262   1.167  14.550  0.6197  0.2048 -0.1570
    2TMC3     C14410   2.587   1.003  14.685 -0.6557  0.4038 -0.1053
    2TMC3     O14411   2.567   0.891  14.632  0.1156  0.0043 -0.2121
    2TMC3     H14412   2.353   0.899  14.714 -0.6446  0.4110  0.8785
    2TMC3    H114413   2.545   1.281  14.693  1.5234 -2.0626 -0.2627
    2TMC3    H214414   2.180   1.202  14.488  2.7964  3.5994 -1.1522
    2TMC3    C714415   2.361   1.388  14.535  0.0286 -0.3578  0.6623
    2TMC3    C814416   2.226   0.939  14.489  0.1185  0.3311  0.6532
    2TMC3    O114417   2.253   1.428  14.494  0.2288  0.2910 -0.6052
    2TMC3    O214418   2.121   0.956  14.429  0.2449 -0.3478 -0.4520
    3TCq1    O114419   3.153   2.307  14.463  0.4274 -0.0941 -0.0380
    3TCq1    C114420   3.168   2.224  14.370 -0.5961 -0.0755  0.0534
    3TCq1    O214421   3.148   2.250  14.254 -0.0609 -0.3360  0.0582
    3TCq1    C214422   3.158   2.088  14.423  0.1503 -0.3262  0.1911
    3TCq1    C314423   3.204   1.992  14.340  0.2752  0.4759  0.1423
    3TCq1    C414424   3.136   1.874  14.319 -0.4522  0.5982  0.5428
    3TCq1    C514425   3.015   1.853  14.379 -0.8845 -0.0433 -0.0369
    3TCq1    C614426   2.976   1.950  14.466 -0.2698  0.2749 -0.7817
    3TCq1    C714427   3.045   2.068  14.486  0.0373  0.2685 -0.3760
    3TCq1    C814428   2.841   1.946  14.522 -0.4023 -0.3046  0.1081
    3TCq1    O414429   2.787   2.053  14.548 -0.1515  0.0368 -0.1501
    3TCq1    C914430   3.195   1.781  14.222 -0.1668 -0.0797  0.5028
    3TCq1    O514431   3.322   1.786  14.211 -0.2142 -0.1880  0.2272
    3TCq1    O614432   3.119   1.688  14.184 -0.1537 -0.8557 -0.1128
    3TCq1    H114433   3.143   2.268  14.553 -0.2445  0.0625 -0.0416
    3TCq1    H214434   3.286   2.007  14.271 -0.9521 -0.9156 -1.6310
    3TCq1    H314435   2.964   1.761  14.353  0.1973 -0.3546 -1.0764
    3TCq1    H414436   2.998   2.145  14.545 -0.4859  0.9679 -1.7383
    4MPD2     C14437   2.557   1.853  14.552  0.2914  0.7497  0.1248
    4MPD2    C114438   2.658   1.766  14.530 -0.1312 -1.3899 -0.9658
    4MPD2    C214439   2.622   1.630  14.508  0.3007  1.2596  0.6524
    4MPD2    C314440   2.500   1.583  14.534 -0.3049 -0.0748  0.1760
    4MPD2    C414441   2.405   1.670  14.573  0.1694 -0.6759 -0.4090
    4MPD2    C514442   2.436   1.802  14.579 -0.2567 -0.1712 -0.1363
    4MPD2     H14443   2.708   1.567  14.487 -1.2992 -1.3314  1.8893
    4MPD2    H114444   2.312   1.645  14.622 -0.0451 -1.7337 -1.3577
    4MPD2    H214445   2.575   1.960  14.546 -1.8582  1.0461 -0.8523
    4MPD2    H314446   2.355   1.872  14.596 -0.0688 -0.3993  1.6719
    4MPD2     N14447   2.486   1.444  14.535 -0.3386 -0.7051  0.1142
    4MPD2    H514448   2.566   1.382  14.539 -0.3856 -0.7761 -0.0591
    4MPD2    N114449   2.791   1.813  14.514  0.3905  0.4353  0.1942
    4MPD2    H714450   2.864   1.748  14.488  0.2823 -0.1189  1.2771
    5TMC2    C114451   2.858   0.597  14.199 -0.6528  0.3583 -0.5003
    5TMC2    C214452   2.878   0.462  14.223 -0.7802 -0.2371  0.3181
    5TMC2    C314453   2.979   0.416  14.302  0.4831 -0.2559  0.0416
    5TMC2    C414454   2.957   0.682  14.235 -0.0561  0.6346 -0.6084
    5TMC2    C514455   3.057   0.632  14.314  0.3466  0.2881  0.7649
    5TMC2    C614456   3.073   0.501  14.345 -0.1054 -0.2932  0.2114
    5TMC2     C14457   2.737   0.643  14.259  0.0022 -0.2344 -0.2153
    5TMC2     O14458   2.744   0.724  14.346  0.5186  0.2050  0.7584
    5TMC2     H14459   2.804   0.385  14.202  0.5590 -1.2517 -0.7463
    5TMC2    H114460   2.941   0.789  14.230 -2.8001  0.2592  0.2906
    5TMC2    H214461   3.154   0.484  14.415 -1.0561  3.0490  2.1355
    5TMC2    C714462   3.099   0.728  14.412  0.3118  0.0395  0.2135
    5TMC2    C814463   2.997   0.271  14.304  0.3178 -0.3325 -0.3794
    5TMC2    O114464   3.217   0.726  14.448 -0.4520  0.6325 -0.4428
    5TMC2    O214465   2.960   0.192  14.218  0.1992  0.2984  0.3162
    5TMC2    O514466   3.035   0.242  14.433 -0.0337  0.7719  0.2380
    5TMC2    H514467   3.041   0.326  14.483  1.5553  0.4878  0.5219
    6MPD2     C14468   2.231   0.732  14.280  0.2850  0.7299 -0.0734
    6MPD2    C114469   2.333   0.763  14.363 -0.2144 -0.2010 -0.5120
    6MPD2    C214470   2.459   0.713  14.341 -0.2318  0.6317  0.5913
    6MPD2    C314471   2.492   0.634  14.229 -0.4321  0.5834 -0.1301
    6MPD2    C414472   2.391   0.613  14.140 -0.0807 -0.5244  0.0173
    6MPD2    C514473   2.263   0.646  14.170  0.1494 -0.0571  0.2601
    6MPD2     H14474   2.527   0.728  14.425  1.9617  0.4291 -1.1541
    6MPD2    H114475   2.412   0.552  14.053 -0.0588 -0.2385 -0.1792
    6MPD2    H214476   2.126   0.761  14.288 -0.1749 -0.8057 -0.5711
    6MPD2    H314477   2.186   0.605  14.106  1.5575 -0.7225 -1.0031
    6MPD2     N14478   2.625   0.595  14.199  0.1791  0.3177 -0.5523
    6MPD2    H514479   2.645   0.539  14.116 -0.4539 -1.0582  0.2357
    6MPD2    N114480   2.324   0.856  14.466 -0.1149  0.2611  0.3921
    6MPD2    H714481   2.411   0.871  14.515  0.0496  1.1552 -0.1818
  945NH3     N114482   4.638   2.518  13.860  0.0736 -0.1344  0.4201
  945NH3     H214483   4.548   2.561  13.880  0.2204  1.2331 -1.9257
  945NH3     H314484   4.703   2.594  13.869 -1.4958  1.1844  0.6294
  945NH3     H414485   4.661   2.467  13.945  0.3030 -0.9828 -0.1459
  946SOD     NA14486   2.581   4.167   9.649  0.2335 -0.5901  0.1250
  947SOD     NA14487   3.063   2.698  12.734 -0.0229 -0.1310  0.2293
  948SOD     NA14488   2.534   0.957   2.046 -0.1099  0.0046  0.2654
  949SOD     NA14489   3.013   2.564   3.776 -0.6081  0.2739 -0.1804
  950SOD     NA14490   2.793   1.967  13.437  0.1180 -0.1580 -0.7315
  951SOD     NA14491   4.035   0.425  11.204  0.1087 -0.2836  0.1056
  952SOD     NA14492   2.121   3.545  16.631  0.6072  0.4721  0.6760
  953SOD     NA14493   4.478   4.122  17.154 -0.1609  0.0639  0.4268
  954SOL     OW14494   1.942   4.212   1.945 -0.1323 -0.2405  0.2731
  954SOL    HW114495   1.861   4.244   1.905 -0.4032 -1.0780  0.1572
  954SOL    HW214496   1.936   4.257   2.030 -1.1236  1.3556 -0.6422
  955SOL     OW14497   0.736   0.295   5.940 -0.1080  0.7784  0.0843
  955SOL    HW114498   0.761   0.354   6.011  0.6632  0.3885  0.1426
  955SOL    HW214499   0.739   0.365   5.874  0.6194  0.0866 -0.6110
  956SOL     OW14500   1.979   3.528   4.081 -0.7235 -0.0665  0.1125
  956SOL    HW114501   2.009   3.613   4.048 -1.0057 -0.6308 -1.6072
  956SOL    HW214502   1.906   3.559   4.135 -1.1922  2.4091 -1.9295
  957SOL     OW14503   3.715   3.588   5.482 -0.2593 -0.7162 -0.0302
  957SOL    HW114504   3.695   3.676   5.514 -0.2591 -1.0152  0.7962
  957SOL    HW214505   3.794   3.562   5.530 -0.3673  0.5290  0.8173
  958SOL     OW14506   0.620   2.742   8.353  0.3101  0.2514  0.4346
  958SOL    HW114507   0.688   2.699   8.405  0.5536 -1.7935 -1.6054
  958SOL    HW214508   0.620   2.832   8.387 -0.5688  0.9769 -1.4915
  959SOL     OW14509   0.128   4.544   8.061  0.1472  0.5120  0.3565
  959SOL    HW114510   0.143   4.614   8.124  1.5779  0.5338 -0.0109
  959SOL    HW214511   0.033   4.541   8.048  0.3011 -0.4215 -0.6067
  960SOL     OW14512   2.400   0.197   3.772 -0.3687 -0.3014 -0.6045
  960SOL    HW114513   2.417   0.291   3.776  1.4324 -0.6435 -0.3666
  960SOL    HW214514   2.483   0.156   3.794  0.2502  0.7469 -1.0231
  961SOL     OW14515   3.891   2.704   6.663 -0.2731 -0.1910  0.2942
  961SOL    HW114516   3.795   2.703   6.661 -0.2550  0.7700 -1.2255
  961SOL    HW214517   3.909   2.771   6.729 -0.5106 -1.0835  1.2652
  962SOL     OW14518   2.888   0.764  12.449 -0.0602  0.1633 -0.3265
  962SOL    HW114519   2.921   0.797  12.366 -0.3145  0.9362 -0.1187
  962SOL    HW214520   2.837   0.841  12.473  0.6029 -0.1253  1.9568
  963SOL     OW14521   3.442   4.437   3.753  0.5877  0.0774 -0.1352
  963SOL    HW114522   3.378   4.377   3.716 -0.5866  0.3335  1.4370
  963SOL    HW214523   3.483   4.373   3.811  0.1712 -1.1631 -1.2176
  964SOL     OW14524   3.205   4.430   4.357 -0.6514  0.2658 -0.2957
  964SOL    HW114525   3.294   4.396   4.350 -1.5599 -2.7454  2.7037
  964SOL    HW214526   3.170   4.407   4.271  1.2621 -1.2344 -0.6762
  965SOL     OW14527   4.076   3.172   4.066 -0.4370 -0.3172  0.2762
  965SOL    HW114528   4.127   3.216   4.135 -0.5657 -0.1088  0.2383
  965SOL    HW214529   4.072   3.078   4.085  1.5972 -0.2461  1.0757
  966SOL     OW14530   0.952   0.871   4.206 -0.2355 -0.1706 -0.4867
  966SOL    HW114531   0.857   0.868   4.220 -0.0358 -1.4864  0.6052
  966SOL    HW214532   0.965   0.894   4.114  1.1405 -0.3544 -0.3383
  967SOL     OW14533   2.828   1.574   1.565  0.7400  0.7164 -0.3871
  967SOL    HW114534   2.884   1.620   1.503 -0.1112  0.3800 -1.3941
  967SOL    HW214535   2.742   1.603   1.536  0.8028  0.6950 -0.5919
  968SOL     OW14536   3.399   3.437   5.634 -0.0153 -0.6512  0.5172
  968SOL    HW114537   3.399   3.413   5.541 -0.4541  1.7699 -0.0990
  968SOL    HW214538   3.485   3.479   5.632 -0.9188  1.1998  2.0287
  969SOL     OW14539   4.035   3.717   7.743  0.3607  0.4993  0.1394
  969SOL    HW114540   3.992   3.772   7.678  0.4600  0.6874  0.2317
  969SOL    HW214541   4.008   3.629   7.718 -1.8998  1.2696 -0.1483
  970SOL     OW14542   0.092   4.349   8.274 -0.2416 -0.1250  0.7725
  970SOL    HW114543   0.095   4.437   8.236  0.5627 -1.5147 -2.4139
  970SOL    HW214544   0.178   4.358   8.314  0.9293 -0.3093 -1.6898
  971SOL     OW14545   2.007   3.783   6.799 -0.4309 -0.6685 -0.3426
  971SOL    HW114546   1.989   3.750   6.887 -0.0537 -3.1199 -1.1860
  971SOL    HW214547   2.047   3.869   6.813  3.5444 -2.8715  1.5186
  972SOL     OW14548   2.444   1.959   4.991 -0.5295 -0.1265 -0.4475
  972SOL    HW114549   2.479   1.870   4.986 -0.3278 -0.1919  2.3449
  972SOL    HW214550   2.510   1.994   5.051  0.3728  1.2852 -2.2719
  973SOL     OW14551   0.151   0.239   8.612  0.1540  0.1068  0.0449
  973SOL    HW114552   0.085   0.279   8.556 -1.5060 -1.9802  0.5351
  973SOL    HW214553   0.145   0.149   8.581 -0.9967  0.0205  0.5296
  974SOL     OW14554   3.715   3.690   1.111 -0.9980 -0.1535 -0.0213
  974SOL    HW114555   3.674   3.694   1.024  0.1901  0.4895 -0.5599
  974SOL    HW214556   3.780   3.760   1.104 -1.7133  0.5618  0.5014
  975SOL     OW14557   1.568   1.048   2.229  0.4862 -0.4276  0.3587
  975SOL    HW114558   1.494   1.004   2.270  0.9955 -1.2639  0.3779
  975SOL    HW214559   1.530   1.117   2.174  0.3190 -1.3653 -0.6900
  976SOL     OW14560   2.555   1.435   5.702 -0.1987 -0.4808 -0.0888
  976SOL    HW114561   2.615   1.505   5.727 -1.2027 -0.1362  1.3382
  976SOL    HW214562   2.602   1.355   5.725  0.4167 -0.1898 -0.3274
  977SOL     OW14563   4.638   0.461   6.280 -0.4324  0.0239 -0.6571
  977SOL    HW114564   4.608   0.518   6.351 -2.9704 -1.7073 -0.3332
  977SOL    HW214565   4.711   0.428   6.331 -0.3654 -0.0291 -0.7882
  978SOL     OW14566   3.506   3.513   6.171  0.6285 -0.6390  0.5468
  978SOL    HW114567   3.592   3.546   6.197 -0.0383  0.9720  0.6569
  978SOL    HW214568   3.507   3.429   6.216  0.8840 -0.5217  0.7612
  979SOL     OW14569   0.480   3.739   4.067 -0.4721 -0.3001  0.0990
  979SOL    HW114570   0.484   3.648   4.098 -1.6799 -0.1801  0.5977
  979SOL    HW214571   0.414   3.725   3.998  0.0301  2.1083 -0.8588
  980SOL     OW14572   3.755   4.649   0.066  0.4946 -0.5081  0.1161
  980SOL    HW114573   3.807   4.675  17.729  0.1422 -2.7486 -0.8770
  980SOL    HW214574   3.814   4.582   0.099  0.0551 -1.3073 -0.7283
  981SOL     OW14575   4.526   0.283   1.658 -0.1159 -0.3584 -0.1117
  981SOL    HW114576   4.434   0.260   1.667 -0.2704 -0.0245 -0.8797
  981SOL    HW214577   4.526   0.284   1.563  0.5357 -2.6119 -0.1276
  982SOL     OW14578   2.276   0.486   7.178  0.3588 -0.4650 -0.1685
  982SOL    HW114579   2.297   0.479   7.271  0.0818 -0.9890 -0.1478
  982SOL    HW214580   2.183   0.464   7.176  0.6772 -1.7136 -1.3085
  983SOL     OW14581   3.097   2.741   8.172  0.1041  0.1799  0.1866
  983SOL    HW114582   3.037   2.772   8.104  0.6099  2.3595  0.7366
  983SOL    HW214583   3.051   2.661   8.196  1.1421  0.3104  2.6974
  984SOL     OW14584   3.616   3.023  12.669 -0.6438  0.4180 -0.0441
  984SOL    HW114585   3.598   2.945  12.722 -0.1521  0.5107  0.2566
  984SOL    HW214586   3.530   3.064  12.666 -0.3121  0.9874 -2.0487
  985SOL     OW14587   2.324   1.544   7.938 -0.2723  0.1527 -0.0688
  985SOL    HW114588   2.387   1.606   7.974 -0.7220  0.0900  0.8367
  985SOL    HW214589   2.380   1.466   7.943 -0.0604  0.2326 -1.4332
  986SOL     OW14590   3.801   3.398   2.375 -0.6581 -0.2920 -0.3183
  986SOL    HW114591   3.771   3.429   2.290  2.8942 -0.8862 -1.7805
  986SOL    HW214592   3.802   3.477   2.428  0.3157  0.3990 -1.3909
  987SOL     OW14593   0.836   4.321  13.222  0.0605 -0.4205  0.2116
  987SOL    HW114594   0.784   4.242  13.210 -0.8190  0.0103  1.1666
  987SOL    HW214595   0.859   4.347  13.133  1.7110  0.2063  0.8208
  988SOL     OW14596   1.674   3.158   0.401  0.0438 -0.2588  0.5311
  988SOL    HW114597   1.633   3.231   0.447  2.1791  1.3068 -0.0931
  988SOL    HW214598   1.611   3.086   0.389 -1.9119  2.1181 -3.5919
  989SOL     OW14599   0.521   4.229   4.500  0.1246  0.7934  0.3406
  989SOL    HW114600   0.485   4.260   4.417 -0.7114 -2.3625 -0.4815
  989SOL    HW214601   0.611   4.254   4.481  0.0835  0.2614 -0.5524
  990SOL     OW14602   1.130   4.459  11.982 -0.5594 -0.1230 -0.0478
  990SOL    HW114603   1.188   4.438  11.909  0.8160  0.1626  0.9531
  990SOL    HW214604   1.086   4.529  11.935 -2.5464 -1.9615 -0.9177
  991SOL     OW14605   2.757   3.438   9.200 -0.6297  0.2356  0.4577
  991SOL    HW114606   2.710   3.392   9.131  1.9205  1.5602 -2.1471
  991SOL    HW214607   2.823   3.371   9.219 -0.5298  0.6549  1.6274
  992SOL     OW14608   0.140   0.082   4.675 -0.3851 -0.1465  0.2134
  992SOL    HW114609   0.047   0.060   4.666 -0.2545 -0.3127 -0.6675
  992SOL    HW214610   0.187   4.735   4.667 -1.3435 -0.6644 -0.0504
  993SOL     OW14611   0.573   0.031   6.364  0.4994  0.4003 -0.2995
  993SOL    HW114612   0.643   0.091   6.390 -0.9355  1.0346  2.0974
  993SOL    HW214613   0.517   0.093   6.317 -1.1846 -0.6391  0.3447
  994SOL     OW14614   3.521   0.930   6.295 -0.2252 -0.3526  0.3094
  994SOL    HW114615   3.565   1.011   6.319  2.2310 -1.7220  0.5054
  994SOL    HW214616   3.592   0.881   6.252 -0.4651 -0.8051  0.4282
  995SOL     OW14617   1.420   0.592   4.650 -0.2980 -0.0841 -0.4093
  995SOL    HW114618   1.414   0.653   4.723 -1.6161 -0.8052  0.0828
  995SOL    HW214619   1.336   0.547   4.655 -0.9269  1.3473  1.8822
  996SOL     OW14620   1.709   0.690  12.131 -0.3639  0.7006  0.4984
  996SOL    HW114621   1.763   0.621  12.169  0.4586  1.5276  0.8239
  996SOL    HW214622   1.701   0.746  12.208  3.0584 -0.2313  1.5215
  997SOL     OW14623   1.887   2.255   3.548 -0.6480 -0.0269  0.5475
  997SOL    HW114624   1.842   2.210   3.477 -0.5788  1.1430 -0.2312
  997SOL    HW214625   1.973   2.213   3.553 -0.0179  1.2984  0.6545
  998SOL     OW14626   1.965   4.711   1.066  0.0833  0.2939  0.3130
  998SOL    HW114627   1.924   4.643   1.013 -1.2304  3.4099 -2.6903
  998SOL    HW214628   1.886   0.020   1.098 -0.0217  0.3950 -0.0787
  999SOL     OW14629   1.347   3.095   9.298  0.0613  0.6221  0.6848
  999SOL    HW114630   1.268   3.144   9.322 -1.4043 -0.5747 -1.7282
  999SOL    HW214631   1.312   3.007   9.307 -0.6208  0.8053 -0.2095
 1000SOL     OW14632   4.093   3.342  14.374  0.0895 -0.1277 -0.3677
 1000SOL    HW114633   4.084   3.295  14.291  1.5560 -0.5237 -0.3142
 1000SOL    HW214634   4.187   3.329  14.390 -0.4843  0.0118  2.9848
 1001SOL     OW14635   1.674   1.050   3.517  0.2871 -0.1750  0.0590
 1001SOL    HW114636   1.714   1.136   3.501 -0.7139  0.0603 -1.1886
 1001SOL    HW214637   1.756   1.002   3.527 -0.4610 -1.4984 -0.2552
 1002SOL     OW14638   2.750   3.569   4.433  0.3176  0.5739  0.8466
 1002SOL    HW114639   2.735   3.579   4.527 -2.0885 -0.8558  0.6329
 1002SOL    HW214640   2.735   3.476   4.413  0.2155  0.7217  0.2088
 1003SOL     OW14641   4.180   1.565   0.445  0.1338  0.4800  0.3066
 1003SOL    HW114642   4.222   1.492   0.491  0.8967  1.0898  0.5776
 1003SOL    HW214643   4.225   1.639   0.486  2.0457 -1.6438  2.0584
 1004SOL     OW14644   2.834   0.087  10.253 -0.2053 -0.4033 -0.2042
 1004SOL    HW114645   2.826   0.124  10.341 -0.6833 -0.5988 -0.1649
 1004SOL    HW214646   2.905   0.025  10.268  0.0750  0.2564  1.2652
 1005SOL     OW14647   3.508   0.600   4.982 -0.2463 -0.5561  0.1397
 1005SOL    HW114648   3.465   0.534   4.927 -0.9449  0.0924 -0.0960
 1005SOL    HW214649   3.428   0.633   5.023 -1.0558 -0.4805 -1.5102
 1006SOL     OW14650   4.669   0.740  11.389  0.0640  0.1652 -0.1274
 1006SOL    HW114651   0.003   0.806  11.396 -0.5541  0.7159  0.8481
 1006SOL    HW214652   4.714   0.668  11.344  0.7042  0.7166 -0.3675
 1007SOL     OW14653   3.827   3.364  11.748  0.1105 -0.0530  0.1654
 1007SOL    HW114654   3.839   3.296  11.814  0.5801  0.2557  0.3976
 1007SOL    HW214655   3.840   3.314  11.668  2.4717  0.1343  0.4405
 1008SOL     OW14656   1.386   1.379  12.491 -0.1920  0.1736  0.3573
 1008SOL    HW114657   1.344   1.323  12.426  1.7339 -0.6709 -0.1834
 1008SOL    HW214658   1.380   1.457  12.436  0.1192  0.6551  1.0045
 1009SOL     OW14659   3.392   4.113   8.212  0.1508  0.4439  0.2197
 1009SOL    HW114660   3.387   4.017   8.218  0.1184  0.5557  1.9017
 1009SOL    HW214661   3.485   4.132   8.202  0.3484  0.1410  1.4876
 1010SOL     OW14662   3.829   4.169   8.562  0.1305  0.2902 -0.4148
 1010SOL    HW114663   3.890   4.117   8.510 -0.0387  1.4254 -1.7702
 1010SOL    HW214664   3.840   4.254   8.519 -0.6767  1.2533  1.2581
 1011SOL     OW14665   2.682   4.244  17.062  0.4462 -0.0289 -0.0926
 1011SOL    HW114666   2.616   4.176  17.071 -0.6353  1.0163 -0.0587
 1011SOL    HW214667   2.637   4.309  17.116  1.4881  0.3605  0.3042
 1012SOL     OW14668   1.969   4.479  15.241  0.1414 -0.2242 -0.2713
 1012SOL    HW114669   1.946   4.556  15.293  0.4283  0.2410 -0.8331
 1012SOL    HW214670   1.913   4.419  15.290  0.6823 -1.1371 -0.7745
 1013SOL     OW14671   1.188   0.150   1.954  0.0536  0.1663 -0.3820
 1013SOL    HW114672   1.199   0.074   2.011 -2.4308  0.5391  0.6307
 1013SOL    HW214673   1.207   0.218   2.019 -2.5466 -1.8270  2.4995
 1014SOL     OW14674   3.722   2.509  13.803 -0.2020  0.0523  0.3764
 1014SOL    HW114675   3.721   2.486  13.710  0.5006  0.4880  0.2551
 1014SOL    HW214676   3.640   2.556  13.818  1.4671  2.7603  1.0132
 1015SOL     OW14677   2.507   4.329  13.408  0.6266  0.4335  0.8835
 1015SOL    HW114678   2.494   4.376  13.326 -0.7669 -0.0246  0.8302
 1015SOL    HW214679   2.560   4.264  13.363 -1.7106  0.5479 -2.0888
 1016SOL     OW14680   1.138   0.588   5.583 -0.1431  0.0934  0.2791
 1016SOL    HW114681   1.111   0.596   5.492  0.6512 -1.3218 -0.0782
 1016SOL    HW214682   1.128   0.673   5.626 -1.4722  0.2214 -0.2968
 1017SOL     OW14683   4.162   2.486   3.424 -0.2679 -0.3586  0.1581
 1017SOL    HW114684   4.101   2.432   3.374  0.0008 -0.8353  0.3429
 1017SOL    HW214685   4.223   2.431   3.474  0.6992  0.2044 -0.3959
 1018SOL     OW14686   0.378   1.790   4.236  0.2092 -0.3409  0.0023
 1018SOL    HW114687   0.431   1.779   4.158 -0.4558 -2.7559 -0.0956
 1018SOL    HW214688   0.397   1.881   4.260  0.0601 -0.4016  0.3633
 1019SOL     OW14689   3.502   1.795   5.475 -0.2287 -0.1201  0.3866
 1019SOL    HW114690   3.530   1.824   5.388  0.7920  1.9337  1.3845
 1019SOL    HW214691   3.550   1.860   5.526 -0.2834  0.5580 -0.4129
 1020SOL     OW14692   3.539   2.579   0.510  0.4921 -0.1236 -0.0720
 1020SOL    HW114693   3.582   2.662   0.532 -1.7721  1.1700 -0.5087
 1020SOL    HW214694   3.495   2.563   0.593  0.4128 -2.6023 -0.6000
 1021SOL     OW14695   1.225   3.239   6.857  0.0173  0.1084  0.3979
 1021SOL    HW114696   1.219   3.318   6.804 -1.9163 -1.0129 -1.0621
 1021SOL    HW214697   1.247   3.178   6.786  0.9419 -0.3338  1.0583
 1022SOL     OW14698   0.732   2.130   2.272 -0.2726  0.2769 -0.1051
 1022SOL    HW114699   0.785   2.065   2.225 -0.2835 -0.5295  0.9834
 1022SOL    HW214700   0.714   2.193   2.203 -0.6529 -0.2129 -0.4639
 1023SOL     OW14701   3.115   3.574   1.785 -0.1790 -0.7413 -0.1295
 1023SOL    HW114702   3.145   3.664   1.801 -2.1869 -0.0726 -0.0771
 1023SOL    HW214703   3.190   3.519   1.808 -0.1058 -0.3543  0.5784
 1024SOL     OW14704   4.217   1.149  17.090 -0.3183  0.1720 -0.5134
 1024SOL    HW114705   4.206   1.229  17.038  3.5971  1.3582  0.4460
 1024SOL    HW214706   4.251   1.188  17.171  0.5712 -0.2947 -0.6503
 1025SOL     OW14707   0.691   1.175   8.782 -0.1009  0.3381  0.8196
 1025SOL    HW114708   0.604   1.194   8.747  0.2419 -1.3876 -0.9721
 1025SOL    HW214709   0.740   1.152   8.703  2.0312  1.9195  1.6763
 1026SOL     OW14710   4.603   0.338   3.114 -0.0388 -0.0759 -0.0267
 1026SOL    HW114711   4.574   0.254   3.150  1.0494 -1.4845 -2.4367
 1026SOL    HW214712   4.682   0.303   3.072  0.6144  1.0303  0.2904
 1027SOL     OW14713   2.998   0.520   6.482  0.3071 -0.5977  0.0188
 1027SOL    HW114714   2.964   0.475   6.405  0.7600  1.8717 -1.6191
 1027SOL    HW214715   2.925   0.518   6.543  0.1885  1.7760 -0.0665
 1028SOL     OW14716   2.333   0.979   4.861  0.0762 -0.2891 -0.2630
 1028SOL    HW114717   2.316   1.066   4.898 -0.1984 -0.9282  1.1050
 1028SOL    HW214718   2.315   0.930   4.942  0.1648  0.0017 -0.0657
 1029SOL     OW14719   4.337   0.937   5.457 -0.2937  0.4737  0.1297
 1029SOL    HW114720   4.371   0.884   5.385 -0.7312 -0.0026  0.2792
 1029SOL    HW214721   4.246   0.907   5.463  1.2733 -4.0763  1.2578
 1030SOL     OW14722   2.792   2.655   7.081 -0.2332 -0.3130 -0.0177
 1030SOL    HW114723   2.840   2.695   7.008 -0.8156  0.7545  0.1875
 1030SOL    HW214724   2.859   2.627   7.144  0.2800 -0.4781 -0.6378
 1031SOL     OW14725   0.656   4.245   2.595  0.4838  0.0765 -0.0768
 1031SOL    HW114726   0.617   4.328   2.622  2.5890  0.6314  1.2266
 1031SOL    HW214727   0.690   4.214   2.679 -2.0029 -3.2124 -0.2597
 1032SOL     OW14728   2.838   0.810   9.605  0.3553 -0.0798 -0.3609
 1032SOL    HW114729   2.893   0.857   9.543  0.2643 -0.1964 -0.5314
 1032SOL    HW214730   2.855   0.718   9.582 -0.5737 -0.7063  1.4757
 1033SOL     OW14731   0.441   4.128   4.217  0.0775 -0.1758 -0.1814
 1033SOL    HW114732   0.349   4.101   4.225  0.7683 -1.4462  3.4315
 1033SOL    HW214733   0.493   4.052   4.242  1.9712  1.2266  0.1102
 1034SOL     OW14734   2.647   2.251  10.552  0.0730 -0.2201  0.2234
 1034SOL    HW114735   2.692   2.282  10.631  1.2700  0.3382 -0.6790
 1034SOL    HW214736   2.658   2.156  10.564  0.4727 -0.1815  0.1717
 1035SOL     OW14737   1.513   1.098  13.848 -0.5467 -0.1892 -0.0204
 1035SOL    HW114738   1.484   1.083  13.937  1.7721 -0.7751  0.6285
 1035SOL    HW214739   1.451   1.038  13.808  0.2471 -0.4781 -0.8425
 1036SOL     OW14740   4.211   4.392   2.208  0.2421 -0.2301  0.0081
 1036SOL    HW114741   4.238   4.417   2.297 -2.2519 -0.4195  0.8166
 1036SOL    HW214742   4.116   4.382   2.216  0.2446  0.9494  1.3949
 1037SOL     OW14743   0.901   0.009   6.257 -0.2160  0.4443 -0.5151
 1037SOL    HW114744   0.918   4.670   6.315 -2.0085  0.8891  0.5920
 1037SOL    HW214745   0.836   4.714   6.194  1.6619 -0.7220 -1.8751
 1038SOL     OW14746   1.305   1.939  17.735 -0.4019 -0.5101 -0.1280
 1038SOL    HW114747   1.323   1.979   0.080  1.1181 -0.2409 -0.5722
 1038SOL    HW214748   1.214   1.913  17.737 -1.3520  2.6193 -1.8118
 1039SOL     OW14749   2.283   0.094  13.538 -0.6913 -0.2889 -0.4335
 1039SOL    HW114750   2.336   0.125  13.465 -1.8122  2.0202 -0.2706
 1039SOL    HW214751   2.239   0.015  13.506  0.6244 -1.5485  0.8528
 1040SOL     OW14752   3.971   1.305   7.395  0.2116  0.2562 -0.1876
 1040SOL    HW114753   4.046   1.289   7.452  1.1305 -1.1397 -1.7804
 1040SOL    HW214754   3.939   1.387   7.432  1.3309  0.8558 -0.5294
 1041SOL     OW14755   0.598   2.699  16.823  0.1852  0.3016 -0.4581
 1041SOL    HW114756   0.614   2.704  16.918 -0.2334  0.2602 -0.3829
 1041SOL    HW214757   0.685   2.687  16.786  0.0530  1.4221 -1.1306
 1042SOL     OW14758   1.036   1.596   4.633 -0.6903  0.2620  0.1363
 1042SOL    HW114759   1.103   1.549   4.681 -1.6148 -2.4384 -1.2103
 1042SOL    HW214760   1.043   1.559   4.545  1.9925 -1.0206  0.9096
 1043SOL     OW14761   2.911   0.286  15.354  0.1561  0.0917  0.4210
 1043SOL    HW114762   2.865   0.369  15.351  0.2333  0.0875 -1.0222
 1043SOL    HW214763   2.898   0.243  15.269 -1.5194  0.4728  0.4943
 1044SOL     OW14764   4.285   1.994   5.311  0.0869  0.1609  0.0570
 1044SOL    HW114765   4.341   2.032   5.380  0.9258 -3.8507  1.5772
 1044SOL    HW214766   4.339   2.013   5.234  0.9332  0.2629  0.6711
 1045SOL     OW14767   0.074   2.499   6.255 -0.3166  0.8993  0.4587
 1045SOL    HW114768   0.016   2.476   6.182 -0.7164 -0.2971  1.1392
 1045SOL    HW214769   0.022   2.458   6.325  1.1361 -1.9184 -0.1322
 1046SOL     OW14770   2.246   4.135   9.739 -1.0266  0.2514 -0.1979
 1046SOL    HW114771   2.270   4.210   9.793  1.1189 -0.1047 -0.6792
 1046SOL    HW214772   2.239   4.059   9.797  0.8976 -0.2674 -0.6517
 1047SOL     OW14773   3.529   1.201  15.036  0.5818  0.2432 -0.0731
 1047SOL    HW114774   3.538   1.155  14.952 -2.3441 -1.9922  0.8126
 1047SOL    HW214775   3.596   1.164  15.093  0.9807  2.2342  0.7120
 1048SOL     OW14776   3.467   0.933   3.247  0.0852  0.1607  0.3262
 1048SOL    HW114777   3.501   0.847   3.222 -0.2406 -0.3666  1.7019
 1048SOL    HW214778   3.505   0.986   3.177 -0.9349  1.8464  1.0668
 1049SOL     OW14779   2.034   2.915  15.404 -0.1405 -0.1423  0.7945
 1049SOL    HW114780   1.962   2.851  15.410 -1.3665  0.8411 -3.3111
 1049SOL    HW214781   2.015   2.965  15.324  1.6038  0.0800  0.5384
 1050SOL     OW14782   0.320   3.322   3.342  0.4137 -0.7203 -0.5087
 1050SOL    HW114783   0.386   3.286   3.283  0.8632  1.2379 -1.1977
 1050SOL    HW214784   0.373   3.329   3.422  0.9548 -0.4773 -0.8901
 1051SOL     OW14785   2.798   4.359   7.705  0.0802  0.3780 -0.0794
 1051SOL    HW114786   2.832   4.408   7.780 -0.4673 -1.8827  1.6449
 1051SOL    HW214787   2.709   4.390   7.721  1.0683  2.4940  1.3000
 1052SOL     OW14788   3.016   0.314   2.741  0.2908 -0.2328 -0.2022
 1052SOL    HW114789   2.963   0.359   2.675  1.0155 -2.7324 -2.5145
 1052SOL    HW214790   3.017   0.228   2.697 -3.3411 -0.6698  0.5691
 1053SOL     OW14791   0.945   1.695   6.103  0.3824 -0.1201 -0.0924
 1053SOL    HW114792   0.992   1.646   6.036  1.9613 -0.8902  1.5843
 1053SOL    HW214793   0.853   1.667   6.105  0.4305 -0.3468 -0.7990
 1054SOL     OW14794   1.233   2.827   9.332 -0.3844  0.0555 -0.3889
 1054SOL    HW114795   1.159   2.844   9.275 -2.6269 -2.0048  1.9021
 1054SOL    HW214796   1.176   2.784   9.396 -1.9365  2.6152 -0.0594
 1055SOL     OW14797   2.457   3.274   0.252  0.0485 -0.2196 -0.0889
 1055SOL    HW114798   2.437   3.293   0.160  0.8930 -1.4553 -0.5259
 1055SOL    HW214799   2.547   3.305   0.258 -0.4601  0.8227  2.1407
 1056SOL     OW14800   4.147   0.816   5.246  0.1886 -0.2080 -0.3439
 1056SOL    HW114801   4.055   0.789   5.243 -0.2349  1.3701 -2.1880
 1056SOL    HW214802   4.197   0.735   5.251  0.5256  0.0828  0.8696
 1057SOL     OW14803   2.972   3.567   1.559  0.1705 -0.0944  0.3393
 1057SOL    HW114804   3.018   3.529   1.485 -0.5330  0.2056 -0.2546
 1057SOL    HW214805   3.030   3.540   1.630 -1.5298 -1.6352  1.1538
 1058SOL     OW14806   4.316   2.469  10.570  0.1116  0.7556  0.1004
 1058SOL    HW114807   4.318   2.493  10.663  2.8232  1.0788 -0.0379
 1058SOL    HW214808   4.284   2.379  10.571  3.2541 -0.4231 -2.2581
 1059SOL     OW14809   4.148   2.905   4.959  0.1059  0.1186 -0.0889
 1059SOL    HW114810   4.226   2.859   4.988 -0.6917 -0.2878  1.4287
 1059SOL    HW214811   4.178   2.930   4.872  0.0640  0.2106 -0.0768
 1060SOL     OW14812   2.360   3.567  16.672 -0.6911 -0.1066 -0.1563
 1060SOL    HW114813   2.423   3.579  16.601 -0.6317  1.4720  0.1737
 1060SOL    HW214814   2.408   3.542  16.750  2.6051  0.2545 -2.0609
 1061SOL     OW14815   3.107   0.530  15.141 -0.2302  0.2860  0.3784
 1061SOL    HW114816   3.148   0.610  15.109 -0.6904 -0.7186 -2.7428
 1061SOL    HW214817   3.087   0.555  15.231  1.7253  2.1394  0.2872
 1062SOL     OW14818   2.266   1.895  11.303 -0.1391  0.6013  0.1802
 1062SOL    HW114819   2.260   1.809  11.262  1.0723  0.7501 -0.3162
 1062SOL    HW214820   2.267   1.870  11.395 -0.2297  1.7053  0.4863
 1063SOL     OW14821   2.341   1.241   6.970  0.4661 -0.2835  0.4244
 1063SOL    HW114822   2.401   1.219   6.898  1.7851  0.5413  1.2668
 1063SOL    HW214823   2.347   1.336   6.982  2.8216 -0.3394 -0.1839
 1064SOL     OW14824   3.944   2.323  12.135 -0.3139 -0.2496 -0.2755
 1064SOL    HW114825   4.028   2.348  12.173 -1.4911  0.0373  2.1425
 1064SOL    HW214826   3.962   2.235  12.100  0.1212 -0.6740  1.0205
 1065SOL     OW14827   1.592   1.377   2.656 -0.1602  0.3073 -0.2830
 1065SOL    HW114828   1.567   1.469   2.655 -0.5913  0.2181  2.3477
 1065SOL    HW214829   1.610   1.363   2.749  0.1816  0.1570 -0.3726
 1066SOL     OW14830   3.643   1.770  16.956  0.7934 -0.5130 -0.3586
 1066SOL    HW114831   3.669   1.718  16.880 -0.2874 -0.5823 -0.6765
 1066SOL    HW214832   3.721   1.824  16.972  2.5587 -3.5010  1.2626
 1067SOL     OW14833   0.296   4.713   7.521 -0.1317 -0.1183 -0.0330
 1067SOL    HW114834   0.213   4.681   7.556 -1.1857  1.9889 -0.5915
 1067SOL    HW214835   0.356   4.681   7.588  0.2544  1.2762  0.2731
 1068SOL     OW14836   3.048   1.362   1.555  0.3939  0.5764 -0.4236
 1068SOL    HW114837   3.088   1.447   1.573 -0.5812  0.9955 -0.2821
 1068SOL    HW214838   2.961   1.400   1.554  0.0660 -0.2232 -1.6446
 1069SOL     OW14839   2.992   2.419   8.862  0.0818 -0.2323  0.2254
 1069SOL    HW114840   2.974   2.409   8.768  0.3006 -0.5959  0.2219
 1069SOL    HW214841   3.023   2.509   8.847  3.5565 -1.0800  2.2419
 1070SOL     OW14842   3.082   1.428   1.894  0.4979  0.2241  0.2763
 1070SOL    HW114843   3.053   1.392   1.978  0.0071 -1.2156 -0.5223
 1070SOL    HW214844   3.112   1.347   1.854 -0.6495 -1.1112  2.1104
 1071SOL     OW14845   4.286   1.632   8.387 -0.2668  0.0788 -0.0414
 1071SOL    HW114846   4.359   1.693   8.398 -0.0106 -0.2428  0.0478
 1071SOL    HW214847   4.320   1.554   8.430  0.8217  1.4292  1.5612
 1072SOL     OW14848   3.588   4.111   2.841  0.8804  0.5603 -0.1833
 1072SOL    HW114849   3.581   4.168   2.917 -0.0373 -0.3905  0.4444
 1072SOL    HW214850   3.576   4.021   2.872  0.1683  0.3828 -0.9824
 1073SOL     OW14851   4.555   2.194   7.720  0.0206 -0.5643 -0.5181
 1073SOL    HW114852   4.476   2.149   7.689  0.6868 -2.3305  0.3026
 1073SOL    HW214853   4.532   2.196   7.813  0.5600 -1.7527 -0.3581
 1074SOL     OW14854   1.503   0.481   5.463 -0.2940 -0.0011 -0.0987
 1074SOL    HW114855   1.575   0.433   5.505  0.5814  1.9314  0.6045
 1074SOL    HW214856   1.451   0.483   5.543  0.1026 -0.7916  0.1847
 1075SOL     OW14857   0.852   2.921   2.806  0.4915  0.0303 -0.2381
 1075SOL    HW114858   0.900   2.951   2.883 -2.4409  0.9275  1.2554
 1075SOL    HW214859   0.918   2.935   2.738 -1.2365  0.6801 -1.7629
 1076SOL     OW14860   3.678   3.501   2.117 -0.0100 -0.0938  0.1473
 1076SOL    HW114861   3.642   3.582   2.080 -1.0783 -0.6999 -0.1439
 1076SOL    HW214862   3.761   3.481   2.073 -0.6675  0.3688 -1.2970
 1077SOL     OW14863   2.066   1.579   2.110 -1.1479  0.0341 -0.3887
 1077SOL    HW114864   2.020   1.497   2.090  1.2539 -0.9476 -1.8830
 1077SOL    HW214865   2.056   1.566   2.205 -1.3713  1.5078 -0.2128
 1078SOL     OW14866   3.512   2.186   9.952 -0.2778 -0.4231  0.0675
 1078SOL    HW114867   3.470   2.272   9.956  2.5636  0.9585  0.0285
 1078SOL    HW214868   3.552   2.190  10.038  1.6402 -0.5931 -0.8058
 1079SOL     OW14869   1.073   0.238  11.474 -1.0038  0.5530 -0.3261
 1079SOL    HW114870   1.161   0.239  11.438 -1.7759  3.6171 -2.1476
 1079SOL    HW214871   1.013   0.239  11.400 -0.4745 -4.4117 -0.8198
 1080SOL     OW14872   0.491   1.556   6.583  0.5700 -0.0224  0.1933
 1080SOL    HW114873   0.494   1.627   6.519  1.0118  0.5409  0.8498
 1080SOL    HW214874   0.412   1.510   6.553  0.4170  0.3577  0.0177
 1081SOL     OW14875   4.023   1.603   3.751 -0.1522 -0.1277  0.0424
 1081SOL    HW114876   4.032   1.515   3.787  1.9445  0.0315 -0.0884
 1081SOL    HW214877   4.045   1.596   3.658  1.6784  0.4385  0.4346
 1082SOL     OW14878   3.038   2.282   5.062  0.2063 -0.5306 -0.2335
 1082SOL    HW114879   2.967   2.290   5.126  0.2812  0.3685 -0.2739
 1082SOL    HW214880   3.109   2.301   5.122  0.1581  1.0013 -0.6779
 1083SOL     OW14881   0.730   0.334  17.647  0.0223  0.5711  0.0870
 1083SOL    HW114882   0.646   0.333  17.602  0.7894  0.1026 -1.3323
 1083SOL    HW214883   0.782   0.402  17.604  1.6451 -0.8125 -0.1128
 1084SOL     OW14884   3.465   4.349   4.364 -0.2847 -0.4804  0.3289
 1084SOL    HW114885   3.509   4.397   4.434 -2.3620  1.7976  0.0663
 1084SOL    HW214886   3.484   4.412   4.294  0.2060 -0.4171  0.5208
 1085SOL     OW14887   3.145   1.447  17.496 -0.3232 -0.2642 -0.2395
 1085SOL    HW114888   3.088   1.447  17.419 -1.1344  0.0357  0.3654
 1085SOL    HW214889   3.215   1.505  17.466 -1.1619  0.9581  0.1834
 1086SOL     OW14890   3.897   3.777   0.658 -0.0489 -0.1605  0.1478
 1086SOL    HW114891   3.925   3.751   0.746 -2.3193 -1.2183  0.5606
 1086SOL    HW214892   3.936   3.863   0.642 -0.0264  0.0044  1.1089
 1087SOL     OW14893   4.263   4.457   3.439 -0.4773 -0.4928  0.3744
 1087SOL    HW114894   4.188   4.422   3.392 -1.5840  1.9667  0.3375
 1087SOL    HW214895   4.332   4.401   3.401 -2.0289 -1.2021 -1.3807
 1088SOL     OW14896   3.657   2.798   6.330 -0.4351  1.0270 -0.2597
 1088SOL    HW114897   3.644   2.713   6.374 -0.9215  0.9776 -0.4993
 1088SOL    HW214898   3.714   2.779   6.255 -1.0972  3.0016 -1.2487
 1089SOL     OW14899   4.269   0.199  13.329  0.1594  0.6312 -0.0361
 1089SOL    HW114900   4.241   0.124  13.381  0.8459 -0.8432 -1.7684
 1089SOL    HW214901   4.189   0.251  13.330 -1.1802 -1.3893 -2.5897
 1090SOL     OW14902   2.886   1.314   3.387 -0.3502 -0.0887 -0.0209
 1090SOL    HW114903   2.942   1.244   3.420  1.1804  1.6662  1.1234
 1090SOL    HW214904   2.826   1.269   3.328  0.1074 -0.3089 -0.3165
 1091SOL     OW14905   3.810   2.609  10.655 -0.9009  0.1917  0.0466
 1091SOL    HW114906   3.902   2.587  10.643 -1.2182 -1.9230  1.4795
 1091SOL    HW214907   3.830   2.655  10.737 -1.2661 -1.5599  1.1272
 1092SOL     OW14908   2.194   4.527   7.210 -0.4347  0.4092  0.6281
 1092SOL    HW114909   2.289   4.533   7.225  0.0935 -1.5095 -2.0130
 1092SOL    HW214910   2.198   4.435   7.184  2.3939  1.0150 -1.1730
 1093SOL     OW14911   2.393   4.479   8.054  0.1485  0.8114  0.1196
 1093SOL    HW114912   2.340   4.555   8.030 -0.4513  0.9273  1.7789
 1093SOL    HW214913   2.337   4.402   8.064 -1.1662  1.4563 -2.3245
 1094SOL     OW14914   0.432   1.370   5.334  0.0708  0.5349  0.4889
 1094SOL    HW114915   0.396   1.291   5.372  1.4124 -0.1819  0.2740
 1094SOL    HW214916   0.382   1.432   5.387  0.2096  1.0410  0.0330
 1095SOL     OW14917   1.251   2.076   0.246 -0.7931  0.6307  0.0119
 1095SOL    HW114918   1.298   2.093   0.327  1.9107 -1.3872 -1.1315
 1095SOL    HW214919   1.193   2.005   0.272 -1.2467  0.5345 -1.2348
 1096SOL     OW14920   2.920   1.167   3.672 -0.2107 -0.4444  0.2272
 1096SOL    HW114921   2.857   1.103   3.636 -0.9618  1.4537 -1.8409
 1096SOL    HW214922   2.989   1.105   3.697  0.3517  0.6065  1.2501
 1097SOL     OW14923   1.180   4.055  10.854  0.2214 -0.2124  0.6373
 1097SOL    HW114924   1.209   4.126  10.796  2.8413  1.5163  3.9707
 1097SOL    HW214925   1.244   3.984  10.851  0.9234  0.4665 -0.5003
 1098SOL     OW14926   4.625   4.273  15.506  0.2051 -0.1400  0.1645
 1098SOL    HW114927   4.592   4.360  15.487  1.7195  0.8425  1.9885
 1098SOL    HW214928   4.692   4.299  15.570 -0.4010  1.9455 -0.0749
 1099SOL     OW14929   4.538   1.653   5.422 -0.5640 -0.3517  0.0852
 1099SOL    HW114930   4.582   1.646   5.337 -1.3119  0.5112 -0.3806
 1099SOL    HW214931   4.600   1.712   5.463 -1.6732  2.0785 -1.6984
 1100SOL     OW14932   0.226   4.664   2.471  0.1294 -0.0523 -0.4744
 1100SOL    HW114933   0.179   4.583   2.448 -0.6058  0.3795 -0.4824
 1100SOL    HW214934   0.260   4.681   2.383  0.9433  1.5149  0.1470
 1101SOL     OW14935   3.935   0.509   6.414  0.4035  0.1802  0.7085
 1101SOL    HW114936   4.025   0.528   6.388  0.1401 -1.0087 -1.0957
 1101SOL    HW214937   3.935   0.414   6.399  1.2399  0.3070 -0.1099
 1102SOL     OW14938   3.810   2.419  14.283  0.6646  0.1121 -0.1786
 1102SOL    HW114939   3.835   2.511  14.281  0.6211  0.1541  1.4650
 1102SOL    HW214940   3.802   2.404  14.189  0.3274 -0.1679 -0.1059
 1103SOL     OW14941   1.939   3.556   0.012  0.0802 -0.1991 -0.8300
 1103SOL    HW114942   1.942   3.501  17.673  2.2497 -1.4622  0.1435
 1103SOL    HW214943   1.915   3.646  17.727 -3.3474 -0.9401 -0.1226
 1104SOL     OW14944   4.118   2.048   8.066 -0.0950  0.1823  0.2104
 1104SOL    HW114945   4.097   2.027   8.157  0.7424  0.4135  0.4504
 1104SOL    HW214946   4.191   2.109   8.080 -1.5247  1.7173  1.0790
 1105SOL     OW14947   0.612   0.883  12.209 -0.0806 -0.1475  0.7292
 1105SOL    HW114948   0.540   0.850  12.262  0.1205 -0.6144  0.7112
 1105SOL    HW214949   0.586   0.854  12.121  1.8691  0.7294 -0.1399
 1106SOL     OW14950   3.024   1.736   3.115  0.3109  0.1233 -0.5140
 1106SOL    HW114951   3.025   1.829   3.138  0.1534  0.1102 -0.4593
 1106SOL    HW214952   2.929   1.727   3.116  0.1567  1.8802  0.6210
 1107SOL     OW14953   2.506   1.661   3.164  0.3517  0.5110 -0.4078
 1107SOL    HW114954   2.436   1.717   3.197  0.3132  0.0729  0.2439
 1107SOL    HW214955   2.508   1.597   3.234 -1.3014  0.4457 -0.4266
 1108SOL     OW14956   3.865   2.692  14.319  0.3601  0.9719  0.0118
 1108SOL    HW114957   3.904   2.776  14.345  0.1440  1.5497 -1.5206
 1108SOL    HW214958   3.808   2.723  14.248 -0.0003  1.9181  0.7127
 1109SOL     OW14959   2.625   3.104   4.982  1.0383  0.3894  0.4788
 1109SOL    HW114960   2.581   3.020   4.982  1.1255  0.3435  0.4595
 1109SOL    HW214961   2.717   3.086   4.963  0.9347  0.8543 -0.4843
 1110SOL     OW14962   1.277   0.729  16.638  0.4563  0.0356 -0.0807
 1110SOL    HW114963   1.302   0.664  16.704 -0.5099  0.8482  1.0998
 1110SOL    HW214964   1.187   0.698  16.624  0.8644  0.7408 -4.2674
 1111SOL     OW14965   2.406   0.177   5.768 -0.1299  0.3996 -0.0282
 1111SOL    HW114966   2.493   0.141   5.751  0.1465  0.9709  0.2000
 1111SOL    HW214967   2.354   0.105   5.805  0.2271  0.7544  1.1477
 1112SOL     OW14968   4.649   2.059   4.706  0.1235 -0.2668  0.0658
 1112SOL    HW114969   4.607   2.016   4.632 -0.1748  1.5986 -0.8594
 1112SOL    HW214970   4.585   2.131   4.707  1.4065  0.8988 -1.7101
 1113SOL     OW14971   2.897   4.610   2.914 -0.4039 -0.1398  0.0689
 1113SOL    HW114972   2.960   4.640   2.979 -0.3351 -1.7293  0.7416
 1113SOL    HW214973   2.964   4.571   2.857  0.6478  0.5152  0.8488
 1114SOL     OW14974   2.682   1.957  13.230  0.3216  0.6913 -0.2118
 1114SOL    HW114975   2.698   1.913  13.147  0.5362 -1.0063  0.7167
 1114SOL    HW214976   2.589   1.978  13.224  0.1598  0.7862  2.3819
 1115SOL     OW14977   1.511   0.786   7.744  0.0631  0.1705  0.0381
 1115SOL    HW114978   1.543   0.862   7.695 -1.0634  0.5708 -0.0820
 1115SOL    HW214979   1.514   0.817   7.835 -0.5322 -1.7644  0.7174
 1116SOL     OW14980   2.906   1.462   4.111  0.4868  0.4049  0.0350
 1116SOL    HW114981   2.878   1.405   4.183 -3.0495  1.4352 -0.5382
 1116SOL    HW214982   2.821   1.481   4.072 -0.2762 -2.5873  0.2743
 1117SOL     OW14983   2.029   4.301   6.087 -0.1093 -0.2694 -0.6934
 1117SOL    HW114984   1.942   4.268   6.065 -1.4768  2.6400  0.4937
 1117SOL    HW214985   2.059   4.241   6.156  0.3774 -0.9456 -1.4857
 1118SOL     OW14986   3.713   4.127  16.162 -0.4363  0.6467 -0.2650
 1118SOL    HW114987   3.736   4.200  16.220  1.9999 -0.0253 -0.3774
 1118SOL    HW214988   3.627   4.150  16.127  0.3335  1.5995 -1.5141
 1119SOL     OW14989   2.062   3.524   5.239  0.2193 -0.4601 -0.5272
 1119SOL    HW114990   2.074   3.453   5.175 -0.0209  0.1880 -1.2861
 1119SOL    HW214991   2.029   3.478   5.316  1.3848 -1.8852 -0.8594
 1120SOL     OW14992   2.575   0.889  15.534 -0.3628 -0.1506 -0.6022
 1120SOL    HW114993   2.656   0.854  15.496  0.2410  0.6716 -0.0965
 1120SOL    HW214994   2.533   0.934  15.460 -1.2143 -1.2014 -0.7461
 1121SOL     OW14995   4.123   2.505  12.296  0.4021  0.5724  0.8502
 1121SOL    HW114996   4.141   2.562  12.220  1.4482 -2.5941 -1.2861
 1121SOL    HW214997   4.207   2.489  12.338 -0.7085 -1.9474  2.0881
 1122SOL     OW14998   2.582   3.106  11.118 -0.3189  0.7820  0.4396
 1122SOL    HW114999   2.640   3.029  11.119 -1.8176 -0.3961 -2.2775
 1122SOL    HW215000   2.497   3.070  11.092  0.9852  0.1760 -2.9780
 1123SOL     OW15001   4.174   2.433   9.596 -0.2017 -0.0278  0.3547
 1123SOL    HW115002   4.263   2.447   9.564 -0.4107 -0.3814 -0.3943
 1123SOL    HW215003   4.171   2.339   9.612 -1.9414 -0.0148  0.1323
 1124SOL     OW15004   3.031   2.425   6.539  0.0386 -0.7402  0.1736
 1124SOL    HW115005   3.111   2.419   6.591  0.5735  2.1048 -0.3399
 1124SOL    HW215006   2.988   2.352   6.585  0.9102  0.0411  2.2460
 1125SOL     OW15007   0.241   2.595  12.348 -0.2452 -0.0553 -0.3038
 1125SOL    HW115008   0.231   2.623  12.257 -1.0810  1.0341  0.1199
 1125SOL    HW215009   0.249   2.499  12.348  2.0278  0.1556  3.1642
 1126SOL     OW15010   2.645   1.244  17.634 -0.3102  0.6602  0.3329
 1126SOL    HW115011   2.704   1.176  17.666  0.2829  1.1949  0.3672
 1126SOL    HW215012   2.564   1.224  17.681 -0.5243 -0.6496 -0.6179
 1127SOL     OW15013   2.476   3.794   9.439  0.2740  0.0096  0.1119
 1127SOL    HW115014   2.487   3.830   9.351 -1.0499  0.6920  0.2265
 1127SOL    HW215015   2.486   3.872   9.494 -3.5895  0.1777  0.6108
 1128SOL     OW15016   2.142   1.064   5.978 -0.5501  0.1713 -0.3971
 1128SOL    HW115017   2.102   1.064   6.065  0.3645  2.5533  0.0387
 1128SOL    HW215018   2.061   1.043   5.931 -0.1973  0.9375 -1.3540
 1129SOL     OW15019   1.066   1.939   8.383 -0.0566 -0.2864 -0.3968
 1129SOL    HW115020   0.999   1.968   8.445 -0.4975  3.1423 -2.4905
 1129SOL    HW215021   1.144   1.977   8.424  0.9757  0.4366 -3.0618
 1130SOL     OW15022   2.361   2.092  11.004 -0.3077  0.3649  0.4933
 1130SOL    HW115023   2.416   2.082  11.082  0.5913 -0.8215 -0.2836
 1130SOL    HW215024   2.320   2.178  11.002 -0.5674  0.1790 -2.1152
 1131SOL     OW15025   3.056   0.285   0.280 -0.7337 -0.2521  0.2344
 1131SOL    HW115026   3.082   0.336   0.203  2.0695 -0.5798  0.9652
 1131SOL    HW215027   3.129   0.223   0.277  0.1378  0.7829 -0.1804
 1132SOL     OW15028   3.215   1.263   1.331  0.1835 -0.1790 -0.2224
 1132SOL    HW115029   3.144   1.319   1.363  1.1688  0.0477  1.5442
 1132SOL    HW215030   3.248   1.224   1.412  3.6317  1.5934 -0.7945
 1133SOL     OW15031   3.508   3.804   2.474 -0.0736  0.1102  0.0807
 1133SOL    HW115032   3.469   3.885   2.507 -1.4325 -0.4213 -0.1944
 1133SOL    HW215033   3.442   3.778   2.409  1.6012  1.2026 -2.0483
 1134SOL     OW15034   0.655   3.190   8.604 -0.2329  0.8488  0.2425
 1134SOL    HW115035   0.721   3.254   8.579 -0.1498 -0.2030 -2.2373
 1134SOL    HW215036   0.569   3.230   8.586 -1.0844 -0.2642  1.8243
 1135SOL     OW15037   3.525   0.584   0.933 -0.7765  0.3646  0.1633
 1135SOL    HW115038   3.543   0.568   1.026  1.3265 -0.3642 -0.3647
 1135SOL    HW215039   3.604   0.626   0.899 -1.0884  1.0112  0.2345
 1136SOL     OW15040   3.268   0.404   8.184  0.3736  0.3431  0.3607
 1136SOL    HW115041   3.295   0.313   8.184  0.2032  0.2816 -2.1589
 1136SOL    HW215042   3.334   0.439   8.124  1.5495 -0.5843  1.1209
 1137SOL     OW15043   0.712   4.340   8.637 -0.7942  0.0034  0.5746
 1137SOL    HW115044   0.692   4.299   8.552  0.6298 -0.1335  0.3072
 1137SOL    HW215045   0.628   4.362   8.677 -0.6694  0.4343  0.5953
 1138SOL     OW15046   3.676   4.031   2.181 -0.2374  0.2557  0.1954
 1138SOL    HW115047   3.713   4.050   2.095  1.0193  1.5112  1.0017
 1138SOL    HW215048   3.696   4.111   2.231  0.2437  0.1475  0.1828
 1139SOL     OW15049   3.876   2.199   1.673 -0.8858 -0.1837 -0.5508
 1139SOL    HW115050   3.804   2.259   1.693 -0.3723  0.5682 -0.9477
 1139SOL    HW215051   3.917   2.254   1.606  2.4843 -1.2801  0.6205
 1140SOL     OW15052   0.993   1.087   9.170  0.0922  0.3672 -0.1261
 1140SOL    HW115053   0.988   1.103   9.076  0.1813  3.9936  0.4903
 1140SOL    HW215054   0.928   1.019   9.186  0.1797  0.3920  0.3279
 1141SOL     OW15055   4.137   0.018   0.187  0.1942 -0.0878 -0.3499
 1141SOL    HW115056   4.103   0.100   0.151  1.8832  0.0170 -1.7353
 1141SOL    HW215057   4.231   0.018   0.167  0.6731  0.4732  1.8712
 1142SOL     OW15058   0.468   3.609   7.710  0.0067  0.0584  0.8350
 1142SOL    HW115059   0.537   3.671   7.731  1.1018 -0.6625 -0.6508
 1142SOL    HW215060   0.464   3.631   7.617  0.7151 -0.1237  0.7631
 1143SOL     OW15061   4.645   3.560   3.851  0.2784  0.2778  0.4097
 1143SOL    HW115062   4.722   3.532   3.802  0.8769  2.4509  0.1456
 1143SOL    HW215063   4.620   3.482   3.901 -1.6571  1.3141  1.0672
 1144SOL     OW15064   1.789   4.406   3.828 -0.0114 -0.6313  0.5149
 1144SOL    HW115065   1.764   4.441   3.914 -1.2506 -3.5902  1.3784
 1144SOL    HW215066   1.860   4.465   3.804 -0.3687 -0.0078  0.9832
 1145SOL     OW15067   3.337   0.431  16.319  1.0603  0.1570 -0.7688
 1145SOL    HW115068   3.333   0.352  16.373  0.9868  1.4361  1.0862
 1145SOL    HW215069   3.358   0.503  16.379  0.5901 -1.3650  1.2134
 1146SOL     OW15070   3.493   4.052   9.005 -0.3328  0.0069 -0.0631
 1146SOL    HW115071   3.438   4.123   9.038 -0.1487  0.4425 -0.6826
 1146SOL    HW215072   3.435   3.978   9.024 -0.2424  0.1022  0.5735
 1147SOL     OW15073   1.639   2.006  14.457 -0.3950 -0.4807  0.0445
 1147SOL    HW115074   1.692   2.072  14.501  0.8607 -0.2290 -1.8656
 1147SOL    HW215075   1.627   2.055  14.375  0.0148  0.4359  0.5292
 1148SOL     OW15076   2.490   4.571   4.299  0.5830  0.0672 -0.1941
 1148SOL    HW115077   2.481   4.656   4.254 -1.0333  0.0653  0.1484
 1148SOL    HW215078   2.526   4.606   4.380  0.4931  0.6374 -0.3954
 1149SOL     OW15079   4.164   0.493   8.484 -0.2982 -0.1448 -0.1181
 1149SOL    HW115080   4.140   0.572   8.436 -0.8499  0.9766  1.9832
 1149SOL    HW215081   4.136   0.525   8.570  4.1058 -1.9038  2.0053
 1150SOL     OW15082   2.824   0.413   7.800  0.4356 -0.2904  0.9811
 1150SOL    HW115083   2.878   0.392   7.876 -0.1790 -1.2225  1.1544
 1150SOL    HW215084   2.882   0.386   7.728 -0.5877  1.3075 -0.4302
 1151SOL     OW15085   0.738   3.849  13.572  0.2638  0.6115 -0.0862
 1151SOL    HW115086   0.807   3.783  13.565 -1.4279 -1.2033  0.5828
 1151SOL    HW215087   0.780   3.917  13.518  2.0516  0.3089  0.9203
 1152SOL     OW15088   3.604   2.591   5.646  0.2133 -0.2074  0.3271
 1152SOL    HW115089   3.614   2.670   5.592 -0.9984  0.4422  1.0450
 1152SOL    HW215090   3.677   2.599   5.707  0.6486 -0.3372 -0.1750
 1153SOL     OW15091   2.960   0.567  12.253 -0.0782 -0.7263 -0.1234
 1153SOL    HW115092   2.946   0.648  12.204  1.9149 -1.1560 -1.3984
 1153SOL    HW215093   3.016   0.605  12.321 -0.5130  2.2123 -1.4379
 1154SOL     OW15094   2.734   3.714  13.043  0.3280 -0.2988  0.2004
 1154SOL    HW115095   2.817   3.676  13.072 -0.2263 -1.5357  0.1641
 1154SOL    HW215096   2.686   3.649  12.992  1.0023 -2.0728  1.8158
 1155SOL     OW15097   4.002   3.947   5.247 -1.1600 -0.0684  0.2078
 1155SOL    HW115098   3.939   3.976   5.312  0.2240  2.2741  0.5144
 1155SOL    HW215099   4.003   4.018   5.183 -1.2606  1.1690  1.5941
 1156SOL     OW15100   2.223   2.551  11.289  0.3034  0.2951  0.3834
 1156SOL    HW115101   2.241   2.644  11.275 -0.4144  0.3201 -0.4049
 1156SOL    HW215102   2.308   2.531  11.328 -0.5624 -0.2984  1.9582
 1157SOL     OW15103   3.836   4.273  15.912  0.0076 -0.4405  0.2754
 1157SOL    HW115104   3.790   4.339  15.860  0.6508 -0.3606 -0.2028
 1157SOL    HW215105   3.768   4.237  15.968 -1.1772  2.3889  0.6397
 1158SOL     OW15106   3.861   1.605   4.707  0.0405  0.2722 -0.4028
 1158SOL    HW115107   3.777   1.646   4.686 -0.4592 -0.0841  0.8995
 1158SOL    HW215108   3.870   1.638   4.797 -0.9535 -1.3858  0.3128
 1159SOL     OW15109   3.034   1.671   5.361  0.2341 -0.1528 -0.0814
 1159SOL    HW115110   3.036   1.761   5.396 -1.0378 -0.5584  1.0274
 1159SOL    HW215111   2.955   1.631   5.396 -1.5135 -0.5355 -4.4484
 1160SOL     OW15112   3.652   0.297  17.457 -0.1830  0.5838 -0.4367
 1160SOL    HW115113   3.606   0.315  17.375 -2.0017 -0.7754  0.2949
 1160SOL    HW215114   3.612   0.220  17.496 -1.1878  0.8693 -0.9123
 1161SOL     OW15115   1.952   3.755  15.634 -0.3758  0.7154  0.4554
 1161SOL    HW115116   2.003   3.729  15.711 -2.6172 -0.3314  1.6049
 1161SOL    HW215117   1.954   3.849  15.617  1.8774  0.3271 -1.4287
 1162SOL     OW15118   0.464   3.508   4.611 -0.0375  0.2721  0.3040
 1162SOL    HW115119   0.536   3.569   4.627  0.8491 -1.1317  1.5137
 1162SOL    HW215120   0.430   3.510   4.700 -0.3496  0.6273  0.1791
 1163SOL     OW15121   0.911   0.185   1.923  0.2485  0.1383  0.5993
 1163SOL    HW115122   1.005   0.175   1.909  0.2190 -2.6339  2.2191
 1163SOL    HW215123   0.896   0.176   2.017 -1.7015  0.7521  0.3279
 1164SOL     OW15124   2.341   0.344   1.684 -0.0102 -0.2017  0.0606
 1164SOL    HW115125   2.276   0.277   1.664  0.2067  0.0672 -1.5030
 1164SOL    HW215126   2.296   0.405   1.743  0.8088  0.8119 -0.3644
 1165SOL     OW15127   2.528   0.449   9.182  0.2439  0.2241 -0.1702
 1165SOL    HW115128   2.509   0.542   9.194  0.2550  0.4618 -2.1174
 1165SOL    HW215129   2.442   0.420   9.151 -0.9449 -0.8205  4.0159
 1166SOL     OW15130   4.595   2.758  13.415  0.7728 -0.1382 -0.1830
 1166SOL    HW115131   4.544   2.789  13.490  0.5292 -0.3868 -0.2484
 1166SOL    HW215132   4.629   2.841  13.381 -0.1224 -0.3487 -1.5896
 1167SOL     OW15133   2.444   0.505   9.498  0.2173 -0.8428  0.3509
 1167SOL    HW115134   2.379   0.542   9.438  2.4499 -0.2180 -1.6787
 1167SOL    HW215135   2.452   0.413   9.473  0.3787 -1.2901  2.0589
 1168SOL     OW15136   2.478   0.119   2.270  0.7784  0.2085 -0.1559
 1168SOL    HW115137   2.548   0.054   2.281  1.4146  0.6048 -1.7699
 1168SOL    HW215138   2.490   0.132   2.176  0.8671  1.9169  0.0871
 1169SOL     OW15139   1.423   0.472   2.382  0.4040  0.1652  0.4990
 1169SOL    HW115140   1.332   0.458   2.408  0.2002 -0.5278 -0.5623
 1169SOL    HW215141   1.475   0.466   2.462 -0.2515 -0.6452  0.8661
 1170SOL     OW15142   3.805   3.121   1.533 -0.4740  0.0093 -1.0069
 1170SOL    HW115143   3.853   3.123   1.616  0.4568 -0.3277 -1.5309
 1170SOL    HW215144   3.875   3.099   1.472 -0.6242 -0.0319 -1.1652
 1171SOL     OW15145   2.546   2.974   1.496 -0.2244  0.2126 -0.0536
 1171SOL    HW115146   2.456   2.991   1.523 -0.1806 -0.7752  0.7090
 1171SOL    HW215147   2.594   3.054   1.519  1.5758 -0.2980 -2.1288
 1172SOL     OW15148   3.943   1.554   7.496  0.1694  0.0952 -0.2359
 1172SOL    HW115149   3.925   1.599   7.579  1.2905 -1.7170  0.9688
 1172SOL    HW215150   3.967   1.627   7.438 -1.5255 -0.8682 -2.1341
 1173SOL     OW15151   0.007   1.293   6.000  0.4660  0.3664 -0.4239
 1173SOL    HW115152   0.084   1.242   5.977  1.3560  2.1698 -1.5025
 1173SOL    HW215153   4.676   1.226   6.017  0.2854  0.3221 -1.3039
 1174SOL     OW15154   1.333   2.512   5.207  0.1639 -0.6101  0.2153
 1174SOL    HW115155   1.400   2.454   5.242 -0.6036 -0.7856  1.3656
 1174SOL    HW215156   1.396   2.574   5.170 -0.7813  0.9869  1.2866
 1175SOL     OW15157   3.709   2.596   4.334  0.3410  0.3858  0.0941
 1175SOL    HW115158   3.671   2.538   4.400  1.5816 -1.5508 -0.8834
 1175SOL    HW215159   3.670   2.680   4.358  2.8186  0.3528  4.2965
 1176SOL     OW15160   1.860   1.742  11.361 -0.0459  0.3185  0.1186
 1176SOL    HW115161   1.823   1.657  11.337 -2.9945  2.1501 -1.7825
 1176SOL    HW215162   1.951   1.736  11.332  0.0959 -2.5067  1.1019
 1177SOL     OW15163   1.202   1.889  16.216  0.0211 -0.0622  0.2644
 1177SOL    HW115164   1.110   1.916  16.215 -0.1223 -0.5052  0.7620
 1177SOL    HW215165   1.240   1.936  16.142 -0.0209 -1.1965 -0.4701
 1178SOL     OW15166   2.908   3.472   5.736  0.2007  0.3803 -1.6981
 1178SOL    HW115167   2.869   3.394   5.775  0.6504  1.5581  1.1177
 1178SOL    HW215168   3.001   3.469   5.760  0.0954  1.1533 -1.1864
 1179SOL     OW15169   4.557   1.233   4.996  0.5401  0.0303 -0.0126
 1179SOL    HW115170   4.493   1.205   4.931 -1.3039  0.6079  1.5720
 1179SOL    HW215171   4.550   1.167   5.065 -1.1979 -0.1336 -0.3658
 1180SOL     OW15172   1.327   3.058   7.907 -0.7858 -0.5456  0.0133
 1180SOL    HW115173   1.349   3.038   7.816 -0.9564 -1.3042  0.1432
 1180SOL    HW215174   1.236   3.033   7.920 -0.9918  0.5900  0.7792
 1181SOL     OW15175   3.803   0.513   2.517 -0.1913  0.2234  0.1779
 1181SOL    HW115176   3.844   0.513   2.604  0.3911  0.4374 -0.0937
 1181SOL    HW215177   3.857   0.437   2.495 -1.0908 -0.3518 -0.0377
 1182SOL     OW15178   1.649   1.959   7.657 -0.3109 -0.1995  0.4705
 1182SOL    HW115179   1.713   1.900   7.616  0.1519  2.6334 -2.9175
 1182SOL    HW215180   1.637   1.906   7.736 -2.6870  0.7865  0.7814
 1183SOL     OW15181   1.934   1.419  12.606 -0.4484 -0.0550  0.0478
 1183SOL    HW115182   1.975   1.488  12.554 -2.7728  1.8405  0.6993
 1183SOL    HW215183   1.914   1.359  12.534  2.6743  0.2043 -1.0104
 1184SOL     OW15184   1.877   2.678   9.533 -0.4416 -0.4237  0.4681
 1184SOL    HW115185   1.788   2.677   9.497 -0.5517  1.6962  0.6630
 1184SOL    HW215186   1.923   2.721   9.460  0.0999  1.2253  1.7885
 1185SOL     OW15187   2.334   0.259   6.506 -0.0340 -0.2708 -0.1339
 1185SOL    HW115188   2.407   0.268   6.445  0.8138 -1.4926  0.7115
 1185SOL    HW215189   2.336   0.167   6.533  0.2817 -0.3367 -0.3896
 1186SOL     OW15190   0.370   0.315   3.112  0.3327  0.0310  0.7758
 1186SOL    HW115191   0.293   0.289   3.162  0.1230 -1.5749 -0.3908
 1186SOL    HW215192   0.363   0.410   3.112 -2.3570 -0.1895  0.2770
 1187SOL     OW15193   1.779   1.701   4.580 -0.7708  0.7923 -0.4681
 1187SOL    HW115194   1.866   1.672   4.608 -0.2090  2.3100 -0.6963
 1187SOL    HW215195   1.753   1.759   4.652 -0.5459 -1.4663  1.4438
 1188SOL     OW15196   0.161   4.613   9.890  0.7256  0.3497 -0.0719
 1188SOL    HW115197   0.076   4.647   9.862  0.3135 -0.0520  0.6886
 1188SOL    HW215198   0.174   4.534   9.838 -1.0873 -1.7213  2.5909
 1189SOL     OW15199   4.071   1.960   3.269  0.0612  1.0241  0.8243
 1189SOL    HW115200   4.072   1.871   3.302 -1.6714  0.7725  0.2064
 1189SOL    HW215201   3.976   1.970   3.257 -0.0160 -0.1185  0.5312
 1190SOL     OW15202   2.773   3.005   3.782 -0.8875  0.5178  0.0870
 1190SOL    HW115203   2.851   2.976   3.829 -1.3553 -0.5068  0.2250
 1190SOL    HW215204   2.808   3.080   3.734 -1.8758  0.5087 -0.6242
 1191SOL     OW15205   3.766   3.836  14.888 -0.4870  0.2686  0.5015
 1191SOL    HW115206   3.831   3.898  14.922  1.3123 -0.0893 -2.3004
 1191SOL    HW215207   3.777   3.838  14.793 -0.7650 -2.4578  0.3952
 1192SOL     OW15208   4.015   4.375   2.616 -0.0246  0.4277 -0.2126
 1192SOL    HW115209   3.923   4.349   2.616  0.4763 -1.3190 -0.5265
 1192SOL    HW215210   4.061   4.311   2.670  0.3810  1.2819  0.4617
 1193SOL     OW15211   1.601   0.682  16.144  1.1545  0.0666  0.2926
 1193SOL    HW115212   1.649   0.762  16.163 -0.8403  1.2253  0.4945
 1193SOL    HW215213   1.588   0.633  16.225 -1.7562 -0.7930 -0.6699
 1194SOL     OW15214   3.858   1.793   7.144 -0.8488 -0.2200 -0.1452
 1194SOL    HW115215   3.854   1.878   7.189  3.3366  0.3483 -0.8597
 1194SOL    HW215216   3.906   1.823   7.067 -2.1669  2.8721  0.2470
 1195SOL     OW15217   4.236   4.644   8.752 -0.3756  0.3810 -0.2374
 1195SOL    HW115218   4.155   4.619   8.710  0.3879  1.2457 -2.2143
 1195SOL    HW215219   4.284   4.563   8.732 -0.9859  0.4059 -1.7496
 1196SOL     OW15220   3.102   1.499   0.149  0.2861  0.0488 -0.7731
 1196SOL    HW115221   3.179   1.444   0.133  1.5737  1.2192  1.4439
 1196SOL    HW215222   3.140   1.584   0.172  0.0789 -0.7776  2.7123
 1197SOL     OW15223   2.485   4.014  15.928  0.1487  0.2231  0.5518
 1197SOL    HW115224   2.556   4.066  15.964  1.6318 -0.6864 -1.0779
 1197SOL    HW215225   2.454   4.067  15.855  3.1855  0.3108 -0.6733
 1198SOL     OW15226   2.537   3.446  14.331  0.5508 -0.1649 -0.1135
 1198SOL    HW115227   2.579   3.410  14.410 -0.4849  0.5516  0.7565
 1198SOL    HW215228   2.443   3.451  14.349  0.5985  0.6533 -0.0798
 1199SOL     OW15229   3.149   1.308   3.766 -0.4695  0.1928 -0.2580
 1199SOL    HW115230   3.197   1.229   3.744  1.1969  0.9517  0.6850
 1199SOL    HW215231   3.068   1.301   3.714 -0.4944  3.4122 -0.7001
 1200SOL     OW15232   2.545   4.106   4.256  0.8209 -0.0691  0.3461
 1200SOL    HW115233   2.477   4.046   4.225 -0.7345  1.8540  0.0144
 1200SOL    HW215234   2.558   4.074   4.345  0.8920 -0.3462  0.2352
 1201SOL     OW15235   1.586   4.367   7.157  0.2577 -0.5363 -0.0484
 1201SOL    HW115236   1.630   4.452   7.157  2.4789 -1.7072 -0.4847
 1201SOL    HW215237   1.640   4.334   7.228  0.7850  2.2320  0.8148
 1202SOL     OW15238   0.028   4.065   8.770 -0.6497 -0.0130  0.6436
 1202SOL    HW115239   4.696   4.015   8.723  0.6471  0.3650 -1.6300
 1202SOL    HW215240   0.084   4.094   8.698 -2.9146  0.8346 -0.7897
 1203SOL     OW15241   1.922   0.650   3.577 -0.2736 -0.2363  0.3129
 1203SOL    HW115242   1.975   0.590   3.630 -0.4194  0.0911  0.8335
 1203SOL    HW215243   1.892   0.586   3.513 -1.0194 -1.0488  1.4984
 1204SOL     OW15244   3.116   1.518   8.032  0.8157  0.4068 -0.2496
 1204SOL    HW115245   3.079   1.504   8.119  2.0468 -0.2697  0.1735
 1204SOL    HW215246   3.097   1.611   8.020  0.1575  0.2576 -0.3342
 1205SOL     OW15247   2.673   4.149  13.269 -0.5501  0.3322 -0.1682
 1205SOL    HW115248   2.763   4.123  13.290 -0.1142  0.9344 -1.2802
 1205SOL    HW215249   2.672   4.153  13.174  0.1461 -0.2097 -0.1999
 1206SOL     OW15250   0.031   4.631   4.445 -0.2434 -0.4202 -0.3353
 1206SOL    HW115251   0.047   4.703   4.384  1.0483  0.4198  0.9961
 1206SOL    HW215252   4.718   4.671   4.517  1.1661 -2.6090  1.8577
 1207SOL     OW15253   4.512   2.149   5.383  0.0369 -0.4663  0.0061
 1207SOL    HW115254   4.545   2.222   5.330 -0.5015 -0.1283  0.1424
 1207SOL    HW215255   4.571   2.076   5.367  0.0449 -0.7275  1.2797
 1208SOL     OW15256   0.768   1.051   5.360  0.6231 -0.3708  0.1615
 1208SOL    HW115257   0.751   1.144   5.342  2.3179 -0.0195  0.3345
 1208SOL    HW215258   0.679   1.018   5.369  0.1787  0.9089  0.5192
 1209SOL     OW15259   0.708   1.451   1.349  0.2158 -0.3458  0.4203
 1209SOL    HW115260   0.656   1.531   1.354  0.5970 -0.0371 -0.6051
 1209SOL    HW215261   0.749   1.467   1.265 -0.8463  0.7708  0.1203
 1210SOL     OW15262   3.274   3.390  16.685 -0.0004  0.1099 -0.2745
 1210SOL    HW115263   3.184   3.377  16.654  0.1888 -0.4304 -0.6109
 1210SOL    HW215264   3.300   3.459  16.624  0.7938 -0.2807 -0.3797
 1211SOL     OW15265   4.517   0.781   6.373 -0.0765  0.5293 -0.7821
 1211SOL    HW115266   4.525   0.761   6.467 -1.0009  2.1764 -0.3443
 1211SOL    HW215267   4.428   0.815   6.370  0.0143  0.8175 -0.3149
 1212SOL     OW15268   2.708   1.681   2.783  0.3534  0.2510 -0.1192
 1212SOL    HW115269   2.722   1.774   2.766  0.7603  0.0392 -0.9637
 1212SOL    HW215270   2.693   1.678   2.877  1.5524  2.4824  0.1473
 1213SOL     OW15271   0.967   3.002   6.470 -0.0252  0.1892  0.0161
 1213SOL    HW115272   1.028   3.070   6.499  0.5991 -0.9037  1.2488
 1213SOL    HW215273   0.940   2.961   6.552 -0.6688 -0.5132 -0.5465
 1214SOL     OW15274   1.776   2.167   4.300 -0.2065  0.4248 -0.2718
 1214SOL    HW115275   1.865   2.202   4.295  0.2017 -0.6978 -0.8599
 1214SOL    HW215276   1.784   2.087   4.248 -1.9611 -0.2330  0.4930
 1215SOL     OW15277   2.794   3.524   6.085  0.2935 -0.0910  0.4916
 1215SOL    HW115278   2.700   3.512   6.074  0.0262  1.7531  0.8597
 1215SOL    HW215279   2.832   3.442   6.053  0.5695  0.3013 -0.1774
 1216SOL     OW15280   0.061   1.411   5.357  0.5600  0.0785  0.4949
 1216SOL    HW115281   0.074   1.423   5.451  5.8258  0.9819 -0.3494
 1216SOL    HW215282   0.092   1.499   5.336 -0.6944  0.0265 -1.5227
 1217SOL     OW15283   3.898   4.228   6.507  0.2204  0.1758  0.5027
 1217SOL    HW115284   3.886   4.137   6.533 -1.3382  0.5682  1.1894
 1217SOL    HW215285   3.917   4.226   6.413  1.3861 -2.6327  0.8030
 1218SOL     OW15286   0.020   3.064   2.278 -0.0931  0.5858 -0.2623
 1218SOL    HW115287   4.726   3.079   2.188 -0.1632  3.0598  0.1864
 1218SOL    HW215288   4.705   3.129   2.328 -1.4227  0.3643 -1.2881
 1219SOL     OW15289   4.432   1.952   3.063 -0.7758 -0.1799  0.1154
 1219SOL    HW115290   4.523   1.939   3.088 -0.6173  1.6291  0.4734
 1219SOL    HW215291   4.428   1.905   2.979 -1.2291  1.5265 -0.8048
 1220SOL     OW15292   1.630   3.868   4.654 -0.7797 -0.1422 -0.2369
 1220SOL    HW115293   1.631   3.893   4.562  1.0698  2.2340  0.4293
 1220SOL    HW215294   1.722   3.853   4.671 -0.7264  2.4634  1.7463
 1221SOL     OW15295   1.846   0.882  10.715 -0.9301  0.5584 -0.0351
 1221SOL    HW115296   1.908   0.923  10.654 -1.0550  1.5545  0.5083
 1221SOL    HW215297   1.815   0.801  10.675 -0.6364  1.1033 -1.3864
 1222SOL     OW15298   3.209   0.461   6.656 -1.2666 -0.0808  0.3683
 1222SOL    HW115299   3.144   0.527   6.630 -0.4050  0.0776 -1.3911
 1222SOL    HW215300   3.263   0.505   6.722  0.7417  0.9746 -2.0208
 1223SOL     OW15301   4.515   3.503   6.766  0.4197  0.3835 -0.0934
 1223SOL    HW115302   4.447   3.563   6.737 -0.9145  0.3623  2.9210
 1223SOL    HW215303   4.546   3.483   6.678 -1.3653 -2.3632 -0.0957
 1224SOL     OW15304   2.322   3.850   1.913  0.0784  0.3629 -0.8012
 1224SOL    HW115305   2.316   3.780   1.978 -1.7443 -0.7013 -2.1252
 1224SOL    HW215306   2.230   3.862   1.893 -0.3332 -0.6091  0.5131
 1225SOL     OW15307   3.851   3.521   5.944 -0.3074 -0.8379  1.0040
 1225SOL    HW115308   3.813   3.434   5.933 -0.3412 -0.6355 -0.4541
 1225SOL    HW215309   3.943   3.497   5.956  0.6413  2.2292 -0.3033
 1226SOL     OW15310   3.892   0.405  13.796 -0.4768  0.0914  0.4339
 1226SOL    HW115311   3.960   0.363  13.849 -0.4098 -0.7445 -0.3222
 1226SOL    HW215312   3.892   0.346  13.720 -2.1966  0.0529  0.4648
 1227SOL     OW15313   1.639   3.230   8.615  0.3817  0.2878 -0.5223
 1227SOL    HW115314   1.601   3.198   8.697  0.3839  0.4162 -0.4729
 1227SOL    HW215315   1.609   3.320   8.621  1.2408  0.7403 -3.2393
 1228SOL     OW15316   0.057   0.075   6.068  0.1409  0.4432 -0.2553
 1228SOL    HW115317   0.110   0.018   6.012  0.5332  2.9367 -2.3839
 1228SOL    HW215318   0.077   0.163   6.038  2.0740  0.2473  0.4691
 1229SOL     OW15319   1.018   2.205   0.184 -0.0686  0.7455  0.0400
 1229SOL    HW115320   1.101   2.163   0.208  0.2570  0.8821 -0.8342
 1229SOL    HW215321   0.961   2.133   0.159  0.8175  0.7348 -1.9771
 1230SOL     OW15322   4.244   3.312   6.680  0.2262 -0.3656 -1.0751
 1230SOL    HW115323   4.150   3.334   6.676 -0.4257 -3.1877 -1.1969
 1230SOL    HW215324   4.265   3.324   6.587  1.2326 -0.1764 -0.8221
 1231SOL     OW15325   2.775   2.443   8.030  0.2765  0.3950  0.2811
 1231SOL    HW115326   2.699   2.497   8.048 -1.3487 -1.7734 -0.1072
 1231SOL    HW215327   2.741   2.355   8.045 -2.4560  1.1900 -1.3605
 1232SOL     OW15328   2.483   3.054   6.359 -0.7659  0.3086  0.0925
 1232SOL    HW115329   2.430   2.974   6.353 -1.5080  0.8980 -1.1327
 1232SOL    HW215330   2.496   3.051   6.454  1.1732  1.3132 -0.1445
 1233SOL     OW15331   2.211   2.340   1.633 -0.5038 -0.3508 -0.0098
 1233SOL    HW115332   2.302   2.358   1.609  0.3391 -2.0665  1.8211
 1233SOL    HW215333   2.182   2.292   1.556 -1.8231 -1.3214  1.0936
 1234SOL     OW15334   0.961   4.432   5.651 -0.0306  0.0541 -0.5507
 1234SOL    HW115335   0.885   4.425   5.593 -0.7374 -0.4326  0.4334
 1234SOL    HW215336   1.009   4.506   5.614  1.2778  0.2896  1.6227
 1235SOL     OW15337   0.354   2.139   2.400 -0.3867  0.2096  0.3281
 1235SOL    HW115338   0.403   2.169   2.477 -0.2306  3.0856 -0.8768
 1235SOL    HW215339   0.357   2.215   2.342 -0.2044 -0.1497 -0.1245
 1236SOL     OW15340   0.217   0.042   7.051 -0.1577 -0.0263 -0.8065
 1236SOL    HW115341   0.136   0.093   7.048 -0.2098  0.0442  1.8809
 1236SOL    HW215342   0.235   0.040   7.145 -1.3782  0.4979 -0.5711
 1237SOL     OW15343   1.212   0.220   1.397 -0.5993  0.2367  0.0940
 1237SOL    HW115344   1.174   0.306   1.379  0.4423  1.0829  1.9271
 1237SOL    HW215345   1.216   0.216   1.492  0.2683 -0.1284  0.0513
 1238SOL     OW15346   0.265   3.783   3.866  0.3860 -0.2558  0.1026
 1238SOL    HW115347   0.170   3.775   3.854  0.6700 -0.5777 -1.8711
 1238SOL    HW215348   0.294   3.783   3.775  0.7149 -0.3344  0.2080
 1239SOL     OW15349   1.441   3.789   2.757  0.1474  0.3725 -0.0788
 1239SOL    HW115350   1.492   3.714   2.726  0.8813 -0.1211  2.3190
 1239SOL    HW215351   1.495   3.815   2.831 -0.3935 -0.1579  0.4981
 1240SOL     OW15352   3.015   4.643  10.392 -0.3521 -0.0665 -0.6608
 1240SOL    HW115353   2.988   4.552  10.402  2.1910 -0.3848  3.2796
 1240SOL    HW215354   3.042   4.667  10.481  0.9162  2.8554 -1.8187
 1241SOL     OW15355   1.785   3.471   0.264 -0.1294  0.0837 -0.4094
 1241SOL    HW115356   1.788   3.513   0.178 -0.3692  1.2674  0.1732
 1241SOL    HW215357   1.799   3.378   0.243  1.7669  0.1670  0.4593
 1242SOL     OW15358   0.498   2.362  11.286  0.3996  0.5693  0.3299
 1242SOL    HW115359   0.418   2.400  11.321  0.0617  1.5883 -1.5377
 1242SOL    HW215360   0.522   2.306  11.360  2.1613  0.1560 -0.5380
 1243SOL     OW15361   4.590   2.937   2.917 -0.0883 -0.2487 -0.0211
 1243SOL    HW115362   4.502   2.958   2.888 -0.6606 -2.9434 -0.2522
 1243SOL    HW215363   4.626   3.020   2.886  0.6798 -0.1167  1.1791
 1244SOL     OW15364   2.840   0.986   4.466  0.2450  0.9451 -0.6152
 1244SOL    HW115365   2.746   0.977   4.476  0.7002 -2.2345  0.7038
 1244SOL    HW215366   2.846   1.015   4.375 -0.8089  0.1350 -0.9336
 1245SOL     OW15367   1.803   1.316   0.556 -0.0607 -0.5590  0.3495
 1245SOL    HW115368   1.863   1.379   0.516 -0.1403  0.1774  1.3918
 1245SOL    HW215369   1.843   1.286   0.637 -1.1836 -1.8199  0.4487
 1246SOL     OW15370   3.455   3.365   1.251  0.4861  0.5945 -0.0036
 1246SOL    HW115371   3.372   3.330   1.217  1.7835 -1.6652 -0.8693
 1246SOL    HW215372   3.481   3.297   1.312 -1.2202 -1.0979 -1.1234
 1247SOL     OW15373   3.261   3.196   2.814  0.3670 -0.3150  0.2368
 1247SOL    HW115374   3.185   3.251   2.794 -0.2211 -1.3551 -0.3773
 1247SOL    HW215375   3.300   3.197   2.727 -0.9921  0.8736 -0.3717
 1248SOL     OW15376   0.778   2.117  12.082  0.3149  0.1670  0.1023
 1248SOL    HW115377   0.698   2.112  12.029  1.1944  2.9383 -1.4961
 1248SOL    HW215378   0.727   2.093  12.159  0.6427 -0.0004  0.2661
 1249SOL     OW15379   0.133   3.198   6.836 -0.3632 -0.3924 -0.2904
 1249SOL    HW115380   0.112   3.291   6.843 -1.0150 -0.6075  0.5929
 1249SOL    HW215381   0.126   3.182   6.930  3.7207  0.5757  0.1793
 1250SOL     OW15382   2.379   1.084   6.340 -0.3951  0.7579 -0.1813
 1250SOL    HW115383   2.338   1.012   6.388  1.6885  0.3220  0.9245
 1250SOL    HW215384   2.426   1.031   6.276  0.6426  0.6585  0.6645
 1251SOL     OW15385   0.446   1.545   3.721 -0.2503 -0.1542  0.2695
 1251SOL    HW115386   0.467   1.500   3.803 -2.1213  1.7724  1.8040
 1251SOL    HW215387   0.407   1.471   3.674  0.4291  0.1791 -0.8065
 1252SOL     OW15388   0.019   0.859  14.409 -0.6517 -0.2908  0.1654
 1252SOL    HW115389   4.691   0.871  14.480 -1.8205  0.3529 -0.9917
 1252SOL    HW215390   4.716   0.919  14.346  1.3469  0.4960 -0.2929
 1253SOL     OW15391   3.030   0.938   9.457  0.1551  0.0679 -0.3263
 1253SOL    HW115392   3.125   0.944   9.472  0.0591  0.1367  0.2636
 1253SOL    HW215393   3.030   0.937   9.362  3.2159  1.2817 -0.3399
 1254SOL     OW15394   0.581   4.704   7.993 -0.1922  0.5043  0.3278
 1254SOL    HW115395   0.646   4.639   7.968  0.2365  1.0134  0.1069
 1254SOL    HW215396   0.615   0.041   7.939  2.4765 -0.9360  0.1115
 1255SOL     OW15397   2.368   3.217   3.990 -0.2107 -0.7652  0.0550
 1255SOL    HW115398   2.416   3.260   4.061 -1.7702  0.8699  0.0940
 1255SOL    HW215399   2.279   3.213   4.023  0.0914 -0.4541  0.9151
 1256SOL     OW15400   0.101   4.436   2.392 -0.1131  0.3046 -0.4254
 1256SOL    HW115401   0.180   4.387   2.416 -2.5417 -2.6920  1.5737
 1256SOL    HW215402   0.045   4.372   2.348  0.4566 -0.6518  0.2137
 1257SOL     OW15403   2.538   2.195   6.675  0.5502  0.3693 -0.7699
 1257SOL    HW115404   2.627   2.159   6.672  0.4575  0.1073 -0.3683
 1257SOL    HW215405   2.499   2.118   6.717 -0.8593  1.7307  0.4215
 1258SOL     OW15406   3.879   3.141   4.938 -0.1422  0.1275  0.4354
 1258SOL    HW115407   3.959   3.171   4.981 -0.6295 -1.8579  2.7403
 1258SOL    HW215408   3.890   3.191   4.858  0.0246 -1.6642 -0.6628
 1259SOL     OW15409   2.916   1.190   9.814 -0.4130  0.2983  0.5180
 1259SOL    HW115410   2.925   1.282   9.837  1.4209  0.0619  0.7567
 1259SOL    HW215411   2.920   1.137   9.893 -0.5074 -0.6647 -0.1205
 1260SOL     OW15412   2.237   4.640   8.393 -0.3077 -0.0410  0.3980
 1260SOL    HW115413   2.233   4.720   8.340 -1.3703 -1.5354 -1.7883
 1260SOL    HW215414   2.317   4.649   8.444 -0.7784  1.4809  0.8717
 1261SOL     OW15415   3.284   1.509   0.519  0.0747  0.1728  0.6887
 1261SOL    HW115416   3.377   1.485   0.509  0.4537  2.5672 -1.5384
 1261SOL    HW215417   3.301   1.570   0.592  2.5018  0.0918  0.2089
 1262SOL     OW15418   2.751   2.391   7.755 -0.1889 -0.3482 -0.0442
 1262SOL    HW115419   2.756   2.439   7.838  0.6752 -0.6563  0.0832
 1262SOL    HW215420   2.694   2.320   7.783 -2.3378  0.9886 -1.0138
 1263SOL     OW15421   0.187   4.611   4.909  0.5647 -0.4483  0.1234
 1263SOL    HW115422   0.233   4.581   4.831 -1.3066  0.9294 -1.4911
 1263SOL    HW215423   0.147   4.533   4.947 -1.5591  0.6154  0.0802
 1264SOL     OW15424   2.990   0.958   6.657  0.1925  0.3878  0.5263
 1264SOL    HW115425   2.965   1.044   6.622 -0.6401  0.0050  0.1825
 1264SOL    HW215426   3.041   0.917   6.588 -0.3499  0.0278  0.3380
 1265SOL     OW15427   3.881   2.286   2.201 -0.3515 -0.6919  0.1495
 1265SOL    HW115428   3.857   2.252   2.115 -1.5892  1.0787 -0.2106
 1265SOL    HW215429   3.800   2.328   2.229  0.5629  1.4364 -0.4120
 1266SOL     OW15430   0.023   3.845  14.480  0.2147  0.2926  0.8902
 1266SOL    HW115431   0.048   3.937  14.470  1.7263 -0.2018  0.1826
 1266SOL    HW215432   4.690   3.833  14.414  1.2653  0.1251 -0.1630
 1267SOL     OW15433   4.309   3.526   5.095  0.5050 -0.3935  0.7102
 1267SOL    HW115434   4.221   3.563   5.105  1.4865  1.4789  2.2754
 1267SOL    HW215435   4.354   3.602   5.059 -0.3643 -0.4267 -0.4485
 1268SOL     OW15436   2.240   2.594   9.020 -0.6420  0.2762  0.4219
 1268SOL    HW115437   2.240   2.650   8.942 -0.5797  1.1882  1.0804
 1268SOL    HW215438   2.332   2.569   9.022 -0.4427  0.8465 -1.3723
 1269SOL     OW15439   3.099   0.231   8.629  0.0180 -0.5362 -0.2694
 1269SOL    HW115440   3.189   0.208   8.649  1.0303  2.9011 -0.9442
 1269SOL    HW215441   3.103   0.233   8.533 -1.3169 -1.9540 -0.3743
 1270SOL     OW15442   3.369   0.793   6.986  0.2091 -0.2182 -0.4287
 1270SOL    HW115443   3.429   0.846   7.039  0.2819  0.6640 -1.4037
 1270SOL    HW215444   3.366   0.861   6.919  0.0607 -0.3716 -0.5756
 1271SOL     OW15445   0.484   0.769   4.365  0.0936  0.2831 -0.2282
 1271SOL    HW115446   0.499   0.809   4.280 -0.3637 -1.1314 -0.9689
 1271SOL    HW215447   0.409   0.821   4.397 -0.0392 -1.6064  2.5389
 1272SOL     OW15448   3.879   0.524  13.091 -0.1355  0.3373  0.5995
 1272SOL    HW115449   3.886   0.609  13.047  2.2043 -0.5895 -0.8150
 1272SOL    HW215450   3.798   0.491  13.052  1.8073 -2.6805 -0.8555
 1273SOL     OW15451   1.960   1.527  11.812 -0.1190  0.7115 -0.4918
 1273SOL    HW115452   1.956   1.618  11.842  2.9094  0.2217  1.4283
 1273SOL    HW215453   1.871   1.501  11.837  0.5520 -0.9527  0.1932
 1274SOL     OW15454   4.183   3.813   3.000 -0.0264 -0.3049  0.0838
 1274SOL    HW115455   4.186   3.908   3.014 -1.2308 -0.3845  0.8876
 1274SOL    HW215456   4.088   3.800   3.003  0.0320 -0.7151  0.1154
 1275SOL     OW15457   1.919   2.814   4.908  0.5683  0.5643  0.3053
 1275SOL    HW115458   1.988   2.758   4.874 -0.2099 -0.2511  0.0699
 1275SOL    HW215459   1.968   2.897   4.905  1.2766  0.2171  2.4058
 1276SOL     OW15460   1.803   2.823   5.709 -0.6453 -0.0141 -0.1288
 1276SOL    HW115461   1.773   2.776   5.631 -1.4551  2.5289 -1.3348
 1276SOL    HW215462   1.860   2.756   5.747 -0.8034 -1.0275 -1.6814
 1277SOL     OW15463   4.017   2.051   5.422  0.4755  0.6236  0.0568
 1277SOL    HW115464   3.963   2.041   5.344 -0.6029  0.4948  0.8033
 1277SOL    HW215465   4.106   2.036   5.392  0.4013 -0.8705  0.5686
 1278SOL     OW15466   3.040   3.468   4.494  0.7886 -0.4517  0.1963
 1278SOL    HW115467   2.960   3.472   4.442  0.4552 -0.7677  0.6834
 1278SOL    HW215468   3.052   3.373   4.498  1.7168 -0.2675  1.7654
 1279SOL     OW15469   3.070   0.287  16.231  0.4943 -0.2173  0.3300
 1279SOL    HW115470   3.000   0.222  16.237 -0.6764  1.3299  3.5098
 1279SOL    HW215471   3.134   0.265  16.299  0.5034  0.0756  0.4192
 1280SOL     OW15472   3.628   2.826   3.875  0.3145  0.4282  0.1932
 1280SOL    HW115473   3.679   2.837   3.795  0.0461  1.7615  0.2049
 1280SOL    HW215474   3.680   2.764   3.926  1.3682  0.1585 -1.1976
 1281SOL     OW15475   2.210   1.939   6.312 -0.3596  0.2284 -0.8123
 1281SOL    HW115476   2.253   1.977   6.235 -0.2995  1.1789 -0.3051
 1281SOL    HW215477   2.128   1.911   6.271 -0.3708  1.5374 -1.6978
 1282SOL     OW15478   1.297   2.074   1.226  0.0830  0.2995  0.2492
 1282SOL    HW115479   1.360   2.022   1.276  0.9167  1.0809  0.0130
 1282SOL    HW215480   1.221   2.016   1.220 -0.5320  0.9103  2.0251
 1283SOL     OW15481   3.636   4.542   8.519  0.5275  0.0073  0.2740
 1283SOL    HW115482   3.660   4.635   8.512  0.0614  0.2489  1.8510
 1283SOL    HW215483   3.570   4.542   8.588 -1.3990  3.5782 -1.5862
 1284SOL     OW15484   3.378   4.585   3.981  0.0769 -0.1722  0.2773
 1284SOL    HW115485   3.410   4.517   3.922  3.0772  0.5004  1.1522
 1284SOL    HW215486   3.282   4.578   3.973 -0.2776  3.1963  1.2554
 1285SOL     OW15487   3.731   0.527  15.711  0.0421  0.6208 -0.0081
 1285SOL    HW115488   3.681   0.485  15.642  1.1226 -0.0092 -0.4083
 1285SOL    HW215489   3.664   0.563  15.770 -1.0452 -2.2738  0.4937
 1286SOL     OW15490   3.662   1.199   7.030 -0.0321 -0.1167  0.1754
 1286SOL    HW115491   3.709   1.117   7.017 -1.3884 -0.5941 -1.7840
 1286SOL    HW215492   3.719   1.250   6.972  1.3016 -0.2840  1.3458
 1287SOL     OW15493   2.919   3.766   4.377 -0.3587  0.1499  0.0592
 1287SOL    HW115494   2.883   3.826   4.442 -0.4822  0.8269 -0.6337
 1287SOL    HW215495   2.854   3.697   4.388 -1.2633  1.1962  1.2114
 1288SOL     OW15496   1.483   0.685   8.684 -0.5739  0.3423  0.2922
 1288SOL    HW115497   1.415   0.653   8.743  2.7790 -0.6909  3.6284
 1288SOL    HW215498   1.558   0.651   8.733 -0.9538 -1.5023 -0.3890
 1289SOL     OW15499   2.004   1.940   5.489  0.0577 -0.8286 -0.6910
 1289SOL    HW115500   2.012   1.848   5.466  2.9617 -0.6366 -0.5102
 1289SOL    HW215501   2.067   1.978   5.427 -1.2623  1.6304 -0.5020
 1290SOL     OW15502   1.742   3.631   2.259 -0.6690 -0.0466 -0.0822
 1290SOL    HW115503   1.654   3.594   2.259 -0.1925 -1.1344  3.2848
 1290SOL    HW215504   1.757   3.662   2.348 -0.6545 -1.4196  0.3812
 1291SOL     OW15505   2.462   0.084  16.509  0.0953 -0.3492 -0.4103
 1291SOL    HW115506   2.472   0.031  16.588 -0.6349  0.8524  0.4917
 1291SOL    HW215507   2.384   0.137  16.527  2.5334  2.7697  1.1548
 1292SOL     OW15508   0.242   0.272   4.253  0.1406 -0.3965  0.3313
 1292SOL    HW115509   0.249   0.326   4.332  0.3877  0.3496 -0.2048
 1292SOL    HW215510   0.334   0.265   4.227 -0.3536 -0.9180 -1.2867
 1293SOL     OW15511   2.877   2.591   0.789 -0.3975  0.5741 -0.0867
 1293SOL    HW115512   2.807   2.531   0.815  0.3557 -0.1228  0.3459
 1293SOL    HW215513   2.848   2.670   0.834 -0.3075  0.8094 -0.4437
 1294SOL     OW15514   0.074   3.151   8.068 -0.4231  0.3402  0.2344
 1294SOL    HW115515   0.153   3.200   8.046 -0.1581  0.5424  1.6157
 1294SOL    HW215516   0.043   3.186   8.152 -1.6104 -0.6424  0.2126
 1295SOL     OW15517   1.590   2.888   3.184 -0.2586  0.7724 -0.0392
 1295SOL    HW115518   1.575   2.840   3.266  4.3796 -0.5785  0.0419
 1295SOL    HW215519   1.652   2.958   3.203  0.3622  0.5697 -1.2762
 1296SOL     OW15520   0.224   3.409   5.853 -0.0624 -1.0797  0.1861
 1296SOL    HW115521   0.141   3.407   5.805  1.4053  0.1630 -2.4003
 1296SOL    HW215522   0.270   3.338   5.808 -1.1489 -1.0148 -1.0258
 1297SOL     OW15523   2.762   2.736   8.162  0.3315 -0.4194  0.0019
 1297SOL    HW115524   2.742   2.824   8.194 -0.2232 -0.7674  0.6007
 1297SOL    HW215525   2.770   2.692   8.246  0.9996 -2.0902 -0.9491
 1298SOL     OW15526   1.588   0.954   7.980  0.2029  0.2430  0.4885
 1298SOL    HW115527   1.628   0.995   8.056  0.2865  2.5089 -0.8027
 1298SOL    HW215528   1.607   1.024   7.918  1.1068 -1.3955 -1.0850
 1299SOL     OW15529   2.757   3.014   8.775  0.2525  0.4891  0.6912
 1299SOL    HW115530   2.785   2.993   8.865 -2.8924 -3.0999  0.8665
 1299SOL    HW215531   2.833   2.983   8.725  0.0275  1.6023 -0.3155
 1300SOL     OW15532   2.744   2.685  11.486 -0.9500  0.5922 -0.2257
 1300SOL    HW115533   2.678   2.679  11.555 -0.6099  2.9754  0.2859
 1300SOL    HW215534   2.824   2.716  11.529  0.1523 -0.2903 -1.6300
 1301SOL     OW15535   0.859   4.548   9.168 -0.1686 -0.0703  0.3716
 1301SOL    HW115536   0.888   4.624   9.219  0.7369  0.4718 -0.9539
 1301SOL    HW215537   0.945   4.507   9.158 -0.5524 -0.8642  0.3129
 1302SOL     OW15538   4.091   0.267  13.944  0.2513 -0.0435  0.2815
 1302SOL    HW115539   4.056   0.258  14.033  0.7915 -0.0391  0.4961
 1302SOL    HW215540   4.181   0.234  13.948  0.1156 -0.5052 -0.5224
 1303SOL     OW15541   1.259   3.134   2.097 -0.2276 -0.6545  0.8844
 1303SOL    HW115542   1.291   3.180   2.175  1.0451  0.4843 -0.2953
 1303SOL    HW215543   1.342   3.107   2.057  0.4467  0.4039  1.5782
 1304SOL     OW15544   0.705   1.244   5.632  0.1839  0.0096  0.8810
 1304SOL    HW115545   0.690   1.293   5.551 -0.9259  0.0954  1.1351
 1304SOL    HW215546   0.621   1.256   5.677 -0.0077  1.3427  0.1797
 1305SOL     OW15547   3.330   0.152  14.781  0.3595  0.7053 -0.1305
 1305SOL    HW115548   3.327   0.060  14.810 -0.9719  0.8321  0.1154
 1305SOL    HW215549   3.305   0.145  14.689  0.4404  1.5307 -0.2090
 1306SOL     OW15550   0.694   0.799   6.081 -0.1075  0.3085  0.2214
 1306SOL    HW115551   0.704   0.837   6.169 -0.3389  0.8811 -0.0061
 1306SOL    HW215552   0.783   0.798   6.044 -0.4786  1.1811 -0.6870
 1307SOL     OW15553   2.593   1.620  16.843  0.0799 -0.3887 -0.1357
 1307SOL    HW115554   2.535   1.630  16.918  0.7928 -0.4476  0.4247
 1307SOL    HW215555   2.545   1.660  16.771 -1.9707 -1.7504  0.4733
 1308SOL     OW15556   2.042   1.393   6.988 -0.1334 -0.2254  0.1238
 1308SOL    HW115557   2.085   1.349   6.915  2.4155  0.0647  1.4668
 1308SOL    HW215558   2.098   1.471   6.985  1.0770 -1.0051  3.5478
 1309SOL     OW15559   1.867   2.437   6.395 -0.1251  0.6290  0.0946
 1309SOL    HW115560   1.863   2.519   6.445 -3.0213 -0.3419  1.4134
 1309SOL    HW215561   1.962   2.429   6.383  0.0738  1.6596  1.0286
 1310SOL     OW15562   2.250   1.019  12.911  0.2740  0.2766  0.2247
 1310SOL    HW115563   2.310   1.093  12.907  0.4031  0.2175  1.2003
 1310SOL    HW215564   2.245   1.005  13.005  0.8814  0.2616  0.2505
 1311SOL     OW15565   2.156   2.299   1.008  0.1065  0.4500 -0.6314
 1311SOL    HW115566   2.201   2.251   1.078  1.3889  0.2047 -1.6138
 1311SOL    HW215567   2.121   2.369   1.064  2.4820  1.3837 -0.2988
 1312SOL     OW15568   3.063   3.630   4.736  0.1185 -0.4665 -0.3639
 1312SOL    HW115569   2.976   3.667   4.749  0.3908  0.2343 -0.5598
 1312SOL    HW215570   3.048   3.569   4.663 -1.8851 -1.1990  0.6519
 1313SOL     OW15571   3.593   2.861  16.277  0.1367  0.0957  0.1139
 1313SOL    HW115572   3.678   2.882  16.239 -0.6832  0.6668 -1.4050
 1313SOL    HW215573   3.626   2.834  16.363  0.6838 -1.9434 -0.7542
 1314SOL     OW15574   0.370   3.982  13.086 -0.2944 -0.5183  0.5543
 1314SOL    HW115575   0.418   4.065  13.087 -0.8669 -0.1775 -0.4695
 1314SOL    HW215576   0.435   3.925  13.127 -0.2517  0.4101  1.7991
 1315SOL     OW15577   2.513   4.556   8.537 -0.3312  0.2612 -0.5659
 1315SOL    HW115578   2.455   4.486   8.507 -1.7153  1.1213  0.0798
 1315SOL    HW215579   2.583   4.508   8.582 -0.6673 -1.1840 -1.5629
 1316SOL     OW15580   4.326   4.161  10.978  0.3406 -0.7894 -0.4517
 1316SOL    HW115581   4.298   4.226  10.914  0.0393 -2.1319 -1.7096
 1316SOL    HW215582   4.414   4.136  10.951 -0.0019 -1.9863 -0.4958
 1317SOL     OW15583   3.219   0.128   6.286  0.3426  0.2091  0.0679
 1317SOL    HW115584   3.245   0.049   6.333  0.5763  1.1460  1.5177
 1317SOL    HW215585   3.240   0.201   6.346 -1.3938 -1.4413  2.6787
 1318SOL     OW15586   2.608   0.966   3.857 -0.0253 -0.7386  0.5450
 1318SOL    HW115587   2.615   1.000   3.768 -0.0390  1.5251  1.4100
 1318SOL    HW215588   2.633   1.043   3.908 -1.1040  2.3743 -3.6367
 1319SOL     OW15589   4.572   2.000   2.606  0.4519 -0.1138 -0.0178
 1319SOL    HW115590   4.646   1.969   2.553 -1.2027 -2.7810 -0.7388
 1319SOL    HW215591   4.501   1.936   2.599  1.9566 -1.7967  0.1261
 1320SOL     OW15592   2.710   0.149   2.945  0.0993  0.6748  0.4306
 1320SOL    HW115593   2.797   0.153   2.986  0.2322 -0.3942  0.2527
 1320SOL    HW215594   2.676   0.074   2.995  1.2146 -1.6625 -2.3356
 1321SOL     OW15595   1.399   0.852  15.797  0.6726 -0.2590  0.0250
 1321SOL    HW115596   1.424   0.942  15.818 -0.5236 -0.2387  1.4110
 1321SOL    HW215597   1.393   0.857  15.702 -1.1014 -1.9198  0.0447
 1322SOL     OW15598   3.868   0.146  15.369  0.2851 -0.2551 -0.5883
 1322SOL    HW115599   3.871   0.178  15.459  0.0273 -1.2879 -0.2092
 1322SOL    HW215600   3.775   0.148  15.345 -0.2925 -1.7238  1.5565
 1323SOL     OW15601   4.039   4.387   8.208  0.5103 -0.0887 -0.1359
 1323SOL    HW115602   4.055   4.297   8.237 -1.0069 -0.1175  0.5740
 1323SOL    HW215603   3.951   4.388   8.171  0.7417 -0.9362 -0.7207
 1324SOL     OW15604   2.223   1.261   7.478  0.4026 -0.0700  0.2526
 1324SOL    HW115605   2.277   1.340   7.483 -0.3114  0.4782 -0.6153
 1324SOL    HW215606   2.272   1.225   7.404 -0.6466 -0.4733 -0.2481
 1325SOL     OW15607   0.207   1.065   4.903  0.3284  0.2704 -0.5921
 1325SOL    HW115608   0.220   1.152   4.942  2.0217 -0.1565 -0.1967
 1325SOL    HW215609   0.203   1.007   4.979 -0.3939 -1.0539 -1.6667
 1326SOL     OW15610   0.647   2.036   9.435  0.0561  0.0977  0.9788
 1326SOL    HW115611   0.629   2.026   9.528 -1.4153  2.4294  0.9492
 1326SOL    HW215612   0.735   2.075   9.440  0.2567 -0.1382 -0.6132
 1327SOL     OW15613   1.146   3.551   4.577  0.5393 -0.1232 -0.7282
 1327SOL    HW115614   1.163   3.564   4.670  1.6386  1.6386 -1.1859
 1327SOL    HW215615   1.060   3.508   4.583  0.1863  0.7626  0.4527
 1328SOL     OW15616   3.903   4.703   4.876  0.0743 -0.4781 -0.8143
 1328SOL    HW115617   3.947   0.049   4.901 -1.5308  0.6071 -1.5252
 1328SOL    HW215618   3.844   4.696   4.951 -1.0552  0.6774 -1.5962
 1329SOL     OW15619   3.387   0.778   6.481 -0.0762  0.6622 -0.5446
 1329SOL    HW115620   3.456   0.714   6.496  0.5844  1.1539 -1.4871
 1329SOL    HW215621   3.404   0.806   6.391 -0.2037 -0.6005 -0.9555
 1330SOL     OW15622   3.470   2.203   1.999 -0.1925 -0.2398  0.2755
 1330SOL    HW115623   3.385   2.244   1.982 -0.1756 -1.0366 -1.7249
 1330SOL    HW215624   3.465   2.209   2.094  0.9075  0.3687  0.2948
 1331SOL     OW15625   3.837   3.873   4.998 -0.0320 -0.3342 -0.0165
 1331SOL    HW115626   3.846   3.961   5.035  1.1538 -0.6381  0.4027
 1331SOL    HW215627   3.845   3.812   5.071  0.1280  0.8216  0.9470
 1332SOL     OW15628   0.609   1.398   7.017  0.1986  0.1285  0.2055
 1332SOL    HW115629   0.535   1.390   7.076  0.7613 -3.2909  0.4555
 1332SOL    HW215630   0.563   1.385   6.934 -2.2767  0.7667  1.5018
 1333SOL     OW15631   0.463   0.788   0.407  0.4505 -0.8945 -0.1929
 1333SOL    HW115632   0.470   0.766   0.314  1.4936 -0.4815 -0.2144
 1333SOL    HW215633   0.513   0.868   0.397  0.5330 -0.8621  0.4587
 1334SOL     OW15634   2.374   3.010  17.654  0.2193  0.3189  0.1815
 1334SOL    HW115635   2.344   2.971  17.736 -0.4565  1.8670  0.6611
 1334SOL    HW215636   2.304   3.073  17.639  0.1861  0.2903  0.2171
 1335SOL     OW15637   4.489   1.527  14.772 -0.2910 -0.5174 -0.0681
 1335SOL    HW115638   4.446   1.589  14.713 -1.3899 -2.6701 -1.5323
 1335SOL    HW215639   4.543   1.582  14.829 -0.2296  0.9726 -1.5665
 1336SOL     OW15640   2.298   0.714   7.928  0.2116 -0.0145  0.1387
 1336SOL    HW115641   2.249   0.699   8.009 -1.4130  0.4940 -0.7379
 1336SOL    HW215642   2.288   0.807   7.908 -2.6351 -0.6845 -1.5286
 1337SOL     OW15643   2.402   1.369   4.704  0.4001 -0.3866 -0.0024
 1337SOL    HW115644   2.316   1.332   4.684  0.1001 -0.6966  1.7821
 1337SOL    HW215645   2.404   1.454   4.662 -0.8453 -0.8175 -0.9261
 1338SOL     OW15646   2.391   2.695   5.811 -0.5803  0.0857 -0.1627
 1338SOL    HW115647   2.382   2.717   5.718  1.5824 -1.0277 -0.6363
 1338SOL    HW215648   2.474   2.734   5.838 -0.5467  0.0130 -0.1618
 1339SOL     OW15649   2.646   0.877   8.973  0.4401  0.1439  0.2447
 1339SOL    HW115650   2.686   0.960   8.947 -0.0111  0.1259 -0.4963
 1339SOL    HW215651   2.621   0.842   8.887 -2.5532  2.6501  0.1066
 1340SOL     OW15652   3.048   1.097   7.002  0.1960  0.5498  0.2641
 1340SOL    HW115653   2.979   1.050   6.955 -0.9141 -1.2265  3.6616
 1340SOL    HW215654   3.037   1.187   6.972  0.3153  0.4169 -0.1856
 1341SOL     OW15655   2.157   3.346   5.904 -0.3959 -0.4479  0.3830
 1341SOL    HW115656   2.198   3.378   5.985  2.1657  0.7560 -1.3750
 1341SOL    HW215657   2.150   3.252   5.920 -0.0416 -0.2906  1.4749
 1342SOL     OW15658   0.488   2.511   6.649 -0.4160  0.0954  0.4636
 1342SOL    HW115659   0.464   2.419   6.643  2.6082 -0.6060 -0.6561
 1342SOL    HW215660   0.398   2.542   6.661 -0.1156  1.4244 -0.6727
 1343SOL     OW15661   1.433   2.279   4.108 -0.2520 -0.0569  0.6714
 1343SOL    HW115662   1.488   2.231   4.170 -3.2954 -2.9245  1.1907
 1343SOL    HW215663   1.404   2.212   4.046 -0.0022  0.1310  0.3531
 1344SOL     OW15664   1.483   3.212   3.313 -0.1875 -0.1120  0.6551
 1344SOL    HW115665   1.533   3.279   3.360  0.4828 -1.3181  1.6450
 1344SOL    HW215666   1.556   3.161   3.277  0.1314  1.7681 -1.4266
 1345SOL     OW15667   2.546   1.739   7.257  0.0279 -0.7738  0.2862
 1345SOL    HW115668   2.577   1.651   7.236  0.2969 -0.4600 -0.6180
 1345SOL    HW215669   2.618   1.799   7.237 -0.9189 -0.6227 -2.6653
 1346SOL     OW15670   1.198   1.714   5.636  0.3837 -0.3605 -0.0394
 1346SOL    HW115671   1.288   1.741   5.618  0.0733  0.4608 -0.3633
 1346SOL    HW215672   1.170   1.683   5.550 -0.4656 -1.4499  0.6258
 1347SOL     OW15673   3.088   1.793  17.371 -0.4227  0.3833  0.5319
 1347SOL    HW115674   3.025   1.747  17.316 -0.9278  1.4461  0.2163
 1347SOL    HW215675   3.168   1.786  17.319  0.1219 -2.2515  1.6769
 1348SOL     OW15676   0.813   0.741   7.956  0.4666 -0.1727 -0.5853
 1348SOL    HW115677   0.842   0.805   7.891 -0.4930 -0.4757 -1.3109
 1348SOL    HW215678   0.889   0.731   8.013  0.5026  0.0330 -0.5977
 1349SOL     OW15679   3.845   3.642  13.551  0.0919  0.4240  0.3889
 1349SOL    HW115680   3.797   3.725  13.555  0.4382  0.5614  1.6344
 1349SOL    HW215681   3.881   3.642  13.640 -1.4683 -3.2392  1.0170
 1350SOL     OW15682   0.875   1.571  17.113  0.3252 -0.0023 -0.6029
 1350SOL    HW115683   0.793   1.536  17.080 -0.7822  1.3065  0.7396
 1350SOL    HW215684   0.867   1.661  17.082  1.4890  0.5037  0.5316
 1351SOL     OW15685   1.891   4.596   8.993 -0.4976 -0.1263 -0.3306
 1351SOL    HW115686   1.819   4.648   8.959  1.6352  0.8582 -3.3251
 1351SOL    HW215687   1.954   4.664   9.017 -0.3785 -0.8628  1.4690
 1352SOL     OW15688   2.282   4.389  17.448 -0.3725 -0.1045 -0.4856
 1352SOL    HW115689   2.373   4.362  17.453  0.1196  1.3616 -1.3824
 1352SOL    HW215690   2.255   4.368  17.538  0.7146  0.2149 -0.0924
 1353SOL     OW15691   1.249   1.803  14.302 -0.3408 -0.1979 -0.3367
 1353SOL    HW115692   1.283   1.782  14.389  2.1445  1.3593 -0.9370
 1353SOL    HW215693   1.328   1.813  14.248 -1.1719  2.5079 -1.0057
 1354SOL     OW15694   4.175   0.563  15.701  0.2574  0.5659 -0.0979
 1354SOL    HW115695   4.146   0.504  15.631  2.2874 -2.6547  1.7635
 1354SOL    HW215696   4.172   0.639  15.643 -1.0639  1.6411  1.3623
 1355SOL     OW15697   2.453   1.429   6.711 -0.5509 -0.1993  0.1388
 1355SOL    HW115698   2.437   1.338   6.685  4.5814 -1.4873  1.4334
 1355SOL    HW215699   2.434   1.487   6.637 -0.1136 -0.3360 -0.0818
 1356SOL     OW15700   3.525   3.463   6.535 -0.5087  0.4335 -0.5910
 1356SOL    HW115701   3.500   3.377   6.501  0.8600 -0.2391  0.1071
 1356SOL    HW215702   3.480   3.450   6.618  0.6957 -1.1269 -0.1774
 1357SOL     OW15703   4.277   4.264   7.650  0.2503 -0.3426  0.3045
 1357SOL    HW115704   4.343   4.213   7.603 -0.9426 -1.4567 -0.1252
 1357SOL    HW215705   4.208   4.246   7.587  2.4285 -2.4073 -1.5061
 1358SOL     OW15706   2.996   2.099   8.469 -0.1284  0.0292 -0.4290
 1358SOL    HW115707   3.065   2.068   8.528 -0.7925 -1.5009 -0.4500
 1358SOL    HW215708   2.918   2.060   8.510  0.7937 -1.4030 -0.0247
 1359SOL     OW15709   0.141   3.709  14.288  0.1870  0.1966 -0.3748
 1359SOL    HW115710   0.123   3.757  14.369  0.2339  0.1176 -0.3181
 1359SOL    HW215711   0.191   3.775  14.241  0.1457 -0.1846 -0.9574
 1360SOL     OW15712   3.483   4.490   8.140 -0.2066  0.0997 -0.2539
 1360SOL    HW115713   3.403   4.438   8.144  0.1078 -0.2645  1.1572
 1360SOL    HW215714   3.487   4.517   8.232  0.5325 -0.3244 -0.1673
 1361SOL     OW15715   3.996   0.381   9.219  0.2695  0.2214  0.0195
 1361SOL    HW115716   4.086   0.377   9.251  0.8506 -1.8848 -1.8883
 1361SOL    HW215717   3.945   0.349   9.293 -0.4922  1.0930 -0.1225
 1362SOL     OW15718   1.751   1.572   5.825 -0.7010 -0.4559  0.2387
 1362SOL    HW115719   1.669   1.603   5.863 -1.4763  0.9215 -2.5521
 1362SOL    HW215720   1.723   1.481   5.817 -1.5823 -0.0165 -1.8209
 1363SOL     OW15721   4.314   0.197   4.229  0.1373  0.3874 -0.1568
 1363SOL    HW115722   4.273   0.282   4.239 -1.4208 -0.1892 -1.8358
 1363SOL    HW215723   4.360   0.211   4.146  1.3695 -0.1153  0.4254
 1364SOL     OW15724   3.815   3.974   6.494 -0.2370 -0.3078  0.1910
 1364SOL    HW115725   3.838   3.952   6.403 -2.0233  0.9244 -0.5367
 1364SOL    HW215726   3.868   3.905   6.536  1.6107  2.0310  1.7287
 1365SOL     OW15727   2.025   0.137   3.510  0.6313  0.7121 -0.1045
 1365SOL    HW115728   2.027   0.206   3.443 -0.2220  0.9817  0.1499
 1365SOL    HW215729   2.036   0.188   3.590  1.6203 -0.4311  0.4855
 1366SOL     OW15730   0.010   2.503   8.033 -0.2823 -0.1194  0.0542
 1366SOL    HW115731   4.685   2.431   8.054 -1.6687  0.2812 -2.4693
 1366SOL    HW215732   4.696   2.581   8.061 -1.1579 -1.4579  2.2419
 1367SOL     OW15733   3.626   2.329  11.758  0.0689 -0.0462 -0.6029
 1367SOL    HW115734   3.616   2.233  11.756 -0.9996  0.0666 -0.3859
 1367SOL    HW215735   3.572   2.356  11.684 -0.5531  0.8011  0.1767
 1368SOL     OW15736   1.935   2.043   7.397  0.0257  0.4721 -0.2597
 1368SOL    HW115737   2.015   2.013   7.355 -0.6459 -1.1954 -0.3245
 1368SOL    HW215738   1.914   1.985   7.470 -2.5891  0.3979 -1.0580
 1369SOL     OW15739   2.693   4.705   8.774  0.5456 -0.5655 -0.0964
 1369SOL    HW115740   2.762   4.735   8.833 -0.7498  0.1001  1.0789
 1369SOL    HW215741   2.741   4.700   8.692 -0.4931 -1.1175 -0.6666
 1370SOL     OW15742   1.555   3.203   2.860 -0.1156 -0.0277 -0.4329
 1370SOL    HW115743   1.499   3.246   2.925 -1.6147 -1.3287 -0.8662
 1370SOL    HW215744   1.535   3.110   2.874 -0.1917 -0.2718 -2.1473
 1371SOL     OW15745   0.148   1.747   6.466 -0.2343  0.5098 -0.3651
 1371SOL    HW115746   0.121   1.697   6.389  0.5577 -0.7478  0.1813
 1371SOL    HW215747   0.104   1.695   6.533 -0.1455  1.7780  0.6773
 1372SOL     OW15748   1.343   1.628  10.082 -0.0624  0.6248  0.2225
 1372SOL    HW115749   1.396   1.706  10.101  1.7737 -0.2763 -1.1486
 1372SOL    HW215750   1.316   1.652   9.994 -2.2482  1.4640  1.1386
 1373SOL     OW15751   2.335   1.338  15.430 -0.4558 -0.3190  0.5157
 1373SOL    HW115752   2.328   1.353  15.524 -0.2114  0.4810  0.4012
 1373SOL    HW215753   2.374   1.421  15.403 -1.5298  0.7709  2.3256
 1374SOL     OW15754   0.281   0.202  16.981 -0.5635 -0.1850 -0.2392
 1374SOL    HW115755   0.289   0.285  17.027  0.5539  0.7147 -2.0363
 1374SOL    HW215756   0.221   0.227  16.911  1.0179  1.9955 -0.8077
 1375SOL     OW15757   1.562   2.499   7.347  0.5318  0.1710  0.1388
 1375SOL    HW115758   1.533   2.413   7.377 -1.7472  0.0702 -2.3416
 1375SOL    HW215759   1.480   2.530   7.308 -1.1058  0.0863  3.4750
 1376SOL     OW15760   1.427   3.499   5.044  0.0228  0.5217 -0.1737
 1376SOL    HW115761   1.478   3.453   4.977 -2.8482 -0.8521 -1.4027
 1376SOL    HW215762   1.385   3.425   5.088 -2.6462  1.5332 -1.0351
 1377SOL     OW15763   3.298   4.288  15.890  0.2778 -0.1380 -0.1738
 1377SOL    HW115764   3.328   4.350  15.823  0.5472  0.0263  0.1017
 1377SOL    HW215765   3.232   4.244  15.836  0.1550 -0.6415  0.3902
 1378SOL     OW15766   2.324   2.717   1.572  0.6145 -0.2545  0.1515
 1378SOL    HW115767   2.404   2.721   1.519 -0.8891  1.8943 -1.9344
 1378SOL    HW215768   2.306   2.810   1.586 -1.9374 -0.8718  1.0646
 1379SOL     OW15769   4.466   0.266   5.376 -0.3633 -0.1966  0.0359
 1379SOL    HW115770   4.475   0.362   5.374 -0.0828 -0.2249 -0.1204
 1379SOL    HW215771   4.534   0.262   5.308 -0.7883 -0.6715 -0.3647
 1380SOL     OW15772   1.060   4.507   3.284 -0.1377  0.0933  0.2252
 1380SOL    HW115773   1.032   4.546   3.367 -1.2679 -3.0198  1.2923
 1380SOL    HW215774   0.971   4.506   3.250  0.8536 -0.1455 -2.3846
 1381SOL     OW15775   4.386   2.171  12.311  0.1706  0.2390  0.2958
 1381SOL    HW115776   4.461   2.229  12.327  1.2093 -0.6241 -1.4738
 1381SOL    HW215777   4.320   2.197  12.375 -0.1597  0.5340 -0.1714
 1382SOL     OW15778   1.390   4.687   9.958  0.1405  0.6981  0.3054
 1382SOL    HW115779   1.453   4.616   9.972 -2.1796 -1.4418 -0.2101
 1382SOL    HW215780   1.306   4.644   9.950  1.0688 -0.9947 -0.2337
 1383SOL     OW15781   2.187   0.062   7.511  0.1007  0.3348 -0.1570
 1383SOL    HW115782   2.199   0.143   7.560  1.5686  1.9959 -3.2567
 1383SOL    HW215783   2.175   0.101   7.425  0.1607  0.7925  0.0449
 1384SOL     OW15784   2.035   1.780   7.820  0.2860  0.5989  0.0609
 1384SOL    HW115785   2.128   1.797   7.807  0.7166 -0.7245  1.3608
 1384SOL    HW215786   2.021   1.742   7.907 -1.3827 -0.9730 -0.8888
 1385SOL     OW15787   2.299   3.092   4.256  0.2186 -0.4932 -0.1501
 1385SOL    HW115788   2.314   3.001   4.230  1.8247  0.4412 -2.5486
 1385SOL    HW215789   2.219   3.116   4.209 -0.9323 -2.1065  0.9741
 1386SOL     OW15790   1.422   3.668   4.030 -0.0943 -0.1806 -0.1522
 1386SOL    HW115791   1.380   3.657   3.944  1.0881  2.7511 -1.0761
 1386SOL    HW215792   1.383   3.746   4.070  0.1497 -0.1645  0.0493
 1387SOL     OW15793   2.787   4.582   5.855  0.4058  0.1095  0.1184
 1387SOL    HW115794   2.844   4.659   5.853  3.0676 -1.8462  1.2571
 1387SOL    HW215795   2.748   4.588   5.943  0.1990  2.0342 -0.1047
 1388SOL     OW15796   0.415   4.214  14.515 -0.0267  0.2312 -0.1266
 1388SOL    HW115797   0.486   4.279  14.514  2.3505 -2.3651  1.9012
 1388SOL    HW215798   0.443   4.176  14.598 -0.0936  0.3327 -0.0565
 1389SOL     OW15799   1.903   4.699  13.290  0.6028 -0.5689 -0.2445
 1389SOL    HW115800   1.861   0.008  13.363 -0.5311 -1.2022 -0.5119
 1389SOL    HW215801   1.982   4.663  13.330  0.0724  0.6072  1.8466
 1390SOL     OW15802   1.736   0.728   4.328  0.0778  0.8508 -0.4560
 1390SOL    HW115803   1.817   0.686   4.298  0.7435  1.7753  0.0506
 1390SOL    HW215804   1.679   0.653   4.343  0.4108  0.7587  0.3397
 1391SOL     OW15805   2.702   3.336   2.358  0.4818 -0.2612  0.8831
 1391SOL    HW115806   2.694   3.272   2.288  1.3708  0.4265  0.1663
 1391SOL    HW215807   2.764   3.396   2.317 -1.3706  0.3014 -1.0485
 1392SOL     OW15808   2.513   2.357   2.282  0.1628  0.4817  0.2425
 1392SOL    HW115809   2.531   2.425   2.216 -1.7821 -0.7393 -1.5487
 1392SOL    HW215810   2.437   2.400   2.321  0.6539  2.9534 -1.4615
 1393SOL     OW15811   3.192   3.571  12.357 -0.2307  0.1095 -0.2488
 1393SOL    HW115812   3.173   3.658  12.323  2.6881  0.1573 -1.8106
 1393SOL    HW215813   3.287   3.577  12.349 -0.2694 -2.3741 -2.5430
 1394SOL     OW15814   0.407   3.709   9.433  0.1314  0.3757  0.6335
 1394SOL    HW115815   0.435   3.627   9.391 -1.5044 -0.3183  0.9189
 1394SOL    HW215816   0.365   3.747   9.356 -0.9374 -1.3567  0.3512
 1395SOL     OW15817   0.946   3.326   5.279 -0.1318  0.2513 -0.1410
 1395SOL    HW115818   0.871   3.326   5.338 -0.8023  1.7826 -0.9743
 1395SOL    HW215819   1.009   3.373   5.334  1.2349 -1.9619  0.1681
 1396SOL     OW15820   0.756   4.387   6.088 -0.1400 -0.5214  0.3000
 1396SOL    HW115821   0.728   4.469   6.130  1.9079  0.0843  0.4924
 1396SOL    HW215822   0.831   4.412   6.033  3.0725 -2.4223  3.8496
 1397SOL     OW15823   2.768   1.629  10.975 -0.2830  0.0012 -0.0032
 1397SOL    HW115824   2.710   1.559  10.944 -2.6766  1.9161  0.1406
 1397SOL    HW215825   2.709   1.704  10.970  0.4172  0.5305 -0.2657
 1398SOL     OW15826   1.362   0.759   6.349  0.4165  0.1824 -0.2145
 1398SOL    HW115827   1.388   0.739   6.259 -0.6231 -3.1329  0.2133
 1398SOL    HW215828   1.427   0.709   6.399  0.2519 -0.7944 -0.9841
 1399SOL     OW15829   3.893   1.420  16.129  0.6749 -0.4927  0.5566
 1399SOL    HW115830   3.932   1.456  16.049  2.2961 -1.4419  0.9154
 1399SOL    HW215831   3.904   1.325  16.121  0.1963 -0.2841 -2.5011
 1400SOL     OW15832   2.301   0.842   9.250  0.4171  0.2284 -0.3571
 1400SOL    HW115833   2.247   0.772   9.286  0.5052  0.8219  0.9092
 1400SOL    HW215834   2.387   0.801   9.241 -0.1346 -0.9346 -0.2603
 1401SOL     OW15835   2.670   4.011   8.757 -0.0674 -0.1906 -0.0034
 1401SOL    HW115836   2.702   4.061   8.682 -0.0162  0.0502  0.1802
 1401SOL    HW215837   2.724   3.932   8.748 -0.7691 -0.7337  0.5831
 1402SOL     OW15838   4.008   1.264   0.418  0.3077  0.0323 -0.3935
 1402SOL    HW115839   4.058   1.272   0.499  1.3483  0.2075 -1.0506
 1402SOL    HW215840   4.078   1.277   0.353  1.1189 -0.5800  0.3537
 1403SOL     OW15841   3.361   4.394  12.682  0.9195 -0.8548  0.1985
 1403SOL    HW115842   3.282   4.340  12.685 -0.2738  0.9133  0.6437
 1403SOL    HW215843   3.408   4.339  12.619  0.5695 -1.8339  0.7971
 1404SOL     OW15844   0.492   0.738   6.424 -0.1457 -0.3054  0.0788
 1404SOL    HW115845   0.431   0.796   6.470  0.5586  1.1345 -0.8240
 1404SOL    HW215846   0.566   0.753   6.483 -1.7057  0.6575  1.7999
 1405SOL     OW15847   2.904   3.163   2.162 -0.4039 -0.2543  0.3243
 1405SOL    HW115848   2.938   3.102   2.227  1.0020  1.0912  0.8526
 1405SOL    HW215849   2.964   3.237   2.152  0.5008 -1.0897 -0.5130
 1406SOL     OW15850   3.757   1.296   5.464 -0.0523 -0.2253  0.3045
 1406SOL    HW115851   3.827   1.333   5.518 -0.7046  0.4081  0.7229
 1406SOL    HW215852   3.717   1.382   5.448  1.0678 -0.1121 -1.9504
 1407SOL     OW15853   0.787   2.335  13.175 -0.0966 -0.2557 -0.4640
 1407SOL    HW115854   0.795   2.398  13.247  1.6790 -1.3892  0.3336
 1407SOL    HW215855   0.721   2.272  13.204 -0.4581  0.3603  0.0517
 1408SOL     OW15856   2.586   2.912   0.809  0.1602  0.0658 -0.1328
 1408SOL    HW115857   2.608   2.973   0.738  0.6730  1.4018  1.1672
 1408SOL    HW215858   2.496   2.897   0.782 -0.4860  1.0207  1.4658
 1409SOL     OW15859   3.542   4.073   3.144 -0.3167  0.4653  0.2924
 1409SOL    HW115860   3.557   4.065   3.239 -0.4604 -2.8356  0.0070
 1409SOL    HW215861   3.620   4.127   3.129 -1.1457  1.4687 -0.4192
 1410SOL     OW15862   0.503   0.337  10.550  0.3981 -0.1518  0.3694
 1410SOL    HW115863   0.448   0.315  10.475  2.2231  1.8289 -1.5633
 1410SOL    HW215864   0.484   0.431  10.541 -3.1069 -0.7477  1.7599
 1411SOL     OW15865   0.098   3.801   3.381 -0.4966 -0.8183 -0.4398
 1411SOL    HW115866   0.078   3.800   3.287 -1.6393 -1.2666 -0.1852
 1411SOL    HW215867   0.113   3.710   3.405 -2.0640 -0.9815 -0.1284
 1412SOL     OW15868   2.741   3.445  16.405 -0.1107  0.1289  0.2976
 1412SOL    HW115869   2.732   3.368  16.350 -2.8763  2.1865 -2.0875
 1412SOL    HW215870   2.788   3.506  16.348 -0.7231  1.1359  0.8669
 1413SOL     OW15871   4.663   1.651  12.921 -0.0532  0.1074  0.0405
 1413SOL    HW115872   4.694   1.575  12.970 -0.7426  0.9143  1.7085
 1413SOL    HW215873   0.008   1.671  12.873 -1.4469  1.3228 -1.7774
 1414SOL     OW15874   3.796   4.237  11.712  0.7105  0.2415  0.7647
 1414SOL    HW115875   3.724   4.214  11.654  0.7791 -0.3215  0.9000
 1414SOL    HW215876   3.754   4.278  11.788  1.8034  0.4190  1.2828
 1415SOL     OW15877   3.135   0.979   3.626  0.4303 -0.4650  0.3058
 1415SOL    HW115878   3.148   0.894   3.668  1.4363 -0.2066  0.5073
 1415SOL    HW215879   3.187   0.974   3.546  1.4573 -2.0497  1.0739
 1416SOL     OW15880   4.056   2.733   3.606  0.5491 -0.1430  0.2746
 1416SOL    HW115881   4.080   2.644   3.580 -0.2577 -0.0819 -0.6912
 1416SOL    HW215882   4.142   2.773   3.594 -0.3459  2.4253  2.5006
 1417SOL     OW15883   1.991   3.359   4.790 -0.5856  1.1446  0.0377
 1417SOL    HW115884   2.003   3.418   4.716  0.5216  2.4468  1.2399
 1417SOL    HW215885   1.901   3.330   4.776  0.3189 -1.7758  0.2336
 1418SOL     OW15886   3.926   2.233   8.613  0.1090 -0.4956  0.4707
 1418SOL    HW115887   4.014   2.202   8.633  0.7440  0.9057 -0.1685
 1418SOL    HW215888   3.880   2.150   8.599  0.4030 -0.4378 -0.8338
 1419SOL     OW15889   3.582   2.115   0.581 -0.1454  0.1172  0.0997
 1419SOL    HW115890   3.623   2.185   0.630 -0.8695 -0.2104  1.1683
 1419SOL    HW215891   3.564   2.146   0.492 -0.5343  1.0151  0.4959
 1420SOL     OW15892   3.238   2.734   2.257 -0.3195 -0.0054  0.6146
 1420SOL    HW115893   3.200   2.779   2.182 -0.3890 -0.9263  0.0878
 1420SOL    HW215894   3.282   2.810   2.293 -1.7273  1.4494 -0.7602
 1421SOL     OW15895   0.625   3.256   2.032  0.2320 -0.3475 -0.3897
 1421SOL    HW115896   0.678   3.254   1.952 -0.7764 -0.1058 -1.0628
 1421SOL    HW215897   0.692   3.223   2.091  0.4694  1.2544  0.2432
 1422SOL     OW15898   3.569   4.067   4.546 -0.1634  0.4446  0.4077
 1422SOL    HW115899   3.632   4.044   4.615 -0.2950 -4.3142 -1.0798
 1422SOL    HW215900   3.624   4.116   4.485  2.3230  0.0308  2.2976
 1423SOL     OW15901   1.682   3.260   2.306 -0.3050 -0.0039  0.0660
 1423SOL    HW115902   1.723   3.328   2.359  1.3119 -1.8860  1.1722
 1423SOL    HW215903   1.652   3.200   2.374  0.3210  0.8130  1.0488
 1424SOL     OW15904   2.169   4.197   4.024  0.1826  0.2135 -0.0469
 1424SOL    HW115905   2.228   4.141   3.972  2.0121 -0.1666  2.4057
 1424SOL    HW215906   2.082   4.159   4.019  0.5826 -0.8560  1.0231
 1425SOL     OW15907   2.565   4.699   0.994 -0.1706  0.0306  0.2439
 1425SOL    HW115908   2.473   4.679   1.013  0.1520 -1.7068  0.0122
 1425SOL    HW215909   2.598   4.696   1.083  1.1472 -0.4156 -0.2634
 1426SOL     OW15910   3.468   2.451   8.610  0.3936 -0.4214 -0.4773
 1426SOL    HW115911   3.446   2.359   8.619 -1.4986  0.0631 -0.1663
 1426SOL    HW215912   3.563   2.446   8.620  0.1842 -2.4944  0.3430
 1427SOL     OW15913   4.262   1.598  17.112 -0.3351 -0.1689  0.4376
 1427SOL    HW115914   4.247   1.692  17.120  3.3593  0.4352  0.4081
 1427SOL    HW215915   4.174   1.565  17.095  0.6533 -1.0538 -2.8531
 1428SOL     OW15916   4.242   4.299  11.412  0.6098 -0.6749 -0.5496
 1428SOL    HW115917   4.326   4.275  11.451  0.5545 -0.4062 -0.2712
 1428SOL    HW215918   4.193   4.257  11.482 -0.1685  0.3792 -0.4642
 1429SOL     OW15919   1.758   3.967   0.561 -0.0768 -0.2271 -0.4027
 1429SOL    HW115920   1.738   3.880   0.526  2.1253 -0.6123 -0.6916
 1429SOL    HW215921   1.718   3.942   0.645 -2.0809  2.5815 -0.5227
 1430SOL     OW15922   4.117   3.419   6.894  0.3949  0.4378  0.1550
 1430SOL    HW115923   4.155   3.503   6.922  0.0367  0.5043  0.4493
 1430SOL    HW215924   4.180   3.398   6.825 -0.4148  1.0230 -0.7507
 1431SOL     OW15925   4.555   4.346   6.019  0.4409 -0.1488  0.3813
 1431SOL    HW115926   4.539   4.304   5.934 -1.8351  2.2929 -0.3871
 1431SOL    HW215927   4.590   4.433   6.003 -0.4286 -0.2086 -1.8640
 1432SOL     OW15928   3.097   0.449   3.844  0.3807  0.3320 -0.0437
 1432SOL    HW115929   3.189   0.434   3.821  0.1725  1.2753 -1.5035
 1432SOL    HW215930   3.064   0.364   3.815 -0.4594  0.8419 -0.5638
 1433SOL     OW15931   1.172   0.445   2.480  0.5366 -0.1777  0.0410
 1433SOL    HW115932   1.150   0.499   2.404 -1.7510 -1.9968 -0.6053
 1433SOL    HW215933   1.114   0.486   2.545  0.7485  1.2775 -0.7005
 1434SOL     OW15934   1.825   2.439   5.928 -0.0116  0.0865 -0.1800
 1434SOL    HW115935   1.740   2.453   5.969  1.0158  0.8444  1.6775
 1434SOL    HW215936   1.827   2.343   5.921 -0.7232  0.2245 -2.1378
 1435SOL     OW15937   0.536   0.235   7.815 -1.0908 -0.1150  0.4327
 1435SOL    HW115938   0.513   0.327   7.805 -1.0273 -0.0033  1.3605
 1435SOL    HW215939   0.610   0.252   7.873  0.8160 -1.5614 -1.5548
 1436SOL     OW15940   2.394   0.687   3.024 -0.9390  0.0625  0.2187
 1436SOL    HW115941   2.354   0.766   3.062  3.0588  2.8896 -1.4155
 1436SOL    HW215942   2.342   0.628   3.078  0.9176  0.2597  2.2283
 1437SOL     OW15943   2.961   4.230   1.584  0.1750 -0.3321 -0.2309
 1437SOL    HW115944   2.914   4.309   1.612  0.3692 -0.6543  1.0082
 1437SOL    HW215945   2.947   4.180   1.665  3.7786  0.4909  0.8929
 1438SOL     OW15946   2.786   0.296   4.835  0.4349 -0.2256  0.4054
 1438SOL    HW115947   2.704   0.319   4.790 -0.5894 -2.2571  1.2068
 1438SOL    HW215948   2.845   0.298   4.760 -0.0978 -3.3904 -0.0769
 1439SOL     OW15949   2.837   0.233   1.532 -0.2050  0.3118  0.4474
 1439SOL    HW115950   2.827   0.289   1.609 -0.0881  4.1667 -2.3252
 1439SOL    HW215951   2.745   0.208   1.522  0.1980 -0.0110 -2.4517
 1440SOL     OW15952   4.563   2.771   8.460  0.6161 -0.6903  0.1013
 1440SOL    HW115953   4.506   2.830   8.411  0.4662  0.1318  1.2643
 1440SOL    HW215954   4.649   2.776   8.418  0.4440  2.7976  0.1765
 1441SOL     OW15955   3.754   2.530  15.511 -0.0119 -0.1662  0.2558
 1441SOL    HW115956   3.728   2.495  15.596  0.0505 -0.3604  0.1948
 1441SOL    HW215957   3.681   2.591  15.500  1.1011  1.0000 -0.6860
 1442SOL     OW15958   2.858   3.490   5.416 -0.1528  0.8311 -0.3164
 1442SOL    HW115959   2.883   3.502   5.508 -0.0390  2.8990 -0.6285
 1442SOL    HW215960   2.832   3.578   5.389 -1.8075  0.5541  0.3634
 1443SOL     OW15961   4.058   4.080  13.717  1.2029  0.5057  0.0929
 1443SOL    HW115962   4.089   4.108  13.803 -2.4351  4.0735  0.2036
 1443SOL    HW215963   4.045   3.987  13.734 -1.3990  0.6308 -1.2384
 1444SOL     OW15964   0.580   2.919  11.526  0.3827  0.2278 -0.3942
 1444SOL    HW115965   0.568   2.956  11.438 -0.6118  0.4304 -0.1779
 1444SOL    HW215966   0.492   2.927  11.562 -0.3257 -1.4679 -1.7838
 1445SOL     OW15967   1.739   2.907   8.057 -0.1291  0.2631  0.0929
 1445SOL    HW115968   1.665   2.864   8.100  1.5877  0.0912  2.8534
 1445SOL    HW215969   1.724   2.883   7.965 -2.8914  1.7784  0.1292
 1446SOL     OW15970   1.712   4.195   7.386 -0.6592  0.0647  0.1875
 1446SOL    HW115971   1.802   4.172   7.409 -0.3306  1.5585  0.4023
 1446SOL    HW215972   1.680   4.249   7.458  0.0034  1.5727 -0.6596
 1447SOL     OW15973   1.025   4.160   5.587  0.0178  0.2165  0.3581
 1447SOL    HW115974   1.100   4.119   5.630  0.8734  3.0243  1.5766
 1447SOL    HW215975   1.013   4.249   5.623 -2.0880 -1.6135  4.2200
 1448SOL     OW15976   1.438   0.796   5.711  0.3284  0.1033  0.5065
 1448SOL    HW115977   1.469   0.809   5.800 -0.5671  2.5963  0.4586
 1448SOL    HW215978   1.397   0.710   5.701 -0.4317  0.2804  2.1790
 1449SOL     OW15979   0.798   4.492   8.894 -0.4820 -0.2014 -0.0256
 1449SOL    HW115980   0.801   4.506   8.989  0.3727 -2.0003  0.2081
 1449SOL    HW215981   0.717   4.445   8.874  0.5988 -1.6762 -0.9980
 1450SOL     OW15982   1.957   4.668   5.130 -0.0451  0.0014  0.1159
 1450SOL    HW115983   1.916   4.628   5.054  0.0292  0.1227  0.0121
 1450SOL    HW215984   1.906   4.623   5.198 -1.7166  0.9206 -0.5214
 1451SOL     OW15985   1.692   0.233  13.000 -0.0311  0.0061 -0.4462
 1451SOL    HW115986   1.658   0.165  13.058  1.4611  1.0081  1.5693
 1451SOL    HW215987   1.783   0.206  13.009 -0.2641 -0.7454 -0.3218
 1452SOL     OW15988   3.768   3.674   4.739  0.1106 -0.7734 -0.5523
 1452SOL    HW115989   3.768   3.632   4.825 -3.9352 -2.4331 -1.3818
 1452SOL    HW215990   3.859   3.702   4.732 -0.8849  3.0301  1.2571
 1453SOL     OW15991   0.571   0.633   9.014  1.0025  0.0311 -0.3006
 1453SOL    HW115992   0.496   0.687   9.040 -0.0839 -1.0136 -1.3037
 1453SOL    HW215993   0.530   0.552   8.985  1.4017 -0.2664 -0.0505
 1454SOL     OW15994   1.817   3.894   4.344 -0.0247  0.9522  0.3980
 1454SOL    HW115995   1.727   3.925   4.335 -0.3463  0.5466  2.0976
 1454SOL    HW215996   1.848   3.935   4.425 -0.3588  1.6724  0.1552
 1455SOL     OW15997   2.157   3.921  11.943 -0.4455  0.3073  0.4072
 1455SOL    HW115998   2.215   3.845  11.940 -2.4085 -1.1945  0.0598
 1455SOL    HW215999   2.080   3.889  11.896  0.1821 -0.9065  0.2129
 1456SOL     OW16000   4.626   3.919   4.552 -0.3321 -0.1424 -0.3624
 1456SOL    HW116001   4.555   3.957   4.500  0.5371  0.9238 -0.7631
 1456SOL    HW216002   4.572   3.869   4.613 -0.9973  0.5000 -0.4188
 1457SOL     OW16003   2.546   2.929   8.983 -0.1166 -0.0487  0.9474
 1457SOL    HW116004   2.592   2.995   8.931 -0.0672 -0.8927 -0.0918
 1457SOL    HW216005   2.615   2.891   9.038 -1.0814 -3.9584 -0.5756
 1458SOL     OW16006   1.563   4.333   3.669 -0.3265  0.1738  0.3051
 1458SOL    HW116007   1.633   4.364   3.726 -0.3849  1.6822 -0.4498
 1458SOL    HW216008   1.494   4.334   3.735  1.3125 -0.4151  2.0339
 1459SOL     OW16009   1.215   1.540  17.681 -0.1561  0.4329  0.0718
 1459SOL    HW116010   1.219   1.603  17.609 -1.6620 -1.2367 -1.4879
 1459SOL    HW216011   1.163   1.470  17.640  1.1119 -0.9682  0.8622
 1460SOL     OW16012   3.828   2.575   5.412  0.1479  0.0077 -0.0320
 1460SOL    HW116013   3.915   2.593   5.376  0.9479 -1.9469  0.9146
 1460SOL    HW216014   3.794   2.495   5.374 -0.5528 -0.7522  2.1824
 1461SOL     OW16015   1.913   3.091   6.201  0.1661  0.0358 -0.5110
 1461SOL    HW116016   1.992   3.107   6.251  0.3072  0.6646 -0.9369
 1461SOL    HW216017   1.865   3.173   6.216  1.0357  0.5190 -0.3730
 1462SOL     OW16018   0.079   3.692  12.926 -0.5282  0.5274  0.5684
 1462SOL    HW116019   0.118   3.745  12.995  0.3698  1.2361 -0.4857
 1462SOL    HW216020   0.071   3.609  12.973 -0.8571  0.3674  0.2361
 1463SOL     OW16021   2.432   4.066   9.493  0.3645 -0.0350 -0.1000
 1463SOL    HW116022   2.420   4.128   9.421  0.0444  0.2098  0.1617
 1463SOL    HW216023   2.347   4.078   9.536  0.2463 -3.1457  0.4973
 1464SOL     OW16024   1.996   0.381   2.904 -0.2408  0.8334 -0.4624
 1464SOL    HW116025   2.032   0.363   2.816  0.3474 -0.8151  0.1081
 1464SOL    HW216026   2.015   0.472   2.927  1.9261  0.3532 -0.3035
 1465SOL     OW16027   2.878   4.292   8.883 -0.0328 -0.6261 -0.0212
 1465SOL    HW116028   2.854   4.208   8.923  0.1769 -0.0475  1.3206
 1465SOL    HW216029   2.972   4.277   8.877 -0.3872 -3.1472  0.8547
 1466SOL     OW16030   0.339   2.827   8.347  0.2107  0.1730  0.2218
 1466SOL    HW116031   0.410   2.768   8.373 -2.3818 -3.0599 -0.0340
 1466SOL    HW216032   0.391   2.872   8.281  2.1344 -0.9387  0.9837
 1467SOL     OW16033   2.653   2.491   1.784  0.3099 -0.3245 -0.3018
 1467SOL    HW116034   2.709   2.569   1.772 -3.2988  2.0109 -1.9263
 1467SOL    HW216035   2.631   2.461   1.696 -1.0329  1.0440 -0.4328
 1468SOL     OW16036   0.365   0.198   6.538 -0.5773  0.0226  0.3452
 1468SOL    HW116037   0.296   0.157   6.487 -0.2343  0.8415 -0.7802
 1468SOL    HW216038   0.355   0.163   6.626 -0.2749 -1.7658 -0.3322
 1469SOL     OW16039   2.143   3.971   6.923  0.2459  0.2759  0.4632
 1469SOL    HW116040   2.119   3.981   7.015 -1.6718  0.3706 -0.0480
 1469SOL    HW216041   2.177   4.059   6.903 -0.8483  1.0070  1.8159
 1470SOL     OW16042   0.381   4.140   5.415  0.3911  0.0631 -0.3499
 1470SOL    HW116043   0.315   4.108   5.478  0.1254  0.0787 -0.6203
 1470SOL    HW216044   0.396   4.229   5.445  0.3545  0.3468 -1.2028
 1471SOL     OW16045   2.199   4.717  17.495 -0.1250  0.3949 -0.1619
 1471SOL    HW116046   2.161   4.711  17.582 -0.4988  0.3117 -0.3311
 1471SOL    HW216047   2.290   4.694  17.511  0.1179  1.3558 -0.1749
 1472SOL     OW16048   0.502   3.989   2.948 -0.4422  0.0381 -0.2728
 1472SOL    HW116049   0.417   4.032   2.956 -2.0745 -2.7286 -2.4931
 1472SOL    HW216050   0.533   4.000   3.038  1.4168 -1.4843 -0.7271
 1473SOL     OW16051   4.397   3.792   5.744  0.4165  0.0334  0.2886
 1473SOL    HW116052   4.453   3.762   5.672  0.4413 -0.3429  0.4693
 1473SOL    HW216053   4.431   3.877   5.772  1.0793 -0.2675  0.4057
 1474SOL     OW16054   2.331   1.239  11.169 -0.1930 -0.3017  0.0737
 1474SOL    HW116055   2.259   1.232  11.232 -0.9472  0.7251 -0.6730
 1474SOL    HW216056   2.285   1.273  11.092  0.9407 -0.8713 -0.8509
 1475SOL     OW16057   3.743   3.170  15.209  0.7985 -0.0173  0.0890
 1475SOL    HW116058   3.768   3.164  15.117  1.0169 -0.5223  0.1826
 1475SOL    HW216059   3.649   3.154  15.211  0.9704 -0.9380  0.6435
 1476SOL     OW16060   4.722   2.970   4.175  0.6328 -0.0941 -0.6016
 1476SOL    HW116061   0.072   3.011   4.157  0.0586  1.0995 -0.6027
 1476SOL    HW216062   0.001   2.913   4.251  0.4643 -0.0806 -0.5609
 1477SOL     OW16063   2.638   4.160   6.739  0.1551  0.4015 -0.2048
 1477SOL    HW116064   2.668   4.189   6.825 -1.9697 -2.8866  1.6439
 1477SOL    HW216065   2.544   4.152   6.757  0.4767 -0.5632  1.0145
 1478SOL     OW16066   4.323   2.088   6.129  0.7247 -0.3066  0.5633
 1478SOL    HW116067   4.344   1.998   6.105  0.2042 -0.3591  0.3123
 1478SOL    HW216068   4.403   2.130   6.097 -0.3835  0.8943 -0.6092
 1479SOL     OW16069   4.632   4.086   7.346  0.2261  0.6674  0.3708
 1479SOL    HW116070   4.708   4.045   7.387  1.1994  1.2822 -0.8200
 1479SOL    HW216071   4.596   4.127   7.425  3.0845  0.2134  1.9137
 1480SOL     OW16072   2.087   4.733   9.651 -0.1743  0.5429 -0.2650
 1480SOL    HW116073   2.060   0.072   9.597  1.3647  1.7155  0.5796
 1480SOL    HW216074   2.046   0.010   9.736  2.3829  0.5412  0.9530
 1481SOL     OW16075   3.218   0.569   4.083  0.0319 -0.0274 -0.3823
 1481SOL    HW116076   3.192   0.660   4.097 -1.4933 -0.4892 -0.1263
 1481SOL    HW216077   3.170   0.546   4.003 -1.5799  0.2600  0.4973
 1482SOL     OW16078   1.645   0.151   2.357  0.1005  0.0147 -0.0783
 1482SOL    HW116079   1.580   0.136   2.426 -0.1411 -1.5559 -0.6468
 1482SOL    HW216080   1.661   0.243   2.380 -0.6441 -0.0628  0.7667
 1483SOL     OW16081   3.454   0.825  14.318 -0.4603 -0.2767  0.1987
 1483SOL    HW116082   3.429   0.897  14.375  1.2502  0.4529  0.0330
 1483SOL    HW216083   3.374   0.774  14.331 -0.8054 -0.0702 -1.0932
 1484SOL     OW16084   3.042   2.349   2.699 -0.4494  0.3129  0.3659
 1484SOL    HW116085   2.972   2.366   2.635 -0.6749  1.0930  0.8216
 1484SOL    HW216086   3.095   2.289   2.647 -1.2909  0.2007 -0.3575
 1485SOL     OW16087   0.768   2.079   3.892 -0.5372  0.1170 -0.3069
 1485SOL    HW116088   0.850   2.031   3.884  0.0389  1.1665 -0.8415
 1485SOL    HW216089   0.769   2.114   3.981 -0.3320  1.1663 -0.7178
 1486SOL     OW16090   4.148   3.836   3.876 -0.5033  0.3874 -0.4144
 1486SOL    HW116091   4.149   3.914   3.821  1.1819  0.6006 -0.0860
 1486SOL    HW216092   4.058   3.847   3.906 -0.8058 -1.4730 -0.6581
 1487SOL     OW16093   0.021   0.954   9.446 -0.2616  0.3958  0.4211
 1487SOL    HW116094   0.108   0.919   9.462 -0.3452 -1.3549 -3.0144
 1487SOL    HW216095   4.707   0.917   9.520 -0.5656  2.0827  1.0768
 1488SOL     OW16096   2.047   4.647   1.932 -0.6480 -0.2289 -0.1449
 1488SOL    HW116097   2.031   4.629   1.839  2.6317  0.4344 -0.8410
 1488SOL    HW216098   1.956   4.639   1.960 -0.7156 -1.3030 -0.6960
 1489SOL     OW16099   4.268   1.409   7.195  0.1851 -0.1113  0.6826
 1489SOL    HW116100   4.180   1.423   7.158  0.3144 -1.6881 -0.2088
 1489SOL    HW216101   4.255   1.341   7.260  3.3196  2.4144  3.9224
 1490SOL     OW16102   3.302   1.328   0.870 -0.2144  0.2680  0.5441
 1490SOL    HW116103   3.217   1.367   0.849  0.2425  0.6860 -0.5235
 1490SOL    HW216104   3.273   1.260   0.931  0.2513 -0.2397  0.1946
 1491SOL     OW16105   2.895   4.235  12.454  0.1257  0.2966 -0.2326
 1491SOL    HW116106   2.912   4.324  12.422 -1.3314  0.4392 -0.5965
 1491SOL    HW216107   2.978   4.225  12.501 -0.2787  0.0691  0.4192
 1492SOL     OW16108   2.222   2.998   2.574  0.4364  0.5439  0.1472
 1492SOL    HW116109   2.309   3.014   2.537  0.2716  0.7127 -0.1641
 1492SOL    HW216110   2.172   3.076   2.550 -1.1123 -0.6873 -0.6215
 1493SOL     OW16111   2.074   3.024   7.569 -0.2402 -0.2904 -0.0926
 1493SOL    HW116112   2.049   2.939   7.606 -0.0104  0.1510  1.0886
 1493SOL    HW216113   2.104   3.083   7.638  1.2009  0.0569 -1.0272
 1494SOL     OW16114   0.758   3.114  11.988  0.5148 -0.0295  0.7411
 1494SOL    HW116115   0.674   3.159  11.981  0.0427 -1.1815 -0.8984
 1494SOL    HW216116   0.796   3.092  11.903 -1.9372 -0.6111 -0.1771
 1495SOL     OW16117   2.638   2.478   2.055 -0.0446 -0.3931 -0.4581
 1495SOL    HW116118   2.639   2.574   2.065 -0.1095 -0.3693 -0.7038
 1495SOL    HW216119   2.629   2.480   1.960 -1.5864  0.7883 -0.2945
 1496SOL     OW16120   2.743   3.592   4.933  0.1959 -0.2596  0.1153
 1496SOL    HW116121   2.782   3.508   4.955 -0.4488  0.0592  2.4203
 1496SOL    HW216122   2.726   3.626   5.021 -2.1931 -1.6671  0.1873
 1497SOL     OW16123   1.117   1.067   7.361  0.4275  0.0142 -0.3691
 1497SOL    HW116124   1.209   1.092   7.351  0.7274 -1.6023 -1.6010
 1497SOL    HW216125   1.119   0.976   7.390 -0.6087  0.0476 -0.1876
 1498SOL     OW16126   0.857   0.017  14.477 -0.1738 -0.5908 -0.5539
 1498SOL    HW116127   0.782   0.068  14.447 -0.6361 -2.0463 -1.9196
 1498SOL    HW216128   0.929   0.076  14.458 -0.1030 -1.3230 -2.6608
 1499SOL     OW16129   3.050   3.824   2.070 -0.8410  0.2331  0.0570
 1499SOL    HW116130   3.063   3.914   2.041 -2.1676  0.5298  0.3644
 1499SOL    HW216131   3.012   3.788   1.990 -0.5904  0.9883 -0.3901
 1500SOL     OW16132   2.289   1.686   2.962  0.1161  0.3694 -0.3334
 1500SOL    HW116133   2.374   1.690   3.006 -0.4672  2.8049  0.5743
 1500SOL    HW216134   2.239   1.763   2.987 -1.7758 -0.1430 -2.5148
 1501SOL     OW16135   0.557   2.773   6.711 -0.6142 -0.3097 -0.9211
 1501SOL    HW116136   0.510   2.769   6.794  1.6358 -1.6548  0.2684
 1501SOL    HW216137   0.562   2.682   6.683 -1.2249 -1.0269  1.3174
 1502SOL     OW16138   2.178   1.513   2.565 -0.0621  0.1678  0.1215
 1502SOL    HW116139   2.204   1.490   2.654  0.8752  2.3837  0.4152
 1502SOL    HW216140   2.252   1.564   2.531 -0.4125  1.1435  0.8111
 1503SOL     OW16141   2.701   3.997   4.972 -0.6972  0.2576 -0.3487
 1503SOL    HW116142   2.665   4.085   4.963 -0.5981  0.3604  0.2593
 1503SOL    HW216143   2.644   3.959   5.039  0.2314  0.2174  0.4082
 1504SOL     OW16144   0.786   1.132  15.877  0.2172  0.1420 -0.0571
 1504SOL    HW116145   0.720   1.062  15.869 -1.8068  2.1498 -0.7498
 1504SOL    HW216146   0.865   1.082  15.856  0.1821 -0.5828  1.5185
 1505SOL     OW16147   2.976   2.471   8.245 -0.4564  0.1159 -0.3564
 1505SOL    HW116148   2.906   2.460   8.180  0.4484 -1.0431 -1.1317
 1505SOL    HW216149   2.928   2.519   8.311 -2.0595  0.9690 -2.1419
 1506SOL     OW16150   0.126   4.410  16.916  0.7093  0.2365 -0.0869
 1506SOL    HW116151   0.174   4.412  16.833  1.2049 -0.0426  0.1971
 1506SOL    HW216152   0.042   4.434  16.876  0.7122  0.5045  0.0691
 1507SOL     OW16153   3.296   4.023   7.680 -0.0125 -0.2660  0.3820
 1507SOL    HW116154   3.243   4.007   7.601  1.6858 -2.0901 -0.3815
 1507SOL    HW216155   3.363   3.957   7.664  0.2614  0.2870 -0.7587
 1508SOL     OW16156   0.281   0.767   3.716  0.1056 -0.0664  0.0244
 1508SOL    HW116157   0.224   0.810   3.652  2.5520  1.2579 -1.2961
 1508SOL    HW216158   0.216   0.710   3.756 -1.5625  1.0696 -1.0756
 1509SOL     OW16159   4.666   1.799   1.136  0.4653 -0.0167  0.0670
 1509SOL    HW116160   4.689   1.844   1.217  1.3757 -0.2508 -0.0618
 1509SOL    HW216161   0.014   1.757   1.113  0.9473  0.6911  0.5376
 1510SOL     OW16162   3.529   1.761   5.200  0.0744 -0.3946 -0.0458
 1510SOL    HW116163   3.560   1.675   5.173 -0.8878 -1.1524  1.3022
 1510SOL    HW216164   3.484   1.772   5.116  0.2093  2.8060  0.3022
 1511SOL     OW16165   0.111   0.126   8.122  0.4631  0.3285 -0.4227
 1511SOL    HW116166   0.176   0.153   8.058  1.8547  1.8687  1.6135
 1511SOL    HW216167   0.098   0.207   8.172 -0.0102 -1.2668  2.0348
 1512SOL     OW16168   0.020   1.602  13.634  0.0380  0.1789 -0.0313
 1512SOL    HW116169   4.699   1.536  13.674 -0.2303  0.2893 -0.2245
 1512SOL    HW216170   0.096   1.550  13.608 -0.0422 -0.6985  1.5182
 1513SOL     OW16171   2.663   1.729   6.943  0.6065  0.0130  0.1866
 1513SOL    HW116172   2.652   1.740   6.849  1.6495 -0.6954 -0.0277
 1513SOL    HW216173   2.592   1.784   6.974  1.4141  1.1711  0.0094
 1514SOL     OW16174   0.606   4.555  16.783 -0.2699  0.2249  0.0385
 1514SOL    HW116175   0.535   4.598  16.829  1.3967  0.7060  2.1520
 1514SOL    HW216176   0.638   4.494  16.850  0.1182  0.3386 -0.0472
 1515SOL     OW16177   0.961   1.746   0.716 -0.7311  0.4854  0.2435
 1515SOL    HW116178   0.888   1.801   0.744  0.0477  0.9986  1.3042
 1515SOL    HW216179   0.922   1.661   0.736 -0.1531  0.9852  3.5961
 1516SOL     OW16180   4.197   3.856   8.424  0.3494  0.5621  0.0099
 1516SOL    HW116181   4.233   3.914   8.491 -1.6299  1.8401 -0.0387
 1516SOL    HW216182   4.121   3.910   8.401  0.1265  0.8059  1.2808
 1517SOL     OW16183   2.493   0.168  17.433 -0.3443 -0.4107  0.1472
 1517SOL    HW116184   2.562   0.129  17.486 -0.8638 -0.2921  0.9048
 1517SOL    HW216185   2.515   0.261  17.424  0.8392 -0.6114  0.9287
 1518SOL     OW16186   2.038   2.044   2.507 -0.3579  0.1060  0.1611
 1518SOL    HW116187   1.960   2.007   2.465 -0.6944  1.1813 -0.1381
 1518SOL    HW216188   2.022   2.138   2.506 -0.5087  0.0693 -0.7929
 1519SOL     OW16189   0.071   0.319   5.909  0.1171 -0.2098 -0.0790
 1519SOL    HW116190   4.713   0.338   5.903  0.0927 -1.0299 -2.2991
 1519SOL    HW216191   0.105   0.403   5.878 -0.7802 -0.1564 -0.9466
 1520SOL     OW16192   0.581   3.543   3.716  0.2886 -0.0496  0.2824
 1520SOL    HW116193   0.570   3.637   3.704  0.8543 -0.2906 -2.2364
 1520SOL    HW216194   0.506   3.518   3.769  0.8873  2.4683  2.3040
 1521SOL     OW16195   3.732   4.326  16.363  0.6884 -0.4373 -0.2822
 1521SOL    HW116196   3.716   4.236  16.393  0.0196 -0.4359 -0.6366
 1521SOL    HW216197   3.801   4.352  16.424 -1.2009  1.4404  1.0507
 1522SOL     OW16198   3.296   2.558   4.405  0.3484  0.3016  1.1059
 1522SOL    HW116199   3.333   2.470   4.401 -0.2178  0.0828  0.6185
 1522SOL    HW216200   3.349   2.609   4.467  2.2196  0.3466 -0.5465
 1523SOL     OW16201   4.293   2.236  14.963  0.0801  0.1958 -0.2489
 1523SOL    HW116202   4.307   2.324  14.997  1.9759  0.4870 -1.8013
 1523SOL    HW216203   4.197   2.239  14.954  0.1801 -0.0290 -1.4015
 1524SOL     OW16204   2.887   3.699   9.755  0.1382 -0.0202  0.4940
 1524SOL    HW116205   2.922   3.737   9.835  1.6270  1.0341 -0.6621
 1524SOL    HW216206   2.791   3.702   9.760  0.0909  0.3184 -0.5358
 1525SOL     OW16207   3.156   3.362   7.959  0.4052 -0.5825 -0.1942
 1525SOL    HW116208   3.122   3.417   7.889 -1.5683  1.2051  2.1412
 1525SOL    HW216209   3.124   3.283   7.916  0.7758 -0.7383 -0.1803
 1526SOL     OW16210   3.462   4.354  16.327 -0.3486  0.1294 -0.4757
 1526SOL    HW116211   3.558   4.359  16.326 -0.5545  4.2017 -0.1907
 1526SOL    HW216212   3.455   4.312  16.241 -2.1121  2.4651 -1.4985
 1527SOL     OW16213   1.923   3.911   1.078  0.3483 -0.0953 -0.1724
 1527SOL    HW116214   1.862   3.838   1.067  0.5945 -0.2464 -0.5508
 1527SOL    HW216215   1.884   3.975   1.019 -1.2628 -0.3551  0.6227
 1528SOL     OW16216   1.335   0.281   8.014  0.1865 -0.0686 -0.0904
 1528SOL    HW116217   1.394   0.354   7.997 -1.2772  0.5182 -2.7103
 1528SOL    HW216218   1.276   0.324   8.076 -1.2597 -0.7292 -1.0091
 1529SOL     OW16219   4.486   1.137   5.971  0.6975  0.3117 -0.2494
 1529SOL    HW116220   4.441   1.100   5.895 -0.4109 -1.6475  1.3692
 1529SOL    HW216221   4.467   1.074   6.041  0.5310  2.5802  1.7582
 1530SOL     OW16222   4.109   3.403   8.209 -0.1499  0.2901  0.0343
 1530SOL    HW116223   4.183   3.364   8.161 -0.6462  1.0247 -1.3289
 1530SOL    HW216224   4.128   3.376   8.299  0.4161 -2.3061 -0.8465
 1531SOL     OW16225   2.558   3.332   6.562 -0.0468  0.5888 -0.2693
 1531SOL    HW116226   2.494   3.386   6.609  0.0070  1.3849 -1.0979
 1531SOL    HW216227   2.565   3.389   6.485 -1.0484 -0.9109 -1.4707
 1532SOL     OW16228   0.957   4.285   8.553 -0.6723 -0.2125 -0.6063
 1532SOL    HW116229   1.008   4.266   8.632 -0.5775  0.4365 -0.5100
 1532SOL    HW216230   0.869   4.292   8.591  0.1312  1.8421  0.8546
 1533SOL     OW16231   4.214   0.018   5.920  0.5294  0.3553 -0.3805
 1533SOL    HW116232   4.119   0.020   5.921  0.6049  2.8745  0.8115
 1533SOL    HW216233   4.248   0.039   5.832  2.3804  1.2306  0.5296
 1534SOL     OW16234   3.295   1.253   4.713 -0.0471  0.3039  0.0932
 1534SOL    HW116235   3.345   1.172   4.698  0.0064  0.2896  0.3421
 1534SOL    HW216236   3.366   1.317   4.716  0.7628 -0.7193  3.0502
 1535SOL     OW16237   0.833   3.030   5.488  0.1819  0.2148  0.0802
 1535SOL    HW116238   0.924   3.057   5.501 -0.7400  2.3274  2.1395
 1535SOL    HW216239   0.846   2.957   5.428 -1.5912  0.0927 -0.1516
 1536SOL     OW16240   0.090   1.554   6.662 -0.0633 -0.2479  0.7409
 1536SOL    HW116241   0.115   1.520   6.748  3.1014  0.9067  0.2966
 1536SOL    HW216242   0.139   1.491   6.609 -1.0866 -0.7445  0.3933
 1537SOL     OW16243   1.978   4.270  12.034  0.7121  0.3189 -0.0778
 1537SOL    HW116244   1.987   4.185  12.076  0.4013  0.1594 -0.3420
 1537SOL    HW216245   1.886   4.286  12.056 -0.3087 -1.3515 -3.1673
 1538SOL     OW16246   2.619   3.803   2.074  0.0280 -0.3203 -0.7201
 1538SOL    HW116247   2.538   3.775   2.117  0.4066 -0.9667 -0.4278
 1538SOL    HW216248   2.590   3.881   2.027  2.5444 -0.0551 -1.8071
 1539SOL     OW16249   0.781   0.875  11.826 -0.5316  0.6252 -0.2943
 1539SOL    HW116250   0.829   0.957  11.812  1.4264 -0.3771  0.5124
 1539SOL    HW216251   0.693   0.897  11.856 -0.8284 -0.1343 -0.6017
 1540SOL     OW16252   0.934   0.325   4.643 -0.1698 -0.4022 -0.1682
 1540SOL    HW116253   0.844   0.352   4.620  1.5549  3.8713 -2.0026
 1540SOL    HW216254   0.927   0.318   4.738 -0.0532  2.1866  0.0507
 1541SOL     OW16255   3.272   1.193   6.726 -0.3401  0.1112  0.0553
 1541SOL    HW116256   3.259   1.187   6.820 -0.4024 -0.0129  0.0394
 1541SOL    HW216257   3.254   1.101   6.703 -1.1379 -0.2321  2.0491
 1542SOL     OW16258   4.222   2.375  15.647  0.2072 -0.3539 -0.3928
 1542SOL    HW116259   4.298   2.319  15.638 -0.0087 -0.3698 -2.0367
 1542SOL    HW216260   4.273   2.427  15.710  1.7074 -0.8434 -1.2074
 1543SOL     OW16261   1.557   4.246   9.381 -0.2323 -0.2501  0.0553
 1543SOL    HW116262   1.580   4.163   9.338  1.3761  0.4729 -0.4742
 1543SOL    HW216263   1.493   4.218   9.446  0.6416  1.5020  1.6444
 1544SOL     OW16264   3.618   4.587   6.751  0.0273  0.6077  0.5264
 1544SOL    HW116265   3.676   4.512   6.744  0.3926  1.0931 -1.6674
 1544SOL    HW216266   3.537   4.553   6.789  1.2524 -1.1907  1.5176
 1545SOL     OW16267   1.718   0.421   2.432  0.2943 -0.2838 -0.3854
 1545SOL    HW116268   1.756   0.499   2.390 -0.8809  0.0487 -0.8509
 1545SOL    HW216269   1.705   0.453   2.521  0.8966  0.0371 -0.4136
 1546SOL     OW16270   3.038   3.046  12.359  0.6132 -0.3830 -0.3415
 1546SOL    HW116271   3.126   3.009  12.366 -0.0002 -1.1495  3.5406
 1546SOL    HW216272   3.030   3.125  12.412 -0.8401 -2.2888  2.3349
 1547SOL     OW16273   2.613   0.150   7.780 -0.0760  0.7952  0.9476
 1547SOL    HW116274   2.599   0.221   7.718 -0.4434 -2.2461 -2.4054
 1547SOL    HW216275   2.530   0.150   7.829  1.2164  1.5274  3.1467
 1548SOL     OW16276   4.196   2.433   1.282 -0.0500  0.2375  0.1802
 1548SOL    HW116277   4.283   2.456   1.314  0.3338  3.7500 -3.3425
 1548SOL    HW216278   4.152   2.505   1.236 -0.0249  0.7168  0.8943
 1549SOL     OW16279   4.438   3.785  15.166 -0.3097 -0.3471  0.2253
 1549SOL    HW116280   4.348   3.812  15.183  0.1937  1.6085 -0.1667
 1549SOL    HW216281   4.452   3.728  15.241  0.6393 -1.7058 -0.9837
 1550SOL     OW16282   0.146   3.490   6.402  0.5356  0.8432 -0.0698
 1550SOL    HW116283   0.184   3.418   6.453 -1.2521 -0.0905 -0.0550
 1550SOL    HW216284   0.227   3.534   6.376  0.2580  0.6393 -1.2990
 1551SOL     OW16285   1.031   0.639   8.380 -0.1346  0.2767  0.3553
 1551SOL    HW116286   1.025   0.617   8.473  0.7586  2.2066  0.8527
 1551SOL    HW216287   1.125   0.645   8.363 -0.1971 -0.5394 -0.2703
 1552SOL     OW16288   0.102   2.270   4.831 -0.2942 -0.0382 -0.0958
 1552SOL    HW116289   0.053   2.194   4.798  0.7266 -0.5322 -0.4721
 1552SOL    HW216290   0.177   2.267   4.771  1.2279  0.1022  1.8156
 1553SOL     OW16291   3.064   3.698  11.335  0.1617 -0.2014  0.2152
 1553SOL    HW116292   3.006   3.630  11.300 -1.8070  1.1937  0.7881
 1553SOL    HW216293   3.000   3.740  11.392  0.7889  0.6207  0.3027
 1554SOL     OW16294   1.196   4.602   2.430 -0.4386 -0.2498  0.3591
 1554SOL    HW116295   1.252   4.525   2.417 -1.4517 -0.9515  0.1217
 1554SOL    HW216296   1.225   4.632   2.516 -1.6365 -0.6860  0.9212
 1555SOL     OW16297   0.030   4.405   4.124 -0.2693  0.2290 -0.0177
 1555SOL    HW116298   4.700   4.346   4.161  0.5419  0.1853  1.3198
 1555SOL    HW216299   4.715   4.481   4.095  1.1671  1.3525  0.4442
 1556SOL     OW16300   2.150   1.226   2.097 -0.2911  0.1390  0.0006
 1556SOL    HW116301   2.229   1.263   2.057  0.6468 -0.7939  0.9889
 1556SOL    HW216302   2.082   1.239   2.031 -0.8401  1.0774  0.7685
 1557SOL     OW16303   0.624   0.808  15.083 -0.0204  0.1444  0.3851
 1557SOL    HW116304   0.588   0.879  15.030 -1.5197 -2.3591 -1.9028
 1557SOL    HW216305   0.704   0.778  15.040  0.0110  0.3312  0.3128
 1558SOL     OW16306   4.143   1.635   8.672  0.0340 -0.3816  0.2329
 1558SOL    HW116307   4.171   1.596   8.755  0.0574  0.5632  0.6640
 1558SOL    HW216308   4.054   1.657   8.702 -0.6026 -2.2655 -0.2928
 1559SOL     OW16309   3.015   0.412   7.604  0.1747  0.3205 -0.2402
 1559SOL    HW116310   3.066   0.335   7.581  0.5145 -0.0349  1.7344
 1559SOL    HW216311   3.069   0.487   7.629  0.2804 -0.2444  1.2237
 1560SOL     OW16312   0.024   2.487   8.483 -0.4618 -0.1913  0.7007
 1560SOL    HW116313   0.070   2.444   8.411 -0.8099  0.5455  0.0355
 1560SOL    HW216314   0.054   2.578   8.484 -0.6456 -0.1304  0.7172
 1561SOL     OW16315   4.687   3.085   2.007  0.3492  0.2585  0.1698
 1561SOL    HW116316   0.026   3.145   2.006  0.7490 -0.2347  0.1985
 1561SOL    HW216317   4.621   3.150   1.982  1.5128  1.7061  0.8560
 1562SOL     OW16318   1.649   0.190   7.690  0.0842 -0.1878 -0.8119
 1562SOL    HW116319   1.626   0.098   7.706  0.5789  0.1791  2.0351
 1562SOL    HW216320   1.574   0.214   7.636  1.0721  1.9362 -1.2210
 1563SOL     OW16321   1.204   2.277   8.919  0.4750  0.5829  0.2470
 1563SOL    HW116322   1.300   2.274   8.922  0.4407 -0.2703  0.2996
 1563SOL    HW216323   1.195   2.320   8.834 -1.9861 -2.2962 -0.9352
 1564SOL     OW16324   1.234   3.196   5.350 -0.0508  0.2094 -0.1023
 1564SOL    HW116325   1.323   3.205   5.385  0.3723  0.4791 -1.2534
 1564SOL    HW216326   1.185   3.199   5.432 -1.0748 -0.1724 -0.7004
 1565SOL     OW16327   3.768   1.042   0.438 -0.1017  0.4587 -0.7498
 1565SOL    HW116328   3.791   1.098   0.512 -1.0945 -0.3499  0.1722
 1565SOL    HW216329   3.688   1.083   0.404 -0.8891  1.0729  1.7842
 1566SOL     OW16330   3.996   3.104   7.724  0.1460  0.0321 -0.5767
 1566SOL    HW116331   4.088   3.102   7.699  0.2443 -1.8624 -0.0631
 1566SOL    HW216332   3.977   3.011   7.741  4.4842 -0.6148  0.5161
 1567SOL     OW16333   1.363   4.345   2.602 -0.3805 -0.1159  0.0748
 1567SOL    HW116334   1.392   4.309   2.685  1.0262  1.3152  0.1885
 1567SOL    HW216335   1.271   4.359   2.625  0.5808 -0.0905  3.8387
 1568SOL     OW16336   4.633   2.974  14.796  0.2113 -0.3328 -0.4948
 1568SOL    HW116337   4.696   3.043  14.816 -1.1979 -0.1489  3.3159
 1568SOL    HW216338   4.695   2.911  14.760  0.7177 -1.3556  2.1632
 1569SOL     OW16339   4.689   0.712   1.995 -0.0146  0.0384  0.1448
 1569SOL    HW116340   0.023   0.777   2.008 -0.2520  0.5928 -1.3583
 1569SOL    HW216341   4.701   0.654   2.071  0.1013  0.3366  0.3556
 1570SOL     OW16342   1.444   2.985   4.614  0.1240 -0.0417 -0.2367
 1570SOL    HW116343   1.373   3.026   4.566 -0.4210 -0.5160  0.1526
 1570SOL    HW216344   1.397   2.953   4.691 -0.6281  1.1870 -0.1885
 1571SOL     OW16345   4.068   0.219   1.314 -0.2638  0.1777 -0.0777
 1571SOL    HW116346   4.074   0.184   1.403 -1.7635 -1.8706 -0.7970
 1571SOL    HW216347   4.045   0.142   1.262  0.1256  0.4480 -0.6407
 1572SOL     OW16348   4.138   3.389   4.835  0.4014  0.1649 -0.1030
 1572SOL    HW116349   4.133   3.485   4.841  2.4120  0.2799 -0.3920
 1572SOL    HW216350   4.199   3.390   4.761 -0.3013 -1.1948 -0.7082
 1573SOL     OW16351   2.290   2.974   3.680  0.6758  0.5758  0.0911
 1573SOL    HW116352   2.379   2.981   3.645  0.4133  1.4928 -0.3867
 1573SOL    HW216353   2.307   2.942   3.769 -0.7535 -1.3882 -0.3492
 1574SOL     OW16354   4.588   4.707   5.784  0.2463 -0.0000 -0.0698
 1574SOL    HW116355   4.570   4.677   5.873  0.4444  1.6127  0.5197
 1574SOL    HW216356   4.582   4.623   5.738  0.9553 -1.4309  2.4649
 1575SOL     OW16357   2.208   1.998  16.578  0.3515 -0.3632 -0.1998
 1575SOL    HW116358   2.145   2.009  16.650  0.1978  1.9377 -0.6992
 1575SOL    HW216359   2.280   2.050  16.613 -0.4557  1.5346 -1.3422
 1576SOL     OW16360   4.627   2.923  17.281 -0.0520  0.0613 -0.1257
 1576SOL    HW116361   4.671   2.984  17.340  0.3160 -0.1498 -0.1812
 1576SOL    HW216362   4.545   2.905  17.327 -0.0438 -1.4493 -0.6963
 1577SOL     OW16363   3.166   2.601  17.354 -0.3435  0.5380 -0.4760
 1577SOL    HW116364   3.220   2.527  17.326 -0.9398  0.4310 -1.3198
 1577SOL    HW216365   3.198   2.682  17.315 -2.0261  2.2053  1.6515
 1578SOL     OW16366   0.557   0.104   5.985  0.3567  0.1473 -0.3848
 1578SOL    HW116367   0.509   0.129   5.906 -1.0833 -0.2422  0.3524
 1578SOL    HW216368   0.628   0.167   5.980 -0.5501  0.9211 -3.2639
 1579SOL     OW16369   1.313   3.015   4.150 -0.0308  0.1373  1.0938
 1579SOL    HW116370   1.243   3.056   4.201 -1.8811 -2.9654  1.0017
 1579SOL    HW216371   1.320   2.927   4.186  3.1729  0.4687  1.2739
 1580SOL     OW16372   2.584   2.331   1.228  0.0400 -0.3710 -0.2908
 1580SOL    HW116373   2.505   2.385   1.231 -0.6327 -1.1625 -3.0948
 1580SOL    HW216374   2.625   2.344   1.313 -2.2807  0.8931  0.6505
 1581SOL     OW16375   0.078   2.038   2.923  0.0336  0.1403 -0.4869
 1581SOL    HW116376   0.061   1.957   2.876  2.5181 -1.0228  0.6234
 1581SOL    HW216377   0.025   2.016   3.000  0.4309  1.0486  0.0382
 1582SOL     OW16378   2.754   4.474  10.994 -0.3303  0.3500 -0.3632
 1582SOL    HW116379   2.745   4.383  11.023  2.7741  0.7777  1.9495
 1582SOL    HW216380   2.843   4.483  10.959  0.0664  3.1520  1.3807
 1583SOL     OW16381   0.673   2.931   7.305  0.0221  0.2212 -0.2460
 1583SOL    HW116382   0.741   2.996   7.284  0.8747 -0.5584  0.1309
 1583SOL    HW216383   0.687   2.858   7.245  0.3207  0.0081  0.0877
 1584SOL     OW16384   1.435   3.736   0.501  0.4084 -0.3537  0.5990
 1584SOL    HW116385   1.423   3.738   0.596  0.1626 -0.4597  0.5681
 1584SOL    HW216386   1.347   3.728   0.466  0.8082  1.0346 -0.7635
 1585SOL     OW16387   2.359   2.083   2.424 -0.0431  0.4586  0.5285
 1585SOL    HW116388   2.306   2.037   2.490  0.1291  0.2407  0.5142
 1585SOL    HW216389   2.314   2.167   2.418 -0.8358 -0.1049 -1.1528
 1586SOL     OW16390   0.491   4.716   4.939  0.3621  0.2647 -0.3634
 1586SOL    HW116391   0.411   0.026   4.967  0.7207  2.0021 -2.1467
 1586SOL    HW216392   0.483   4.713   4.843  3.5671  0.5151 -0.6224
 1587SOL     OW16393   1.136   0.646   4.255  0.7424  0.2091  0.5439
 1587SOL    HW116394   1.094   0.571   4.298 -2.7255  1.6569 -0.3149
 1587SOL    HW216395   1.067   0.693   4.208  1.1554  0.9187  0.6583
 1588SOL     OW16396   1.757   3.596  13.713 -0.5104  0.2298 -0.2364
 1588SOL    HW116397   1.668   3.631  13.711 -0.2135  0.9960  0.1702
 1588SOL    HW216398   1.741   3.502  13.707 -1.9101  0.4572 -0.1420
 1589SOL     OW16399   0.351   3.580   7.001 -0.2349 -0.2223 -0.3100
 1589SOL    HW116400   0.339   3.658   6.947 -3.0235 -0.0200  0.6384
 1589SOL    HW216401   0.362   3.627   7.084  1.9947  1.6405 -1.6461
 1590SOL     OW16402   4.431   0.595   8.256  0.5907 -0.5553 -0.7284
 1590SOL    HW116403   4.423   0.604   8.351 -2.1526 -0.2259 -1.0053
 1590SOL    HW216404   4.463   0.679   8.222  0.3824 -0.3097 -0.3244
 1591SOL     OW16405   4.083   0.116   1.588  0.1259  0.0307  0.1289
 1591SOL    HW116406   4.005   0.166   1.612 -1.5936 -2.3871 -0.4435
 1591SOL    HW216407   4.150   0.178   1.617  0.3303  1.2091 -2.8598
 1592SOL     OW16408   2.803   3.130   1.363 -0.2842  0.4470 -0.1816
 1592SOL    HW116409   2.834   3.162   1.279  1.4379  2.1015  1.0759
 1592SOL    HW216410   2.764   3.211   1.394  1.2090  0.5262  1.4768
 1593SOL     OW16411   4.009   2.599   6.428  0.1464  0.0598 -0.3628
 1593SOL    HW116412   3.968   2.638   6.506  2.3247  0.9326  0.3504
 1593SOL    HW216413   4.089   2.571   6.472  0.8440  1.9627 -0.3906
 1594SOL     OW16414   3.595   3.084   4.900 -0.0093  0.2813 -0.2301
 1594SOL    HW116415   3.677   3.125   4.928  1.2041 -0.7652 -2.2358
 1594SOL    HW216416   3.542   3.161   4.877 -0.3268 -0.2542 -1.3003
 1595SOL     OW16417   0.492   1.326  16.049 -0.1215  0.2608  0.3926
 1595SOL    HW116418   0.468   1.293  15.962  0.2844  0.7552  0.0956
 1595SOL    HW216419   0.419   1.314  16.110  1.1966  1.6722  2.2585
 1596SOL     OW16420   2.916   2.996   9.009  1.0397  0.8709  0.7219
 1596SOL    HW116421   2.962   2.918   9.040 -1.6727 -0.8800  0.3176
 1596SOL    HW216422   2.989   3.055   8.991  0.4766  1.8314  1.5812
 1597SOL     OW16423   1.631   0.772  16.874 -0.1356 -0.1619  0.3523
 1597SOL    HW116424   1.636   0.821  16.792 -1.1724  1.2645  1.1479
 1597SOL    HW216425   1.678   0.692  16.850 -0.0452 -0.2708  0.8881
 1598SOL     OW16426   0.857   4.016   6.543  0.4350 -0.3498  0.5130
 1598SOL    HW116427   0.913   4.093   6.558  1.1817 -0.9663  0.8913
 1598SOL    HW216428   0.767   4.038   6.566  0.0303  0.3532 -1.6792
 1599SOL     OW16429   1.447   0.937   9.262 -0.3068 -0.5151  0.0308
 1599SOL    HW116430   1.470   0.969   9.175 -1.3989 -0.3429 -0.2009
 1599SOL    HW216431   1.487   0.850   9.261 -0.3055 -0.5180  0.8776
 1600SOL     OW16432   2.805   1.491   8.488 -0.4775 -0.1335  0.0298
 1600SOL    HW116433   2.756   1.558   8.536 -0.1028 -0.4270  0.8146
 1600SOL    HW216434   2.893   1.513   8.517 -0.7348 -0.3866  0.9975
 1601SOL     OW16435   2.262   4.279   3.342  0.1951  0.0450  0.0337
 1601SOL    HW116436   2.295   4.360   3.302 -0.1649  0.0304 -0.2940
 1601SOL    HW216437   2.311   4.204   3.309  1.7899  0.4178  1.5455
 1602SOL     OW16438   2.440   1.628   2.542 -0.1151  0.3057  0.0025
 1602SOL    HW116439   2.399   1.701   2.588 -0.1148 -0.4252  1.1837
 1602SOL    HW216440   2.522   1.628   2.592  0.3332 -2.6951 -0.7753
 1603SOL     OW16441   2.347   2.772  14.916  0.1440  0.0535 -0.2830
 1603SOL    HW116442   2.258   2.747  14.890 -0.1423 -1.6960  2.3127
 1603SOL    HW216443   2.400   2.693  14.912  1.0783  0.4920  3.3266
 1604SOL     OW16444   0.382   3.637   5.175 -0.0630 -0.1986 -0.2209
 1604SOL    HW116445   0.383   3.698   5.249  0.2144 -1.3927  0.7564
 1604SOL    HW216446   0.447   3.574   5.205  0.0323  1.0047  2.1231
 1605SOL     OW16447   4.171   4.625  10.547  0.4644  0.2809 -0.4598
 1605SOL    HW116448   4.158   4.531  10.533  0.1093  0.1153  0.9875
 1605SOL    HW216449   4.193   4.630  10.640  0.0524 -0.8749 -0.2946
 1606SOL     OW16450   0.373   2.805   6.954 -0.5526 -0.4396  0.0391
 1606SOL    HW116451   0.322   2.852   6.888  1.6021  0.2947 -1.0993
 1606SOL    HW216452   0.351   2.849   7.036  0.4888  1.8520 -0.8946
 1607SOL     OW16453   3.442   0.662   3.866  0.2974 -0.1932 -0.6987
 1607SOL    HW116454   3.528   0.688   3.834  1.0751  0.3307  1.7994
 1607SOL    HW216455   3.445   0.712   3.947  0.6716  0.3936 -1.0816
 1608SOL     OW16456   2.119   3.424  16.805  0.0048 -0.1647  0.1284
 1608SOL    HW116457   2.084   3.451  16.890  1.4524  1.1186  0.3227
 1608SOL    HW216458   2.096   3.331  16.809 -1.7294  0.2134 -0.9380
 1609SOL     OW16459   0.124   0.342   4.521  0.0756  0.0075  0.0544
 1609SOL    HW116460   0.211   0.381   4.510  0.9726 -2.6600 -2.1050
 1609SOL    HW216461   0.136   0.268   4.581 -0.9613  0.0793  0.3440
 1610SOL     OW16462   0.701   3.253   4.914 -0.3436 -0.3678 -0.0251
 1610SOL    HW116463   0.702   3.347   4.930 -0.0889 -0.1257 -1.4901
 1610SOL    HW216464   0.694   3.221   5.004  0.2939  0.1920  0.2223
 1611SOL     OW16465   1.777   1.725   2.080  0.4455  0.3316 -0.0645
 1611SOL    HW116466   1.759   1.818   2.093  0.1619  0.4276 -1.0973
 1611SOL    HW216467   1.861   1.718   2.126  1.8343  0.2244 -2.6166
 1612SOL     OW16468   4.233   4.664  13.436 -0.1025  0.0267  0.8026
 1612SOL    HW116469   4.260   4.724  13.506 -0.4006  1.4214 -0.2733
 1612SOL    HW216470   4.302   4.598  13.426  0.8252  1.2250 -0.7256
 1613SOL     OW16471   2.763   0.170  13.114 -0.3218  0.1502 -0.0384
 1613SOL    HW116472   2.780   0.257  13.149 -0.3329 -0.0642  0.5021
 1613SOL    HW216473   2.853   0.142  13.098 -0.5351 -0.2445 -0.5449
 1614SOL     OW16474   0.612   3.355   5.711 -0.0285  0.0675  0.0938
 1614SOL    HW116475   0.682   3.338   5.774  0.4016  1.1761 -0.0952
 1614SOL    HW216476   0.638   3.439   5.673  2.1708 -0.0151  1.4233
 1615SOL     OW16477   3.812   3.435   8.750 -0.3429 -0.1052 -0.3656
 1615SOL    HW116478   3.819   3.521   8.790  1.9928 -0.0646 -0.8412
 1615SOL    HW216479   3.875   3.440   8.678  0.1290 -1.4468 -0.0570
 1616SOL     OW16480   4.410   4.629   6.925 -0.3764 -0.2165  0.0297
 1616SOL    HW116481   4.326   4.609   6.966 -0.8172 -0.7960 -1.1419
 1616SOL    HW216482   4.399   4.599   6.834  1.2242 -0.5601 -0.0352
 1617SOL     OW16483   3.388   2.611   6.297  0.2164  0.4930  0.0738
 1617SOL    HW116484   3.447   2.573   6.231  1.6245  0.2448  1.4928
 1617SOL    HW216485   3.302   2.585   6.263 -0.2173  1.6060  0.3437
 1618SOL     OW16486   4.096   0.270  10.824  0.1128  0.6521  0.4649
 1618SOL    HW116487   4.093   0.326  10.746  0.9117 -0.2776 -0.2340
 1618SOL    HW216488   4.041   0.318  10.885 -1.1814 -0.6326  0.2954
 1619SOL     OW16489   1.845   2.467   5.024 -0.4187 -0.2993  0.1982
 1619SOL    HW116490   1.859   2.418   4.943 -0.2444 -2.2459  1.3929
 1619SOL    HW216491   1.812   2.393   5.076  0.3142 -1.8775 -1.5630
 1620SOL     OW16492   0.178   4.191   6.637  0.0220  0.0808  0.1245
 1620SOL    HW116493   0.104   4.214   6.579  0.1914  3.8802  1.4376
 1620SOL    HW216494   0.217   4.276   6.658  0.9701  0.0542 -1.5504
 1621SOL     OW16495   2.002   0.438   7.177 -0.0681 -0.3009  0.3193
 1621SOL    HW116496   1.980   0.480   7.094 -0.0839 -1.1929 -0.1313
 1621SOL    HW216497   1.913   0.414   7.204 -1.0168  0.7581 -1.9014
 1622SOL     OW16498   3.196   1.384  10.345 -0.3317  0.2081 -0.1749
 1622SOL    HW116499   3.236   1.324  10.408  0.8833  0.5202 -0.6560
 1622SOL    HW216500   3.217   1.464  10.393  0.5396  0.8392 -1.6210
 1623SOL     OW16501   0.462   3.791   3.341 -0.1742  0.0775 -0.3570
 1623SOL    HW116502   0.471   3.720   3.277  1.2050  1.8418 -2.1354
 1623SOL    HW216503   0.526   3.774   3.410  0.0077  1.2052 -0.2453
 1624SOL     OW16504   2.625   2.782   3.804  0.2919 -0.2970  0.9974
 1624SOL    HW116505   2.545   2.835   3.806  0.7254  0.2220  3.5455
 1624SOL    HW216506   2.686   2.855   3.803  0.3178 -0.3283 -0.1057
 1625SOL     OW16507   1.743   0.622   4.907 -0.7100 -0.7840 -0.3823
 1625SOL    HW116508   1.831   0.595   4.934 -0.6115 -0.5884 -0.5148
 1625SOL    HW216509   1.748   0.675   4.828  0.7897  1.5392  1.2707
 1626SOL     OW16510   0.219   2.539  13.550 -0.3114  0.3665  0.0660
 1626SOL    HW116511   0.247   2.496  13.469 -1.3534 -0.1702 -0.0065
 1626SOL    HW216512   0.125   2.520  13.544  0.1031 -1.5220 -0.4500
 1627SOL     OW16513   2.678   1.249   4.521  0.4281 -0.4744 -0.2532
 1627SOL    HW116514   2.631   1.188   4.578  0.7138 -0.1019  0.3893
 1627SOL    HW216515   2.638   1.331   4.551 -0.6246 -1.4772  1.1156
 1628SOL     OW16516   4.297   1.257   8.079  0.3439 -0.2459  0.1649
 1628SOL    HW116517   4.318   1.343   8.043  0.1466 -0.4103 -0.3334
 1628SOL    HW216518   4.388   1.229   8.085  0.1765 -1.3111 -2.2217
 1629SOL     OW16519   0.065   3.596   9.018  0.1818 -0.0113  0.6123
 1629SOL    HW116520   0.094   3.686   9.010  0.4679 -0.1548  0.0542
 1629SOL    HW216521   4.720   3.601   9.071  0.3772  0.9522  0.8123
 1630SOL     OW16522   0.343   2.781   5.970  0.2515  0.9180 -0.1050
 1630SOL    HW116523   0.324   2.732   6.050 -1.2426  1.7754  0.0538
 1630SOL    HW216524   0.253   2.794   5.939  0.5177  1.0036 -0.8480
 1631SOL     OW16525   3.421   2.393  15.168  0.3581 -0.5406 -0.1934
 1631SOL    HW116526   3.397   2.484  15.153 -1.6823 -1.3543 -1.7648
 1631SOL    HW216527   3.517   2.399  15.160  0.4775 -0.9399  0.9506
 1632SOL     OW16528   4.415   2.276   8.580  0.1222 -0.7387  0.1172
 1632SOL    HW116529   4.430   2.340   8.510 -0.7291 -2.2493 -1.4500
 1632SOL    HW216530   4.473   2.204   8.553  0.7646 -0.9964  2.1439
 1633SOL     OW16531   0.408   2.280   3.087  0.0465 -0.1914 -0.3169
 1633SOL    HW116532   0.399   2.365   3.045  0.4425  0.0204  0.0237
 1633SOL    HW216533   0.441   2.308   3.173 -1.0086 -1.8076  0.6079
 1634SOL     OW16534   1.549   2.447   5.781 -0.1144 -0.5363 -0.3754
 1634SOL    HW116535   1.618   2.449   5.714  2.4390  1.9037  2.2980
 1634SOL    HW216536   1.546   2.542   5.785 -0.7035 -0.5387 -0.7395
 1635SOL     OW16537   3.248   3.875   7.250 -0.0596  0.0688  0.4717
 1635SOL    HW116538   3.226   3.783   7.236  2.0947 -0.5074  0.7486
 1635SOL    HW216539   3.306   3.891   7.176  0.3882  0.1494  0.8364
 1636SOL     OW16540   0.620   2.766  15.963 -0.5115  0.2620  0.3381
 1636SOL    HW116541   0.608   2.834  15.897 -0.9429 -1.2524 -1.1481
 1636SOL    HW216542   0.680   2.705  15.919  0.1156  2.1108 -1.3454
 1637SOL     OW16543   1.637   1.503   2.001  0.0980 -0.0879 -0.4232
 1637SOL    HW116544   1.718   1.463   1.970  1.0333  2.4754 -1.2753
 1637SOL    HW216545   1.676   1.588   2.019 -0.2886  0.1590 -0.7603
 1638SOL     OW16546   1.594   4.667   8.659  0.1290  0.1088  0.2985
 1638SOL    HW116547   1.542   4.656   8.580  0.3335  0.2837  0.1385
 1638SOL    HW216548   1.593   4.581   8.700 -0.4883  0.0655  0.1850
 1639SOL     OW16549   4.262   0.758   6.743 -0.5421  0.4687 -0.4442
 1639SOL    HW116550   4.280   0.669   6.714 -0.8638  1.1127 -2.5936
 1639SOL    HW216551   4.352   0.782   6.768  0.2153 -2.7742 -0.0504
 1640SOL     OW16552   2.769   0.413  17.430 -0.1519 -0.3278 -0.0617
 1640SOL    HW116553   2.730   0.400  17.517 -1.4686  0.5845 -0.5235
 1640SOL    HW216554   2.697   0.458  17.387 -0.1481  2.4427  2.8254
 1641SOL     OW16555   2.063   1.589   3.850 -1.0785  0.1374  0.1298
 1641SOL    HW116556   2.006   1.514   3.835 -0.2287 -0.0255 -2.2256
 1641SOL    HW216557   2.132   1.555   3.907  2.5799  1.2332 -3.7076
 1642SOL     OW16558   3.335   0.783  10.420  0.0949  0.4343 -0.4039
 1642SOL    HW116559   3.343   0.866  10.467 -0.6552  1.0515 -1.3762
 1642SOL    HW216560   3.375   0.806  10.336 -0.7111 -1.7851 -1.3847
 1643SOL     OW16561   1.290   0.417  16.337 -0.2665 -0.2421  0.2821
 1643SOL    HW116562   1.285   0.415  16.432 -0.9128  0.8371  0.2602
 1643SOL    HW216563   1.227   0.488  16.327 -1.2827 -1.2377 -0.3852
 1644SOL     OW16564   3.561   0.159   4.450 -0.0314  0.2039  0.0927
 1644SOL    HW116565   3.491   0.201   4.501 -0.8081 -0.7691 -0.1812
 1644SOL    HW216566   3.509   0.089   4.411  0.6200 -1.3730  2.0803
 1645SOL     OW16567   3.075   0.756  11.068  0.0105  0.3477 -0.2056
 1645SOL    HW116568   3.093   0.818  11.139  1.1582 -0.1517 -0.0545
 1645SOL    HW216569   3.075   0.677  11.122  3.3918  1.1637  1.0050
 1646SOL     OW16570   1.790   4.176   4.797 -0.2692 -0.1998  0.1984
 1646SOL    HW116571   1.830   4.226   4.868 -0.7363 -0.3775  0.5832
 1646SOL    HW216572   1.701   4.168   4.830 -0.3666 -2.2591 -0.5187
 1647SOL     OW16573   0.690   1.850   0.923  0.1414  0.5376  0.1136
 1647SOL    HW116574   0.676   1.800   0.842  2.7143 -1.9312  1.2109
 1647SOL    HW216575   0.658   1.935   0.893  0.2280  0.5540  0.0694
 1648SOL     OW16576   3.124   3.610   2.724  0.2539  0.5736  0.4253
 1648SOL    HW116577   3.200   3.622   2.667 -0.9946  4.2328 -0.4680
 1648SOL    HW216578   3.090   3.699   2.717 -0.7114  0.1083 -0.7570
 1649SOL     OW16579   4.027   3.571  10.110  0.5557  0.5308 -0.0670
 1649SOL    HW116580   4.052   3.619  10.031  2.9105  2.1703  1.6829
 1649SOL    HW216581   4.070   3.486  10.099  1.1912  0.9956 -1.2122
 1650SOL     OW16582   2.670   0.122   9.427 -0.0001 -0.2322  0.1398
 1650SOL    HW116583   2.600   0.187   9.413  0.2740 -0.8063 -4.1144
 1650SOL    HW216584   2.738   0.165   9.478  1.2605  0.5444 -2.1924
 1651SOL     OW16585   3.835   2.463   8.046  0.0758  0.7664  0.0308
 1651SOL    HW116586   3.797   2.550   8.034 -1.7714  0.4602  3.5433
 1651SOL    HW216587   3.866   2.468   8.136  2.9864 -0.4543 -0.9136
 1652SOL     OW16588   0.882   3.932   6.257 -0.3402  0.2647  0.5219
 1652SOL    HW116589   0.878   3.981   6.339  1.5069 -1.2953  1.5407
 1652SOL    HW216590   0.916   4.000   6.198  0.3531 -3.3554 -3.3080
 1653SOL     OW16591   0.108   0.816  15.190  0.2265 -0.5396  0.3047
 1653SOL    HW116592   0.115   0.745  15.125  1.2508  1.3628 -1.6764
 1653SOL    HW216593   0.087   0.894  15.139  1.4652  0.8552  1.9782
 1654SOL     OW16594   2.386   3.533   3.505  0.0122 -0.2270 -0.1602
 1654SOL    HW116595   2.302   3.558   3.467 -0.0741 -0.1860  0.0579
 1654SOL    HW216596   2.358   3.468   3.569  1.1105  0.2835  0.8535
 1655SOL     OW16597   3.180   2.460   2.319 -0.3128 -0.5928  0.2658
 1655SOL    HW116598   3.256   2.474   2.376 -0.8795  1.1923  0.5893
 1655SOL    HW216599   3.163   2.546   2.281  1.3365 -0.6842 -0.6648
 1656SOL     OW16600   0.648   3.453  11.125 -0.2089 -0.4277  0.0804
 1656SOL    HW116601   0.569   3.494  11.162 -0.1564 -1.5192  1.3985
 1656SOL    HW216602   0.610   3.386  11.068 -1.2281  0.9468 -0.8722
 1657SOL     OW16603   3.881   4.623  17.219  0.1310  0.4382 -0.8253
 1657SOL    HW116604   3.882   4.682  17.294  1.6295  0.7598 -1.1057
 1657SOL    HW216605   3.787   4.628  17.204  0.1588  1.3467 -0.6772
 1658SOL     OW16606   0.190   2.623   1.485 -0.0540  0.4041  0.1109
 1658SOL    HW116607   0.122   2.579   1.536  1.8700 -1.8043  0.7660
 1658SOL    HW216608   0.195   2.572   1.405  1.5250  1.4991 -0.4699
 1659SOL     OW16609   3.420   1.085   0.174 -0.0225  0.4105  0.5964
 1659SOL    HW116610   3.454   1.130   0.252  2.7667 -2.0973  0.8062
 1659SOL    HW216611   3.467   1.130   0.104  1.8653 -1.4587  0.6774
 1660SOL     OW16612   0.125   3.728   6.666 -0.2289 -0.4585 -0.7611
 1660SOL    HW116613   0.093   3.818   6.679  2.4820  0.2609  0.8220
 1660SOL    HW216614   0.084   3.715   6.580 -1.4341 -0.4264 -0.1981
 1661SOL     OW16615   2.730   4.061  12.334  0.5896 -0.2206  0.1096
 1661SOL    HW116616   2.652   4.116  12.325  1.1893  0.6143 -0.0303
 1661SOL    HW216617   2.783   4.119  12.390 -1.3568  1.5539  0.1420
 1662SOL     OW16618   2.267   2.519   3.677 -0.2000  0.1681  0.4685
 1662SOL    HW116619   2.225   2.523   3.763 -2.4774 -0.7026 -0.6180
 1662SOL    HW216620   2.194   2.477   3.633 -1.1615  1.7259  0.6060
 1663SOL     OW16621   0.021   4.676   8.273  0.4270  0.1927  0.1400
 1663SOL    HW116622   0.078   0.009   8.237 -2.6486  1.4642 -2.3646
 1663SOL    HW216623   4.673   4.686   8.226 -0.2790  1.1159  1.6033
 1664SOL     OW16624   0.349   3.093   7.808 -0.4697  0.5489  0.2226
 1664SOL    HW116625   0.388   3.168   7.762 -2.6992  0.3956 -1.8562
 1664SOL    HW216626   0.359   3.132   7.895 -2.5839 -1.4010  1.3219
 1665SOL     OW16627   1.236   3.837   9.268  0.3968  0.2249  0.3995
 1665SOL    HW116628   1.194   3.897   9.329  1.7946  0.9163  0.6921
 1665SOL    HW216629   1.311   3.803   9.318  1.3270 -2.9266 -3.1458
 1666SOL     OW16630   0.340   2.119  12.602 -0.0453  0.5888  0.0845
 1666SOL    HW116631   0.293   2.043  12.636  0.7973 -0.0122 -0.0967
 1666SOL    HW216632   0.428   2.087  12.583  0.6589  1.7979  1.3475
 1667SOL     OW16633   2.567   2.144   8.420  0.1374 -0.0868 -0.0182
 1667SOL    HW116634   2.539   2.084   8.351 -2.1362  0.1496  0.6787
 1667SOL    HW216635   2.554   2.227   8.375  0.5358  0.2233  0.4428
 1668SOL     OW16636   3.221   2.780   4.188  0.0843 -0.1076 -0.0639
 1668SOL    HW116637   3.298   2.832   4.167 -0.2806 -0.2221 -1.6245
 1668SOL    HW216638   3.270   2.698   4.184  0.5120  0.2133 -1.3730
 1669SOL     OW16639   3.730   1.978   1.672 -0.5422  0.1062  0.2777
 1669SOL    HW116640   3.786   1.927   1.730 -0.5614 -2.7125 -2.1671
 1669SOL    HW216641   3.789   2.054   1.666 -0.0298  0.0614  5.0833
 1670SOL     OW16642   2.360   3.900   5.159 -0.3870  0.4902 -0.1550
 1670SOL    HW116643   2.324   3.821   5.118 -1.5108  0.1186  1.5508
 1670SOL    HW216644   2.345   3.963   5.089  0.5646  0.5111 -0.3409
 1671SOL     OW16645   2.710   1.014   3.111 -0.8973 -0.6525  0.1462
 1671SOL    HW116646   2.677   0.987   3.025 -2.5971  0.4173  0.4715
 1671SOL    HW216647   2.762   0.938   3.137  0.5404  0.7199  1.2772
 1672SOL     OW16648   2.933   0.709   4.220 -0.2412  0.2263  0.1154
 1672SOL    HW116649   2.876   0.723   4.144  1.9014 -0.0677 -1.5703
 1672SOL    HW216650   3.014   0.745   4.183  0.8363  1.5132  3.7696
 1673SOL     OW16651   3.174   3.376  12.130  0.1702 -0.1957 -0.1299
 1673SOL    HW116652   3.212   3.463  12.122 -1.0963  0.6924  3.4936
 1673SOL    HW216653   3.088   3.396  12.093 -0.5118 -0.9770  1.0341
 1674SOL     OW16654   0.883   1.162   2.438 -0.2204 -0.1230 -0.2860
 1674SOL    HW116655   0.964   1.150   2.487 -0.8170 -0.4859  0.6166
 1674SOL    HW216656   0.883   1.257   2.452  2.0350 -0.0147 -1.0135
 1675SOL     OW16657   0.842   4.583   4.652  0.0999  0.9078 -0.6873
 1675SOL    HW116658   0.804   4.627   4.576 -0.8424 -0.7631 -1.1619
 1675SOL    HW216659   0.821   4.493   4.630 -0.5249  1.3296 -1.7883
 1676SOL     OW16660   2.844   1.227   1.055  0.3405 -0.0999 -0.4882
 1676SOL    HW116661   2.899   1.305   1.045  0.3978 -0.0863 -0.0656
 1676SOL    HW216662   2.752   1.248   1.037 -0.1541 -1.0449  0.8896
 1677SOL     OW16663   1.558   0.889   4.059 -0.4492 -0.6894  0.6903
 1677SOL    HW116664   1.580   0.948   4.130 -1.9248  1.7239 -0.8886
 1677SOL    HW216665   1.569   0.803   4.099 -1.2841 -1.2033 -0.1728
 1678SOL     OW16666   0.519   4.315   9.001 -0.5513 -0.1710 -0.3619
 1678SOL    HW116667   0.432   4.355   9.000  0.2434  1.4443 -3.4576
 1678SOL    HW216668   0.545   4.371   9.074  1.1338  0.3529 -1.3719
 1679SOL     OW16669   0.457   3.992   2.691 -0.1937 -0.1787 -0.0060
 1679SOL    HW116670   0.409   3.910   2.698  1.0248 -0.7848  1.1745
 1679SOL    HW216671   0.489   3.990   2.781 -2.0082  1.7354  0.6582
 1680SOL     OW16672   3.127   2.992   6.880  0.3244  0.2258 -0.2803
 1680SOL    HW116673   3.174   3.075   6.889 -1.3941  1.0779  0.9160
 1680SOL    HW216674   3.064   3.012   6.811  0.1187 -2.3498 -0.8517
 1681SOL     OW16675   2.721   3.189  11.542 -0.5054  0.1315 -0.2677
 1681SOL    HW116676   2.755   3.104  11.570 -0.3001 -0.2242 -1.6130
 1681SOL    HW216677   2.784   3.249  11.581  1.2621 -0.8694 -1.6422
 1682SOL     OW16678   1.293   0.344   4.157  0.1351 -0.4933 -0.1078
 1682SOL    HW116679   1.202   0.320   4.173  0.5539 -1.6993  0.4642
 1682SOL    HW216680   1.310   0.291   4.079  1.3954 -0.1159 -0.0899
 1683SOL     OW16681   3.499   0.619  12.961  0.3178  0.3880 -0.6805
 1683SOL    HW116682   3.547   0.556  13.015  0.0854  0.9237  0.1568
 1683SOL    HW216683   3.435   0.560  12.923  1.6056 -0.1004 -2.0580
 1684SOL     OW16684   4.600   1.119   8.291  0.5077  0.2657 -0.0063
 1684SOL    HW116685   4.691   1.093   8.275  0.9497  2.2028 -0.5976
 1684SOL    HW216686   4.586   1.167   8.209 -1.3190  0.0787  0.1998
 1685SOL     OW16687   2.662   3.333   1.472 -0.3352  0.4288 -0.1136
 1685SOL    HW116688   2.673   3.424   1.444  0.7652  0.2797 -0.1574
 1685SOL    HW216689   2.601   3.347   1.544 -0.7539  2.1233 -0.8013
 1686SOL     OW16690   1.892   1.712  13.352 -0.0992 -0.4411 -0.2373
 1686SOL    HW116691   1.846   1.689  13.271  1.9242  0.3735 -1.6104
 1686SOL    HW216692   1.939   1.632  13.376  4.1314  1.6971 -1.3080
 1687SOL     OW16693   4.323   3.043  12.094  0.4781  0.3507 -0.2872
 1687SOL    HW116694   4.239   3.051  12.049  0.8930 -1.8197 -1.4539
 1687SOL    HW216695   4.375   3.020  12.016 -0.4943  1.9449 -1.3939
 1688SOL     OW16696   4.522   4.153  14.042 -0.1859  0.1983 -0.8217
 1688SOL    HW116697   4.532   4.158  13.947  0.6554 -1.2016 -0.8040
 1688SOL    HW216698   4.602   4.122  14.083 -0.1743 -1.2796 -1.9474
 1689SOL     OW16699   4.623   0.535   7.126 -0.3542 -0.0947  0.4445
 1689SOL    HW116700   4.685   0.577   7.066  0.0784 -0.3205  0.7338
 1689SOL    HW216701   4.570   0.605   7.163  0.8247 -0.9555  3.7467
 1690SOL     OW16702   4.447   2.205   2.465  0.1785 -0.4453  0.8358
 1690SOL    HW116703   4.363   2.175   2.499 -0.0494 -1.1809 -0.4273
 1690SOL    HW216704   4.509   2.174   2.531  1.8281  1.9196  0.4064
 1691SOL     OW16705   2.080   2.498   4.646 -0.3895 -0.3790 -0.1322
 1691SOL    HW116706   2.068   2.404   4.631  2.1137 -1.1141  2.4973
 1691SOL    HW216707   2.067   2.533   4.558 -0.8711  1.8627  0.8460
 1692SOL     OW16708   0.646   1.683   5.326 -0.2764  0.0075 -0.1118
 1692SOL    HW116709   0.719   1.731   5.363  1.0390 -3.4048  1.6628
 1692SOL    HW216710   0.590   1.679   5.403  1.1266  0.3045  0.9154
 1693SOL     OW16711   0.656   3.646   6.712 -0.1003 -0.1214 -0.1760
 1693SOL    HW116712   0.713   3.625   6.786  0.0928 -1.5548 -0.7350
 1693SOL    HW216713   0.606   3.721   6.746  2.3234  1.5826 -0.3852
 1694SOL     OW16714   0.147   4.546   5.842 -0.4798  0.1118 -0.2237
 1694SOL    HW116715   0.183   4.631   5.818 -1.5151  0.0132 -2.1051
 1694SOL    HW216716   0.082   4.523   5.776 -0.0322 -1.7921  0.0069
 1695SOL     OW16717   4.290   3.352   0.179  0.8703 -0.1213 -0.0037
 1695SOL    HW116718   4.289   3.256   0.177 -0.2804 -0.1032 -0.7708
 1695SOL    HW216719   4.265   3.382   0.266  0.9989 -0.6802  0.2249
 1696SOL     OW16720   3.733   2.170   1.970  0.4999  0.5062 -0.3745
 1696SOL    HW116721   3.720   2.133   1.883 -0.6017 -0.6635  0.2824
 1696SOL    HW216722   3.644   2.188   2.000  1.0331  3.8777 -0.7895
 1697SOL     OW16723   1.815   0.151   0.868  0.3268 -0.3903 -0.1949
 1697SOL    HW116724   1.904   0.178   0.846  1.1957 -1.5651  1.8510
 1697SOL    HW216725   1.767   0.232   0.854  1.8035  0.4621 -0.3126
 1698SOL     OW16726   4.128   3.030   3.689 -1.0283  0.3223  0.4197
 1698SOL    HW116727   4.189   2.956   3.681  0.3317  1.4487  0.3176
 1698SOL    HW216728   4.050   2.990   3.726 -1.5691  1.2906  0.3190
 1699SOL     OW16729   0.701   4.728   6.669  0.1952  0.1131  0.0682
 1699SOL    HW116730   0.676   0.054   6.600  2.1770 -0.1089 -0.8447
 1699SOL    HW216731   0.683   0.040   6.751 -0.7814  1.0307 -0.6719
 1700SOL     OW16732   4.067   2.560   8.541 -0.1084  0.0736  0.7291
 1700SOL    HW116733   4.088   2.652   8.555  1.7449 -0.5980  2.2585
 1700SOL    HW216734   4.030   2.565   8.453  0.9522 -1.5004  0.2012
 1701SOL     OW16735   0.600   4.386  12.644 -0.2317  0.3317 -0.9570
 1701SOL    HW116736   0.649   4.464  12.619  0.4652  0.3887  0.5918
 1701SOL    HW216737   0.531   4.430  12.693  1.5133  1.0902  0.8018
 1702SOL     OW16738   4.431   2.272  13.025 -0.0217 -0.5034  0.0077
 1702SOL    HW116739   4.464   2.300  12.940  1.2997 -0.1769  0.6249
 1702SOL    HW216740   4.507   2.239  13.074 -1.1077 -0.8029  1.4861
 1703SOL     OW16741   2.433   1.190  10.833  0.6274 -0.3486 -0.1715
 1703SOL    HW116742   2.493   1.136  10.884 -0.3882 -0.8717  0.4608
 1703SOL    HW216743   2.476   1.188  10.747 -2.2165 -2.2093 -1.5571
 1704SOL     OW16744   0.953   1.633  12.103 -0.0875 -0.0602  0.2092
 1704SOL    HW116745   0.929   1.613  12.193  0.6336 -2.2107 -0.0693
 1704SOL    HW216746   0.951   1.729  12.103 -1.9761 -0.1341  3.1727
 1705SOL     OW16747   3.027   1.651   7.654  0.1527  0.3218 -0.1411
 1705SOL    HW116748   2.938   1.630   7.625  0.8094 -2.6071 -0.0083
 1705SOL    HW216749   3.080   1.573   7.644 -0.9297 -0.6372  1.5891
 1706SOL     OW16750   3.463   4.225   2.484  0.2756 -0.5601 -0.2384
 1706SOL    HW116751   3.382   4.262   2.449 -0.2290  0.3195  1.8625
 1706SOL    HW216752   3.438   4.136   2.508 -0.1371 -0.8340 -1.7011
 1707SOL     OW16753   1.786   2.111   1.897 -0.0362 -0.0448 -0.3513
 1707SOL    HW116754   1.876   2.131   1.871 -0.0235 -0.4852 -0.6610
 1707SOL    HW216755   1.814   2.082   1.984 -1.2620 -0.7347 -0.1986
 1708SOL     OW16756   1.174   4.615  11.382  0.3270 -0.3898 -0.0632
 1708SOL    HW116757   1.204   4.695  11.424  0.5913  0.8537 -2.6003
 1708SOL    HW216758   1.123   4.666  11.319 -0.1928  1.2839  1.7331
 1709SOL     OW16759   3.398   1.565   4.628  0.2144  0.4145 -0.2839
 1709SOL    HW116760   3.460   1.525   4.689 -0.0422  0.2317 -0.1463
 1709SOL    HW216761   3.319   1.569   4.681 -0.7762  2.0620 -1.8732
 1710SOL     OW16762   2.913   4.358   5.997  0.3892  0.3383 -0.2498
 1710SOL    HW116763   2.881   4.317   6.077 -1.3290  0.7595 -0.7258
 1710SOL    HW216764   2.896   4.450   6.018 -1.2517  0.4189 -1.9802
 1711SOL     OW16765   3.570   2.224   0.336 -0.6609 -0.1044 -0.2179
 1711SOL    HW116766   3.586   2.166   0.262 -0.4359  1.0721 -1.1074
 1711SOL    HW216767   3.502   2.284   0.304  0.0141  0.4541 -0.6087
 1712SOL     OW16768   1.289   0.839   2.190  0.2244 -0.4348  0.2716
 1712SOL    HW116769   1.219   0.797   2.140 -0.9976  1.1571  0.6488
 1712SOL    HW216770   1.277   0.933   2.176 -1.2437 -0.6588 -0.0040
 1713SOL     OW16771   4.304   2.602   7.895  0.0223  0.4341 -0.4877
 1713SOL    HW116772   4.316   2.622   7.988  1.5784  2.8080 -1.2053
 1713SOL    HW216773   4.234   2.538   7.904  0.7426 -0.5048 -1.4635
 1714SOL     OW16774   4.198   2.382   4.156 -0.0421  0.3218  0.4303
 1714SOL    HW116775   4.261   2.356   4.223  0.3896  1.5453  0.5000
 1714SOL    HW216776   4.136   2.309   4.159 -0.0639  0.2567 -1.2798
 1715SOL     OW16777   1.794   1.517   6.111 -0.5122 -0.9279  0.2613
 1715SOL    HW116778   1.879   1.544   6.076  0.1528 -0.8522  1.9015
 1715SOL    HW216779   1.727   1.577   6.077  0.5962  0.2384  0.1460
 1716SOL     OW16780   4.151   2.789   8.640  0.7240  0.4390 -0.4422
 1716SOL    HW116781   4.232   2.767   8.688  1.1980  0.2327 -1.3423
 1716SOL    HW216782   4.172   2.861   8.581  2.1894 -0.3317 -0.8683
 1717SOL     OW16783   1.955   0.115   4.005  0.2588  0.7073 -0.3062
 1717SOL    HW116784   1.969   0.103   3.911 -0.2124  1.9200 -0.5254
 1717SOL    HW216785   1.877   0.065   4.027  0.3647  0.1083 -1.3081
 1718SOL     OW16786   4.054   2.226   8.918  0.1088  0.0659  0.1129
 1718SOL    HW116787   4.049   2.308   8.869  0.1208 -1.0135 -1.7180
 1718SOL    HW216788   4.121   2.191   8.858  2.1219  2.0716  1.1736
 1719SOL     OW16789   4.311   0.708   8.745 -1.1006 -0.4347 -0.2668
 1719SOL    HW116790   4.367   0.632   8.761 -1.4245 -0.8144 -0.9107
 1719SOL    HW216791   4.227   0.683   8.785 -0.9375 -0.9510 -0.2440
 1720SOL     OW16792   4.555   3.282  13.118 -0.4960  0.9660  0.7102
 1720SOL    HW116793   4.589   3.223  13.051  0.2450 -1.1097  2.9045
 1720SOL    HW216794   4.460   3.268  13.122 -0.3981 -0.2473 -1.3221
 1721SOL     OW16795   1.070   2.291   1.908 -0.4177  0.1313  0.5358
 1721SOL    HW116796   1.164   2.274   1.911 -0.3372  0.6042  0.7997
 1721SOL    HW216797   1.057   2.276   1.814  0.9597  2.7644 -0.0743
 1722SOL     OW16798   0.774   0.658   7.386  0.5464  0.3909 -0.1512
 1722SOL    HW116799   0.748   0.568   7.366 -0.7423  0.1096  2.6597
 1722SOL    HW216800   0.830   0.676   7.312  0.3045 -0.4776 -0.5499
 1723SOL     OW16801   2.517   1.268   1.623  0.4128  0.2417 -0.7051
 1723SOL    HW116802   2.580   1.236   1.687 -1.1587 -0.2452  0.6036
 1723SOL    HW216803   2.541   1.219   1.545 -0.3003 -0.5957 -0.4037
 1724SOL     OW16804   3.880   0.721   2.331 -0.1082  0.0375  0.2435
 1724SOL    HW116805   3.846   0.782   2.396 -0.8513 -2.7066  2.4040
 1724SOL    HW216806   3.849   0.640   2.372  0.7798 -1.3952 -1.8814
 1725SOL     OW16807   3.841   2.168   8.304 -0.0494 -0.1779  0.0266
 1725SOL    HW116808   3.924   2.122   8.320  0.0947 -0.3908 -1.3111
 1725SOL    HW216809   3.835   2.220   8.384 -0.9712  0.2065 -0.2870
 1726SOL     OW16810   1.164   0.562  14.497 -0.0874  0.2281 -0.2291
 1726SOL    HW116811   1.180   0.566  14.403 -0.8589  0.0714 -0.3732
 1726SOL    HW216812   1.251   0.576  14.532 -0.1855  0.0749  0.0831
 1727SOL     OW16813   0.610   0.939   6.872 -0.4718  0.3161  0.4600
 1727SOL    HW116814   0.665   0.917   6.947  0.0668  1.1881  0.3175
 1727SOL    HW216815   0.654   1.023   6.860  0.6352 -0.0177  2.2583
 1728SOL     OW16816   4.569   4.494   8.048  0.6800  0.0293 -0.1000
 1728SOL    HW116817   4.543   4.433   7.979 -2.0285 -0.6538  1.5414
 1728SOL    HW216818   4.487   4.515   8.092  0.6359  0.2568 -0.2948
 1729SOL     OW16819   2.238   2.588   2.121  0.2785  0.0620 -0.0607
 1729SOL    HW116820   2.145   2.608   2.135  0.1318 -0.4057 -0.3818
 1729SOL    HW216821   2.221   2.511   2.068 -3.1965 -0.5162  1.8908
 1730SOL     OW16822   1.684   1.075  10.520  0.7555  0.4156  0.1915
 1730SOL    HW116823   1.637   1.036  10.594  1.1915  0.2277  0.3667
 1730SOL    HW216824   1.705   0.991  10.479 -1.1466 -1.6964  3.5309
 1731SOL     OW16825   0.133   3.689   4.567  0.1162 -0.0629  0.3631
 1731SOL    HW116826   0.081   3.649   4.637  1.3788 -0.2787  1.1624
 1731SOL    HW216827   0.118   3.783   4.573 -0.8952 -0.0341 -2.3748
 1732SOL     OW16828   2.007   2.775   3.497 -0.2279 -0.4501  0.1728
 1732SOL    HW116829   2.039   2.829   3.424 -2.4917  1.7954  0.8219
 1732SOL    HW216830   1.954   2.714   3.445 -3.1525 -0.0787  2.7513
 1733SOL     OW16831   1.330   0.076  15.411 -0.1773  0.0413 -0.5151
 1733SOL    HW116832   1.321   0.150  15.472 -0.7642  0.9938 -1.7512
 1733SOL    HW216833   1.295   0.109  15.328 -1.3217  1.5539  0.5648
 1734SOL     OW16834   0.316   0.793   5.648 -0.3248  0.4417 -0.1297
 1734SOL    HW116835   0.303   0.863   5.712  1.9557  1.1548 -0.4520
 1734SOL    HW216836   0.238   0.803   5.593 -1.4426  1.7964  1.6835
 1735SOL     OW16837   2.986   1.133  15.232 -0.1118 -0.1709  0.3514
 1735SOL    HW116838   3.077   1.115  15.208  0.0497  3.4132 -1.8295
 1735SOL    HW216839   2.981   1.229  15.224  0.0600 -0.3892 -2.2918
 1736SOL     OW16840   2.237   3.382  12.215 -0.4867  0.3277 -0.1636
 1736SOL    HW116841   2.152   3.377  12.172 -0.7164 -1.2565  0.4370
 1736SOL    HW216842   2.263   3.471  12.194 -0.2432  0.4550  0.6626
 1737SOL     OW16843   2.415   2.445   5.068  0.0124 -1.4240  0.1410
 1737SOL    HW116844   2.389   2.537   5.056 -0.0735 -1.8886 -3.3894
 1737SOL    HW216845   2.383   2.419   4.981  1.1061  0.9020 -0.9491
 1738SOL     OW16846   2.294   4.315   8.877  0.3374 -0.4186  0.5239
 1738SOL    HW116847   2.299   4.221   8.856 -2.5045 -0.3065 -0.6385
 1738SOL    HW216848   2.387   4.334   8.888  0.1653  0.1825  0.9192
 1739SOL     OW16849   2.376   2.331   4.161 -0.4113 -0.0366 -0.0701
 1739SOL    HW116850   2.337   2.332   4.249  0.0560 -1.3418  0.1542
 1739SOL    HW216851   2.305   2.359   4.104  0.5575  0.4460 -1.0194
 1740SOL     OW16852   4.132   0.845  16.531  0.1972 -0.2530 -0.1326
 1740SOL    HW116853   4.217   0.882  16.509  1.6084 -3.6516 -0.3940
 1740SOL    HW216854   4.145   0.757  16.567 -1.7160  0.7228  3.0133
 1741SOL     OW16855   0.243   2.628   6.675 -0.3335 -0.3752 -0.2887
 1741SOL    HW116856   0.194   2.671   6.745 -2.0432  0.1868 -1.8345
 1741SOL    HW216857   0.191   2.639   6.595 -0.2999 -0.9785 -0.3911
 1742SOL     OW16858   3.639   3.544   1.332  0.1608 -0.1540 -0.4101
 1742SOL    HW116859   3.672   3.596   1.259 -0.0535  1.1487  0.4301
 1742SOL    HW216860   3.554   3.513   1.302  0.2090  1.1301 -1.8454
 1743SOL     OW16861   3.072   1.567   7.326 -0.4148  0.1313 -0.0651
 1743SOL    HW116862   3.072   1.491   7.384 -1.8586 -1.9642 -2.8127
 1743SOL    HW216863   2.990   1.610   7.350 -0.0713  1.1406 -0.6708
 1744SOL     OW16864   1.524   2.561   4.564 -0.2850 -0.0541 -0.2888
 1744SOL    HW116865   1.492   2.634   4.512  0.3971  1.4990  1.4836
 1744SOL    HW216866   1.500   2.577   4.656  0.8997  0.2150 -0.0262
 1745SOL     OW16867   1.333   3.281   2.323 -0.1713  0.7105 -0.0965
 1745SOL    HW116868   1.423   3.314   2.322  0.7870 -1.8957 -0.1749
 1745SOL    HW216869   1.298   3.350   2.379 -1.0345  0.0304  0.1776
 1746SOL     OW16870   4.297   0.308  17.062 -0.2221  0.2550 -0.2486
 1746SOL    HW116871   4.353   0.384  17.076  0.7032 -0.3063 -0.8938
 1746SOL    HW216872   4.231   0.349  17.007 -0.3250  0.0621 -0.2691
 1747SOL     OW16873   4.290   3.434  10.237  0.2643 -0.1181 -0.1231
 1747SOL    HW116874   4.266   3.479  10.318  1.3445  1.1646 -0.5189
 1747SOL    HW216875   4.278   3.345  10.267 -0.1774  0.3397  1.0609
 1748SOL     OW16876   0.582   1.758   8.507 -0.4164  0.0860 -0.3687
 1748SOL    HW116877   0.588   1.734   8.414  1.4212  1.4732 -0.5908
 1748SOL    HW216878   0.670   1.732   8.535 -1.3507 -1.1783  1.4456
 1749SOL     OW16879   0.863   4.070   2.893  0.1372 -0.2323  0.6768
 1749SOL    HW116880   0.884   4.001   2.956  0.8484 -1.9650 -1.4651
 1749SOL    HW216881   0.939   4.088   2.838 -0.9727  0.0495 -0.7816
 1750SOL     OW16882   2.439   2.513   6.893 -0.3204  0.2885 -0.2242
 1750SOL    HW116883   2.465   2.475   6.977  1.3533  1.6304 -0.1496
 1750SOL    HW216884   2.348   2.484   6.885 -0.2745  0.3555 -0.9795
 1751SOL     OW16885   4.558   3.134   8.313 -0.2861  0.6242 -0.1648
 1751SOL    HW116886   4.594   3.212   8.271  0.6555  1.1835  1.6719
 1751SOL    HW216887   4.624   3.123   8.382  0.2956  0.5670 -0.7293
 1752SOL     OW16888   1.995   2.859   3.764 -0.0966 -0.5187  0.3609
 1752SOL    HW116889   2.010   2.847   3.670  1.9940  2.1353  0.3630
 1752SOL    HW216890   1.953   2.945   3.759  0.4106 -0.1201  2.8945
 1753SOL     OW16891   3.975   3.350   6.635  0.3429  0.2075 -0.5026
 1753SOL    HW116892   3.948   3.439   6.611 -0.3507  0.0136 -0.4514
 1753SOL    HW216893   3.907   3.332   6.699  1.1247 -1.3144 -0.1194
 1754SOL     OW16894   4.296   0.912   2.707  0.1888 -0.2097  0.2370
 1754SOL    HW116895   4.244   0.972   2.654 -1.1935 -0.2665  1.5220
 1754SOL    HW216896   4.296   0.828   2.660 -2.5923 -0.9634  1.5757
 1755SOL     OW16897   0.917   0.108   6.899 -0.0160 -0.3527  0.8316
 1755SOL    HW116898   0.822   0.098   6.901 -0.2849  2.1801  1.3936
 1755SOL    HW216899   0.926   0.021   6.937 -0.4002 -0.7222  0.0898
 1756SOL     OW16900   2.178   2.752   9.459 -0.5298  0.3911  0.3404
 1756SOL    HW116901   2.155   2.739   9.367 -3.3137  0.1830  1.0715
 1756SOL    HW216902   2.238   2.679   9.477  0.0185  1.0209  1.0462
 1757SOL     OW16903   2.610   4.689  13.079  0.4394 -0.1573 -0.9247
 1757SOL    HW116904   2.632   4.676  12.987  1.0813 -0.6439 -0.6945
 1757SOL    HW216905   2.660   0.031  13.106 -2.0257 -0.0459  3.3716
 1758SOL     OW16906   3.362   2.557   4.076 -0.1027  0.3144 -0.2376
 1758SOL    HW116907   3.309   2.478   4.074  0.4084 -0.0178 -0.4580
 1758SOL    HW216908   3.434   2.535   4.017  0.8022  0.4430  0.8119
 1759SOL     OW16909   2.312   2.962   6.760 -0.3105 -0.3409  0.6895
 1759SOL    HW116910   2.393   3.002   6.728 -0.9274  0.5402  0.2264
 1759SOL    HW216911   2.339   2.875   6.790  0.7425  0.1999  1.3083
 1760SOL     OW16912   0.746   3.510   8.255  0.6761 -0.6694 -0.1269
 1760SOL    HW116913   0.824   3.472   8.215  0.1176 -0.1646 -1.7068
 1760SOL    HW216914   0.681   3.487   8.188  1.8896 -2.4017 -0.7088
 1761SOL     OW16915   2.637   3.780  11.952  0.3118 -0.1293  0.5113
 1761SOL    HW116916   2.652   3.790  12.046  0.0680 -2.6170  0.8210
 1761SOL    HW216917   2.541   3.784  11.945  0.4558 -0.4545 -1.6084
 1762SOL     OW16918   0.170   0.870   3.253  0.1381 -0.6408  0.2383
 1762SOL    HW116919   0.125   0.785   3.248  0.4936 -0.8236  0.1563
 1762SOL    HW216920   0.096   0.929   3.236 -0.4945 -1.1469  1.1949
 1763SOL     OW16921   0.583   1.115   4.474 -0.5786  0.2823  0.4424
 1763SOL    HW116922   0.553   1.135   4.562 -1.5677 -0.7258  0.3430
 1763SOL    HW216923   0.621   1.029   4.491  1.7016  1.1580 -0.2783
 1764SOL     OW16924   3.706   0.341   5.536 -0.2833 -0.8915 -0.3804
 1764SOL    HW116925   3.628   0.292   5.564 -1.9977  0.6600 -2.4264
 1764SOL    HW216926   3.670   0.372   5.453 -0.5216  0.3573  0.1952
 1765SOL     OW16927   1.619   3.382   0.592 -0.5453  0.1261  0.0782
 1765SOL    HW116928   1.715   3.380   0.582 -0.4075 -0.0614  1.4485
 1765SOL    HW216929   1.613   3.426   0.677 -0.8758  1.1351 -0.4638
 1766SOL     OW16930   0.914   0.447   7.920 -0.2159 -0.1451  0.3093
 1766SOL    HW116931   0.913   0.522   7.861  2.1913  1.1166  1.8481
 1766SOL    HW216932   0.949   0.489   7.999 -0.5154  1.8059 -0.6165
 1767SOL     OW16933   2.553   1.240   5.916 -0.1390  0.1200 -0.2235
 1767SOL    HW116934   2.637   1.284   5.904 -0.5887  0.4065 -2.3937
 1767SOL    HW216935   2.507   1.287   5.985  0.1559 -0.8853  0.6550
 1768SOL     OW16936   3.632   4.522   6.026  0.5783 -0.0803 -0.4182
 1768SOL    HW116937   3.543   4.545   5.998  0.6279 -0.2666 -0.7352
 1768SOL    HW216938   3.635   4.576   6.105 -0.8028  2.1554 -1.8793
 1769SOL     OW16939   0.954   0.420   6.352 -0.5630 -0.4189  0.7121
 1769SOL    HW116940   0.943   0.511   6.379  2.2635  1.1060 -3.2835
 1769SOL    HW216941   1.047   0.422   6.332 -0.4380  1.9500  1.5484
 1770SOL     OW16942   3.172   0.971  11.255 -0.0446 -0.5311 -0.0013
 1770SOL    HW116943   3.082   0.999  11.270  1.5170  3.1678  2.6236
 1770SOL    HW216944   3.214   1.055  11.235 -0.9422 -0.2117 -0.5487
 1771SOL     OW16945   1.778   3.822  13.969 -0.0352  0.4030  0.1670
 1771SOL    HW116946   1.689   3.796  13.947 -0.3281  0.4685  1.2436
 1771SOL    HW216947   1.777   3.912  13.937  1.7896  0.3524 -0.0135
 1772SOL     OW16948   1.954   0.212   9.573 -0.0212  0.2050 -0.1384
 1772SOL    HW116949   1.870   0.257   9.577  1.6244  3.2794  0.0257
 1772SOL    HW216950   2.010   0.288   9.592  0.0062  0.3559 -0.8369
 1773SOL     OW16951   4.357   4.716   8.976 -0.4506 -0.1168 -0.5373
 1773SOL    HW116952   4.313   4.689   8.895  2.1475 -0.1608 -1.9450
 1773SOL    HW216953   4.397   0.061   8.945  2.8635 -1.1321  1.1353
 1774SOL     OW16954   1.960   0.895  15.042  0.2314 -0.3353 -0.5705
 1774SOL    HW116955   2.045   0.877  15.004  1.1963  0.8132  1.0226
 1774SOL    HW216956   1.911   0.918  14.963  1.6695 -3.3672 -2.3447
 1775SOL     OW16957   3.512   4.292   6.845  0.2258  0.0596  0.2192
 1775SOL    HW116958   3.601   4.298   6.811 -0.6283 -1.9246 -2.3974
 1775SOL    HW216959   3.484   4.207   6.810  3.5574 -1.3399  0.9637
 1776SOL     OW16960   0.004   3.030   5.016  0.8078  0.2402  0.1040
 1776SOL    HW116961   4.694   3.022   4.932  0.7869  0.7214  0.0714
 1776SOL    HW216962   0.096   3.011   4.996  0.0768 -1.6369 -1.5529
 1777SOL     OW16963   4.361   0.355   4.632  0.4450  0.6257 -0.6454
 1777SOL    HW116964   4.274   0.322   4.612  0.5077 -0.3153  0.6715
 1777SOL    HW216965   4.414   0.281   4.604 -0.6249 -1.3541  2.5948
 1778SOL     OW16966   0.656   4.359  11.706 -0.3157  0.5739  0.4676
 1778SOL    HW116967   0.725   4.319  11.760 -0.8987  1.6249  1.9703
 1778SOL    HW216968   0.629   4.427  11.767  0.4896 -0.0042  1.4703
 1779SOL     OW16969   1.853   2.128   8.845 -0.2444  0.4500  0.5420
 1779SOL    HW116970   1.820   2.140   8.934  1.3109 -2.3391  1.4822
 1779SOL    HW216971   1.888   2.216   8.829  1.0977  0.2270  2.2625
 1780SOL     OW16972   0.537   4.265   6.295  0.0905  0.4239  0.1019
 1780SOL    HW116973   0.449   4.296   6.313 -0.7840 -0.2266 -2.9052
 1780SOL    HW216974   0.575   4.344   6.256  2.4448 -1.0491 -0.6671
 1781SOL     OW16975   4.639   2.096   9.552  0.4604  0.1172 -0.5745
 1781SOL    HW116976   4.661   2.176   9.504 -1.5221  1.4641  0.7894
 1781SOL    HW216977   4.669   2.033   9.487 -0.7216 -0.1780 -0.8302
 1782SOL     OW16978   3.359   2.651   8.186  0.7138  0.3736 -0.2361
 1782SOL    HW116979   3.279   2.703   8.172  0.5136 -0.7365 -3.2751
 1782SOL    HW216980   3.360   2.628   8.278  0.6298  0.8649 -0.1095
 1783SOL     OW16981   0.958   2.234   7.391 -0.1292  0.0664  0.0624
 1783SOL    HW116982   0.933   2.190   7.310 -0.4858 -1.3498  0.9434
 1783SOL    HW216983   1.015   2.169   7.432  0.6081  0.0278 -1.0015
 1784SOL     OW16984   0.973   3.779   9.157  0.3243  0.1058  0.0928
 1784SOL    HW116985   1.035   3.831   9.209 -1.8643  2.9207 -0.0816
 1784SOL    HW216986   1.029   3.709   9.123  2.0865  2.1604 -1.2959
 1785SOL     OW16987   1.668   3.818   6.081  0.5736 -0.3733 -0.0138
 1785SOL    HW116988   1.697   3.740   6.034  2.1787  0.1478  0.1318
 1785SOL    HW216989   1.729   3.883   6.048  0.0247 -0.7938 -1.8622
 1786SOL     OW16990   4.672   2.675   2.841 -0.0710  0.5104  0.6098
 1786SOL    HW116991   4.730   2.654   2.914  0.3645  1.0118  0.4054
 1786SOL    HW216992   4.642   2.761   2.871 -0.9459  0.1183  0.8775
 1787SOL     OW16993   0.626   4.125   6.802  0.0774  0.4579  0.1588
 1787SOL    HW116994   0.701   4.184   6.813 -1.6179  1.9714  3.5444
 1787SOL    HW216995   0.620   4.123   6.707 -2.0304 -0.5200  0.3178
 1788SOL     OW16996   3.277   2.537   3.237  0.0218  0.1891 -0.0075
 1788SOL    HW116997   3.273   2.578   3.151 -1.5550  1.0795  0.4923
 1788SOL    HW216998   3.362   2.561   3.273 -0.2021 -2.4483  2.2839
 1789SOL     OW16999   4.594   3.210   0.332 -0.0671  0.1664 -0.2419
 1789SOL    HW117000   4.689   3.212   0.327  0.0706 -2.6614  0.9569
 1789SOL    HW217001   4.563   3.243   0.248  2.1601  1.5404 -0.5132
 1790SOL     OW17002   4.646   1.306  14.140  0.1958  0.1215  0.4295
 1790SOL    HW117003   4.719   1.279  14.196  1.3003 -0.6201 -1.3476
 1790SOL    HW217004   4.620   1.221  14.104 -0.7076  0.4063  0.4041
 1791SOL     OW17005   0.941   3.892  14.745 -0.2524 -0.5259 -0.2051
 1791SOL    HW117006   0.925   3.798  14.759  2.4423 -0.2247  4.8087
 1791SOL    HW217007   0.986   3.915  14.826 -0.4698 -0.2225 -0.1712
 1792SOL     OW17008   3.573   4.507   8.929 -0.2527 -0.5041  1.2877
 1792SOL    HW117009   3.525   4.575   8.976 -0.3359  0.3203  0.0160
 1792SOL    HW217010   3.662   4.537   8.948 -0.8108  0.9069  1.7220
 1793SOL     OW17011   0.683   4.618  11.497 -0.2905 -0.3431  0.7180
 1793SOL    HW117012   0.728   4.535  11.515 -0.2258 -0.9211 -2.1686
 1793SOL    HW217013   0.651   4.608  11.408 -0.9571  0.3138  0.8866
 1794SOL     OW17014   2.473   0.342  13.473  0.3246 -0.4735  0.0451
 1794SOL    HW117015   2.399   0.336  13.413 -0.2082  2.4314  0.4169
 1794SOL    HW217016   2.517   0.258  13.457  0.2538 -0.6632  0.8333
 1795SOL     OW17017   2.794   0.587  11.224  0.5551 -0.1194  0.4972
 1795SOL    HW117018   2.705   0.552  11.222  1.5324 -2.5767  0.1695
 1795SOL    HW217019   2.846   0.516  11.186  0.2674 -0.4169  0.6577
 1796SOL     OW17020   3.174   1.856  16.983 -0.0799 -0.0597  0.3653
 1796SOL    HW117021   3.120   1.793  17.031 -0.7863  0.5909  0.4316
 1796SOL    HW217022   3.108   1.912  16.941  0.4473  0.0595 -0.3065
 1797SOL     OW17023   0.956   1.534   2.797  0.1762 -0.0488 -0.3316
 1797SOL    HW117024   0.924   1.613   2.755 -0.8356 -0.0240  0.4891
 1797SOL    HW217025   1.006   1.498   2.724  1.9831  0.0370  0.8617
 1798SOL     OW17026   2.543   0.760  13.814 -0.3288  0.6088 -0.2633
 1798SOL    HW117027   2.474   0.707  13.774 -1.1214 -0.6616  2.7936
 1798SOL    HW217028   2.544   0.717  13.900  2.7027 -0.9996 -1.0822
 1799SOL     OW17029   1.416   3.974   6.127  0.0599 -0.1894  0.0011
 1799SOL    HW117030   1.496   3.925   6.106  0.1006 -0.6996  1.3922
 1799SOL    HW217031   1.442   4.064   6.105  0.1076 -0.9650 -3.1881
 1800SOL     OW17032   0.429   0.542   6.002  0.0004 -0.4837 -0.0612
 1800SOL    HW117033   0.487   0.512   6.072  0.1052  0.7587  0.3854
 1800SOL    HW217034   0.501   0.577   5.949 -0.3486  0.2970 -0.0253
 1801SOL     OW17035   4.264   3.622   6.987 -0.7047 -0.6577 -0.3839
 1801SOL    HW117036   4.268   3.589   7.077 -2.2350  1.5548  0.4940
 1801SOL    HW217037   4.332   3.690   6.990  0.9954 -2.4981  3.0824
 1802SOL     OW17038   4.088   2.060   2.022 -0.2008 -0.2524 -0.5285
 1802SOL    HW117039   4.069   2.101   2.107 -0.5030  0.5094 -0.9696
 1802SOL    HW217040   4.183   2.066   2.015 -0.1794  0.2388  0.2013
 1803SOL     OW17041   3.838   1.365  14.528  1.0396  0.4992  0.6939
 1803SOL    HW117042   3.850   1.370  14.433  0.6197 -1.2990  0.5539
 1803SOL    HW217043   3.778   1.439  14.530 -0.0954 -0.4265  0.6698
 1804SOL     OW17044   0.031   2.314   0.553 -0.3156  0.1279  1.2034
 1804SOL    HW117045   4.728   2.381   0.609  2.7847  1.9735  1.0902
 1804SOL    HW217046   0.038   2.241   0.615 -0.7975 -0.3521  0.6963
 1805SOL     OW17047   0.771   4.417  15.135  0.3883 -0.3919 -0.2324
 1805SOL    HW117048   0.717   4.366  15.196  0.0219  0.2973  0.0139
 1805SOL    HW217049   0.750   4.504  15.169 -1.5896 -1.6301  1.7391
 1806SOL     OW17050   1.556   1.428   8.553  0.1531 -0.5830  0.3251
 1806SOL    HW117051   1.544   1.441   8.648 -0.7664 -0.7648  0.2377
 1806SOL    HW217052   1.485   1.489   8.533  1.4090 -0.7001 -4.4149
 1807SOL     OW17053   1.890   0.391   7.548 -0.2741 -0.8775  0.3760
 1807SOL    HW117054   1.833   0.466   7.559  1.0986 -0.1561  2.7103
 1807SOL    HW217055   1.859   0.350   7.468  0.0812  0.3086 -0.3556
 1808SOL     OW17056   2.753   0.589   2.258 -0.0730  0.4966 -0.0616
 1808SOL    HW117057   2.757   0.599   2.163  1.6188  1.4448  0.1149
 1808SOL    HW217058   2.831   0.537   2.275 -1.4898 -0.9570  2.0340
 1809SOL     OW17059   2.343   4.118   1.241  0.3932 -0.2791 -0.2458
 1809SOL    HW117060   2.277   4.178   1.276 -0.3209 -2.0100  1.4055
 1809SOL    HW217061   2.283   4.048   1.215 -0.2302  0.1177  0.1072
 1810SOL     OW17062   1.885   2.873   8.950 -0.5701 -0.0242  0.1519
 1810SOL    HW117063   1.870   2.799   9.009 -0.2475 -0.1826  0.0319
 1810SOL    HW217064   1.811   2.929   8.974 -0.2503  1.2855 -1.8756
 1811SOL     OW17065   2.944   0.340   5.693 -0.3704  0.2300 -0.5651
 1811SOL    HW117066   2.863   0.375   5.657 -0.7715  2.6522  2.6692
 1811SOL    HW217067   2.916   0.248   5.700 -0.4885  0.1920 -1.5492
 1812SOL     OW17068   3.183   3.120   3.738 -0.2098 -0.3659 -0.4471
 1812SOL    HW117069   3.218   3.064   3.807 -1.5069  0.2909  0.7407
 1812SOL    HW217070   3.258   3.132   3.679 -2.2112  0.9824 -2.7205
 1813SOL     OW17071   4.399   0.528   6.754  0.3235  0.1412  0.0691
 1813SOL    HW117072   4.434   0.566   6.834 -1.7827 -0.5697  1.3451
 1813SOL    HW217073   4.462   0.456   6.751 -0.4300 -0.5771  1.4885
 1814SOL     OW17074   2.067   3.013   9.879  0.0704 -0.2409  0.2405
 1814SOL    HW117075   2.054   2.941   9.817  3.9810  0.2424 -1.1737
 1814SOL    HW217076   2.149   3.052   9.846 -0.7188  1.7786  0.7121
 1815SOL     OW17077   3.276   1.597   6.575  0.4131  0.3205 -0.1657
 1815SOL    HW117078   3.303   1.680   6.615  1.1278  0.3851 -0.7830
 1815SOL    HW217079   3.347   1.587   6.512 -1.8112 -0.5142 -2.5191
 1816SOL     OW17080   1.818   1.171   9.830 -0.1038  0.2145 -0.3101
 1816SOL    HW117081   1.789   1.221   9.753 -0.1831  1.8076  0.7637
 1816SOL    HW217082   1.901   1.132   9.801 -0.0543 -1.6249  2.2748
 1817SOL     OW17083   4.057   3.867   2.275  0.5410  0.1404 -0.4677
 1817SOL    HW117084   3.975   3.822   2.254 -0.6526  2.5604 -0.9545
 1817SOL    HW217085   4.032   3.909   2.358 -1.9051 -1.0714 -0.6107
 1818SOL     OW17086   4.496   1.686   5.862  0.3916  0.2413 -0.0922
 1818SOL    HW117087   4.490   1.779   5.840 -1.4175  0.0973 -0.1706
 1818SOL    HW217088   4.450   1.675   5.946  0.2257  0.4825 -0.1528
 1819SOL     OW17089   1.237   1.832   3.088 -0.3702  0.0744  0.6034
 1819SOL    HW117090   1.203   1.756   3.135  2.2408 -1.7987 -0.5601
 1819SOL    HW217091   1.305   1.866   3.147 -0.4395  0.8291  0.2454
 1820SOL     OW17092   2.875   3.385   7.338 -0.1534  0.3264 -0.5695
 1820SOL    HW117093   2.898   3.313   7.396 -0.0800  0.5352 -0.3427
 1820SOL    HW217094   2.781   3.369   7.329  0.1822 -0.8826 -1.8898
 1821SOL     OW17095   0.133   1.693  12.050  0.4549 -0.1829 -0.4395
 1821SOL    HW117096   0.058   1.739  12.013 -1.1270 -2.0990  0.3698
 1821SOL    HW217097   0.191   1.765  12.073  2.1023 -1.4857 -0.4810
 1822SOL     OW17098   0.536   0.238  17.473  1.0132  0.3529 -0.4057
 1822SOL    HW117099   0.526   0.150  17.438 -1.2971  0.2809  0.4264
 1822SOL    HW217100   0.497   0.293  17.404  0.7811 -0.1908 -0.7044
 1823SOL     OW17101   0.762   1.942  13.480 -0.5005  0.2835 -0.0830
 1823SOL    HW117102   0.747   1.873  13.416  0.8699  0.2954 -0.4172
 1823SOL    HW217103   0.706   1.920  13.554  2.2181  0.0011  1.9107
 1824SOL     OW17104   1.176   1.620  16.604  0.1007  0.2185  0.3154
 1824SOL    HW117105   1.168   1.645  16.696  0.6985 -1.5448  0.8536
 1824SOL    HW217106   1.088   1.585  16.596  0.6323 -1.0889  0.0592
 1825SOL     OW17107   4.304   1.525   7.450  0.4357  0.1521  0.1044
 1825SOL    HW117108   4.241   1.453   7.463 -0.6121  0.9730 -0.4314
 1825SOL    HW217109   4.266   1.544   7.364 -0.0616  0.3942  0.3783
 1826SOL     OW17110   4.464   0.303   4.009 -0.3436  0.5892  0.4646
 1826SOL    HW117111   4.554   0.297   3.976 -0.8732 -1.0227 -0.6744
 1826SOL    HW217112   4.431   0.239   3.947 -1.1597  1.2432  0.2241
 1827SOL     OW17113   4.572   3.576   7.295  0.0119  0.0167  0.0129
 1827SOL    HW117114   4.598   3.487   7.270 -0.5999 -0.2076  0.1886
 1827SOL    HW217115   4.478   3.568   7.283 -0.1559  1.1902  0.5577
 1828SOL     OW17116   3.195   1.279  10.629  0.0472 -0.6080 -0.4313
 1828SOL    HW117117   3.201   1.305  10.721 -0.1629  0.0737 -0.6074
 1828SOL    HW217118   3.132   1.210  10.648 -0.7252 -0.4188 -2.3108
 1829SOL     OW17119   1.241   3.533   0.759 -0.1537 -0.4439  0.4453
 1829SOL    HW117120   1.332   3.509   0.780 -0.5751 -0.7931  1.9158
 1829SOL    HW217121   1.249   3.627   0.743  1.0334 -0.6702 -0.2546
 1830SOL     OW17122   3.200   0.996  17.656  0.4623  0.0994 -0.1812
 1830SOL    HW117123   3.230   1.079  17.693  0.1158 -0.5101  1.4555
 1830SOL    HW217124   3.286   0.966  17.627  0.1223 -0.0535 -1.0373
 1831SOL     OW17125   1.568   3.219  16.490 -0.9417 -0.2624 -0.5307
 1831SOL    HW117126   1.614   3.227  16.574 -1.6620  3.2441 -0.4704
 1831SOL    HW217127   1.620   3.291  16.452  0.5946 -0.1211  1.8030
 1832SOL     OW17128   1.711   0.017  16.408 -0.0963  0.3444 -0.2687
 1832SOL    HW117129   1.760   0.078  16.352 -0.1870  0.9893  0.3498
 1832SOL    HW217130   1.697   4.681  16.346 -1.1182 -0.0220  0.3897
 1833SOL     OW17131   4.503   1.233   5.336  0.1390  0.1628 -0.0486
 1833SOL    HW117132   4.441   1.282   5.390  0.5487  0.8373 -0.1938
 1833SOL    HW217133   4.460   1.148   5.337  2.7119 -1.1219  0.3353
 1834SOL     OW17134   2.119   2.311  10.808  0.1218  0.3574  0.4680
 1834SOL    HW117135   2.110   2.226  10.850  0.7738 -0.1226 -0.3658
 1834SOL    HW217136   2.118   2.285  10.716 -0.2141  2.1633 -0.0442
 1835SOL     OW17137   3.491   1.907   3.208 -0.0611  0.6186 -0.3725
 1835SOL    HW117138   3.461   1.834   3.262 -0.7241  0.5408 -0.8534
 1835SOL    HW217139   3.408   1.940   3.173 -0.7202  0.0945  0.7062
 1836SOL     OW17140   0.489   2.002   5.452 -0.4021 -0.0988 -0.1845
 1836SOL    HW117141   0.552   2.026   5.384  1.2427 -1.0594  0.9987
 1836SOL    HW217142   0.477   2.083   5.502  2.0545 -1.0635  1.9722
 1837SOL     OW17143   1.378   2.180   9.410  0.3796  0.0103 -0.5363
 1837SOL    HW117144   1.329   2.104   9.379 -0.5238  0.1574  0.5356
 1837SOL    HW217145   1.467   2.145   9.406 -0.0324 -1.0446 -0.3076
 1838SOL     OW17146   2.524   0.537   1.580 -0.1362  0.2600  0.0864
 1838SOL    HW117147   2.482   0.452   1.591 -1.6308  0.7502 -1.7590
 1838SOL    HW217148   2.489   0.581   1.657 -2.8651 -0.5507 -0.6600
 1839SOL     OW17149   2.342   4.231   8.235  0.3378 -0.1989  0.2357
 1839SOL    HW117150   2.433   4.256   8.218  0.1697  0.5717  0.4774
 1839SOL    HW217151   2.342   4.137   8.216 -0.5424 -0.1437 -0.0243
 1840SOL     OW17152   3.962   4.005   9.201  0.0537  0.3605 -0.0259
 1840SOL    HW117153   3.996   3.936   9.143 -0.7168  1.3515 -1.6381
 1840SOL    HW217154   3.883   4.027   9.152 -0.6354 -0.2067  0.8149
 1841SOL     OW17155   3.546   3.115   8.054  0.4189 -0.1012  0.1270
 1841SOL    HW117156   3.642   3.115   8.043  0.6672 -2.3696  2.4387
 1841SOL    HW217157   3.532   3.181   8.122 -0.7207 -0.5272  0.3023
 1842SOL     OW17158   4.147   4.071   3.690 -0.3167 -0.4158  0.3956
 1842SOL    HW117159   4.097   4.151   3.676  0.2088 -0.4462 -1.6124
 1842SOL    HW217160   4.162   4.049   3.598 -0.0122  1.9613 -0.1216
 1843SOL     OW17161   3.315   4.277   6.571 -0.4117 -0.2223 -0.4875
 1843SOL    HW117162   3.274   4.288   6.657 -0.8748 -1.0135 -0.6132
 1843SOL    HW217163   3.368   4.198   6.578  0.0209  0.0867 -0.2409
 1844SOL     OW17164   3.084   2.947   2.815 -0.4459 -0.0200  0.1287
 1844SOL    HW117165   3.150   3.015   2.827 -1.0641  0.6889 -0.4878
 1844SOL    HW217166   3.071   2.957   2.721  1.0355 -1.7692 -0.2671
 1845SOL     OW17167   1.165   1.628  16.289 -0.4247 -0.0109 -0.1312
 1845SOL    HW117168   1.201   1.711  16.257 -1.0264  0.0039 -0.7711
 1845SOL    HW217169   1.155   1.654  16.380 -0.5172 -1.7206  0.3263
 1846SOL     OW17170   4.563   0.428   8.103 -0.2598  0.1771  0.0112
 1846SOL    HW117171   4.503   0.472   8.164 -0.4067  0.1351 -0.1042
 1846SOL    HW217172   4.652   0.462   8.110 -0.9742  1.6102  2.1880
 1847SOL     OW17173   1.385   0.780  11.574 -0.2960  0.0236 -0.4453
 1847SOL    HW117174   1.397   0.848  11.640  0.9160 -0.3767 -0.2491
 1847SOL    HW217175   1.445   0.817  11.509  0.6873  0.8988  0.9692
 1848SOL     OW17176   0.620   2.972   8.761 -0.1751  0.2408  0.0170
 1848SOL    HW117177   0.640   3.023   8.683  1.5359  2.3849  1.8323
 1848SOL    HW217178   0.580   3.037   8.819 -1.5956 -1.4856  0.9873
 1849SOL     OW17179   4.270   0.247   2.860  0.6034  0.3783  0.1271
 1849SOL    HW117180   4.231   0.159   2.858  0.2136  0.5276  1.1095
 1849SOL    HW217181   4.317   0.252   2.777  0.4051  2.6456  0.1726
 1850SOL     OW17182   4.267   2.423   4.986  0.2160 -0.3640  0.0849
 1850SOL    HW117183   4.360   2.402   4.988  0.2816 -0.1412 -0.7463
 1850SOL    HW217184   4.234   2.344   5.028  0.2611 -0.0430  0.7222
 1851SOL     OW17185   0.506   3.889   7.944 -0.6942  0.1739  0.3457
 1851SOL    HW117186   0.559   3.821   7.903 -2.2987 -0.5730 -0.4903
 1851SOL    HW217187   0.494   3.872   8.038  0.1245 -1.0691  0.2287
 1852SOL     OW17188   3.137   4.435   3.181  0.1537 -0.0908  0.3125
 1852SOL    HW117189   3.152   4.384   3.102 -0.9715  0.0450  0.0103
 1852SOL    HW217190   3.124   4.520   3.140 -0.3083 -0.6336 -0.6611
 1853SOL     OW17191   2.618   1.744   6.667  0.3456  0.2315 -0.2422
 1853SOL    HW117192   2.695   1.764   6.614 -0.6757 -0.5636 -2.0421
 1853SOL    HW217193   2.554   1.708   6.606 -2.8123 -1.4470  4.0681
 1854SOL     OW17194   4.102   0.474  15.029 -0.1403 -0.1663 -0.4883
 1854SOL    HW117195   4.094   0.412  15.101 -0.8959  0.9120  0.3645
 1854SOL    HW217196   4.119   0.411  14.959 -0.0713  1.1797 -1.6906
 1855SOL     OW17197   2.215   3.193   7.764 -0.0896 -0.3413  0.1123
 1855SOL    HW117198   2.263   3.176   7.845 -1.3608 -1.1204  0.6974
 1855SOL    HW217199   2.234   3.286   7.750 -0.8422  0.2551  3.0267
 1856SOL     OW17200   0.296   1.306   2.435 -0.0672 -0.4010 -0.1177
 1856SOL    HW117201   0.245   1.271   2.362 -1.5685 -1.6152  1.4972
 1856SOL    HW217202   0.382   1.315   2.394 -0.4344 -0.5891 -0.9191
 1857SOL     OW17203   0.035   3.496  11.126 -0.1266 -0.6976 -0.0828
 1857SOL    HW117204   0.040   3.483  11.031  0.5451 -1.6203  0.0778
 1857SOL    HW217205   0.093   3.423  11.148  0.0216 -0.7317 -0.5958
 1858SOL     OW17206   3.987   1.910   4.953  0.1155  0.2077 -0.4265
 1858SOL    HW117207   3.915   1.849   4.937 -2.1401  2.7112  0.1975
 1858SOL    HW217208   4.048   1.863   4.896  0.9184 -1.5362  1.8936
 1859SOL     OW17209   1.427   0.185   5.422 -0.2029  0.1188  0.0847
 1859SOL    HW117210   1.443   0.279   5.413 -0.8448  0.1023 -1.1743
 1859SOL    HW217211   1.332   0.194   5.425 -0.3330 -1.5413  1.5594
 1860SOL     OW17212   0.071   4.142  15.977 -0.0536  0.3566 -0.5212
 1860SOL    HW117213   0.097   4.170  15.889  1.9125 -1.0443 -0.3952
 1860SOL    HW217214   4.711   4.133  15.975 -0.0635  0.2495  0.2448
 1861SOL     OW17215   3.741   3.142   9.244  0.4250  1.0292  0.4632
 1861SOL    HW117216   3.745   3.156   9.339  1.5374 -0.3091  0.5999
 1861SOL    HW217217   3.788   3.211   9.199  0.9087  1.2638  1.3253
 1862SOL     OW17218   1.378   2.415   3.542  0.9196 -0.0645 -0.0290
 1862SOL    HW117219   1.460   2.437   3.498  1.2351  1.1434  1.1651
 1862SOL    HW217220   1.368   2.484   3.607  2.8321  0.5957 -0.4216
 1863SOL     OW17221   4.634   1.381   5.714  0.0151 -0.1995 -0.0827
 1863SOL    HW117222   4.726   1.404   5.705 -0.4649  2.0842  1.0816
 1863SOL    HW217223   4.654   1.363   5.806  0.1790  1.2024  0.1469
 1864SOL     OW17224   2.703   4.572   1.916  0.8738  0.4554  0.4377
 1864SOL    HW117225   2.774   4.536   1.969 -0.1657 -1.4207  0.5687
 1864SOL    HW217226   2.632   4.510   1.930  1.7952 -1.0002 -1.3138
 1865SOL     OW17227   2.063   1.127   1.321  0.2030 -0.1190  0.0012
 1865SOL    HW117228   2.128   1.088   1.262  1.4397  4.1256 -1.3984
 1865SOL    HW217229   1.991   1.146   1.260  1.7132  4.3679 -0.3594
 1866SOL     OW17230   1.083   2.529   3.461  0.2343  0.5816 -0.5902
 1866SOL    HW117231   1.100   2.483   3.543  1.4029  1.0785 -0.5657
 1866SOL    HW217232   0.988   2.512   3.463  0.7943 -2.1352  2.7671
 1867SOL     OW17233   0.343   4.726   3.263  0.4612  0.2050 -0.0688
 1867SOL    HW117234   0.355   4.659   3.330 -2.4382 -1.2617 -1.0286
 1867SOL    HW217235   0.390   4.687   3.189 -1.1305  0.4924 -1.2232
 1868SOL     OW17236   0.449   2.206   3.601  0.7290 -0.2405 -0.9531
 1868SOL    HW117237   0.501   2.259   3.662  0.8921 -0.2684 -1.0671
 1868SOL    HW217238   0.385   2.159   3.655  3.1182  0.1289  2.2387
 1869SOL     OW17239   3.969   1.818   3.990  0.0422 -0.2535 -0.1638
 1869SOL    HW117240   4.005   1.736   4.024 -2.7673 -0.8109  1.4173
 1869SOL    HW217241   3.982   1.808   3.896 -2.0519  2.0007 -0.7080
 1870SOL     OW17242   1.528   3.401   1.849 -0.4607 -0.2424  0.0663
 1870SOL    HW117243   1.549   3.311   1.823  0.5942  0.3075 -0.9921
 1870SOL    HW217244   1.611   3.411   1.896 -0.3981 -1.9369  0.3258
 1871SOL     OW17245   4.624   2.333   4.427  0.4316 -0.1292 -0.2574
 1871SOL    HW117246   4.676   2.404   4.464 -0.2855 -0.6206  1.6826
 1871SOL    HW217247   4.696   2.271   4.416 -3.0072 -3.5645 -3.3361
 1872SOL     OW17248   1.458   1.789  16.759 -0.2522 -0.8015 -0.4669
 1872SOL    HW117249   1.448   1.718  16.822  1.4617  0.8311  1.6726
 1872SOL    HW217250   1.549   1.768  16.740  0.2981  1.2599 -0.0847
 1873SOL     OW17251   4.046   3.662   6.138 -0.2718  0.0170  0.2294
 1873SOL    HW117252   4.139   3.684   6.146 -0.2686  0.4186 -0.9202
 1873SOL    HW217253   4.034   3.714   6.059 -1.6634  1.0689  1.1150
 1874SOL     OW17254   0.719   1.808   8.074  0.2264  0.6774 -0.0789
 1874SOL    HW117255   0.697   1.870   8.004 -0.8319 -2.9602 -2.9555
 1874SOL    HW217256   0.814   1.811   8.064  0.4629 -1.0830  1.5982
 1875SOL     OW17257   4.095   2.658   3.190  0.4862 -0.0029  0.1997
 1875SOL    HW117258   4.162   2.619   3.135 -0.5791 -0.7169 -0.5950
 1875SOL    HW217259   4.136   2.651   3.276  0.0277 -0.6024  0.3716
 1876SOL     OW17260   2.222   0.985   7.927 -0.0183  0.2203 -0.1504
 1876SOL    HW117261   2.226   0.996   7.832  2.6525  0.0040 -0.0495
 1876SOL    HW217262   2.275   1.060   7.951 -0.2316  0.5314 -0.6472
 1877SOL     OW17263   1.766   2.397   7.097 -0.7113 -0.0696  0.1244
 1877SOL    HW117264   1.741   2.490   7.100 -0.5716 -0.0054 -0.8201
 1877SOL    HW217265   1.688   2.356   7.060 -0.8332 -0.5376  0.9022
 1878SOL     OW17266   1.558   0.152   6.352 -0.3133 -0.3600  0.0320
 1878SOL    HW117267   1.608   0.075   6.376 -1.5500 -0.5215  2.1341
 1878SOL    HW217268   1.489   0.144   6.419  1.0005  2.6135  1.7110
 1879SOL     OW17269   3.522   1.013   2.039  0.1404 -0.1830  0.3164
 1879SOL    HW117270   3.597   1.031   2.094  0.4194 -1.7611  0.4480
 1879SOL    HW217271   3.537   0.920   2.022 -1.6238 -0.7224  1.6905
 1880SOL     OW17272   3.030   1.744  10.956 -0.5135 -0.7919  0.5255
 1880SOL    HW117273   2.946   1.700  10.963 -1.4611  0.7219 -1.1795
 1880SOL    HW217274   3.020   1.795  11.036  2.4443 -2.6901  2.0968
 1881SOL     OW17275   0.767   0.161  11.322  1.2138  0.0867 -0.2756
 1881SOL    HW117276   0.685   0.196  11.288  0.3519 -0.6216  1.1361
 1881SOL    HW217277   0.741   0.099  11.390 -0.5553  1.3432  0.1906
 1882SOL     OW17278   1.400   1.134  14.841 -0.3399  0.0453 -0.3850
 1882SOL    HW117279   1.305   1.125  14.848 -0.0830 -2.9460 -0.3994
 1882SOL    HW217280   1.421   1.172  14.926 -0.8367  0.5301 -0.4772
 1883SOL     OW17281   3.461   3.176   9.397 -0.7437  0.4550 -0.2790
 1883SOL    HW117282   3.397   3.117   9.437 -1.4848  1.2220 -0.3244
 1883SOL    HW217283   3.475   3.129   9.315 -1.2604  1.3268 -0.8715
 1884SOL     OW17284   1.484   4.449  13.820 -0.7409  0.5176  0.4056
 1884SOL    HW117285   1.571   4.408  13.825 -1.0264  0.0594  1.7386
 1884SOL    HW217286   1.444   4.396  13.889 -0.8028  0.9721  0.7280
 1885SOL     OW17287   1.222   1.162  12.972  0.5902  0.0427  0.3280
 1885SOL    HW117288   1.204   1.143  12.880 -1.0452 -0.1730  0.7059
 1885SOL    HW217289   1.221   1.258  12.968  0.0570 -0.0242 -1.2709
 1886SOL     OW17290   3.774   1.528   3.651 -0.3402 -0.0705  0.4445
 1886SOL    HW117291   3.717   1.595   3.688  0.6331  1.3867 -0.6677
 1886SOL    HW217292   3.858   1.547   3.693 -0.2944  0.1119  0.2713
 1887SOL     OW17293   4.514   0.187   8.896 -0.5743  0.2943  0.1571
 1887SOL    HW117294   4.608   0.204   8.900 -0.2502 -1.3586 -0.7085
 1887SOL    HW217295   4.481   0.249   8.831 -0.5645  0.5607  0.4044
 1888SOL     OW17296   1.928   3.327   9.288 -0.6293 -0.5919  0.1797
 1888SOL    HW117297   1.887   3.295   9.207  0.4666 -0.6685 -0.3376
 1888SOL    HW217298   1.896   3.417   9.279 -0.4231 -0.4282  1.0947
 1889SOL     OW17299   3.762   2.621  17.695 -0.5361 -0.0545  0.5795
 1889SOL    HW117300   3.755   2.550   0.020 -0.4788  1.7225  2.5449
 1889SOL    HW217301   3.849   2.656  17.711 -0.6005 -0.5872  2.0551
 1890SOL     OW17302   3.288   0.315   2.503 -0.2798 -0.0470  0.3819
 1890SOL    HW117303   3.339   0.376   2.449 -0.6988  0.5224  0.6260
 1890SOL    HW217304   3.230   0.385   2.533 -0.7310  0.0094 -0.6133
 1891SOL     OW17305   4.550   4.123  10.840 -0.5862 -0.4462  0.4805
 1891SOL    HW117306   4.594   4.059  10.785  1.1749 -0.6450  2.0986
 1891SOL    HW217307   4.617   4.190  10.852 -0.5781 -1.1258  4.2193
 1892SOL     OW17308   3.017   4.122   4.547 -0.3503  0.1911  0.2007
 1892SOL    HW117309   3.073   4.104   4.471  0.9602 -1.2584  1.5220
 1892SOL    HW217310   3.088   4.139   4.609  0.1336 -2.2090  0.3130
 1893SOL     OW17311   2.461   4.095   7.653  0.1586 -0.0579  0.0678
 1893SOL    HW117312   2.488   4.153   7.581 -0.2248  1.9501  1.5263
 1893SOL    HW217313   2.497   4.136   7.732 -0.8433 -3.6757  2.3967
 1894SOL     OW17314   2.162   2.303   6.890  0.1442 -0.0400  0.0387
 1894SOL    HW117315   2.170   2.285   6.796  0.7448  3.0040 -0.5042
 1894SOL    HW217316   2.154   2.398   6.896  0.3484  0.0321 -0.8317
 1895SOL     OW17317   2.946   4.622   9.225 -1.0285 -0.2867 -0.4643
 1895SOL    HW117318   2.919   4.666   9.144 -3.0284  1.0528  0.9539
 1895SOL    HW217319   2.940   4.694   9.288  0.1453 -0.5399 -0.0669
 1896SOL     OW17320   4.348   0.207   7.286  0.6844  0.3485  0.7988
 1896SOL    HW117321   4.316   0.122   7.256  0.3955  0.9186 -0.4709
 1896SOL    HW217322   4.393   0.246   7.211  0.9633  0.1427  0.8577
 1897SOL     OW17323   3.400   1.139  11.145  0.5309 -0.2236 -0.3858
 1897SOL    HW117324   3.327   1.199  11.157  0.4083 -0.6778  1.0851
 1897SOL    HW217325   3.441   1.148  11.231  0.2173 -0.8454 -0.1684
 1898SOL     OW17326   2.522   3.202   5.566  0.9516 -0.4461  0.1293
 1898SOL    HW117327   2.604   3.191   5.519  1.2108 -0.8140  0.6641
 1898SOL    HW217328   2.456   3.212   5.497  1.7686 -2.6905 -0.9682
 1899SOL     OW17329   3.665   0.440   5.271 -0.2503  0.2751  0.2564
 1899SOL    HW117330   3.723   0.515   5.261 -2.7984  2.5065  2.1511
 1899SOL    HW217331   3.587   0.491   5.289  1.0737  2.3372  0.1709
 1900SOL     OW17332   1.793   0.909  16.061  1.0266 -0.2622  0.3130
 1900SOL    HW117333   1.814   0.907  15.968  1.0789 -1.6386  0.3649
 1900SOL    HW217334   1.716   0.965  16.069  0.9153 -0.3128 -0.3768
 1901SOL     OW17335   1.888   3.796  11.925 -0.1240  0.5979 -0.0244
 1901SOL    HW117336   1.929   3.726  11.873  2.3659  0.8564  1.5752
 1901SOL    HW217337   1.842   3.848  11.859 -0.1528 -1.1947 -1.4262
 1902SOL     OW17338   1.421   2.142   3.648  0.0534 -0.0033 -0.2604
 1902SOL    HW117339   1.419   2.083   3.573 -0.1852 -0.1695 -0.1214
 1902SOL    HW217340   1.391   2.224   3.607 -1.6049 -0.3157  0.3253
 1903SOL     OW17341   0.252   3.494   9.193  0.1715 -0.7136  0.0181
 1903SOL    HW117342   0.212   3.527   9.274  1.4125  0.7954  0.0146
 1903SOL    HW217343   0.203   3.552   9.135  0.6805  1.0518  1.3398
 1904SOL     OW17344   3.000   2.190   3.441 -0.6970 -0.6534  0.3839
 1904SOL    HW117345   3.037   2.178   3.529  1.9773  0.9058 -0.5309
 1904SOL    HW217346   2.908   2.208   3.460 -1.0313 -1.3713 -0.5151
 1905SOL     OW17347   3.644   4.150   5.791  0.0835 -0.1099  0.2869
 1905SOL    HW117348   3.611   4.215   5.852 -0.8923  0.2278 -0.5848
 1905SOL    HW217349   3.602   4.071   5.825 -1.7695 -0.8269 -3.6736
 1906SOL     OW17350   2.475   3.200  15.732  0.0292  0.5676  0.1971
 1906SOL    HW117351   2.463   3.106  15.744 -0.3527  0.5615 -0.2296
 1906SOL    HW217352   2.409   3.231  15.793 -2.4760 -1.5015 -1.4403
 1907SOL     OW17353   1.429   0.896  17.014  0.1052  0.1917 -0.1951
 1907SOL    HW117354   1.512   0.880  16.971  0.1860 -0.6894  0.3066
 1907SOL    HW217355   1.413   0.810  17.052 -0.6881  0.5741  0.3454
 1908SOL     OW17356   4.072   4.104  11.950  0.6650 -0.6708 -0.3683
 1908SOL    HW117357   3.985   4.106  11.911 -0.3421 -2.2440  1.8619
 1908SOL    HW217358   4.127   4.103  11.871  2.1844  0.8356  0.6628
 1909SOL     OW17359   1.524   3.873   3.829 -0.1075  0.0490 -0.0116
 1909SOL    HW117360   1.604   3.836   3.865 -0.4784  0.8570  1.6035
 1909SOL    HW217361   1.490   3.916   3.907  0.5633  0.0730  0.2643
 1910SOL     OW17362   3.539   0.410   7.308 -0.2279 -0.3226 -0.1126
 1910SOL    HW117363   3.516   0.400   7.215 -2.7990  1.4505  0.3286
 1910SOL    HW217364   3.473   0.349   7.341  1.1530 -2.1860 -0.7823
 1911SOL     OW17365   2.963   2.273   2.370 -0.3584  0.0533  0.1174
 1911SOL    HW117366   2.951   2.357   2.325  0.7193 -0.6020 -1.4003
 1911SOL    HW217367   3.039   2.300   2.422  1.1300 -2.1567 -0.8888
 1912SOL     OW17368   1.780   1.076  13.824 -0.7780 -0.1589  0.3074
 1912SOL    HW117369   1.688   1.100  13.839 -0.2965  0.5612  2.1238
 1912SOL    HW217370   1.801   1.134  13.751  0.9533  0.8674  1.6421
 1913SOL     OW17371   4.569   3.453   6.487 -0.2769 -0.2853  0.1217
 1913SOL    HW117372   4.519   3.402   6.424 -0.6371 -1.5363  1.4204
 1913SOL    HW217373   4.634   3.387   6.510  0.1424 -0.7997 -2.5557
 1914SOL     OW17374   1.795   2.218  10.679  0.0788 -0.1719 -0.0957
 1914SOL    HW117375   1.784   2.217  10.774  0.1066  3.0569 -0.0557
 1914SOL    HW217376   1.864   2.281  10.662 -0.4749  0.5649  0.3992
 1915SOL     OW17377   3.761   0.506   1.343 -0.3207 -0.2643  0.2322
 1915SOL    HW117378   3.773   0.573   1.410  1.5558  1.0749 -1.4584
 1915SOL    HW217379   3.735   0.556   1.266 -4.2306 -0.3253  1.5511
 1916SOL     OW17380   3.390   3.021   5.349 -0.0641  0.1098  0.1148
 1916SOL    HW117381   3.441   3.005   5.269  0.0531 -0.0734  0.2244
 1916SOL    HW217382   3.315   3.056   5.301  0.4596  0.9873 -0.0681
 1917SOL     OW17383   0.919   1.477  11.873 -0.0193 -0.3285  0.1295
 1917SOL    HW117384   0.945   1.535  11.944  0.6992 -1.5393  0.8493
 1917SOL    HW217385   0.838   1.520  11.843  2.0906  1.1316 -3.4673
 1918SOL     OW17386   4.355   2.925  11.630 -0.0028  0.0624 -0.6334
 1918SOL    HW117387   4.347   2.903  11.723  2.3047 -2.1962 -0.9855
 1918SOL    HW217388   4.263   2.920  11.604 -0.8680 -0.4358  2.4443
 1919SOL     OW17389   0.807   1.240   4.273  0.0725  0.4266 -0.3580
 1919SOL    HW117390   0.733   1.297   4.250 -1.0849 -1.1182 -0.4641
 1919SOL    HW217391   0.769   1.210   4.355 -0.2345  1.2765 -0.1895
 1920SOL     OW17392   1.575   3.377   7.241  0.1731  0.2881  0.4673
 1920SOL    HW117393   1.605   3.397   7.329  0.4699 -0.0014  0.4325
 1920SOL    HW217394   1.487   3.413   7.238  0.9591  2.3896  2.3235
 1921SOL     OW17395   3.654   1.503   5.144  0.4632  0.4093  0.1758
 1921SOL    HW117396   3.654   1.488   5.238 -0.8691 -1.6988 -0.1661
 1921SOL    HW217397   3.696   1.421   5.116  0.0604  1.0511 -2.3324
 1922SOL     OW17398   3.889   1.118   6.620 -0.3641 -0.2974 -0.0074
 1922SOL    HW117399   3.876   1.152   6.532  0.6939  0.0673 -0.0320
 1922SOL    HW217400   3.961   1.057   6.601 -0.1212 -0.1320  0.3761
 1923SOL     OW17401   4.052   1.510   6.289  0.2408 -0.6775 -0.1414
 1923SOL    HW117402   4.038   1.599   6.259  0.0635 -1.2063 -1.6055
 1923SOL    HW217403   4.143   1.517   6.320  0.1669  0.8987 -0.2980
 1924SOL     OW17404   2.291   4.733   9.475 -0.4559 -0.0321  0.0380
 1924SOL    HW117405   2.224   0.004   9.542  1.2789  3.4043  1.4740
 1924SOL    HW217406   2.300   4.639   9.463  0.5697  0.0291  0.3152
 1925SOL     OW17407   3.255   1.731   5.909  0.0599  0.0192  0.7513
 1925SOL    HW117408   3.256   1.804   5.971 -0.6132  2.8670 -2.5549
 1925SOL    HW217409   3.340   1.691   5.927  0.1588  0.7694  1.9199
 1926SOL     OW17410   0.167   2.696   3.383  0.0261  0.1859  0.4445
 1926SOL    HW117411   0.146   2.787   3.404 -0.2165  0.7515 -2.2066
 1926SOL    HW217412   0.200   2.708   3.294 -0.9042  0.6546  0.1596
 1927SOL     OW17413   0.347   3.960  14.776 -0.0055  0.0031 -0.5281
 1927SOL    HW117414   0.271   3.917  14.736 -0.1900 -0.0263 -0.1460
 1927SOL    HW217415   0.417   3.919  14.725 -0.1158 -1.7750  0.7510
 1928SOL     OW17416   1.438   1.750   1.991  0.0519 -0.0309  0.3362
 1928SOL    HW117417   1.454   1.836   1.951 -0.9021  0.6338  1.4019
 1928SOL    HW217418   1.417   1.694   1.917 -0.3047  0.5251  0.0188
 1929SOL     OW17419   2.126   0.744   2.297 -0.2263 -0.2163 -0.1163
 1929SOL    HW117420   2.032   0.723   2.289  0.3162 -1.9409 -1.8218
 1929SOL    HW217421   2.130   0.698   2.381  1.8510  0.5194  0.1736
 1930SOL     OW17422   0.788   3.654   9.359 -0.0720 -0.1310  0.0837
 1930SOL    HW117423   0.853   3.705   9.409  0.9965 -0.9783 -0.4405
 1930SOL    HW217424   0.831   3.668   9.275 -1.3618 -0.7523 -0.6752
 1931SOL     OW17425   2.608   4.287   2.875 -0.6479  0.4093 -0.5966
 1931SOL    HW117426   2.648   4.341   2.944  0.4407  0.5137 -1.3260
 1931SOL    HW217427   2.519   4.290   2.911 -0.7836  0.9306 -0.9744
 1932SOL     OW17428   3.503   2.607  15.539 -0.6512 -0.0674 -0.2172
 1932SOL    HW117429   3.479   2.569  15.624  1.8257  1.4673  1.1590
 1932SOL    HW217430   3.482   2.699  15.555 -2.3303 -0.5619  0.4187
 1933SOL     OW17431   2.839   2.646   8.423  0.1295  0.4912  0.5422
 1933SOL    HW117432   2.791   2.693   8.492 -1.1413  0.1538 -0.1165
 1933SOL    HW217433   2.915   2.617   8.474  1.3738  1.3808 -0.8241
 1934SOL     OW17434   3.798   0.397   3.315  0.7192  0.2467  0.2408
 1934SOL    HW117435   3.729   0.332   3.303 -0.9616  2.4846 -2.3834
 1934SOL    HW217436   3.786   0.407   3.409 -0.0176  0.7049  0.0976
 1935SOL     OW17437   0.592   3.062   3.640  0.1368 -0.6891 -0.0610
 1935SOL    HW117438   0.684   3.085   3.630  0.1470 -2.0462 -3.0413
 1935SOL    HW217439   0.604   2.971   3.667  0.3413 -0.8058 -0.5443
 1936SOL     OW17440   3.648   2.994   4.653  0.2664  0.2072 -0.2056
 1936SOL    HW117441   3.653   3.022   4.744 -2.3058 -1.5670  0.4986
 1936SOL    HW217442   3.696   3.062   4.607  1.9555 -0.4306  0.6179
 1937SOL     OW17443   2.890   1.609   6.368 -0.3023  0.0961 -0.7117
 1937SOL    HW117444   2.978   1.637   6.343  0.6814 -1.4612  1.0065
 1937SOL    HW217445   2.847   1.583   6.287  1.2305  0.7487 -1.7536
 1938SOL     OW17446   4.375   1.903  11.492 -0.0927 -0.1966 -0.3300
 1938SOL    HW117447   4.459   1.862  11.471 -0.1649 -1.1862  1.2686
 1938SOL    HW217448   4.323   1.832  11.529 -1.6099  0.5079 -1.1049
 1939SOL     OW17449   1.406   1.989  11.180 -0.1161 -0.3930  0.3471
 1939SOL    HW117450   1.362   2.017  11.260  1.7048 -0.7371  1.4774
 1939SOL    HW217451   1.493   1.963  11.210 -0.5053  0.3213  2.0937
 1940SOL     OW17452   4.386   2.891  10.384 -0.9523 -0.4479  0.0566
 1940SOL    HW117453   4.394   2.796  10.395  0.2191 -0.2902  0.5887
 1940SOL    HW217454   4.316   2.916  10.445 -1.3870 -2.3862  0.3755
 1941SOL     OW17455   3.939   1.202   3.624 -0.5403  0.1013 -0.0510
 1941SOL    HW117456   3.860   1.256   3.621  1.2406  2.6673 -0.1854
 1941SOL    HW217457   3.966   1.191   3.532 -1.9595  2.0878 -0.7066
 1942SOL     OW17458   3.288   2.343   0.916 -0.2099  0.4993 -0.3789
 1942SOL    HW117459   3.210   2.378   0.872 -2.2331  0.2906  3.0573
 1942SOL    HW217460   3.314   2.278   0.851 -1.7091  1.2856 -1.7467
 1943SOL     OW17461   0.464   0.218   5.771  0.1899 -0.4548  0.3150
 1943SOL    HW117462   0.446   0.312   5.773 -2.9078 -1.0182 -0.9127
 1943SOL    HW217463   0.524   0.203   5.698 -1.5555 -0.0358 -1.1966
 1944SOL     OW17464   1.993   2.186   9.777 -0.4200 -0.3579 -0.0091
 1944SOL    HW117465   1.937   2.235   9.838 -0.1564 -0.2466  0.1484
 1944SOL    HW217466   1.930   2.180   9.706 -0.8555 -0.9682  0.4240
 1945SOL     OW17467   0.780   1.223   3.433 -0.2218 -0.1963  0.2007
 1945SOL    HW117468   0.764   1.224   3.528  0.4574  0.8705  0.3062
 1945SOL    HW217469   0.690   1.226   3.400 -0.3067 -0.2297  0.4251
 1946SOL     OW17470   4.003   3.389   9.621 -0.3071  0.7234  0.2329
 1946SOL    HW117471   4.025   3.316   9.678  0.3278 -0.5151 -1.6089
 1946SOL    HW217472   4.049   3.461   9.665 -0.0337  0.6496  0.0734
 1947SOL     OW17473   4.311   0.207  17.436 -0.5453 -0.0094  0.3749
 1947SOL    HW117474   4.278   0.165  17.357  0.1181  0.4659 -0.1655
 1947SOL    HW217475   4.258   0.167  17.504 -0.0368  0.3319  0.9704
 1948SOL     OW17476   3.791   1.669   3.136  0.4444 -0.1146 -0.8440
 1948SOL    HW117477   3.844   1.633   3.065  1.4116 -0.6114  0.1289
 1948SOL    HW217478   3.703   1.642   3.111 -0.0162  1.7701 -1.2919
 1949SOL     OW17479   2.100   3.979  16.851 -0.1914  0.0741  0.2305
 1949SOL    HW117480   2.192   3.966  16.827 -0.2254 -1.9777  1.2185
 1949SOL    HW217481   2.093   4.072  16.873 -2.0840 -0.3713  1.4151
 1950SOL     OW17482   0.766   3.774   8.170 -0.3077  0.1988 -0.3333
 1950SOL    HW117483   0.719   3.694   8.194 -0.2468  0.1626 -0.3326
 1950SOL    HW217484   0.854   3.736   8.168  0.0254  0.9691 -0.4702
 1951SOL     OW17485   0.538   0.324   9.042  0.0974  0.3579 -0.2742
 1951SOL    HW117486   0.460   0.307   9.096 -0.0830  1.5875 -0.1345
 1951SOL    HW217487   0.505   0.302   8.955  0.4698  0.4135 -0.4270
 1952SOL     OW17488   4.211   1.712   2.475  0.5167  0.6059  0.0853
 1952SOL    HW117489   4.132   1.670   2.443  0.7871 -0.7664  1.2165
 1952SOL    HW217490   4.179   1.757   2.553 -0.2361  0.0313  0.0995
 1953SOL     OW17491   2.398   0.601   4.699  0.6701  0.0768  0.2805
 1953SOL    HW117492   2.346   0.615   4.620 -0.0043  2.4382  1.1521
 1953SOL    HW217493   2.340   0.634   4.767  1.2249 -0.5773  1.0756
 1954SOL     OW17494   4.216   4.041   1.661 -0.7189  0.6119 -0.1769
 1954SOL    HW117495   4.227   4.124   1.707 -1.2643 -0.0830  1.2137
 1954SOL    HW217496   4.293   4.047   1.605  1.5123  0.5099  2.8521
 1955SOL     OW17497   2.092   1.868   3.092  0.3281  0.1113 -0.4298
 1955SOL    HW117498   2.129   1.950   3.059 -1.4567  1.5504  1.1474
 1955SOL    HW217499   2.142   1.858   3.173 -0.8346 -0.6629  0.2011
 1956SOL     OW17500   0.370   4.678   6.129 -0.2504 -0.3085 -0.5403
 1956SOL    HW117501   0.395   4.596   6.085 -1.1971 -1.0528  0.2881
 1956SOL    HW217502   0.425   4.734   6.075 -1.5082  0.8472 -0.6326
 1957SOL     OW17503   1.832   1.492   7.749  0.5079  0.1234  0.2529
 1957SOL    HW117504   1.805   1.421   7.690  0.2386  1.2334 -0.9629
 1957SOL    HW217505   1.907   1.456   7.797  1.7723  2.3715 -0.0262
 1958SOL     OW17506   2.179   3.216   4.510  0.5123 -0.0669  0.0983
 1958SOL    HW117507   2.226   3.175   4.438 -0.6215 -0.6483 -0.3155
 1958SOL    HW217508   2.193   3.310   4.505 -1.8792  0.1939 -1.5652
 1959SOL     OW17509   0.356   2.202  11.089 -0.0139  0.3750 -0.3056
 1959SOL    HW117510   0.333   2.151  11.167 -2.2062  1.1697 -0.4293
 1959SOL    HW217511   0.447   2.220  11.113  1.0761 -3.8895 -1.2348
 1960SOL     OW17512   0.135   1.117  13.922  0.4059 -0.5444  0.1387
 1960SOL    HW117513   0.127   1.158  13.836  2.2826  3.3948  1.8834
 1960SOL    HW217514   0.167   1.198  13.962 -2.4250  0.9957 -0.6830
 1961SOL     OW17515   3.883   2.488   5.712 -0.1196 -0.4248  0.1084
 1961SOL    HW117516   3.884   2.578   5.679  0.7656 -0.7721 -0.8586
 1961SOL    HW217517   3.899   2.444   5.628 -1.6730  0.0550 -0.4395
 1962SOL     OW17518   0.967   2.028   5.325  0.1107 -0.4162  0.0363
 1962SOL    HW117519   0.932   2.043   5.238  3.4770  1.2847 -1.0428
 1962SOL    HW217520   1.059   2.020   5.301  1.1830  2.6437  3.0483
 1963SOL     OW17521   1.122   3.884   4.873  0.0426 -0.0651 -0.3419
 1963SOL    HW117522   1.090   3.969   4.904 -0.5923 -0.6101  0.4930
 1963SOL    HW217523   1.189   3.918   4.814  0.7708 -0.1038  0.4687
 1964SOL     OW17524   3.033   0.029   1.602 -0.2935 -0.5375  0.3524
 1964SOL    HW117525   2.975   4.697   1.564  1.3992 -1.9535  0.2984
 1964SOL    HW217526   2.977   0.102   1.573  0.4188 -0.1036  0.0713
 1965SOL     OW17527   4.240   3.290   7.516 -0.6625 -0.1119  0.8215
 1965SOL    HW117528   4.201   3.297   7.429 -4.0380  0.5598  2.4059
 1965SOL    HW217529   4.237   3.201   7.549  0.9167 -0.8102 -0.9453
 1966SOL     OW17530   0.650   2.630   8.106  0.0612  0.5145 -0.2647
 1966SOL    HW117531   0.659   2.652   8.199 -0.3475  0.8642 -0.3091
 1966SOL    HW217532   0.690   2.700   8.055  1.7169 -0.5629 -0.4592
 1967SOL     OW17533   1.268   1.369  16.249  0.2796 -0.3292  0.4408
 1967SOL    HW117534   1.301   1.386  16.337 -2.8164  0.0243  1.5631
 1967SOL    HW217535   1.208   1.444  16.239 -2.6816 -2.9863 -1.6951
 1968SOL     OW17536   4.396   1.823   3.657  0.1647  0.4885 -0.0502
 1968SOL    HW117537   4.413   1.864   3.572  3.1625  1.6818  1.1430
 1968SOL    HW217538   4.350   1.901   3.687  2.1502  0.9431  1.8320
 1969SOL     OW17539   1.821   3.735   9.857  0.4642 -0.1237  0.5859
 1969SOL    HW117540   1.846   3.816   9.814  0.8385  0.6688  2.3123
 1969SOL    HW217541   1.885   3.672   9.822 -2.0525  0.0112 -4.3170
 1970SOL     OW17542   4.050   2.905   6.795  0.0361  0.5881 -0.2803
 1970SOL    HW117543   4.129   2.885   6.745 -0.9322 -0.1319 -1.5051
 1970SOL    HW217544   4.065   3.000   6.803 -0.5559  0.7088 -0.6184
 1971SOL     OW17545   1.922   3.638  10.131 -0.6094  0.3357 -0.3226
 1971SOL    HW117546   1.855   3.683  10.080 -1.5782  0.1438  0.7873
 1971SOL    HW217547   1.905   3.547  10.108  2.1506  0.3261 -2.2785
 1972SOL     OW17548   1.633   3.520   8.603  0.0884  0.4951 -0.0304
 1972SOL    HW117549   1.623   3.564   8.519 -0.5497  2.1914  0.9306
 1972SOL    HW217550   1.549   3.539   8.645 -0.7209 -2.7503 -0.1458
 1973SOL     OW17551   3.695   2.558   0.928  0.6892  0.6371 -0.7166
 1973SOL    HW117552   3.679   2.635   0.983  1.5636  0.1056  0.2783
 1973SOL    HW217553   3.605   2.531   0.912  1.0006 -1.1830  0.5994
 1974SOL     OW17554   3.692   3.934  11.590 -0.1968 -0.3393 -0.0543
 1974SOL    HW117555   3.627   4.004  11.590 -1.5036 -1.5655  0.8741
 1974SOL    HW217556   3.671   3.871  11.521 -0.3796 -1.4714  1.0472
 1975SOL     OW17557   0.230   3.285  11.118 -0.1417 -0.2956 -0.7724
 1975SOL    HW117558   0.192   3.198  11.122  1.4643 -1.0141 -1.3254
 1975SOL    HW217559   0.250   3.290  11.024  0.4338  0.0414 -0.6286
 1976SOL     OW17560   3.466   1.814   7.103  0.4290  0.0065 -0.8811
 1976SOL    HW117561   3.558   1.840   7.095  0.6371 -0.9843 -1.6266
 1976SOL    HW217562   3.456   1.771   7.187  1.4055 -2.0145 -1.8021
 1977SOL     OW17563   1.571   4.465   2.455  0.3041 -0.5122 -0.8445
 1977SOL    HW117564   1.493   4.456   2.510  0.0542 -1.3550 -1.3427
 1977SOL    HW217565   1.542   4.490   2.368 -1.6373  1.0113  0.2385
 1978SOL     OW17566   2.189   1.829   9.167 -0.4106  0.0330  0.2615
 1978SOL    HW117567   2.147   1.903   9.125 -0.1225 -0.3168 -0.6377
 1978SOL    HW217568   2.273   1.865   9.196  0.2311  0.4365 -2.1319
 1979SOL     OW17569   1.824   4.473   3.445  0.5360 -0.4367  0.1457
 1979SOL    HW117570   1.890   4.508   3.386 -0.8666  4.6887  1.6525
 1979SOL    HW217571   1.873   4.414   3.502  0.3125 -1.8145 -1.0888
 1980SOL     OW17572   1.595   1.311   7.374 -0.0524  0.2684 -0.0830
 1980SOL    HW117573   1.571   1.378   7.309 -0.5332  0.7543  0.5904
 1980SOL    HW217574   1.585   1.230   7.324 -1.1862 -1.2817  2.6468
 1981SOL     OW17575   1.433   0.182   2.538  0.0087  0.2627 -0.4595
 1981SOL    HW117576   1.473   0.135   2.610  2.5498  0.5421 -1.6560
 1981SOL    HW217577   1.434   0.273   2.567 -1.1034  0.2300 -0.3272
 1982SOL     OW17578   1.523   2.287   7.963 -0.1571  0.1091 -0.4703
 1982SOL    HW117579   1.588   2.337   7.914  1.2949 -0.0275  1.2914
 1982SOL    HW217580   1.450   2.309   7.906  0.4618  0.4078 -1.1546
 1983SOL     OW17581   3.848   1.411  16.711  0.1281 -0.1212 -0.0268
 1983SOL    HW117582   3.789   1.336  16.715  0.6471 -0.5722 -0.7880
 1983SOL    HW217583   3.900   1.397  16.632  1.3755  1.3098  0.5430
 1984SOL     OW17584   4.290   1.933  16.748  0.3763  0.1396  0.7116
 1984SOL    HW117585   4.340   1.875  16.691 -0.0130  1.8017 -1.3192
 1984SOL    HW217586   4.312   2.020  16.713 -0.0606  0.3201  0.8871
 1985SOL     OW17587   3.706   2.350  10.412 -0.0640  0.3466  0.4024
 1985SOL    HW117588   3.708   2.366  10.507  1.8492  1.0100  0.2631
 1985SOL    HW217589   3.659   2.267  10.412 -1.5960  1.2137  1.1525
 1986SOL     OW17590   4.304   4.378   3.848 -0.2748 -0.0105  0.3885
 1986SOL    HW117591   4.318   4.438   3.775 -0.1901  0.6328  0.9277
 1986SOL    HW217592   4.227   4.424   3.880 -0.3587  0.2644 -0.2212
 1987SOL     OW17593   1.314   0.622   4.006  0.1958  0.3606  0.1438
 1987SOL    HW117594   1.380   0.588   4.065 -0.5387 -1.8633 -0.3169
 1987SOL    HW217595   1.242   0.634   4.069  0.9348  1.7085  0.7320
 1988SOL     OW17596   0.964   1.665   3.869 -0.1776 -0.0148  0.1171
 1988SOL    HW117597   1.011   1.628   3.794  0.5404  2.0145 -0.4527
 1988SOL    HW217598   0.871   1.682   3.851 -0.4869 -2.6738 -0.8554
 1989SOL     OW17599   3.021   1.344   6.913  0.2671  0.4548  0.5228
 1989SOL    HW117600   3.045   1.437   6.906 -2.3916  0.9466 -1.6155
 1989SOL    HW217601   2.952   1.330   6.849  1.7838 -1.2136 -0.7276
 1990SOL     OW17602   3.675   4.159   8.266  0.5321  0.0736  0.0630
 1990SOL    HW117603   3.693   4.065   8.277  3.0862  0.4873 -0.6347
 1990SOL    HW217604   3.643   4.179   8.354  1.4731  0.0083  0.4206
 1991SOL     OW17605   3.679   2.320   0.727 -0.2422  0.3707  0.4102
 1991SOL    HW117606   3.622   2.397   0.728 -1.5706 -0.6405  1.7421
 1991SOL    HW217607   3.657   2.274   0.807  3.2631 -1.6979  0.1778
 1992SOL     OW17608   0.399   3.637  10.535 -0.0942  0.2156 -0.1668
 1992SOL    HW117609   0.477   3.586  10.517 -0.2411  0.1859 -0.7131
 1992SOL    HW217610   0.373   3.656  10.445  1.5901 -1.8472 -1.0862
 1993SOL     OW17611   4.618   4.622  15.711 -0.0671  0.3360 -0.5850
 1993SOL    HW117612   4.622   4.617  15.807 -0.0300  2.5157 -0.4708
 1993SOL    HW217613   4.694   4.678  15.695 -0.7508  1.2700 -0.5463
 1994SOL     OW17614   2.007   1.599  11.073  0.4246  0.8326 -0.1735
 1994SOL    HW117615   1.922   1.588  11.115  1.5399 -0.4902  1.7350
 1994SOL    HW217616   1.997   1.656  10.997 -0.6788  0.3781 -0.3641
 1995SOL     OW17617   4.109   0.596   0.540 -0.3795  0.1203 -0.1494
 1995SOL    HW117618   4.172   0.578   0.470 -0.0267  1.8770 -0.2854
 1995SOL    HW217619   4.105   0.510   0.581  1.4651  0.4080  0.6290
 1996SOL     OW17620   1.122   1.061  14.476  0.0676 -0.0543  0.1509
 1996SOL    HW117621   1.142   1.134  14.418  0.8849 -0.1953  0.2610
 1996SOL    HW217622   1.152   1.096  14.559  0.1533  0.5247 -0.1251
 1997SOL     OW17623   0.499   1.400  11.570  0.3498 -0.6876 -0.3256
 1997SOL    HW117624   0.458   1.429  11.488  2.4515 -1.9692 -1.8278
 1997SOL    HW217625   0.436   1.424  11.638  1.4505  0.1692  0.3810
 1998SOL     OW17626   0.290   3.227  10.845  0.4446 -0.0871  0.0072
 1998SOL    HW117627   0.370   3.280  10.849  1.5944 -1.7565 -0.5628
 1998SOL    HW217628   0.292   3.190  10.757 -1.3378  0.3890 -0.2222
 1999SOL     OW17629   3.273   1.199   3.142 -1.0298  0.6073 -0.1799
 1999SOL    HW117630   3.335   1.167   3.076  1.2109  2.4828  1.0185
 1999SOL    HW217631   3.192   1.149   3.130 -0.0565 -0.5315 -2.0070
 2000SOL     OW17632   4.368   1.602   7.725 -0.4320  0.1086  0.4988
 2000SOL    HW117633   4.403   1.690   7.740 -0.5603  0.1058  0.8167
 2000SOL    HW217634   4.380   1.593   7.630 -0.2279 -0.9938  0.6294
 2001SOL     OW17635   3.493   3.445   8.865  0.0126 -0.0632 -0.3616
 2001SOL    HW117636   3.457   3.467   8.951  3.2395 -0.9696  1.2240
 2001SOL    HW217637   3.526   3.356   8.877  2.2471  0.7677 -0.4117
 2002SOL     OW17638   3.835   3.840   5.806  0.4971 -0.3974 -0.0046
 2002SOL    HW117639   3.790   3.758   5.826  0.7471  0.1666  2.8507
 2002SOL    HW217640   3.766   3.900   5.778  0.6601 -0.5097 -0.6473
 2003SOL     OW17641   4.577   3.283  13.517  0.0573  0.1923 -0.0938
 2003SOL    HW117642   4.659   3.311  13.477 -0.5304 -0.1552 -1.5268
 2003SOL    HW217643   4.577   3.341  13.593  0.0808 -0.6904  0.5896
 2004SOL     OW17644   3.006   1.927  11.146 -0.2555 -0.3655 -0.6251
 2004SOL    HW117645   3.037   2.017  11.160 -1.1531 -0.2895  0.8210
 2004SOL    HW217646   2.911   1.935  11.153 -0.1398  0.5629 -0.0586
 2005SOL     OW17647   0.610   1.337   2.306 -0.1322 -0.4123 -0.4234
 2005SOL    HW117648   0.589   1.400   2.375 -2.4056 -3.1398  1.3773
 2005SOL    HW217649   0.704   1.336   2.325 -0.3880 -1.3840  0.8006
 2006SOL     OW17650   1.027   0.074   6.645 -0.5685  0.3201  0.2832
 2006SOL    HW117651   0.996   0.089   6.735  1.0261 -1.4897  1.1297
 2006SOL    HW217652   1.013   0.162   6.609  0.3590  0.3074 -0.1072
 2007SOL     OW17653   3.398   3.630   2.665 -0.2110  0.1316 -0.0539
 2007SOL    HW117654   3.467   3.690   2.635 -0.2877  0.4822  0.4750
 2007SOL    HW217655   3.439   3.597   2.745 -0.3518  2.4758  0.9729
 2008SOL     OW17656   1.497   3.680   3.649  0.0513  0.2057 -0.0077
 2008SOL    HW117657   1.513   3.738   3.723  0.4901  0.0054  0.0524
 2008SOL    HW217658   1.552   3.724   3.585  0.0657  0.2323  0.0234
 2009SOL     OW17659   3.996   0.258   8.585  0.5014  0.1716 -0.4574
 2009SOL    HW117660   4.078   0.208   8.585 -0.0883 -0.7976 -0.5219
 2009SOL    HW217661   4.009   0.324   8.517  3.0554 -0.7378 -0.8573
 2010SOL     OW17662   4.578   2.426  12.818  0.4568 -0.4176 -0.3203
 2010SOL    HW117663   4.660   2.380  12.834 -0.5382 -1.9544  0.4092
 2010SOL    HW217664   4.592   2.472  12.735  2.3307 -1.5644 -0.6219
 2011SOL     OW17665   0.683   1.399  13.748  0.3225  1.4376  0.4281
 2011SOL    HW117666   0.689   1.491  13.777 -1.0589  1.2629  1.2612
 2011SOL    HW217667   0.589   1.379  13.753  1.4828 -3.6335  1.4995
 2012SOL     OW17668   4.201   1.239   8.716  0.0351  0.7612  0.1524
 2012SOL    HW117669   4.278   1.248   8.772 -0.0850 -0.0117  0.4307
 2012SOL    HW217670   4.143   1.177   8.760  1.3970 -0.9159 -0.4556
 2013SOL     OW17671   2.018   3.406   7.423  0.2298 -0.8345  0.8426
 2013SOL    HW117672   2.040   3.473   7.359 -0.4738 -2.9438 -1.6226
 2013SOL    HW217673   2.100   3.357   7.429 -1.3945 -3.6173  0.8501
 2014SOL     OW17674   1.995   2.699   8.388  0.8559 -0.3796 -0.0954
 2014SOL    HW117675   2.067   2.750   8.425  0.3263  1.3133 -1.4158
 2014SOL    HW217676   1.973   2.636   8.457 -2.2115  1.8379  0.9524
 2015SOL     OW17677   0.399   3.781   7.198  0.2136  0.4027  0.0348
 2015SOL    HW117678   0.406   3.877   7.202  0.3646  0.3439  1.2214
 2015SOL    HW217679   0.311   3.778   7.237 -0.5913 -0.8038 -1.8928
 2016SOL     OW17680   0.907   2.637   4.862 -0.1145 -0.2962 -0.0795
 2016SOL    HW117681   1.001   2.622   4.853  0.3321  0.4485  3.0931
 2016SOL    HW217682   0.880   2.546   4.867  1.9889 -1.0717 -2.6268
 2017SOL     OW17683   3.465   1.953   0.896  0.0210 -0.9485  0.5081
 2017SOL    HW117684   3.526   2.019   0.928 -1.1926 -1.1196  3.1945
 2017SOL    HW217685   3.486   1.882   0.957  0.8176 -0.2034  1.1004
 2018SOL     OW17686   0.142   3.124   3.175 -0.1306  0.3036  0.1607
 2018SOL    HW117687   0.073   3.184   3.148  0.4734  0.9647  0.0955
 2018SOL    HW217688   0.212   3.187   3.192 -0.7577  0.8838  0.6076
 2019SOL     OW17689   4.430   1.245   4.340  0.8963  0.3598  0.2928
 2019SOL    HW117690   4.515   1.223   4.301  0.6654 -2.8122  1.5609
 2019SOL    HW217691   4.464   1.241   4.430  0.4708 -0.4394  0.4131
 2020SOL     OW17692   4.645   3.654   5.128 -0.0816  0.1629 -0.1993
 2020SOL    HW117693   4.660   3.624   5.218  1.7601 -2.7939 -1.5238
 2020SOL    HW217694   4.690   3.587   5.078 -2.6481 -0.9017 -1.1022
 2021SOL     OW17695   1.929   3.665   2.463 -0.4731 -0.0395  0.0955
 2021SOL    HW117696   1.935   3.579   2.421 -1.5945  0.2415 -0.6465
 2021SOL    HW217697   2.021   3.676   2.487 -1.4264 -1.9495  4.5497
 2022SOL     OW17698   0.977   3.294   8.912  0.0905 -0.7618 -0.3773
 2022SOL    HW117699   1.025   3.322   8.834 -0.4700  0.2101 -0.3709
 2022SOL    HW217700   0.897   3.347   8.910  1.2357  1.0187  0.8385
 2023SOL     OW17701   4.688   2.706   6.717  0.2607  0.0768  0.6222
 2023SOL    HW117702   4.609   2.684   6.668  0.3975 -1.8075  1.2738
 2023SOL    HW217703   0.010   2.750   6.654  0.2479 -1.9555 -0.8086
 2024SOL     OW17704   0.346   0.729   7.689  0.2942 -0.2703  0.3068
 2024SOL    HW117705   0.329   0.671   7.615 -1.9823 -1.2302  1.5582
 2024SOL    HW217706   0.431   0.763   7.662  0.4937 -1.0486 -0.0512
 2025SOL     OW17707   4.015   0.504  11.830  0.2262 -0.3382  0.0710
 2025SOL    HW117708   3.942   0.506  11.891  2.3814  0.7738  2.5764
 2025SOL    HW217709   4.069   0.426  11.843  2.2622  0.8964 -0.7703
 2026SOL     OW17710   0.390   3.643   7.442  0.3489 -0.2401  0.7018
 2026SOL    HW117711   0.381   3.548   7.449 -1.5533  0.0110  1.5714
 2026SOL    HW217712   0.413   3.656   7.350 -1.7039  0.5033  0.3091
 2027SOL     OW17713   1.648   0.628   3.702  0.1193  0.3736  0.2542
 2027SOL    HW117714   1.680   0.715   3.678  0.4817  0.1405 -0.1007
 2027SOL    HW217715   1.559   0.653   3.726  0.1921 -1.3810  2.3645
 2028SOL     OW17716   3.061   1.548   8.828 -0.1029  0.3023 -0.1643
 2028SOL    HW117717   3.073   1.494   8.751  2.1852  1.3541 -0.5378
 2028SOL    HW217718   3.015   1.491   8.890  0.3486 -0.3040 -0.3864
 2029SOL     OW17719   2.746   0.790   4.025  0.4123  0.1243  0.0697
 2029SOL    HW117720   2.768   0.864   4.083  0.3658 -1.4606  2.1150
 2029SOL    HW217721   2.678   0.834   3.974 -0.6344 -1.9372 -0.2928
 2030SOL     OW17722   3.811   0.783  16.696 -0.2008  0.2311 -0.2677
 2030SOL    HW117723   3.829   0.868  16.657  0.6175 -0.0463 -0.4929
 2030SOL    HW217724   3.899   0.751  16.715  0.3862  0.4552 -2.5638
 2031SOL     OW17725   2.744   0.170   7.447  0.2214  0.2456 -0.2055
 2031SOL    HW117726   2.659   0.195   7.412  1.1373 -0.0507 -2.6742
 2031SOL    HW217727   2.792   0.247   7.415  1.0672 -1.0777 -2.0881
 2032SOL     OW17728   1.535   2.116   5.820 -0.6127  0.3620  0.3306
 2032SOL    HW117729   1.616   2.126   5.769 -0.9600  2.0830  0.1387
 2032SOL    HW217730   1.525   2.201   5.863  0.3464  1.1020 -0.8787
 2033SOL     OW17731   2.345   4.731  13.783 -0.0310  0.3885  0.1152
 2033SOL    HW117732   2.320   0.036  13.699  0.0800  0.3017  0.0403
 2033SOL    HW217733   2.406   4.671  13.740  0.6513  0.1024  1.4767
 2034SOL     OW17734   1.140   1.932   2.621  0.5947  0.3212  0.0369
 2034SOL    HW117735   1.161   1.951   2.712  2.0397 -1.6322  0.1075
 2034SOL    HW217736   1.175   1.844   2.614  0.3297 -0.0313  3.2336
 2035SOL     OW17737   3.210   3.816   4.111 -0.3148  0.0589 -0.0533
 2035SOL    HW117738   3.205   3.723   4.135  0.0618  0.5864  2.1321
 2035SOL    HW217739   3.303   3.834   4.125 -0.4593  0.5051  0.3501
 2036SOL     OW17740   1.969   2.692  13.276 -0.1998  0.0613  0.6669
 2036SOL    HW117741   2.046   2.695  13.333  0.4824  0.0397 -0.2668
 2036SOL    HW217742   1.899   2.700  13.342 -1.7096 -1.2647 -0.7683
 2037SOL     OW17743   1.302   3.590  16.319  0.3039 -0.1166 -0.3946
 2037SOL    HW117744   1.213   3.607  16.289 -0.1207 -1.3632  0.1779
 2037SOL    HW217745   1.281   3.558  16.407 -2.1544  0.6406 -0.7288
 2038SOL     OW17746   2.220   3.812   3.358  0.4250 -0.4576  0.2497
 2038SOL    HW117747   2.190   3.726   3.329 -2.6031  0.7898 -0.2976
 2038SOL    HW217748   2.280   3.845   3.290 -0.4511  0.4530 -0.0801
 2039SOL     OW17749   3.228   4.142  14.365 -0.2261  0.2822  0.3523
 2039SOL    HW117750   3.208   4.164  14.455 -2.2175  0.2585 -0.0714
 2039SOL    HW217751   3.180   4.212  14.321 -1.0227 -0.0798  0.6338
 2040SOL     OW17752   0.536   1.773  12.157  0.4572 -0.4969  0.1070
 2040SOL    HW117753   0.551   1.735  12.243  1.0515  1.3861  0.8336
 2040SOL    HW217754   0.595   1.847  12.157  0.9450 -0.8729 -2.2572
 2041SOL     OW17755   1.568   4.297   5.185 -0.4240 -0.2220 -0.3479
 2041SOL    HW117756   1.599   4.319   5.273 -2.0271  1.9714 -0.3215
 2041SOL    HW217757   1.476   4.322   5.178 -0.5781 -1.6863 -3.7587
 2042SOL     OW17758   1.939   4.044   3.560  0.2820  0.0949 -0.2695
 2042SOL    HW117759   1.860   4.056   3.613  0.4487  1.4585 -0.3415
 2042SOL    HW217760   1.906   3.985   3.492  0.2423  0.4269 -0.5391
 2043SOL     OW17761   0.747   0.155   9.105 -0.4281 -0.2232 -0.2554
 2043SOL    HW117762   0.689   0.079   9.098 -2.0844  0.8354  1.9617
 2043SOL    HW217763   0.684   0.227   9.099 -0.3441 -0.0747  0.7439
 2044SOL     OW17764   0.724   3.632  10.740 -0.1800 -0.4885  0.7423
 2044SOL    HW117765   0.816   3.623  10.716  0.0759  3.0860  0.4647
 2044SOL    HW217766   0.690   3.600  10.657 -2.2292 -0.4213  1.5575
 2045SOL     OW17767   3.494   3.103  15.572 -0.8434  0.0323 -0.3564
 2045SOL    HW117768   3.458   3.109  15.483 -2.4004  0.7649  0.3222
 2045SOL    HW217769   3.586   3.125  15.560 -1.3952  1.8032 -1.4699
 2046SOL     OW17770   3.506   1.801   4.382  0.3388 -0.3624  0.1800
 2046SOL    HW117771   3.442   1.863   4.416  1.3128  0.2146  0.9593
 2046SOL    HW217772   3.445   1.729   4.366  1.2414 -1.5709  2.0389
 2047SOL     OW17773   3.790   3.039   8.276 -0.1626  0.3789  0.5491
 2047SOL    HW117774   3.704   3.052   8.317 -1.5800 -0.7929 -2.0804
 2047SOL    HW217775   3.848   3.029   8.351  0.6744  0.8684 -0.0285
 2048SOL     OW17776   4.623   3.449   2.016  0.6801  0.5659  0.1864
 2048SOL    HW117777   4.590   3.382   1.956  0.9649  0.3513  0.2698
 2048SOL    HW217778   4.695   3.481   1.961  0.1217  1.8951  0.2353
 2049SOL     OW17779   1.812   0.946   7.420  0.4282  0.0024 -0.1775
 2049SOL    HW117780   1.881   1.010   7.436  0.8736 -0.4745 -0.1918
 2049SOL    HW217781   1.862   0.879   7.373  0.6292 -0.1070  0.1927
 2050SOL     OW17782   0.301   3.790   9.686 -0.3895  0.1288 -0.4058
 2050SOL    HW117783   0.254   3.874   9.678 -1.0299 -0.1089  0.9527
 2050SOL    HW217784   0.352   3.799   9.605  3.1600 -4.0621  1.4003
 2051SOL     OW17785   0.262   3.182   7.097 -0.2804 -0.6242  0.1038
 2051SOL    HW117786   0.326   3.157   7.163 -1.2632 -2.1156  0.4904
 2051SOL    HW217787   0.324   3.223   7.036  0.3136 -1.2834  0.2693
 2052SOL     OW17788   4.096   2.437  11.725 -0.7462  0.0489 -0.3192
 2052SOL    HW117789   4.116   2.359  11.674  0.5792 -0.6593  1.2558
 2052SOL    HW217790   4.036   2.410  11.794  0.2446 -0.6484  0.2665
 2053SOL     OW17791   0.747   3.991   4.912  0.2920 -0.1713 -0.2020
 2053SOL    HW117792   0.654   4.011   4.915  0.4688  0.6066  0.0464
 2053SOL    HW217793   0.781   4.031   4.992 -1.7076 -0.2228  0.6574
 2054SOL     OW17794   4.258   4.086   7.050  0.1220 -0.3683  0.4131
 2054SOL    HW117795   4.270   4.141   7.127 -1.6589  0.8603 -0.1822
 2054SOL    HW217796   4.254   4.002   7.096 -0.3501 -0.1191  0.8143
 2055SOL     OW17797   3.664   4.227   8.774 -0.5684  0.0962 -0.4831
 2055SOL    HW117798   3.570   4.232   8.756 -0.5465  0.4449 -0.5081
 2055SOL    HW217799   3.694   4.220   8.684  0.7619 -0.5762  0.0115
 2056SOL     OW17800   0.658   1.786  11.578 -0.1420 -0.0686  0.1062
 2056SOL    HW117801   0.605   1.865  11.585 -0.0050 -0.0872  1.2408
 2056SOL    HW217802   0.594   1.723  11.544 -1.2562  0.7590  0.6574
 2057SOL     OW17803   1.721   0.789  16.570  0.1367 -0.4872 -0.6601
 2057SOL    HW117804   1.742   0.696  16.580  0.4610 -0.1810  1.4817
 2057SOL    HW217805   1.789   0.820  16.511  0.5592 -0.5969 -0.2322
 2058SOL     OW17806   2.174   4.413   2.234  0.0390  0.5272 -0.2333
 2058SOL    HW117807   2.197   4.487   2.291 -0.4629 -0.2563  0.9718
 2058SOL    HW217808   2.223   4.431   2.154 -1.1027  1.5046 -0.7239
 2059SOL     OW17809   3.933   0.362   1.561  0.2347 -0.6556 -0.2954
 2059SOL    HW117810   4.007   0.416   1.590 -1.1755  0.9299  0.3921
 2059SOL    HW217811   3.898   0.404   1.483 -3.9208 -1.4263  1.1653
 2060SOL     OW17812   1.474   2.274   1.560  0.1852 -0.2952 -0.1105
 2060SOL    HW117813   1.474   2.181   1.538 -0.6490 -1.0314  2.9731
 2060SOL    HW217814   1.520   2.272   1.645  2.0258 -0.8263 -1.1116
 2061SOL     OW17815   1.452   3.670   6.443  0.0526 -0.1929 -0.3268
 2061SOL    HW117816   1.502   3.650   6.522  0.6313  0.9307 -0.4150
 2061SOL    HW217817   1.463   3.765   6.448  1.0969 -0.2711 -1.3031
 2062SOL     OW17818   4.314   2.456   3.895  0.1845 -0.3830 -0.4015
 2062SOL    HW117819   4.294   2.396   3.967 -0.2409  0.7011  0.3831
 2062SOL    HW217820   4.231   2.447   3.847  0.6154  1.6218 -1.4987
 2063SOL     OW17821   1.491   1.710  17.679 -0.2462 -0.4452  0.3203
 2063SOL    HW117822   1.434   1.780  17.712 -1.2412 -1.1494  0.1209
 2063SOL    HW217823   1.531   1.756  17.605 -2.4127  1.1687  0.1392
 2064SOL     OW17824   3.149   1.136   7.579 -0.8976  0.3508 -0.3107
 2064SOL    HW117825   3.207   1.072   7.538 -0.0727  1.3390 -0.6944
 2064SOL    HW217826   3.070   1.086   7.557 -1.0213  0.5284 -0.2678
 2065SOL     OW17827   1.197   1.773   0.872 -0.8506 -0.0703  0.6051
 2065SOL    HW117828   1.106   1.748   0.891 -0.4453 -1.7094  0.4225
 2065SOL    HW217829   1.186   1.818   0.789  2.3728 -0.3789  0.0147
 2066SOL     OW17830   2.830   0.246   5.369  0.0150 -0.3425  0.3201
 2066SOL    HW117831   2.864   0.191   5.439 -0.4091 -1.5118 -0.3974
 2066SOL    HW217832   2.766   0.307   5.406  0.6913  0.5785 -0.0293
 2067SOL     OW17833   3.121   0.432  10.699 -0.4182 -0.5876  0.3556
 2067SOL    HW117834   3.032   0.448  10.731 -0.9539 -0.2385 -1.3130
 2067SOL    HW217835   3.131   0.515  10.654  1.6940 -1.3524 -0.5615
 2068SOL     OW17836   3.778   3.922   2.710 -0.2765 -0.2838 -0.0912
 2068SOL    HW117837   3.702   3.907   2.767  0.3115 -0.0577  0.7538
 2068SOL    HW217838   3.767   4.012   2.680 -0.8634 -0.5882 -0.7851
 2069SOL     OW17839   2.318   0.246   4.547  0.4479 -0.6236  0.5675
 2069SOL    HW117840   2.399   0.195   4.543  1.0319  0.2136  1.8561
 2069SOL    HW217841   2.277   0.199   4.619 -2.9914  3.3546  1.1813
 2070SOL     OW17842   4.442   2.257  17.019 -0.4106  0.3635 -0.2949
 2070SOL    HW117843   4.511   2.239  17.083  0.3856  0.4563 -1.1256
 2070SOL    HW217844   4.481   2.331  16.972 -1.8435  1.3447  0.0623
 2071SOL     OW17845   3.189   3.183   6.560 -0.1846  0.1434  0.5540
 2071SOL    HW117846   3.229   3.262   6.597 -1.8298  0.6974  1.1267
 2071SOL    HW217847   3.255   3.115   6.542 -1.9582 -1.5768  0.4956
 2072SOL     OW17848   2.282   2.823  11.606 -0.0114  0.2383  0.1133
 2072SOL    HW117849   2.331   2.741  11.598 -2.2296 -1.0914  0.3731
 2072SOL    HW217850   2.293   2.853  11.516 -0.1216 -1.3560 -0.4294
 2073SOL     OW17851   1.056   0.554   2.254  0.7483 -0.1061 -0.0067
 2073SOL    HW117852   0.995   0.481   2.265  0.6692 -0.0583 -0.1254
 2073SOL    HW217853   1.005   0.635   2.252 -0.8197 -1.0887  0.3303
 2074SOL     OW17854   0.261   2.594   3.648 -0.0789 -0.5091 -0.8459
 2074SOL    HW117855   0.197   2.586   3.719  0.2168  0.0597 -0.5102
 2074SOL    HW217856   0.201   2.612   3.576 -1.2402 -2.2759 -0.3212
 2075SOL     OW17857   0.230   4.059  15.670  0.3790  0.0769 -0.1816
 2075SOL    HW117858   0.318   4.069  15.634  0.7618  0.8682  0.9733
 2075SOL    HW217859   0.190   4.020  15.592  0.1231 -1.4351  0.6951
 2076SOL     OW17860   1.952   2.149  12.826 -0.2378  0.3060 -0.3242
 2076SOL    HW117861   1.925   2.058  12.837  0.1549  0.4251  1.6260
 2076SOL    HW217862   1.920   2.171  12.739 -1.1056  1.6188  0.3338
 2077SOL     OW17863   2.105   2.510   1.188 -0.3114  0.6478  0.4009
 2077SOL    HW117864   2.021   2.498   1.232 -0.6163  0.3897 -0.2472
 2077SOL    HW217865   2.089   2.599   1.156 -0.3536  0.5587  0.1750
 2078SOL     OW17866   3.184   4.505   6.739  0.1608 -0.0274 -0.3759
 2078SOL    HW117867   3.213   4.415   6.749  0.0084 -0.0661 -0.2722
 2078SOL    HW217868   3.097   4.500   6.780  0.5517  0.8905  0.5826
 2079SOL     OW17869   2.162   0.650   5.977  0.4765  0.0699  0.8952
 2079SOL    HW117870   2.238   0.672   5.924  0.3774 -2.1452 -0.1704
 2079SOL    HW217871   2.154   0.555   5.988  0.3291  0.0003  0.1590
 2080SOL     OW17872   1.052   0.234   8.433  0.0823  0.0804 -0.2256
 2080SOL    HW117873   1.069   0.299   8.501  0.3478 -1.0684  0.7929
 2080SOL    HW217874   1.016   0.163   8.485 -2.5686  0.4042 -1.6523
 2081SOL     OW17875   2.224   4.317  17.708 -0.8639  0.0903  0.0688
 2081SOL    HW117876   2.267   4.254   0.026 -2.7269 -2.8573 -1.7819
 2081SOL    HW217877   2.150   4.345   0.022 -0.5272 -0.8678  1.0422
 2082SOL     OW17878   4.272   3.565   1.365 -0.2688  0.2070  0.2079
 2082SOL    HW117879   4.261   3.580   1.459  1.7196  0.8116  0.3406
 2082SOL    HW217880   4.181   3.579   1.341  0.1032  0.4462 -1.0849
 2083SOL     OW17881   2.962   1.954   4.044 -0.4832 -0.5138  0.1616
 2083SOL    HW117882   2.945   2.041   4.079  0.3961 -0.5850  0.7785
 2083SOL    HW217883   2.901   1.954   3.970  0.9660  0.2783 -1.0251
 2084SOL     OW17884   2.530   0.381   6.317 -0.0103 -0.7947 -0.4484
 2084SOL    HW117885   2.513   0.317   6.248 -0.5995 -0.6808 -0.4120
 2084SOL    HW217886   2.552   0.457   6.263  0.7705 -1.1311 -0.6036
 2085SOL     OW17887   0.831   4.337   9.644  0.0559 -0.1990 -0.1767
 2085SOL    HW117888   0.827   4.330   9.549  1.0885 -0.5287 -0.1957
 2085SOL    HW217889   0.821   4.431   9.661 -0.2608 -0.4795  1.2482
 2086SOL     OW17890   0.878   0.636  11.924 -0.8750 -0.1420  0.1027
 2086SOL    HW117891   0.885   0.623  12.018 -0.9327 -2.1975 -0.1837
 2086SOL    HW217892   0.860   0.728  11.906  0.2636  0.4021  1.7302
 2087SOL     OW17893   3.718   3.564   4.268  0.0875  0.4102 -0.4739
 2087SOL    HW117894   3.811   3.586   4.268  0.1426  0.1790 -0.2902
 2087SOL    HW217895   3.696   3.578   4.360  1.2637  0.0669 -0.1411
 2088SOL     OW17896   2.033   1.929  12.151  0.1631  0.2916  0.6598
 2088SOL    HW117897   2.122   1.918  12.119 -0.5819 -1.8505 -0.6694
 2088SOL    HW217898   2.001   1.997  12.091  1.4502  0.8216  0.5699
 2089SOL     OW17899   3.195   0.126   4.707  0.0005 -0.6186  0.3558
 2089SOL    HW117900   3.207   0.043   4.661  2.0841  0.9194 -1.9146
 2089SOL    HW217901   3.288   0.134   4.730  0.2509  0.5021 -0.9725
 2090SOL     OW17902   1.425   1.779  12.119 -0.7521  0.2903  0.1987
 2090SOL    HW117903   1.357   1.794  12.054  0.0303 -1.3297 -0.9799
 2090SOL    HW217904   1.364   1.795  12.192 -0.2680  0.4954  0.5567
 2091SOL     OW17905   1.372   2.631   3.720 -0.3374 -0.5137  0.4753
 2091SOL    HW117906   1.411   2.709   3.760 -0.4800  0.5579 -1.4417
 2091SOL    HW217907   1.347   2.590   3.803  1.0368 -0.6708  0.8127
 2092SOL     OW17908   0.487   0.349   7.180 -0.0458 -0.4236 -0.2978
 2092SOL    HW117909   0.581   0.336   7.164  0.1249  0.7536 -0.2420
 2092SOL    HW217910   0.446   0.268   7.210 -0.0960 -0.2995 -0.0304
 2093SOL     OW17911   0.672   1.693   1.637  0.2576 -0.0101  0.7878
 2093SOL    HW117912   0.757   1.709   1.596 -0.5447 -0.3754 -1.0164
 2093SOL    HW217913   0.666   1.784   1.664  0.4894  0.4165 -0.5648
 2094SOL     OW17914   4.419   4.209   6.831 -0.4588  0.2109 -0.2828
 2094SOL    HW117915   4.335   4.250   6.812 -0.1252  0.8108 -0.4705
 2094SOL    HW217916   4.395   4.151   6.903  0.1859 -1.6862 -1.5942
 2095SOL     OW17917   3.978   0.185   3.798 -0.0996  0.3265  0.5601
 2095SOL    HW117918   3.896   0.217   3.834 -1.0647 -0.8551 -0.5764
 2095SOL    HW217919   3.952   0.101   3.760  4.6915 -0.2407 -1.5017
 2096SOL     OW17920   4.113   0.642   5.770  0.2697  0.0344 -0.1965
 2096SOL    HW117921   4.038   0.674   5.821  1.3863  1.5935  0.4678
 2096SOL    HW217922   4.094   0.549   5.759  0.6602 -0.2522  1.5499
 2097SOL     OW17923   0.319   0.788   8.859 -0.1254 -0.2776 -0.5769
 2097SOL    HW117924   0.325   0.784   8.955  1.2921 -0.7736 -0.6850
 2097SOL    HW217925   0.326   0.693   8.845  2.2286 -0.5912  2.6196
 2098SOL     OW17926   0.576   3.884   2.486 -0.0439  0.2031  0.4163
 2098SOL    HW117927   0.504   3.884   2.423  0.0045 -2.8959  0.3498
 2098SOL    HW217928   0.537   3.930   2.560 -1.0412  0.3945 -0.2310
 2099SOL     OW17929   3.049   4.698   7.045 -0.2375  0.2487 -0.2371
 2099SOL    HW117930   2.995   0.041   7.061  1.4166  0.6916  3.0438
 2099SOL    HW217931   3.134   4.734   7.070  0.3227 -0.2870 -1.3809
 2100SOL     OW17932   0.542   0.029   4.676  0.4142 -0.4010 -0.3112
 2100SOL    HW117933   0.601   0.102   4.657 -0.6664  0.3823 -0.7119
 2100SOL    HW217934   0.505   0.011   4.590 -1.5005 -0.0843  0.4300
 2101SOL     OW17935   3.903   0.767   8.058  0.2189 -0.1872 -0.1929
 2101SOL    HW117936   3.905   0.686   8.109 -1.3471 -0.6064 -0.8189
 2101SOL    HW217937   3.833   0.750   7.996 -0.2128 -0.7735  0.4562
 2102SOL     OW17938   2.279   1.240   8.041  0.1875  0.2818  0.3803
 2102SOL    HW117939   2.373   1.254   8.042  0.1645  0.3536  1.7691
 2102SOL    HW217940   2.249   1.284   8.120 -0.4071 -2.9462  1.9608
 2103SOL     OW17941   3.555   1.358   3.928  0.2822  0.2912  0.5629
 2103SOL    HW117942   3.549   1.271   3.889 -1.0199 -0.4560  2.4475
 2103SOL    HW217943   3.507   1.401   3.857 -1.3262 -2.8468 -0.2522
 2104SOL     OW17944   0.517   1.538   9.016  0.5242  0.4690 -0.2862
 2104SOL    HW117945   0.582   1.609   9.021 -0.1105  1.1702 -1.8372
 2104SOL    HW217946   0.516   1.515   8.923 -2.7565  2.8503 -0.8509
 2105SOL     OW17947   2.854   4.399  11.570 -0.4114  0.4880  0.0349
 2105SOL    HW117948   2.858   4.307  11.598  2.5568  0.2092 -1.2996
 2105SOL    HW217949   2.867   4.387  11.476 -0.8041 -1.6943  0.2510
 2106SOL     OW17950   2.878   2.686  16.147  0.3550 -0.0307 -0.1785
 2106SOL    HW117951   2.787   2.661  16.161  0.3947 -1.1809 -1.9329
 2106SOL    HW217952   2.915   2.602  16.118 -0.3476  0.2647 -1.8944
 2107SOL     OW17953   3.160   3.678   9.926 -0.4419  0.2458 -0.0601
 2107SOL    HW117954   3.227   3.740   9.953  0.5614 -0.1725 -1.5344
 2107SOL    HW217955   3.082   3.726   9.954 -0.7312  0.0705 -0.5602
 2108SOL     OW17956   0.320   3.781   2.671  0.4514  0.3306 -0.0295
 2108SOL    HW117957   0.268   3.784   2.590  0.4007  2.5358  0.0756
 2108SOL    HW217958   0.296   3.695   2.706  0.9403 -0.3882 -1.4810
 2109SOL     OW17959   4.219   4.616   7.769  0.3792 -0.0383  0.8570
 2109SOL    HW117960   4.170   4.687   7.810 -0.0042 -0.0374  0.3916
 2109SOL    HW217961   4.234   4.559   7.845 -2.6669 -2.1522 -0.1224
 2110SOL     OW17962   3.460   3.222   5.838 -0.2039  0.0082  0.6969
 2110SOL    HW117963   3.388   3.269   5.797 -1.1862 -1.6446  0.5264
 2110SOL    HW217964   3.534   3.265   5.795 -0.8338 -0.1586 -0.5545
 2111SOL     OW17965   2.391   2.265   8.868 -0.4111  0.4084 -1.3314
 2111SOL    HW117966   2.324   2.264   8.937  2.1003  2.2499  1.1353
 2111SOL    HW217967   2.363   2.339   8.813 -1.6827  0.0322 -1.1782
 2112SOL     OW17968   1.660   1.749   1.766 -0.5414 -0.3623  0.1907
 2112SOL    HW117969   1.739   1.717   1.809  1.7021  1.1302 -2.7759
 2112SOL    HW217970   1.615   1.665   1.778 -1.5893  0.0607 -0.6958
 2113SOL     OW17971   3.085   2.749  10.920 -0.0071 -1.1387  0.6844
 2113SOL    HW117972   2.999   2.709  10.911 -0.3264 -0.4306  0.5592
 2113SOL    HW217973   3.087   2.790  11.006 -1.2698 -0.3896  0.3502
 2114SOL     OW17974   3.385   2.364  15.422 -0.5684  0.2849 -0.6895
 2114SOL    HW117975   3.407   2.340  15.332  1.1619  0.6744 -0.3638
 2114SOL    HW217976   3.444   2.438  15.437  1.9434 -1.8627  0.0210
 2115SOL     OW17977   2.649   0.670   3.103 -0.2955  0.0025  0.0764
 2115SOL    HW117978   2.697   0.697   3.025  0.0684 -1.0909 -0.0804
 2115SOL    HW217979   2.562   0.664   3.063 -0.4190 -0.1680  0.3744
 2116SOL     OW17980   4.370   1.025   7.093  0.3184  0.1606 -0.6168
 2116SOL    HW117981   4.358   1.024   7.188 -0.9562 -2.2609 -0.8101
 2116SOL    HW217982   4.443   1.086   7.087  1.3309 -0.9193  0.7329
 2117SOL     OW17983   2.549   2.048   4.148 -0.0426  0.2511 -0.0923
 2117SOL    HW117984   2.463   2.074   4.115  0.7978  0.9954 -1.7627
 2117SOL    HW217985   2.534   2.013   4.235  0.2509 -1.4070 -0.7029
 2118SOL     OW17986   2.839   4.602   9.852  0.0585  0.1155  0.0519
 2118SOL    HW117987   2.760   4.558   9.819  0.4626  0.0167 -0.7905
 2118SOL    HW217988   2.840   4.669   9.783  2.7491  1.4573  1.4009
 2119SOL     OW17989   1.218   1.430   8.959  0.1642 -0.1096 -0.0738
 2119SOL    HW117990   1.298   1.403   9.005 -0.0692  1.7394  1.4309
 2119SOL    HW217991   1.188   1.506   9.009  1.0525 -0.1549  0.5340
 2120SOL     OW17992   3.187   2.629  13.965  0.1799 -0.2758  0.1102
 2120SOL    HW117993   3.269   2.626  14.015 -0.7744 -1.1524  1.5958
 2120SOL    HW217994   3.189   2.568  13.892 -0.4109 -0.3787  0.1827
 2121SOL     OW17995   4.395   0.585   9.882 -0.1989  0.4787  0.0294
 2121SOL    HW117996   4.358   0.501   9.909  2.0440 -0.4637  0.1562
 2121SOL    HW217997   4.484   0.550   9.882  0.1917  1.4835 -0.6827
 2122SOL     OW17998   2.626   1.042  10.986  0.0632 -0.3198 -0.0901
 2122SOL    HW117999   2.671   0.961  10.962  0.2425  0.5792 -2.8498
 2122SOL    HW218000   2.588   1.020  11.071  0.0026  1.4739  0.3504
 2123SOL     OW18001   4.401   3.959  12.824 -0.3013  0.1949  0.4190
 2123SOL    HW118002   4.411   4.042  12.777  1.0628 -0.8885 -1.2462
 2123SOL    HW218003   4.362   3.902  12.758 -2.1041  1.4724  0.3916
 2124SOL     OW18004   0.011   4.294   6.419  0.6704 -0.4128  0.2513
 2124SOL    HW118005   4.662   4.261   6.452 -0.5860  0.6064 -1.9876
 2124SOL    HW218006   0.004   4.383   6.451 -0.9865 -0.7062  0.7310
 2125SOL     OW18007   3.213   4.546   8.425  0.4700  0.2871 -0.7135
 2125SOL    HW118008   3.278   4.477   8.413 -0.9284 -0.6015 -3.1532
 2125SOL    HW218009   3.205   4.578   8.335  1.1596 -0.1456 -0.9251
 2126SOL     OW18010   0.693   3.880   8.854 -0.2178  0.2279 -0.3279
 2126SOL    HW118011   0.711   3.881   8.760 -3.1005 -0.7885 -0.8774
 2126SOL    HW218012   0.745   3.951   8.892  0.1477  1.4063 -3.0138
 2127SOL     OW18013   3.956   0.915   0.790  0.4483  0.1472 -0.1065
 2127SOL    HW118014   4.016   0.918   0.716  0.6550 -2.6831 -0.0461
 2127SOL    HW218015   4.010   0.896   0.867 -1.3781  0.4567  1.2600
 2128SOL     OW18016   3.249   3.251  13.165  0.6711  0.2319 -0.0006
 2128SOL    HW118017   3.261   3.170  13.215  1.1686 -0.5393 -1.3401
 2128SOL    HW218018   3.260   3.323  13.227  1.4752 -0.1922  0.3540
 2129SOL     OW18019   0.097   2.017   4.142 -0.3799 -0.5205  0.2947
 2129SOL    HW118020   0.105   1.926   4.172 -1.8552 -1.0329 -0.8615
 2129SOL    HW218021   0.124   2.005   4.051 -0.1814 -2.4109  0.6065
 2130SOL     OW18022   3.219   0.517  12.012 -0.2654  0.1384 -0.2879
 2130SOL    HW118023   3.148   0.454  12.009 -1.2573  1.3570 -2.3226
 2130SOL    HW218024   3.283   0.461  11.968  0.0499  0.1913  0.0932
 2131SOL     OW18025   2.868   0.240   3.702  0.3821 -0.5266 -0.6261
 2131SOL    HW118026   2.825   0.317   3.664  0.9710 -0.2014 -0.6264
 2131SOL    HW218027   2.845   0.254   3.794 -1.8606 -3.6235 -0.6959
 2132SOL     OW18028   3.533   0.127   1.962  0.2312  0.4272  0.2795
 2132SOL    HW118029   3.481   0.063   2.012  0.3188  1.0942  1.2377
 2132SOL    HW218030   3.465   0.192   1.942  0.4000  0.2378 -0.8952
 2133SOL     OW18031   4.443   0.277   1.399  0.4071 -0.3484 -0.8269
 2133SOL    HW118032   4.456   0.319   1.314 -1.5348  1.7138 -0.0874
 2133SOL    HW218033   4.399   0.200   1.363  0.1179 -0.4106 -0.3403
 2134SOL     OW18034   2.348   1.455   1.716  0.2485  0.4321 -0.2662
 2134SOL    HW118035   2.402   1.393   1.668 -0.1428 -0.3057  0.2414
 2134SOL    HW218036   2.364   1.532   1.662  1.1514  0.7620  0.4778
 2135SOL     OW18037   1.524   2.779   5.269 -0.0041  0.1365 -0.3674
 2135SOL    HW118038   1.552   2.810   5.356  0.8587  2.2481 -1.3856
 2135SOL    HW218039   1.576   2.699   5.263  0.9620  0.8034 -0.8820
 2136SOL     OW18040   0.648   2.070  12.307 -0.0811 -0.1929 -0.3906
 2136SOL    HW118041   0.556   2.089  12.292 -0.0115 -0.6722 -1.4472
 2136SOL    HW218042   0.639   2.035  12.396  1.3395  1.4149  0.3903
 2137SOL     OW18043   3.355   1.847   0.015  0.6608 -0.0976 -0.1388
 2137SOL    HW118044   3.402   1.777  17.708  0.9438  0.8418 -1.2733
 2137SOL    HW218045   3.348   1.917  17.690 -1.1416 -0.5899 -0.4845
 2138SOL     OW18046   4.648   0.057   2.628  0.1759 -0.2975  0.2698
 2138SOL    HW118047   0.002   0.081   2.652  0.1010 -1.0062  1.2410
 2138SOL    HW218048   4.668   4.704   2.596 -0.0040  0.4845 -1.9753
 2139SOL     OW18049   1.730   0.404   7.283 -0.4025 -0.2450  0.1050
 2139SOL    HW118050   1.652   0.362   7.248  0.5754 -0.3398 -1.9230
 2139SOL    HW218051   1.715   0.497   7.268 -0.3246  0.0652  1.9593
 2140SOL     OW18052   1.699   0.827  10.413  0.1881  0.0196  0.2145
 2140SOL    HW118053   1.687   0.773  10.491  0.0145 -0.5405 -0.2004
 2140SOL    HW218054   1.710   0.758  10.348  2.8817  0.8491 -0.2099
 2141SOL     OW18055   4.542   1.329   4.027 -0.4732  0.2970  0.0438
 2141SOL    HW118056   4.459   1.345   3.982 -1.3467 -2.1844  0.7451
 2141SOL    HW218057   4.615   1.360   3.974 -1.0786  0.0180 -0.9506
 2142SOL     OW18058   2.419   3.665   8.296 -0.1975 -0.0289 -0.2467
 2142SOL    HW118059   2.456   3.708   8.373  0.0561 -1.4189  0.4070
 2142SOL    HW218060   2.356   3.604   8.334 -1.5058  1.5818  0.1973
 2143SOL     OW18061   0.786   3.710   4.307 -0.6974  0.0735  0.2337
 2143SOL    HW118062   0.858   3.702   4.246 -1.1131 -1.3620 -0.0718
 2143SOL    HW218063   0.752   3.621   4.294 -1.4273  0.5709 -1.2745
 2144SOL     OW18064   1.317   1.531   1.171  0.4784 -0.4150  0.8510
 2144SOL    HW118065   1.330   1.614   1.126 -3.0731  0.0760  0.7263
 2144SOL    HW218066   1.405   1.494   1.162  0.8000  0.9895 -1.8659
 2145SOL     OW18067   2.600   1.133   7.868  0.2358  0.2370 -0.4088
 2145SOL    HW118068   2.560   1.060   7.916 -0.2826  1.0761  0.4499
 2145SOL    HW218069   2.691   1.105   7.872  0.7608  1.9976  0.0916
 2146SOL     OW18070   3.124   0.653   8.546 -0.1045  0.0602  0.2083
 2146SOL    HW118071   3.179   0.579   8.569 -0.7913 -0.1445  1.1941
 2146SOL    HW218072   3.098   0.689   8.630 -1.2885  0.1829 -0.2000
 2147SOL     OW18073   1.353   3.067   6.606  0.1024  0.5323  0.2574
 2147SOL    HW118074   1.423   3.031   6.552  0.8367  1.1419  0.7996
 2147SOL    HW218075   1.305   3.128   6.550  0.9623  1.0897  0.1208
 2148SOL     OW18076   0.627   2.250   1.767  0.3781  0.2454 -0.0841
 2148SOL    HW118077   0.657   2.279   1.681  0.9978  0.4235  0.1953
 2148SOL    HW218078   0.562   2.319   1.783 -0.2312 -0.0518 -1.2790
 2149SOL     OW18079   4.309   0.660   7.142  0.0462 -0.2399 -0.0143
 2149SOL    HW118080   4.225   0.695   7.113  0.1436 -0.1844 -0.2305
 2149SOL    HW218081   4.286   0.639   7.232 -0.6648 -2.1755 -0.6563
 2150SOL     OW18082   4.723   3.849  15.410 -0.0641 -0.0266  0.1924
 2150SOL    HW118083   0.056   3.915  15.425 -0.2220  0.3674 -0.8716
 2150SOL    HW218084   4.664   3.862  15.484  0.2880 -0.0489  0.4813
 2151SOL     OW18085   0.979   3.937   6.918  0.5232 -0.5549  0.0783
 2151SOL    HW118086   0.925   3.923   6.840  1.7809  0.6996 -1.0131
 2151SOL    HW218087   0.926   4.003   6.963  1.0830  1.1844 -1.8353
 2152SOL     OW18088   3.352   3.396  13.369 -0.2855 -0.4807 -0.0068
 2152SOL    HW118089   3.445   3.396  13.393 -0.3337 -1.1636  0.1783
 2152SOL    HW218090   3.308   3.394  13.454 -1.7596  1.1704 -0.7414
 2153SOL     OW18091   2.996   1.127   3.061  0.2325  0.3389 -0.3635
 2153SOL    HW118092   2.966   1.107   3.150  0.6660 -0.1189 -0.3199
 2153SOL    HW218093   2.959   1.215   3.050 -0.1530  0.0905 -1.1001
 2154SOL     OW18094   0.669   3.072   6.419 -0.2774 -0.6512 -0.4124
 2154SOL    HW118095   0.688   3.020   6.496 -0.2476 -0.4007 -0.2515
 2154SOL    HW218096   0.746   3.054   6.364  0.0517 -0.0560 -0.1461
 2155SOL     OW18097   3.857   0.773   9.050 -0.0788  0.1716  0.0709
 2155SOL    HW118098   3.836   0.848   8.994 -1.8137  0.5792  1.2607
 2155SOL    HW218099   3.769   0.747   9.075 -0.2472 -0.7092 -1.4182
 2156SOL     OW18100   2.694   3.579   8.005 -0.0072 -0.5323 -0.1202
 2156SOL    HW118101   2.742   3.661   8.020  0.3521 -1.0968  1.8260
 2156SOL    HW218102   2.710   3.542   8.092 -1.4900  0.7180  0.6682
 2157SOL     OW18103   3.225   2.528   3.687 -0.4298  0.2009 -0.2513
 2157SOL    HW118104   3.272   2.601   3.647  0.1600 -0.0550 -0.0251
 2157SOL    HW218105   3.281   2.451   3.678 -1.4221 -0.5998  0.3741
 2158SOL     OW18106   0.624   4.243   5.917  0.0352 -0.5385 -0.2764
 2158SOL    HW118107   0.655   4.156   5.943 -0.1037 -0.1992  1.0487
 2158SOL    HW218108   0.675   4.302   5.973  2.6642  0.3438 -3.6238
 2159SOL     OW18109   3.199   1.233   9.016 -0.6195 -0.2267  0.0328
 2159SOL    HW118110   3.271   1.218   8.955 -1.7941 -1.6788 -0.9990
 2159SOL    HW218111   3.185   1.327   9.019 -0.8990 -0.2429 -0.9298
 2160SOL     OW18112   0.990   4.030   3.276  0.1285 -0.5539  0.2932
 2160SOL    HW118113   0.998   4.008   3.369  0.8450  3.5840  1.1838
 2160SOL    HW218114   1.054   4.101   3.271 -0.7676  0.3351  1.2534
 2161SOL     OW18115   4.290   3.719   2.342 -0.2871  0.0568  0.5473
 2161SOL    HW118116   4.268   3.668   2.420  2.5652  1.0536  2.0315
 2161SOL    HW218117   4.203   3.750   2.316  0.5240  2.4703  0.7688
 2162SOL     OW18118   4.615   2.146   0.397  0.3150  0.3989 -0.0527
 2162SOL    HW118119   4.705   2.128   0.370 -0.4678  3.2573 -4.5137
 2162SOL    HW218120   4.631   2.217   0.459 -0.4678  0.1436  0.4507
 2163SOL     OW18121   3.971   4.140  10.786 -0.2456  0.0469  0.2743
 2163SOL    HW118122   3.953   4.234  10.782 -0.0318  0.0491 -0.6161
 2163SOL    HW218123   4.028   4.131  10.710  1.0561 -0.2931  1.2977
 2164SOL     OW18124   1.900   0.020   9.858 -0.1836  0.6077 -0.5290
 2164SOL    HW118125   1.848   0.025   9.939 -3.1939 -2.7901 -2.2460
 2164SOL    HW218126   1.905   0.112   9.833  1.7571  0.4460 -0.7213
 2165SOL     OW18127   0.461   4.092   8.696 -0.3887  0.2638 -0.2687
 2165SOL    HW118128   0.452   4.174   8.746 -0.7274 -0.8003  1.4296
 2165SOL    HW218129   0.518   4.137   8.634 -0.4922  0.8109  0.0263
 2166SOL     OW18130   2.635   2.771   2.390 -0.0223  0.6003  0.1394
 2166SOL    HW118131   2.587   2.814   2.462 -0.0541  4.3555 -2.1180
 2166SOL    HW218132   2.595   2.820   2.318  0.7423 -0.5072 -1.0368
 2167SOL     OW18133   2.390   2.106   5.873  0.3714 -0.2273 -0.2174
 2167SOL    HW118134   2.322   2.095   5.939  1.2718 -0.5714  0.6545
 2167SOL    HW218135   2.454   2.156   5.923  2.7303 -1.8038 -1.6196
 2168SOL     OW18136   1.040   3.001  14.391 -0.1464  0.3626 -0.2701
 2168SOL    HW118137   0.952   2.963  14.387  0.2263 -0.1385 -3.3931
 2168SOL    HW218138   1.092   2.954  14.326 -2.0629 -0.6175 -1.0975
 2169SOL     OW18139   3.879   3.204  11.968  0.3548 -0.7349 -0.2280
 2169SOL    HW118140   3.888   3.238  12.057  0.7179  1.6814 -1.1948
 2169SOL    HW218141   3.949   3.140  11.955 -0.5435 -1.9698  0.8926
 2170SOL     OW18142   0.253   3.217   6.120  0.2067  0.2904 -0.1833
 2170SOL    HW118143   0.319   3.153   6.092  0.4627  0.7873 -0.7075
 2170SOL    HW218144   0.309   3.294   6.116  2.0862 -0.9364  2.4546
 2171SOL     OW18145   3.786   3.180   9.511 -0.0075 -0.0847 -0.1590
 2171SOL    HW118146   3.726   3.237   9.559 -0.5696 -1.2615  0.5256
 2171SOL    HW218147   3.837   3.147   9.585 -1.5476 -1.1673  0.4112
 2172SOL     OW18148   1.520   0.591   6.526 -0.3748 -0.0135 -0.0672
 2172SOL    HW118149   1.502   0.508   6.569  2.9770 -1.1935 -0.8974
 2172SOL    HW218150   1.600   0.576   6.475  1.3334 -2.4884  3.3088
 2173SOL     OW18151   1.019   4.730   5.599  0.2994 -0.5461  0.3044
 2173SOL    HW118152   1.046   0.075   5.645  0.3963  0.1908 -1.0524
 2173SOL    HW218153   0.931   0.016   5.567  0.1495 -1.7155 -0.0471
 2174SOL     OW18154   0.505   0.635  12.752  0.1679  0.3486 -0.0699
 2174SOL    HW118155   0.560   0.584  12.693 -0.7765  1.7845 -2.2005
 2174SOL    HW218156   0.512   0.575  12.826  0.5771  0.9163  0.3533
 2175SOL     OW18157   3.112   0.460   0.957  0.4138 -0.5758 -0.4375
 2175SOL    HW118158   3.113   0.434   1.050 -0.9087  2.2731  0.3741
 2175SOL    HW218159   3.016   0.462   0.956  0.3688  0.6257  3.9391
 2176SOL     OW18160   3.533   0.425   1.201  0.1580  0.1549  0.4018
 2176SOL    HW118161   3.614   0.407   1.250 -0.5302  0.3014  1.5886
 2176SOL    HW218162   3.508   0.335   1.182 -0.4014  0.1576  1.1218
 2177SOL     OW18163   2.119   1.656   3.380  0.0954  0.2557 -0.2960
 2177SOL    HW118164   2.141   1.585   3.441 -0.1886  0.8343  0.4727
 2177SOL    HW218165   2.032   1.687   3.405 -0.3965  0.5699 -2.4452
 2178SOL     OW18166   2.311   1.460  11.576 -0.6265  0.4356 -0.0451
 2178SOL    HW118167   2.329   1.377  11.620 -1.7215 -0.7610 -1.8770
 2178SOL    HW218168   2.216   1.460  11.579 -0.6641  0.7377 -1.1979
 2179SOL     OW18169   1.855   4.275  15.368  0.7518  0.3629 -0.0671
 2179SOL    HW118170   1.808   4.228  15.299 -0.1758 -0.4982  1.1575
 2179SOL    HW218171   1.864   4.211  15.440 -1.0615 -1.9031 -1.8366
 2180SOL     OW18172   3.954   0.725   4.965  0.7528 -0.7185 -0.3365
 2180SOL    HW118173   3.934   0.653   4.905 -0.0018 -0.4989 -0.3401
 2180SOL    HW218174   4.049   0.740   4.967  0.7327 -0.5633 -0.5759
 2181SOL     OW18175   4.024   0.637  11.591  0.1999 -0.3327  0.5150
 2181SOL    HW118176   4.036   0.571  11.523  2.6393 -0.0849  0.7063
 2181SOL    HW218177   4.033   0.583  11.669 -1.9682 -0.3978  0.6986
 2182SOL     OW18178   4.182   1.085   5.186  0.0883  0.5586  0.2205
 2182SOL    HW118179   4.178   0.993   5.212  1.0412  0.3930 -0.2144
 2182SOL    HW218180   4.259   1.085   5.129 -0.4489 -0.1835 -0.4928
 2183SOL     OW18181   1.797   0.484  12.307  0.4484 -0.1032  0.1732
 2183SOL    HW118182   1.715   0.475  12.355  0.5341  0.3725  0.4010
 2183SOL    HW218183   1.802   0.408  12.249 -1.0036  0.3743 -0.5797
 2184SOL     OW18184   2.074   4.431   4.908 -0.5002 -0.2579  0.1143
 2184SOL    HW118185   2.012   4.369   4.946 -2.1058  1.7344  0.7938
 2184SOL    HW218186   2.133   4.434   4.983 -1.3418 -1.8054  0.8419
 2185SOL     OW18187   1.746   0.427   5.202  0.1304 -0.2560 -0.6514
 2185SOL    HW118188   1.699   0.472   5.273  1.1487 -0.4560  0.1456
 2185SOL    HW218189   1.800   0.362   5.245 -2.8066 -2.3869 -0.1585
 2186SOL     OW18190   0.454   3.286   8.272  0.4453 -0.0481  0.4426
 2186SOL    HW118191   0.488   3.270   8.360  1.5440  2.1377  0.4337
 2186SOL    HW218192   0.418   3.375   8.278 -2.0386 -1.0182 -0.3163
 2187SOL     OW18193   2.904   0.619   6.254  0.0057  0.1218 -0.1510
 2187SOL    HW118194   2.951   0.614   6.337 -2.9467 -0.8317  1.4905
 2187SOL    HW218195   2.963   0.676   6.205  2.5766 -3.5022 -1.2271
 2188SOL     OW18196   0.609   2.318   9.120 -0.8605 -0.3137  0.0568
 2188SOL    HW118197   0.544   2.335   9.187 -0.7517  0.4241 -0.0232
 2188SOL    HW218198   0.667   2.395   9.121 -2.1705  0.6750  0.4891
 2189SOL     OW18199   4.089   2.989   2.724  0.1894 -0.5209  0.5182
 2189SOL    HW118200   4.041   2.907   2.715  1.3793 -1.1499 -0.2166
 2189SOL    HW218201   4.081   3.025   2.635 -0.0124  0.6404  1.0007
 2190SOL     OW18202   2.429   2.458   7.822  0.2431  0.2869  0.8930
 2190SOL    HW118203   2.481   2.458   7.741  0.8251  0.4194  1.2712
 2190SOL    HW218204   2.346   2.484   7.780  1.3528  0.7125 -1.0694
 2191SOL     OW18205   3.885   0.540   8.228 -0.2819 -0.0872 -0.1265
 2191SOL    HW118206   3.841   0.473   8.175  0.0155 -0.3928  0.0113
 2191SOL    HW218207   3.942   0.472   8.263  0.3389  0.1898 -0.6068
 2192SOL     OW18208   2.683   1.029   8.343  0.1595 -0.7376 -0.4992
 2192SOL    HW118209   2.710   1.013   8.433  1.6508 -1.9621 -1.1589
 2192SOL    HW218210   2.635   1.111   8.354  0.4030 -0.4534 -1.6126
 2193SOL     OW18211   2.076   3.761   4.343  0.5202  0.4758  0.2298
 2193SOL    HW118212   2.139   3.771   4.272  0.2383  1.7833  0.1651
 2193SOL    HW218213   1.988   3.775   4.308  1.3382  0.2446 -1.9122
 2194SOL     OW18214   3.242   4.015   3.824  0.7408  0.3297 -0.4172
 2194SOL    HW118215   3.311   3.957   3.791  0.9519  1.3134 -1.7135
 2194SOL    HW218216   3.175   4.022   3.756  0.6018 -1.0305 -0.4264
 2195SOL     OW18217   0.386   2.617  10.028  0.3661 -0.3957 -0.0187
 2195SOL    HW118218   0.480   2.626  10.013  0.2062  2.7797  0.8950
 2195SOL    HW218219   0.354   2.706  10.015  0.9635 -0.0119  1.0955
 2196SOL     OW18220   2.121   2.011  16.073 -0.2826  0.2030  0.2877
 2196SOL    HW118221   2.186   1.961  16.122 -0.4221 -2.1691 -1.9550
 2196SOL    HW218222   2.092   2.063  16.148 -2.9664 -2.5341  1.1365
 2197SOL     OW18223   1.699   0.697   7.210 -0.3783  0.1777 -0.2873
 2197SOL    HW118224   1.646   0.776   7.210 -0.9407 -0.2041  0.9115
 2197SOL    HW218225   1.791   0.723   7.210 -0.1039 -0.7821  0.0352
 2198SOL     OW18226   3.190   4.668   8.686 -0.9004 -0.0531 -0.0720
 2198SOL    HW118227   3.188   4.642   8.594 -2.3992  0.4195 -0.1806
 2198SOL    HW218228   3.256   0.002   8.675 -1.6244  0.5473 -0.6402
 2199SOL     OW18229   2.664   4.045   1.552  0.1825 -0.0383 -0.5388
 2199SOL    HW118230   2.601   4.037   1.624 -1.4714  0.2871 -1.9437
 2199SOL    HW218231   2.721   3.969   1.563 -1.2359 -1.2530 -1.6699
 2200SOL     OW18232   0.890   0.871   0.491 -0.3690 -0.2500  0.3667
 2200SOL    HW118233   0.837   0.881   0.411 -0.5131 -1.8726  0.2556
 2200SOL    HW218234   0.908   0.961   0.517  0.8663 -0.7119  1.0761
 2201SOL     OW18235   3.854   2.777   6.982  0.2530 -0.2906  0.0759
 2201SOL    HW118236   3.931   2.829   6.960  1.2712 -1.3933  1.0411
 2201SOL    HW218237   3.894   2.699   7.021 -0.5100  0.0495  1.5384
 2202SOL     OW18238   4.339   0.083   1.260  0.1817 -0.3197 -0.4240
 2202SOL    HW118239   4.252   0.111   1.232 -0.0491  0.7847  1.4119
 2202SOL    HW218240   4.398   0.121   1.195 -1.3467 -0.7609 -2.0668
 2203SOL     OW18241   2.086   0.515   0.884  0.9234  0.0369  0.6847
 2203SOL    HW118242   2.167   0.509   0.934  1.9824 -1.6000 -1.2179
 2203SOL    HW218243   2.073   0.421   0.877 -0.6398  0.1808  1.5958
 2204SOL     OW18244   2.246   0.400   4.182 -0.2515 -0.0116  0.1784
 2204SOL    HW118245   2.323   0.347   4.161  1.1455  1.8216  0.6484
 2204SOL    HW218246   2.251   0.402   4.278  0.2926  1.2526  0.1199
 2205SOL     OW18247   1.208   4.302   5.922 -0.0316 -0.5016 -0.3008
 2205SOL    HW118248   1.202   4.248   5.843  1.8112 -1.2789  0.0875
 2205SOL    HW218249   1.199   4.385   5.876  0.7116  0.3025  1.0241
 2206SOL     OW18250   2.814   1.403  10.768 -0.8689  0.8390 -0.4767
 2206SOL    HW118251   2.870   1.383  10.843 -1.1512 -0.4750 -0.6189
 2206SOL    HW218252   2.727   1.410  10.808  0.3543 -2.3875  2.7819
 2207SOL     OW18253   1.816   0.058   6.094 -0.5689  0.1873 -0.1637
 2207SOL    HW118254   1.747   0.015   6.143 -0.4394  1.1490  0.8609
 2207SOL    HW218255   1.787   0.047   6.003  0.0203 -0.7697 -0.2424
 2208SOL     OW18256   1.983   0.158   9.315  0.5577 -0.4621 -0.0025
 2208SOL    HW118257   1.992   0.179   9.408  0.1000  4.2566 -1.0332
 2208SOL    HW218258   1.903   0.108   9.331 -0.6586  0.8952 -1.8089
 2209SOL     OW18259   1.874   2.561   6.742 -0.1091  0.0104  0.0579
 2209SOL    HW118260   1.951   2.604   6.705 -1.4379  2.6802  0.3660
 2209SOL    HW218261   1.807   2.605   6.689 -1.3920  0.7332  2.2950
 2210SOL     OW18262   2.001   4.598   3.280 -0.2462  0.0027  0.0343
 2210SOL    HW118263   2.095   4.589   3.295  0.1758  3.0684 -0.7832
 2210SOL    HW218264   2.000   4.690   3.308 -0.9478 -0.6732  2.2558
 2211SOL     OW18265   1.874   4.266   5.035  0.2146 -0.2267 -0.1093
 2211SOL    HW118266   1.874   4.176   5.067 -2.0596 -1.0281 -2.3655
 2211SOL    HW218267   1.813   4.305   5.097  0.4050  0.2228 -0.2027
 2212SOL     OW18268   3.148   3.069   4.792  0.4194 -0.0649 -0.5073
 2212SOL    HW118269   3.222   3.048   4.735  0.6683 -1.0677  0.1895
 2212SOL    HW218270   3.077   3.088   4.730  1.6556 -0.6687 -2.0833
 2213SOL     OW18271   2.462   4.678   7.568 -0.6583 -0.0274  0.4833
 2213SOL    HW118272   2.446   4.705   7.478  0.6152  0.5040  0.4214
 2213SOL    HW218273   2.401   4.732   7.619  1.3344 -0.4542  3.3667
 2214SOL     OW18274   3.450   1.082   0.698  0.4960 -0.0019  0.2858
 2214SOL    HW118275   3.439   1.127   0.782 -0.9602  0.4015 -0.1250
 2214SOL    HW218276   3.419   0.994   0.719  0.5583 -0.6057 -2.2273
 2215SOL     OW18277   2.519   3.494   5.715  0.2730  0.3190 -0.3642
 2215SOL    HW118278   2.478   3.496   5.802  0.5078  1.9411 -0.2774
 2215SOL    HW218279   2.577   3.419   5.724 -1.1689 -0.4669  2.6834
 2216SOL     OW18280   3.944   1.760  11.708  0.5738 -0.3161 -0.0117
 2216SOL    HW118281   3.921   1.684  11.655 -1.1309  0.6365 -0.6487
 2216SOL    HW218282   3.937   1.720  11.794 -1.0179  1.0474  0.4943
 2217SOL     OW18283   4.129   0.079   5.627 -0.3507 -0.0796  0.3563
 2217SOL    HW118284   4.084   4.731   5.641  0.7679 -0.9071 -0.9613
 2217SOL    HW218285   4.075   0.112   5.556  0.4531  1.7246  0.5915
 2218SOL     OW18286   4.110   3.284   1.324 -0.0987 -0.3663 -0.1594
 2218SOL    HW118287   4.077   3.199   1.351  2.0041 -1.7502 -2.0050
 2218SOL    HW218288   4.029   3.334   1.329 -0.5095 -1.0681  0.1132
 2219SOL     OW18289   4.286   3.384   4.187 -0.7953  0.1349 -0.2078
 2219SOL    HW118290   4.376   3.404   4.161 -1.1267 -0.8269 -2.0502
 2219SOL    HW218291   4.252   3.433   4.112  0.3911 -0.8886 -1.4144
 2220SOL     OW18292   0.058   0.272   8.867  0.2694 -0.6936  0.3695
 2220SOL    HW118293   0.062   0.176   8.869 -3.1663 -0.7217  4.2061
 2220SOL    HW218294   0.075   0.291   8.775  3.1298 -2.4953  0.5086
 2221SOL     OW18295   4.509   3.681   0.220  0.9256 -0.8400  0.4412
 2221SOL    HW118296   4.570   3.632   0.275  2.1213 -0.7127 -0.7743
 2221SOL    HW218297   4.522   3.769   0.255  0.4979 -0.4814 -0.2852
 2222SOL     OW18298   2.600   1.210  13.577  0.4699 -0.1940  0.2373
 2222SOL    HW118299   2.604   1.150  13.651 -1.9518 -2.8399 -1.7929
 2222SOL    HW218300   2.691   1.215  13.547  1.6461 -1.9826  3.4283
 2223SOL     OW18301   0.123   1.283  11.970 -0.3641  0.0779  0.2416
 2223SOL    HW118302   0.045   1.310  12.018 -0.0738 -2.0749  1.9573
 2223SOL    HW218303   0.196   1.328  12.013 -0.4626  0.4990 -0.0363
 2224SOL     OW18304   4.710   1.403   1.853  0.0630  0.0239 -0.6926
 2224SOL    HW118305   4.701   1.310   1.877 -1.0366  0.1579 -0.5874
 2224SOL    HW218306   0.062   1.399   1.814  0.0118  2.8087 -1.0822
 2225SOL     OW18307   0.236   4.554  15.849  0.2894 -0.2671 -0.0982
 2225SOL    HW118308   0.286   4.547  15.768 -1.9058  1.5397 -1.6128
 2225SOL    HW218309   0.206   4.644  15.846  2.5914  0.5598  1.1574
 2226SOL     OW18310   4.635   1.840   4.914  0.0184  0.0542 -0.3159
 2226SOL    HW118311   4.641   1.774   4.845 -1.0695 -0.0686 -0.2943
 2226SOL    HW218312   4.649   1.916   4.858 -2.1550  0.5292 -0.1942
 2227SOL     OW18313   2.567   3.731   7.434  0.0150 -0.0159  0.3141
 2227SOL    HW118314   2.474   3.719   7.415 -0.2481  1.4398  0.7072
 2227SOL    HW218315   2.566   3.758   7.526 -0.3608 -0.4875  0.4492
 2228SOL     OW18316   1.503   3.381   9.076 -0.9018 -0.0596 -0.1773
 2228SOL    HW118317   1.559   3.409   9.004  1.7206  0.4555  2.0363
 2228SOL    HW218318   1.542   3.295   9.091  2.9363  1.5045 -1.1462
 2229SOL     OW18319   4.474   0.597   4.624  1.0151 -0.2549  0.4834
 2229SOL    HW118320   4.457   0.510   4.660 -3.0475  0.2374 -0.2947
 2229SOL    HW218321   4.426   0.658   4.680 -0.3330 -1.2388  0.4015
 2230SOL     OW18322   0.648   1.571  12.306 -0.3602  0.3408 -0.2641
 2230SOL    HW118323   0.726   1.552  12.358 -0.5788  1.9547  0.6653
 2230SOL    HW218324   0.645   1.503  12.239 -0.4763 -1.4847  1.5899
 2231SOL     OW18325   4.650   2.115   3.568 -0.1830  0.1331  0.3240
 2231SOL    HW118326   4.608   2.079   3.646  0.3399 -0.7749  0.1956
 2231SOL    HW218327   4.649   2.207   3.593  0.7079  0.2155  0.0739
 2232SOL     OW18328   0.638   0.423   6.906  0.0116 -0.6120 -0.6500
 2232SOL    HW118329   0.575   0.453   6.840  0.9877 -0.2971 -1.4357
 2232SOL    HW218330   0.657   0.509   6.944 -1.4038 -1.3778  1.8207
 2233SOL     OW18331   0.410   2.078   7.130 -0.1692 -0.0276 -0.8559
 2233SOL    HW118332   0.469   2.152   7.123  0.9973 -0.6151  3.1553
 2233SOL    HW218333   0.344   2.102   7.065 -1.4867 -2.4068 -0.4049
 2234SOL     OW18334   2.452   4.465   5.329  0.5654 -0.0262  0.0208
 2234SOL    HW118335   2.444   4.451   5.423  0.2045  3.3337  0.4901
 2234SOL    HW218336   2.546   4.474   5.314  0.8399 -3.1125 -0.1257
 2235SOL     OW18337   1.518   3.924   4.925 -0.1285  0.4217  0.5910
 2235SOL    HW118338   1.598   3.904   4.878  1.2943  0.2736  3.0911
 2235SOL    HW218339   1.519   4.020   4.928  0.8554  0.5162 -3.5328
 2236SOL     OW18340   1.569   3.599  10.999 -0.1749  0.0133  0.3169
 2236SOL    HW118341   1.588   3.690  10.977  0.6211 -0.0522  0.7538
 2236SOL    HW218342   1.528   3.570  10.918  1.7269  3.4648 -1.8472
 2237SOL     OW18343   3.106   2.489   6.298 -0.6734 -0.1013  0.0847
 2237SOL    HW118344   3.018   2.494   6.261 -0.6162 -0.6640 -0.1310
 2237SOL    HW218345   3.090   2.480   6.392  0.7600  0.9816  0.4268
 2238SOL     OW18346   1.079   0.403   8.700 -0.5759  0.1311  0.4146
 2238SOL    HW118347   1.020   0.478   8.691  1.2783  1.4945 -0.5007
 2238SOL    HW218348   1.148   0.446   8.752 -0.8552 -0.8200  1.5843
 2239SOL     OW18349   1.767   1.310   7.577 -0.3851  0.2410 -0.1406
 2239SOL    HW118350   1.824   1.252   7.526  0.7497  0.8968  0.3896
 2239SOL    HW218351   1.710   1.334   7.504 -1.6721 -2.1837  0.0348
 2240SOL     OW18352   1.662   2.467   6.149 -0.5246 -0.7117 -0.0853
 2240SOL    HW118353   1.722   2.484   6.223 -0.7850 -0.5169  0.0797
 2240SOL    HW218354   1.597   2.535   6.166  2.2180  1.6872  0.9879
 2241SOL     OW18355   2.065   3.596   5.553 -0.1211 -0.1775  0.2882
 2241SOL    HW118356   2.145   3.561   5.593  0.4393 -1.0020 -1.5852
 2241SOL    HW218357   2.002   3.524   5.555 -1.0349  0.5635 -1.7547
 2242SOL     OW18358   0.919   2.813   5.868  0.1220  0.2925 -0.5984
 2242SOL    HW118359   0.830   2.785   5.848  1.0419 -2.8826 -0.3182
 2242SOL    HW218360   0.954   2.838   5.782 -0.1511 -0.9984 -1.0924
 2243SOL     OW18361   4.186   1.257   5.614  0.3103 -0.2582 -0.0775
 2243SOL    HW118362   4.210   1.296   5.529  1.4339  0.5263  0.5935
 2243SOL    HW218363   4.221   1.328   5.668 -0.4401 -0.5748  0.8022
 2244SOL     OW18364   1.987   3.133   8.583  0.1602  0.0870  0.2743
 2244SOL    HW118365   1.934   3.075   8.528  2.4265 -0.7167 -1.0192
 2244SOL    HW218366   2.032   3.065   8.632 -1.2114  0.2181  1.7288
 2245SOL     OW18367   0.461   1.174  14.372 -0.0766 -0.0637  0.1333
 2245SOL    HW118368   0.494   1.246  14.318 -1.7787  1.7291  1.5152
 2245SOL    HW218369   0.493   1.096  14.327  0.3698  1.4485 -2.1866
 2246SOL     OW18370   2.331   4.665   1.917  0.4615  0.8654 -0.1251
 2246SOL    HW118371   2.344   4.596   1.982  0.0381 -0.4367 -1.4168
 2246SOL    HW218372   2.237   4.650   1.907  0.4889  2.7542 -3.0549
 2247SOL     OW18373   3.540   2.472   7.532 -0.3454 -0.2194 -0.1079
 2247SOL    HW118374   3.519   2.405   7.597 -1.3697  1.1011  0.9208
 2247SOL    HW218375   3.480   2.444   7.464  0.8097 -1.0320 -0.8012
 2248SOL     OW18376   2.405   0.793   3.772 -0.5566 -0.1362  0.1517
 2248SOL    HW118377   2.480   0.841   3.806  0.5243 -2.7772  1.5719
 2248SOL    HW218378   2.358   0.768   3.852  0.8053  1.0976  1.3329
 2249SOL     OW18379   3.602   1.839   0.618  0.0731  0.7256  0.3745
 2249SOL    HW118380   3.569   1.852   0.529 -1.2907 -2.5060  0.4266
 2249SOL    HW218381   3.586   1.929   0.647 -1.4804  0.5200  0.1438
 2250SOL     OW18382   2.737   2.525   5.635  0.2717  0.0111  0.3910
 2250SOL    HW118383   2.788   2.444   5.643  1.0178  0.3909 -0.5359
 2250SOL    HW218384   2.805   2.578   5.594 -0.1482  0.2081 -0.0549
 2251SOL     OW18385   2.996   2.378   1.201 -0.4448 -0.0350  0.0574
 2251SOL    HW118386   3.013   2.338   1.116 -0.1813 -1.3070  0.7196
 2251SOL    HW218387   2.933   2.447   1.178 -0.8878 -0.0497  1.2261
 2252SOL     OW18388   4.730   4.554   0.214 -0.2308  0.3211 -0.3180
 2252SOL    HW118389   0.049   4.631   0.194 -1.2709  0.8264 -1.1743
 2252SOL    HW218390   4.653   4.543   0.158 -0.4733 -0.9598  0.2859
 2253SOL     OW18391   1.958   0.744   7.266  0.1651 -0.1351  0.0583
 2253SOL    HW118392   1.988   0.669   7.317 -0.4793 -0.1583  0.4056
 2253SOL    HW218393   2.040   0.786   7.240 -1.1853  3.1212  0.9971
 2254SOL     OW18394   3.830   0.172   1.130 -0.1294  0.6945 -0.0685
 2254SOL    HW118395   3.760   0.170   1.194 -0.8341 -0.4546 -0.8800
 2254SOL    HW218396   3.783   0.174   1.047 -0.6101  1.1291  0.2173
 2255SOL     OW18397   4.110   4.711   2.074 -0.3539  0.0165  0.0759
 2255SOL    HW118398   4.167   4.644   2.035  0.7627  1.1123 -0.1890
 2255SOL    HW218399   4.024   4.669   2.075 -1.5315  2.3592 -1.3092
 2256SOL     OW18400   3.437   2.624   5.352 -0.1345  0.5514 -0.0084
 2256SOL    HW118401   3.351   2.652   5.321 -0.5630  0.2192  0.8592
 2256SOL    HW218402   3.456   2.709   5.393 -0.7188  2.4405 -3.7097
 2257SOL     OW18403   4.340   4.175   6.099 -0.4461  0.4134  0.0639
 2257SOL    HW118404   4.371   4.134   6.018 -0.4383 -0.7419  0.6490
 2257SOL    HW218405   4.417   4.227   6.118 -0.5629  0.3911  0.5986
 2258SOL     OW18406   3.370   1.414   8.063 -0.3515 -0.0808  0.1921
 2258SOL    HW118407   3.414   1.475   8.122 -0.5505  2.6646 -2.4786
 2258SOL    HW218408   3.287   1.461   8.060  0.2682  0.9288 -1.0586
 2259SOL     OW18409   4.284   2.781   4.356  0.3013 -0.2581 -0.4183
 2259SOL    HW118410   4.318   2.832   4.429  0.5889  1.7686 -1.9787
 2259SOL    HW218411   4.206   2.739   4.392 -0.5576  1.1686 -0.6206
 2260SOL     OW18412   1.300   0.154   8.839  0.1230  0.2503 -0.6657
 2260SOL    HW118413   1.372   0.193   8.790  0.1215  2.0977  0.8324
 2260SOL    HW218414   1.285   0.226   8.901 -1.4311 -0.5857 -0.0702
 2261SOL     OW18415   0.859   3.087   1.772  0.2058 -0.0420 -0.8025
 2261SOL    HW118416   0.947   3.110   1.742  0.4215 -0.5039 -0.5231
 2261SOL    HW218417   0.818   3.174   1.766 -0.2405 -0.1854  0.2958
 2262SOL     OW18418   4.624   4.064   3.655 -0.9058  0.1359 -0.3870
 2262SOL    HW118419   4.566   4.084   3.728 -1.5067 -0.4700 -0.6886
 2262SOL    HW218420   4.596   3.974   3.642  0.8635 -0.1831 -2.0704
 2263SOL     OW18421   2.128   2.939  10.720  0.8042  0.1512 -0.4868
 2263SOL    HW118422   2.054   2.987  10.684  1.7970  0.8195 -1.6324
 2263SOL    HW218423   2.087   2.853  10.712  0.8357 -0.2116  3.3079
 2264SOL     OW18424   1.464   1.101   6.429 -0.7822 -0.7162  0.2600
 2264SOL    HW118425   1.377   1.085   6.466 -0.1546 -0.2598  1.9270
 2264SOL    HW218426   1.452   1.069   6.339  1.1432 -0.3048 -0.1352
 2265SOL     OW18427   2.554   3.512  14.991  0.7637 -0.1333  0.5487
 2265SOL    HW118428   2.523   3.431  15.032  0.3827 -0.1698  0.1843
 2265SOL    HW218429   2.554   3.481  14.901  0.2559 -0.5250  0.6833
 2266SOL     OW18430   2.644   3.352   4.344 -0.0588  0.2091 -0.5533
 2266SOL    HW118431   2.548   3.359   4.341 -0.0605  0.1427 -0.6854
 2266SOL    HW218432   2.665   3.366   4.251  0.9295  0.5851 -0.2705
 2267SOL     OW18433   1.002   4.432   2.129  0.5579 -1.0745  0.4289
 2267SOL    HW118434   0.969   4.390   2.209 -1.4548 -0.6051 -0.1722
 2267SOL    HW218435   1.022   4.358   2.071  1.0343 -0.4372 -0.2149
 2268SOL     OW18436   1.845   2.755   5.176  0.2802 -0.4138 -0.3277
 2268SOL    HW118437   1.833   2.790   5.088 -0.7252  0.1407  0.0265
 2268SOL    HW218438   1.807   2.817   5.239  0.0394  1.8456 -2.6999
 2269SOL     OW18439   3.180   4.119   4.328  0.5915 -0.5412 -0.0490
 2269SOL    HW118440   3.224   4.075   4.255  0.6555 -0.1102 -0.2690
 2269SOL    HW218441   3.141   4.191   4.279  1.1361  0.2469  0.6888
 2270SOL     OW18442   3.344   4.161   2.175 -0.4967  0.5436  0.3367
 2270SOL    HW118443   3.409   4.231   2.169  3.0217 -2.5068  2.6088
 2270SOL    HW218444   3.390   4.096   2.228  2.4061  2.1538 -0.2153
 2271SOL     OW18445   2.914   4.029  11.235  0.2914 -0.3921  0.4911
 2271SOL    HW118446   2.923   3.940  11.201  1.1997 -1.6963  4.1688
 2271SOL    HW218447   3.007   4.050  11.247  0.1820 -0.5806  1.6453
 2272SOL     OW18448   3.273   1.787   1.051 -0.1569  0.4025  0.4060
 2272SOL    HW118449   3.194   1.787   0.997  0.5715  0.5086 -0.6578
 2272SOL    HW218450   3.282   1.880   1.073 -0.7885  0.6401 -0.3297
 2273SOL     OW18451   0.466   1.162   4.223 -0.5326 -0.7243  0.1833
 2273SOL    HW118452   0.380   1.186   4.256 -0.5769  1.6825 -1.7657
 2273SOL    HW218453   0.514   1.143   4.304 -0.0068 -0.9507 -0.1786
 2274SOL     OW18454   2.128   1.348   4.005  0.1946  0.3876  0.5803
 2274SOL    HW118455   2.060   1.323   4.067  0.1794 -0.1428  0.3515
 2274SOL    HW218456   2.114   1.282   3.937  0.7788  2.7708 -1.8538
 2275SOL     OW18457   2.869   2.540   4.443 -0.0165  0.0978  0.4828
 2275SOL    HW118458   2.867   2.474   4.511  0.8072 -0.9190 -0.4714
 2275SOL    HW218459   2.846   2.619   4.491  0.2324  0.0520  0.6757
 2276SOL     OW18460   0.470   2.662   9.718  0.2804 -0.0360 -0.0428
 2276SOL    HW118461   0.513   2.637   9.800 -0.7151 -1.0038  0.1832
 2276SOL    HW218462   0.517   2.611   9.652 -2.3286 -1.9107 -0.4670
 2277SOL     OW18463   4.731   2.422   2.674  0.1695 -0.7530 -0.4729
 2277SOL    HW118464   4.678   2.437   2.596 -1.8446 -0.4481  0.9355
 2277SOL    HW218465   4.673   2.466   2.736 -1.3284 -1.6515 -1.2139
 2278SOL     OW18466   3.489   1.510   1.847  0.3322  0.1144  0.0629
 2278SOL    HW118467   3.505   1.565   1.770 -0.2184 -0.2420 -0.3016
 2278SOL    HW218468   3.399   1.483   1.833  0.7110 -0.5468 -1.0812
 2279SOL     OW18469   2.979   2.038   4.475  0.1310  0.0232  0.0244
 2279SOL    HW118470   2.972   1.985   4.555  0.3545  2.5868  1.7334
 2279SOL    HW218471   2.974   1.975   4.403  2.1909 -0.9240  0.7281
 2280SOL     OW18472   4.492   3.032   6.272 -0.5529  0.1073  0.0414
 2280SOL    HW118473   4.496   3.127   6.262 -1.3099  0.1016 -0.4119
 2280SOL    HW218474   4.518   3.018   6.363 -1.1353 -0.1952  0.1632
 2281SOL     OW18475   0.505   3.694  14.121  0.1999 -0.2932 -0.7482
 2281SOL    HW118476   0.488   3.618  14.064 -0.7044  0.3844 -1.3755
 2281SOL    HW218477   0.529   3.754  14.051  1.2834 -0.6023 -0.6315
 2282SOL     OW18478   3.946   1.328   0.032 -0.4439  0.0423 -0.2709
 2282SOL    HW118479   4.012   1.309  17.705 -1.1414  0.1423 -0.9910
 2282SOL    HW218480   3.909   1.244   0.058 -0.0338 -0.8225 -2.5017
 2283SOL     OW18481   1.430   3.949   6.981 -0.1288 -0.1739 -0.0915
 2283SOL    HW118482   1.493   3.899   6.930  0.7352  1.5081 -0.6897
 2283SOL    HW218483   1.408   3.888   7.052  0.0784  0.8211  0.8276
 2284SOL     OW18484   2.134   0.950   6.459  0.5221  0.3378  0.9581
 2284SOL    HW118485   2.121   0.883   6.526 -1.6019 -1.1875 -0.9847
 2284SOL    HW218486   2.127   0.897   6.380 -1.0825 -1.3893  2.2657
 2285SOL     OW18487   0.785   4.489   3.154  0.2732 -0.3175 -0.1056
 2285SOL    HW118488   0.719   4.483   3.085  1.5359 -2.0030 -1.1754
 2285SOL    HW218489   0.813   4.398   3.166 -0.5604 -0.5819 -0.1113
 2286SOL     OW18490   0.996   1.373  12.904  0.0708  0.0582 -0.0800
 2286SOL    HW118491   0.924   1.356  12.964  0.0995 -3.3144 -1.0143
 2286SOL    HW218492   1.060   1.397  12.971 -0.4525  0.4841  0.2694
 2287SOL     OW18493   1.988   4.399   9.727 -0.4947 -0.2252 -0.2817
 2287SOL    HW118494   2.004   4.488   9.695  1.1587 -0.0406  1.0489
 2287SOL    HW218495   2.071   4.359   9.704 -0.6285 -0.8528  0.3396
 2288SOL     OW18496   4.198   4.520   8.016  0.5371 -1.1229  0.4227
 2288SOL    HW118497   4.157   4.465   8.083 -1.4566 -0.1909 -0.0343
 2288SOL    HW218498   4.202   4.607   8.055  1.3284 -1.3142  0.7519
 2289SOL     OW18499   4.011   3.618   2.742  0.4088  0.2468  0.2987
 2289SOL    HW118500   4.094   3.589   2.704 -0.3385 -0.1731 -1.0308
 2289SOL    HW218501   3.955   3.615   2.664 -0.7793 -1.4091  1.2321
 2290SOL     OW18502   2.402   4.437   6.783  0.6957  0.0744 -0.1670
 2290SOL    HW118503   2.344   4.474   6.849 -0.5735 -3.0335  0.4820
 2290SOL    HW218504   2.457   4.393   6.849 -0.5476 -0.3096  0.6122
 2291SOL     OW18505   4.376   3.960   5.243  0.5455 -0.0316 -0.3191
 2291SOL    HW118506   4.311   3.916   5.297  0.7564 -0.3675 -0.3381
 2291SOL    HW218507   4.326   4.017   5.185  2.7302  0.9938 -1.2190
 2292SOL     OW18508   2.506   4.214   2.294 -0.5564 -0.7630  0.3419
 2292SOL    HW118509   2.555   4.199   2.375 -0.9196  0.2892  0.7658
 2292SOL    HW218510   2.417   4.207   2.329 -1.7547  0.0793 -2.5744
 2293SOL     OW18511   2.142   2.973  12.866  0.0127 -0.2927 -0.3518
 2293SOL    HW118512   2.149   2.897  12.924 -0.1173 -0.1536 -0.1505
 2293SOL    HW218513   2.166   3.034  12.936 -2.2742 -0.4611  0.5971
 2294SOL     OW18514   2.728   2.003   6.768  0.0006 -0.4333  0.0696
 2294SOL    HW118515   2.692   1.916   6.789  2.6606 -1.3609  0.7992
 2294SOL    HW218516   2.759   1.973   6.683 -1.5540 -0.9055 -0.3379
 2295SOL     OW18517   4.338   3.398   8.567  0.4061 -0.3413  0.2770
 2295SOL    HW118518   4.335   3.490   8.595  1.7753  0.3094 -1.7083
 2295SOL    HW218519   4.340   3.346   8.647 -0.0005  1.1741  1.2829
 2296SOL     OW18520   1.474   2.737   6.497 -0.5466 -0.2949  0.1437
 2296SOL    HW118521   1.386   2.706   6.520  0.0683 -2.1498 -0.0069
 2296SOL    HW218522   1.464   2.830   6.475 -0.6543  0.2816  2.5727
 2297SOL     OW18523   4.564   0.772   7.207  0.3840 -0.6398  0.3975
 2297SOL    HW118524   4.598   0.832   7.273 -1.8797  3.8394 -2.5595
 2297SOL    HW218525   4.470   0.774   7.225 -0.2195  0.5471 -2.9041
 2298SOL     OW18526   2.836   2.181   1.895  0.4287 -0.5803  0.3474
 2298SOL    HW118527   2.844   2.156   1.987  0.1058  0.5444  0.6808
 2298SOL    HW218528   2.787   2.108   1.858 -0.6491 -0.1387  0.9052
 2299SOL     OW18529   2.685   3.089   2.034 -0.0366 -0.4292  0.3766
 2299SOL    HW118530   2.774   3.113   2.057 -0.0544  1.3698 -1.5065
 2299SOL    HW218531   2.670   3.140   1.954 -2.5753 -3.6752 -1.2142
 2300SOL     OW18532   0.785   2.553   3.082 -0.4119 -0.2595  0.6578
 2300SOL    HW118533   0.866   2.593   3.112 -0.2104  0.6473 -1.0682
 2300SOL    HW218534   0.805   2.461   3.067 -0.0957  0.0753 -1.0350
 2301SOL     OW18535   3.805   2.859   9.304  0.2668  0.2374 -0.3538
 2301SOL    HW118536   3.812   2.874   9.398  0.3816  2.6364 -0.7503
 2301SOL    HW218537   3.766   2.942   9.278  0.0785 -0.2333 -1.5705
 2302SOL     OW18538   3.619   0.034   0.302  0.1599  0.2646  0.2840
 2302SOL    HW118539   3.690   0.028   0.365  1.0824 -0.8233 -0.8642
 2302SOL    HW218540   3.665   4.731   0.227 -0.8147 -1.3777  0.5043
 2303SOL     OW18541   2.571   2.642   7.267 -0.3503  0.7127 -0.9391
 2303SOL    HW118542   2.570   2.570   7.204 -0.8544  1.0465 -1.3157
 2303SOL    HW218543   2.616   2.711   7.218 -1.3277  1.7186 -0.4273
 2304SOL     OW18544   1.973   1.646  16.466 -0.0999 -0.2823  0.5471
 2304SOL    HW118545   1.958   1.626  16.374 -0.5377  0.0995  0.5352
 2304SOL    HW218546   1.959   1.740  16.470 -1.5517 -0.4214 -1.2498
 2305SOL     OW18547   1.421   4.558   3.631  0.3466  0.3803 -0.1272
 2305SOL    HW118548   1.456   4.473   3.656  3.5632  2.0610  1.0886
 2305SOL    HW218549   1.500   4.598   3.595  0.6543  0.6366  0.8396
 2306SOL     OW18550   2.266   0.516   6.383  0.2934 -0.5359 -0.0383
 2306SOL    HW118551   2.194   0.452   6.381  0.2466 -0.4932  0.4012
 2306SOL    HW218552   2.330   0.445   6.377 -2.9752 -3.3406 -2.3224
 2307SOL     OW18553   2.073   3.853   1.488  0.4185  0.0008  0.6126
 2307SOL    HW118554   2.144   3.909   1.518  1.3186 -0.8389  0.0441
 2307SOL    HW218555   2.055   3.822   1.577 -2.2015  1.4565  0.5886
 2308SOL     OW18556   3.038   2.413  11.538  0.2781 -0.5633  0.2243
 2308SOL    HW118557   2.993   2.411  11.623 -0.8235  1.0016 -0.3171
 2308SOL    HW218558   2.962   2.398  11.482 -0.8476 -1.4209  1.9595
 2309SOL     OW18559   1.556   4.696   7.394 -0.1590  0.2082 -0.1126
 2309SOL    HW118560   1.596   4.683   7.480 -0.5973 -2.0614 -0.2448
 2309SOL    HW218561   1.603   4.628   7.346 -0.3045 -0.2583  0.4068
 2310SOL     OW18562   1.155   4.276   9.075 -0.9630  0.7303 -0.0888
 2310SOL    HW118563   1.100   4.237   9.143 -0.0562 -2.6582 -1.2981
 2310SOL    HW218564   1.237   4.227   9.087 -0.4769  0.9481 -2.6106
 2311SOL     OW18565   1.409   1.392   6.038  0.0526 -0.2482 -0.1994
 2311SOL    HW118566   1.420   1.466   6.098  1.4523  0.2784 -1.0877
 2311SOL    HW218567   1.482   1.340   6.072 -0.9772 -1.6817 -0.1966
 2312SOL     OW18568   2.156   0.622  10.196 -0.5700  0.0765  0.4583
 2312SOL    HW118569   2.196   0.605  10.110 -0.1935  1.2255  0.4051
 2312SOL    HW218570   2.141   0.536  10.235  0.5320  0.0664  0.8462
 2313SOL     OW18571   2.278   4.361   4.412 -0.1089  0.0671 -0.3333
 2313SOL    HW118572   2.332   4.438   4.392  0.2952 -0.3688 -0.9490
 2313SOL    HW218573   2.197   4.384   4.367 -0.1977 -1.1926 -0.8194
 2314SOL     OW18574   3.586   1.459   0.506  0.2351 -0.3019 -0.2461
 2314SOL    HW118575   3.601   1.501   0.590  0.7405 -0.0921 -0.4406
 2314SOL    HW218576   3.663   1.401   0.505  0.0978 -0.4964  0.6400
 2315SOL     OW18577   3.923   4.180   1.838 -0.6179  0.5951 -0.1331
 2315SOL    HW118578   3.998   4.154   1.890 -0.0196  1.0412 -0.7766
 2315SOL    HW218579   3.855   4.124   1.876  0.4543  2.4803  4.5918
 2316SOL     OW18580   2.620   4.075   1.296  0.0665 -0.6845  0.4857
 2316SOL    HW118581   2.633   4.062   1.390 -0.1172 -3.1607  0.1681
 2316SOL    HW218582   2.526   4.089   1.288  0.1387 -0.8331 -0.6293
 2317SOL     OW18583   1.679   1.449   3.563  0.3202 -0.4622 -0.3895
 2317SOL    HW118584   1.658   1.358   3.584 -0.3963 -0.3730 -0.6989
 2317SOL    HW218585   1.731   1.455   3.483  0.9812  0.0204  0.0677
 2318SOL     OW18586   3.429   0.202  11.656 -0.4684  0.1484  0.0659
 2318SOL    HW118587   3.486   0.277  11.641 -2.0150  0.8447 -2.3207
 2318SOL    HW218588   3.393   0.228  11.741 -1.8316 -0.9959 -0.1661
 2319SOL     OW18589   3.838   1.440   8.188 -0.0187  0.2357 -0.1824
 2319SOL    HW118590   3.903   1.461   8.254  0.5628  0.0634 -0.7008
 2319SOL    HW218591   3.784   1.519   8.192  0.8065  0.7811  0.1971
 2320SOL     OW18592   3.748   1.718   8.113  0.3974 -0.3173  0.2863
 2320SOL    HW118593   3.729   1.687   8.024 -3.9763  3.9566 -0.2662
 2320SOL    HW218594   3.716   1.808   8.115  1.8130  0.2145 -0.4450
 2321SOL     OW18595   3.295   3.765   8.967  0.2048 -0.2579 -0.1166
 2321SOL    HW118596   3.210   3.720   8.967  0.0733 -0.0236  1.8173
 2321SOL    HW218597   3.279   3.836   8.905  2.0465 -1.0092 -1.4420
 2322SOL     OW18598   0.240   2.862   9.663 -0.2169 -0.3040 -0.0953
 2322SOL    HW118599   0.310   2.813   9.707  2.3058  2.3046 -1.2295
 2322SOL    HW218600   0.281   2.948   9.654 -1.3334  0.5223  2.5445
 2323SOL     OW18601   2.072   0.181   8.898  0.2285  0.1836  0.1049
 2323SOL    HW118602   2.050   0.136   8.980 -0.3150  3.8277  1.9790
 2323SOL    HW218603   2.046   0.273   8.910 -1.2130  0.0736 -2.1398
 2324SOL     OW18604   3.616   2.366  15.752 -0.5211  0.1108  0.3269
 2324SOL    HW118605   3.654   2.372  15.840 -0.1979  0.0179  0.1959
 2324SOL    HW218606   3.527   2.399  15.750 -0.4751  0.2798  0.9666
 2325SOL     OW18607   0.162   0.377   7.810 -0.4723  0.1303  0.7999
 2325SOL    HW118608   0.208   0.299   7.840  0.3554 -0.5654 -2.2272
 2325SOL    HW218609   0.202   0.444   7.865  0.8157  0.6986 -0.8230
 2326SOL     OW18610   2.731   4.388  12.199 -0.1176 -0.0348  0.0475
 2326SOL    HW118611   2.802   4.367  12.139 -0.9489 -0.3425 -0.8424
 2326SOL    HW218612   2.699   4.305  12.235  0.6357 -0.5264 -0.4377
 2327SOL     OW18613   3.745   2.590  17.412 -0.3224 -0.1247 -0.1322
 2327SOL    HW118614   3.766   2.599  17.505  1.6702  1.6296 -0.7507
 2327SOL    HW218615   3.752   2.495  17.402 -2.8168 -0.3071 -0.0010
 2328SOL     OW18616   0.079   3.799   0.192  0.6222 -0.0776  0.1866
 2328SOL    HW118617   0.093   3.740   0.118 -1.4514  2.0663 -1.8667
 2328SOL    HW218618   0.102   3.735   0.260 -0.1221 -0.6346 -0.0889
 2329SOL     OW18619   1.016   4.269  15.250  0.5012  0.4161 -0.4332
 2329SOL    HW118620   0.946   4.320  15.210 -0.8863  0.4038  1.9727
 2329SOL    HW218621   1.071   4.339  15.285 -0.9960  0.7587  1.2149
 2330SOL     OW18622   1.255   2.919   8.758 -0.2703 -0.0133 -0.2903
 2330SOL    HW118623   1.194   2.977   8.804 -0.0427  0.2684 -0.3371
 2330SOL    HW218624   1.258   2.956   8.670 -1.8528 -0.0171 -0.3415
 2331SOL     OW18625   1.159   2.322  10.362 -0.0561  0.6738  0.0914
 2331SOL    HW118626   1.118   2.392  10.309  2.8190  0.4331 -2.4488
 2331SOL    HW218627   1.132   2.350  10.449 -0.1239 -0.5438  0.4546
 2332SOL     OW18628   3.559   1.862   8.331 -0.3273 -0.2837  0.0794
 2332SOL    HW118629   3.605   1.895   8.408  0.7132 -0.0436 -0.6429
 2332SOL    HW218630   3.490   1.924   8.351 -1.5121 -2.0189  1.3063
 2333SOL     OW18631   1.045   1.324   0.730  0.3181 -0.1871 -0.5014
 2333SOL    HW118632   0.992   1.261   0.779  1.0868 -0.1828  0.3202
 2333SOL    HW218633   1.110   1.265   0.692  1.9909  1.0930  0.3999
 2334SOL     OW18634   2.479   0.807  14.908 -0.1192  0.0862  0.0364
 2334SOL    HW118635   2.522   0.795  14.823 -0.9804  1.0458 -0.5359
 2334SOL    HW218636   2.555   0.821  14.964  1.3912  1.3024 -2.2873
 2335SOL     OW18637   2.160   3.792   6.550 -0.3135  0.1693 -0.0752
 2335SOL    HW118638   2.235   3.845   6.575 -1.8804  1.7899  1.2114
 2335SOL    HW218639   2.094   3.816   6.616 -1.6665  2.9763 -2.4569
 2336SOL     OW18640   0.726   4.070  13.191 -0.3925 -0.1324  0.9351
 2336SOL    HW118641   0.733   3.994  13.133 -1.3068  0.3726  0.1544
 2336SOL    HW218642   0.639   4.098  13.164  0.8968  2.4523 -0.5276
 2337SOL     OW18643   4.376   3.940   1.965 -0.1529 -0.4742 -0.0230
 2337SOL    HW118644   4.343   4.029   1.956  0.2498 -0.2099  1.1071
 2337SOL    HW218645   4.388   3.935   2.059  1.2628 -0.5766 -0.2038
 2338SOL     OW18646   0.689   0.579   8.501 -0.3148 -0.2656  0.2117
 2338SOL    HW118647   0.642   0.557   8.581  0.9707 -0.0623  1.0201
 2338SOL    HW218648   0.680   0.501   8.446 -0.1142 -1.1073  1.3869
 2339SOL     OW18649   1.568   4.397   0.115 -0.5776 -0.0182  0.5693
 2339SOL    HW118650   1.630   4.462   0.083 -1.3187  0.3767 -0.0527
 2339SOL    HW218651   1.488   4.449   0.117 -0.4538  0.0863  3.3162
 2340SOL     OW18652   0.943   0.543   5.852  0.0242 -0.0306  0.0752
 2340SOL    HW118653   0.911   0.515   5.937 -1.2913  0.1735 -0.3573
 2340SOL    HW218654   0.859   0.544   5.806  0.4059  1.0263 -0.5946
 2341SOL     OW18655   0.358   3.561  13.165 -0.1978  0.5282  0.6619
 2341SOL    HW118656   0.447   3.545  13.132 -0.9980 -2.1639 -0.2341
 2341SOL    HW218657   0.326   3.633  13.111 -2.3256  0.2567  1.5628
 2342SOL     OW18658   3.569   0.182   7.667 -0.1562  0.3448 -0.1349
 2342SOL    HW118659   3.585   0.276   7.657  0.9997  0.1819  0.2429
 2342SOL    HW218660   3.581   0.147   7.578  1.2237 -0.0602  0.2126
 2343SOL     OW18661   3.247   1.932   1.900  0.0123  0.0682 -0.0262
 2343SOL    HW118662   3.196   1.921   1.980 -0.0794 -1.0776 -0.2490
 2343SOL    HW218663   3.308   1.859   1.912 -1.8688 -1.4599  0.2768
 2344SOL     OW18664   0.353   4.507   3.396 -0.3455 -0.2817 -0.0768
 2344SOL    HW118665   0.380   4.509   3.487  0.3151 -0.3346 -0.2748
 2344SOL    HW218666   0.394   4.428   3.361  0.4830 -0.2002  0.7126
 2345SOL     OW18667   2.203   3.434   1.127 -0.0309  0.2782  0.3986
 2345SOL    HW118668   2.280   3.427   1.183  0.4040 -1.0652 -0.3788
 2345SOL    HW218669   2.161   3.502   1.179 -0.0332  0.6239 -0.0508
 2346SOL     OW18670   4.622   2.585   7.393  0.1728  0.1888  0.8334
 2346SOL    HW118671   4.615   2.495   7.361  2.3347  0.5448 -0.6877
 2346SOL    HW218672   4.565   2.584   7.470  0.0013 -0.7328  0.6907
 2347SOL     OW18673   4.541   0.048   6.721  0.2031  0.5613 -0.0540
 2347SOL    HW118674   4.596   4.715   6.760  2.3662  0.9655 -2.3899
 2347SOL    HW218675   4.458   0.003   6.708  1.2904 -1.1772 -0.9630
 2348SOL     OW18676   2.712   1.786   3.407  0.6403  0.4673  0.0771
 2348SOL    HW118677   2.751   1.709   3.449  0.0902  1.5611  2.5497
 2348SOL    HW218678   2.675   1.745   3.329  1.9514  2.9185 -1.8110
 2349SOL     OW18679   2.003   4.317   9.022 -0.5613 -0.3749  0.0542
 2349SOL    HW118680   1.981   4.396   8.972 -0.6195  0.6409  1.6899
 2349SOL    HW218681   1.936   4.264   8.978  0.4391 -0.8107 -0.9533
 2350SOL     OW18682   2.965   2.322   1.666 -0.0728 -0.4432 -0.2821
 2350SOL    HW118683   2.956   2.295   1.758 -0.0222 -1.0312 -0.4494
 2350SOL    HW218684   2.961   2.236   1.623 -1.4884 -1.0838  1.0889
 2351SOL     OW18685   4.634   0.094  12.208  0.2137  0.1729 -0.0303
 2351SOL    HW118686   4.610   0.081  12.300 -0.6067  0.9561 -0.1268
 2351SOL    HW218687   4.604   0.182  12.185  2.1278  0.9453  0.4641
 2352SOL     OW18688   4.280   2.287   8.120 -0.3547 -0.0511  0.3010
 2352SOL    HW118689   4.231   2.303   8.200 -0.0951 -1.7783  0.8058
 2352SOL    HW218690   4.218   2.324   8.057  0.1534 -1.3023 -0.9185
 2353SOL     OW18691   1.367   0.115  11.040 -0.0312 -0.1439 -0.7168
 2353SOL    HW118692   1.275   0.138  11.030 -0.3584 -0.3260  1.9193
 2353SOL    HW218693   1.417   0.197  11.033 -1.1017  0.6996  1.6681
 2354SOL     OW18694   1.532   1.410  17.496 -0.5295  0.5389 -0.4019
 2354SOL    HW118695   1.581   1.417  17.578 -2.0466 -0.2488  0.5716
 2354SOL    HW218696   1.469   1.341  17.518 -0.3615  0.2403 -0.8775
 2355SOL     OW18697   1.050   0.922   7.060  0.5869  0.2171  0.1184
 2355SOL    HW118698   1.137   0.960   7.054  0.3265  0.7349 -0.4182
 2355SOL    HW218699   1.012   1.001   7.099 -3.1601 -0.3491 -2.4268
 2356SOL     OW18700   0.533   2.975  15.489 -0.5985 -0.3055 -0.5200
 2356SOL    HW118701   0.619   2.957  15.452 -0.2220 -0.9203  0.6407
 2356SOL    HW218702   0.527   3.069  15.475  0.9568 -0.1619 -0.1848
 2357SOL     OW18703   2.985   3.474   7.113  0.0898  0.5095  0.0691
 2357SOL    HW118704   2.956   3.435   7.196  1.8711 -1.2242 -0.1453
 2357SOL    HW218705   2.951   3.407   7.055 -0.1704  1.1066 -0.4687
 2358SOL     OW18706   0.485   3.385   4.095  0.1407 -0.6267 -0.5682
 2358SOL    HW118707   0.428   3.410   4.022 -0.6435 -1.0121 -0.0832
 2358SOL    HW218708   0.477   3.290   4.086 -1.7913 -0.5011 -0.2655
 2359SOL     OW18709   0.430   1.642   7.136  0.2977  0.1830  0.3760
 2359SOL    HW118710   0.373   1.620   7.062 -0.4025 -0.6729  1.1651
 2359SOL    HW218711   0.435   1.563   7.191 -0.7343  0.5193  0.9602
 2360SOL     OW18712   0.249   4.548   9.380  0.2772  0.0639 -0.4104
 2360SOL    HW118713   0.234   4.634   9.420  0.2071 -0.5171  0.8326
 2360SOL    HW218714   0.228   4.575   9.291  0.0944  1.5253  0.0697
 2361SOL     OW18715   3.155   0.342   7.182  0.8114 -0.6887  0.0804
 2361SOL    HW118716   3.178   0.432   7.156  3.1313 -0.7536  1.8622
 2361SOL    HW218717   3.124   0.305   7.099  2.0332 -2.0130  0.2049
 2362SOL     OW18718   3.331   3.630  16.443 -0.3715  0.3187  0.0740
 2362SOL    HW118719   3.325   3.718  16.481 -1.2604  0.1355  0.3566
 2362SOL    HW218720   3.242   3.605  16.420  0.3278 -1.0171 -1.1731
 2363SOL     OW18721   4.728   4.244  15.246  0.6597 -0.5228 -0.0776
 2363SOL    HW118722   4.694   4.266  15.333  0.8076 -1.4005  0.2004
 2363SOL    HW218723   4.669   4.177  15.211  0.1508 -0.9860  1.6595
 2364SOL     OW18724   4.617   1.417  13.820 -0.0901 -0.0692  0.0091
 2364SOL    HW118725   4.688   1.354  13.808 -1.1176 -0.7228 -2.7026
 2364SOL    HW218726   4.643   1.463  13.899  2.4619 -1.6652  0.0731
 2365SOL     OW18727   2.372   3.889   4.271  0.4454 -0.2281  0.2563
 2365SOL    HW118728   2.403   3.808   4.312 -0.1662 -0.6690 -0.1423
 2365SOL    HW218729   2.332   3.929   4.348  0.5640  1.1366 -0.3932
 2366SOL     OW18730   0.148   2.097   8.570  0.3905  0.5498  0.2599
 2366SOL    HW118731   0.152   2.186   8.604  1.3036 -0.4213  2.6900
 2366SOL    HW218732   0.238   2.091   8.537  0.6120 -1.4720  1.2332
 2367SOL     OW18733   3.478   1.874  11.241 -0.1993 -0.3932 -0.2557
 2367SOL    HW118734   3.543   1.876  11.170  1.1839 -0.9367  1.0034
 2367SOL    HW218735   3.413   1.931  11.201 -0.1423  1.8163  2.8224
 2368SOL     OW18736   3.344   3.852   8.235  0.7563  0.7410  0.1954
 2368SOL    HW118737   3.262   3.824   8.194  0.5237  1.8190 -0.0772
 2368SOL    HW218738   3.387   3.768   8.251 -1.8388 -0.3612  1.4352
 2369SOL     OW18739   3.621   2.657   6.742  0.0909  0.2128 -0.4344
 2369SOL    HW118740   3.596   2.671   6.833  0.5842 -0.6091 -0.1753
 2369SOL    HW218741   3.599   2.744   6.710 -0.2753  0.3758  0.2717
 2370SOL     OW18742   1.246   0.160   7.796 -1.1315  0.1996 -0.1332
 2370SOL    HW118743   1.294   0.217   7.856 -0.9570  1.9679 -1.9449
 2370SOL    HW218744   1.159   0.146   7.834 -2.2031  1.3015 -2.1652
 2371SOL     OW18745   4.180   2.136   8.699 -0.1628 -0.0377  0.1947
 2371SOL    HW118746   4.263   2.177   8.679  0.1443 -0.3996  0.7202
 2371SOL    HW218747   4.185   2.045   8.669 -1.3907 -0.0810  0.0972
 2372SOL     OW18748   1.117   3.326   4.929 -0.1626 -0.1634 -0.2387
 2372SOL    HW118749   1.153   3.410   4.900  0.2959 -0.2281  0.1563
 2372SOL    HW218750   1.175   3.297   4.999 -1.8415 -0.7692  0.9081
 2373SOL     OW18751   0.433   4.131  15.496 -0.3398  0.0696 -0.0297
 2373SOL    HW118752   0.487   4.054  15.478 -2.0904 -1.1509 -0.1003
 2373SOL    HW218753   0.434   4.160  15.405 -0.3410  2.0215  0.5920
 2374SOL     OW18754   3.296   0.499   1.436  0.2936  0.0570 -0.0715
 2374SOL    HW118755   3.371   0.456   1.395  0.7979 -0.5473  1.4906
 2374SOL    HW218756   3.350   0.561   1.484  0.6935  0.3628 -0.9179
 2375SOL     OW18757   0.083   1.095   7.021 -0.1229  0.1067 -0.1003
 2375SOL    HW118758   0.056   1.166   6.963 -0.6045 -1.2939 -1.5858
 2375SOL    HW218759   0.177   1.080   7.010 -0.0452 -0.0677  0.7797
 2376SOL     OW18760   1.706   2.657   8.403 -0.0994  0.4102  0.0481
 2376SOL    HW118761   1.774   2.725   8.401  0.2950 -0.0403 -1.5291
 2376SOL    HW218762   1.631   2.699   8.361 -0.0945 -1.2406 -1.5731
 2377SOL     OW18763   4.509   4.671  11.825  0.1027  0.7503  0.4288
 2377SOL    HW118764   4.527   0.027  11.847 -0.2947  0.3205  2.4896
 2377SOL    HW218765   4.543   4.626  11.902  0.0461 -0.2053 -0.0961
 2378SOL     OW18766   0.633   4.220   5.296 -0.4490 -0.0204 -0.5289
 2378SOL    HW118767   0.574   4.147   5.315 -0.7662  0.4397  0.2804
 2378SOL    HW218768   0.609   4.244   5.206 -1.5806 -3.4382 -1.1169
 2379SOL     OW18769   1.343   2.103   3.920  0.0873  0.6892  0.2766
 2379SOL    HW118770   1.361   2.119   3.827 -2.9689 -0.5709 -0.5022
 2379SOL    HW218771   1.322   2.010   3.913  4.5279 -0.4565  1.6439
 2380SOL     OW18772   2.805   1.823   5.882  0.4362  0.1234 -0.1608
 2380SOL    HW118773   2.763   1.900   5.921  0.7873  1.1290 -1.7675
 2380SOL    HW218774   2.872   1.808   5.948  1.2476  0.7598 -0.8317
 2381SOL     OW18775   4.188   3.260   3.073 -0.1860 -0.0841 -0.1310
 2381SOL    HW118776   4.120   3.313   3.030  0.0070  0.9599  0.8690
 2381SOL    HW218777   4.141   3.246   3.155 -1.6211 -0.2988 -0.9819
 2382SOL     OW18778   1.848   0.949  15.796 -0.2171 -0.4929 -0.6662
 2382SOL    HW118779   1.799   0.889  15.739 -1.3246  2.0807 -2.4339
 2382SOL    HW218780   1.797   1.029  15.782  0.0788  0.2304  2.3869
 2383SOL     OW18781   3.714   1.433  17.659 -0.4318  0.2549  0.2215
 2383SOL    HW118782   3.730   1.358  17.602 -0.4289 -0.1618  0.7759
 2383SOL    HW218783   3.782   1.419  17.724  1.2877  2.9401 -0.9744
 2384SOL     OW18784   3.092   2.252   7.845  0.2607  0.3517  0.0556
 2384SOL    HW118785   3.186   2.242   7.829  0.5437  0.4418  1.6124
 2384SOL    HW218786   3.097   2.251   7.941  1.0460  0.1849  0.0138
 2385SOL     OW18787   1.726   1.985  17.276 -0.6413  0.2164 -0.3479
 2385SOL    HW118788   1.690   1.978  17.187 -1.1408 -0.2512 -0.1173
 2385SOL    HW218789   1.679   2.064  17.302  0.1016  1.0214 -1.4767
 2386SOL     OW18790   4.695   4.526   2.187  0.3076 -0.6573  0.3872
 2386SOL    HW118791   4.639   4.554   2.259 -0.2035 -2.2355  0.6046
 2386SOL    HW218792   4.697   4.431   2.199 -0.1897 -0.4669  1.9002
 2387SOL     OW18793   3.585   2.916  16.654 -0.1440  0.5081  0.0818
 2387SOL    HW118794   3.601   2.842  16.594 -1.4057 -2.5210  3.4861
 2387SOL    HW218795   3.660   2.921  16.713 -0.1808 -0.5537  0.2311
 2388SOL     OW18796   4.012   0.675   1.266  0.1877 -0.5905 -0.2575
 2388SOL    HW118797   4.038   0.639   1.351 -0.1786  1.9606  0.9473
 2388SOL    HW218798   4.058   0.759   1.273 -1.6386  0.4849 -1.2201
 2389SOL     OW18799   3.281   3.425   3.639  0.0921 -0.3264 -0.1028
 2389SOL    HW118800   3.266   3.331   3.654  0.7200 -0.4581 -0.3152
 2389SOL    HW218801   3.330   3.420   3.557  0.7578  0.0490  0.2753
 2390SOL     OW18802   1.106   0.944  16.075 -0.9554 -0.1749 -0.5487
 2390SOL    HW118803   1.107   0.933  15.980 -2.0133  0.0419 -0.5832
 2390SOL    HW218804   1.157   0.868  16.103  0.1294  0.5263 -0.6330
 2391SOL     OW18805   2.569   3.836   8.934 -0.1652 -0.9519  0.7384
 2391SOL    HW118806   2.513   3.779   8.881 -2.0971  0.4739  1.2621
 2391SOL    HW218807   2.596   3.896   8.864 -1.2331 -1.6319 -0.2705
 2392SOL     OW18808   1.872   4.490   6.297 -0.0568 -0.3235 -0.2142
 2392SOL    HW118809   1.823   4.572   6.287 -0.3224 -0.4222  0.3188
 2392SOL    HW218810   1.800   4.437   6.331 -0.8652  0.9568  0.0636
 2393SOL     OW18811   2.016   0.286   5.613 -0.5247 -0.0049 -0.2135
 2393SOL    HW118812   2.093   0.339   5.632 -1.3489  1.2980 -0.5420
 2393SOL    HW218813   2.020   0.223   5.685  2.6336  1.4944  0.9019
 2394SOL     OW18814   0.186   3.127   2.820  0.0456 -0.0904 -0.5292
 2394SOL    HW118815   0.103   3.152   2.861 -1.0632 -0.8455 -2.2504
 2394SOL    HW218816   0.161   3.062   2.753  0.5996  0.1280 -0.9468
 2395SOL     OW18817   3.315   4.617  16.346 -0.0068  0.4312  0.3018
 2395SOL    HW118818   3.224   4.594  16.368 -0.0804  3.1301  2.7943
 2395SOL    HW218819   3.355   4.530  16.345 -0.4171  0.2663 -1.5490
 2396SOL     OW18820   1.367   1.697   3.375 -0.1875 -0.1474 -0.1844
 2396SOL    HW118821   1.431   1.680   3.444 -0.7184  2.2740  0.8907
 2396SOL    HW218822   1.306   1.623   3.375 -1.1091  0.6239  1.7208
 2397SOL     OW18823   0.149   1.563   3.080 -0.4444 -0.7000 -0.0793
 2397SOL    HW118824   0.118   1.476   3.105 -2.8243 -0.3257 -1.6969
 2397SOL    HW218825   0.232   1.544   3.035 -0.5461 -0.5788 -0.3156
 2398SOL     OW18826   1.777   0.242   8.825 -0.1400  0.1864 -0.1737
 2398SOL    HW118827   1.788   0.155   8.864 -2.4456  0.3304  0.7734
 2398SOL    HW218828   1.818   0.292   8.896 -0.3966 -0.0868  0.1621
 2399SOL     OW18829   1.245   4.680   9.311  0.0171  0.2111 -0.2636
 2399SOL    HW118830   1.195   4.633   9.244 -0.2531  0.1534 -0.0153
 2399SOL    HW218831   1.276   4.600   9.353  0.6098 -0.0080 -1.0991
 2400SOL     OW18832   1.985   2.474   9.652 -0.0626  0.2882 -0.5130
 2400SOL    HW118833   1.950   2.557   9.619 -1.1107  0.4890  1.1184
 2400SOL    HW218834   1.895   2.442   9.658  0.2516 -0.7338 -1.3701
 2401SOL     OW18835   3.518   1.911   8.680 -0.4399  0.3665  1.2268
 2401SOL    HW118836   3.597   1.965   8.677 -0.9118  0.8257 -3.4600
 2401SOL    HW218837   3.522   1.855   8.757  0.3554 -1.7212 -0.3414
 2402SOL     OW18838   4.530   4.682   9.948  0.4177  0.1821 -0.0030
 2402SOL    HW118839   4.489   4.621  10.009 -1.3312  0.8565 -0.4951
 2402SOL    HW218840   4.465   4.684   9.878 -1.0966  0.1652  1.4060
 2403SOL     OW18841   3.210   1.291  10.895  0.3667  0.3817 -0.0358
 2403SOL    HW118842   3.155   1.315  10.970  2.0375 -0.2793  1.3980
 2403SOL    HW218843   3.292   1.335  10.917  0.5517  0.2573 -0.4862
 2404SOL     OW18844   0.630   3.209   5.185 -0.7787 -0.4332  0.3322
 2404SOL    HW118845   0.668   3.130   5.222 -3.2869 -1.0433  1.6661
 2404SOL    HW218846   0.635   3.277   5.253 -1.8400 -0.0285  0.0110
 2405SOL     OW18847   2.686   0.424  17.007 -0.2379 -0.8265  0.5839
 2405SOL    HW118848   2.781   0.430  17.014 -0.0701 -2.1706 -0.4905
 2405SOL    HW218849   2.668   0.515  17.030  0.0093 -1.4098  3.0667
 2406SOL     OW18850   0.377   3.775   8.181 -0.6042 -0.1513 -0.0956
 2406SOL    HW118851   0.354   3.847   8.240  0.3388  1.9967 -2.3607
 2406SOL    HW218852   0.299   3.786   8.125 -1.8422 -1.3394  1.3845
 2407SOL     OW18853   0.269   2.035   7.362 -0.6322  0.7155 -0.6017
 2407SOL    HW118854   0.282   1.941   7.359 -0.3834  0.6825  1.4353
 2407SOL    HW218855   0.336   2.080   7.311  0.1778  0.7743  0.5169
 2408SOL     OW18856   2.483   0.972   5.249 -0.5003 -0.3443 -0.3460
 2408SOL    HW118857   2.472   1.009   5.161  0.3528  0.6142 -0.0555
 2408SOL    HW218858   2.573   0.940   5.256 -1.0408 -1.8739 -0.4412
 2409SOL     OW18859   1.389   1.668   6.722  0.3245  0.1598  0.1440
 2409SOL    HW118860   1.333   1.745   6.710 -0.4501  0.1126  3.3809
 2409SOL    HW218861   1.452   1.706   6.784  1.0267  1.6499 -1.4879
 2410SOL     OW18862   1.419   1.272  15.120  0.2829  0.2884 -0.1193
 2410SOL    HW118863   1.511   1.249  15.130  0.2430 -0.6560 -1.8954
 2410SOL    HW218864   1.421   1.367  15.120 -0.9165  0.3243  0.1702
 2411SOL     OW18865   2.467   4.673   5.008  0.4328 -0.6192  0.3080
 2411SOL    HW118866   2.529   0.010   5.019 -0.7599  0.3853  0.5533
 2411SOL    HW218867   2.520   4.614   4.955  1.4882 -0.1565  0.8472
 2412SOL     OW18868   2.893   1.573   4.812  0.3734 -0.0661 -0.1836
 2412SOL    HW118869   2.847   1.632   4.871 -0.8156  0.6264 -1.8053
 2412SOL    HW218870   2.906   1.493   4.863  0.4602  1.4506  2.1721
 2413SOL     OW18871   0.325   1.145   5.433 -0.2223  0.7690 -0.2242
 2413SOL    HW118872   0.331   1.132   5.528 -0.3538  0.9397 -0.1920
 2413SOL    HW218873   0.239   1.110   5.410 -0.3797 -0.1205  1.7324
 2414SOL     OW18874   2.451   4.353  12.575 -0.0598  0.5701  0.4036
 2414SOL    HW118875   2.493   4.426  12.530  0.1492 -0.2565 -0.7692
 2414SOL    HW218876   2.504   4.335  12.653 -0.1641 -0.8083  0.1677
 2415SOL     OW18877   1.116   0.048   4.714 -0.1799 -0.2931  0.1533
 2415SOL    HW118878   1.163   0.116   4.761 -0.8302  1.7564 -2.1838
 2415SOL    HW218879   1.025   0.077   4.716  0.1081  0.6067 -0.0612
 2416SOL     OW18880   4.632   0.901  10.877 -0.5039 -0.0149  0.2928
 2416SOL    HW118881   4.540   0.899  10.850  0.1895  0.1038 -2.0771
 2416SOL    HW218882   4.633   0.994  10.897 -3.1517  0.0214  0.2597
 2417SOL     OW18883   2.451   1.436   3.303  0.0103 -0.3559  0.3128
 2417SOL    HW118884   2.530   1.383   3.308 -1.0725 -2.0658 -0.6517
 2417SOL    HW218885   2.421   1.420   3.392 -1.1328 -0.3715 -0.0695
 2418SOL     OW18886   1.207   2.223   5.911  0.4859  0.2432  0.1898
 2418SOL    HW118887   1.233   2.155   5.849  1.0859 -1.5218  2.3791
 2418SOL    HW218888   1.284   2.245   5.964  0.8173  2.1937 -1.0911
 2419SOL     OW18889   0.359   2.777   2.923 -0.1594  0.1854  0.4483
 2419SOL    HW118890   0.448   2.747   2.904  0.0761  0.7059  0.7182
 2419SOL    HW218891   0.310   2.746   2.846 -0.6319 -0.8304  1.1617
 2420SOL     OW18892   0.141   1.884   5.096 -0.7997 -0.1532 -0.2994
 2420SOL    HW118893   0.186   1.883   5.012 -0.2633  2.0608 -0.0244
 2420SOL    HW218894   0.192   1.954   5.137  0.1350 -0.7310 -0.4713
 2421SOL     OW18895   1.235   2.547   6.240 -0.1305  0.2857  1.0281
 2421SOL    HW118896   1.254   2.457   6.267 -1.8630 -0.7544 -1.2792
 2421SOL    HW218897   1.176   2.569   6.313  1.8721  2.5363  1.9786
 2422SOL     OW18898   0.393   0.797  12.339 -0.3919  0.4002 -0.4409
 2422SOL    HW118899   0.388   0.719  12.283 -1.5089  0.9922 -1.1470
 2422SOL    HW218900   0.311   0.793  12.387 -0.9241  3.1026 -1.1591
 2423SOL     OW18901   3.111   4.585   7.394  0.2058 -0.2070 -0.7144
 2423SOL    HW118902   3.058   4.543   7.326  1.3566 -2.2171 -0.3645
 2423SOL    HW218903   3.090   4.529   7.468  1.0724  2.6056  1.6688
 2424SOL     OW18904   1.655   1.132   5.430 -0.7375 -0.3831 -0.1300
 2424SOL    HW118905   1.607   1.064   5.383 -0.7036  0.0995 -0.8728
 2424SOL    HW218906   1.591   1.153   5.498  1.5875 -1.1138  2.2808
 2425SOL     OW18907   2.618   0.099   1.460  0.1561 -0.2841  0.3575
 2425SOL    HW118908   2.581   0.067   1.377 -0.6665 -0.7811  0.9168
 2425SOL    HW218909   2.565   0.038   1.512 -1.7768  0.1440 -1.1085
 2426SOL     OW18910   1.304   4.213   1.058  0.0758  0.0811 -0.3335
 2426SOL    HW118911   1.210   4.206   1.072  0.4657 -3.3764  0.4987
 2426SOL    HW218912   1.321   4.258   0.974 -0.8836 -1.6029 -1.4278
 2427SOL     OW18913   2.583   2.287   5.988  0.1380  0.0056  0.1666
 2427SOL    HW118914   2.653   2.351   5.973 -0.0636  0.2201  0.1290
 2427SOL    HW218915   2.511   2.338   5.951 -0.4072 -1.5828 -0.9744
 2428SOL     OW18916   3.265   4.266   3.638  0.1721  0.4943 -0.5870
 2428SOL    HW118917   3.234   4.328   3.572  1.7076  2.4856  0.5749
 2428SOL    HW218918   3.197   4.198   3.638  0.3028  0.3546 -2.0156
 2429SOL     OW18919   2.367   3.009   6.025 -0.3676  0.2814 -0.4005
 2429SOL    HW118920   2.356   3.000   5.930  0.2972  0.5740 -0.5051
 2429SOL    HW218921   2.424   2.938   6.054  2.4260  1.4325 -3.0923
 2430SOL     OW18922   2.299   1.100   8.461  0.3006  0.6886  0.5906
 2430SOL    HW118923   2.393   1.110   8.476  0.7533 -1.3952 -0.7920
 2430SOL    HW218924   2.286   1.183   8.414 -2.1110 -0.7893 -1.3514
 2431SOL     OW18925   4.562   3.496  12.881  0.3963  0.2474  0.1764
 2431SOL    HW118926   4.477   3.454  12.892  0.8709 -0.8956 -0.6143
 2431SOL    HW218927   4.589   3.525  12.968  0.2768 -0.6008  0.4958
 2432SOL     OW18928   3.122   2.253  14.741 -0.4780 -0.2588 -0.0491
 2432SOL    HW118929   3.097   2.311  14.813 -3.4317 -1.7080  0.0546
 2432SOL    HW218930   3.205   2.217  14.773  0.0882  0.7528 -0.3418
 2433SOL     OW18931   3.303   3.519   4.885 -0.2997 -0.5097  0.2080
 2433SOL    HW118932   3.365   3.583   4.850 -0.4509  0.3255  1.4577
 2433SOL    HW218933   3.220   3.531   4.841  1.1212  1.3082 -1.9603
 2434SOL     OW18934   0.985   0.771  16.656 -0.1196 -0.1215  0.2542
 2434SOL    HW118935   0.977   0.860  16.692 -2.4927 -0.4857  0.6266
 2434SOL    HW218936   0.898   0.737  16.639 -0.4401  1.2309 -0.8481
 2435SOL     OW18937   1.948   2.061   6.224 -0.2098  0.3595 -0.5218
 2435SOL    HW118938   1.900   1.980   6.242  0.4697  0.6091  2.4083
 2435SOL    HW218939   1.934   2.110   6.305 -0.4892  1.4397 -1.2227
 2436SOL     OW18940   3.897   0.964  16.508  0.0632  0.0920  0.7793
 2436SOL    HW118941   3.849   0.900  16.455 -1.4926 -1.6979  4.3674
 2436SOL    HW218942   3.981   0.919  16.510  0.5482  0.9019 -1.5051
 2437SOL     OW18943   2.435   0.260   4.931 -0.0583  1.0104  0.2351
 2437SOL    HW118944   2.481   0.310   4.864 -0.6631  0.5826 -0.5038
 2437SOL    HW218945   2.494   0.185   4.946 -2.3433 -0.9204 -0.4492
 2438SOL     OW18946   3.249   2.518   9.067 -0.2138 -0.8159  0.2731
 2438SOL    HW118947   3.255   2.438   9.017  0.9955 -0.3388 -0.3463
 2438SOL    HW218948   3.239   2.481   9.155 -1.5297  0.6678  0.7463
 2439SOL     OW18949   2.790   1.385   3.791 -0.3552  0.2905  0.0637
 2439SOL    HW118950   2.838   1.467   3.797 -0.2443  0.0470  2.3399
 2439SOL    HW218951   2.855   1.330   3.747  2.7204  1.4677  3.2076
 2440SOL     OW18952   3.715   4.643   7.945  0.2634 -0.1320 -0.2610
 2440SOL    HW118953   3.663   4.722   7.956  0.4985  0.0926 -0.7629
 2440SOL    HW218954   3.718   4.607   8.034 -2.1709 -0.4155 -0.2935
 2441SOL     OW18955   1.145   2.883  16.271  0.2065 -0.0841  0.1126
 2441SOL    HW118956   1.236   2.888  16.297  0.4211 -0.6848 -0.5106
 2441SOL    HW218957   1.147   2.966  16.224  0.3111 -0.2587 -0.1855
 2442SOL     OW18958   1.507   0.507   4.156  0.3097 -0.3879  0.3826
 2442SOL    HW118959   1.443   0.438   4.135  0.1737 -0.8108  2.1838
 2442SOL    HW218960   1.583   0.450   4.157  0.9614  0.4608 -1.1986
 2443SOL     OW18961   1.444   0.931  10.344 -0.0660 -0.2341  0.5378
 2443SOL    HW118962   1.472   1.021  10.324  1.3475 -0.8670 -0.3147
 2443SOL    HW218963   1.517   0.882  10.381  1.6092 -0.2605 -2.7648
 2444SOL     OW18964   2.747   1.600   5.759  0.2657 -0.0474 -0.0294
 2444SOL    HW118965   2.834   1.563   5.768  0.5069  1.1703  2.4516
 2444SOL    HW218966   2.768   1.686   5.795  0.0161 -0.0395  0.0975
 2445SOL     OW18967   1.426   1.385   9.263  0.0271 -0.2159  0.3494
 2445SOL    HW118968   1.480   1.322   9.312 -0.1809  1.7108  3.0318
 2445SOL    HW218969   1.366   1.312   9.251  2.8178 -3.0133  3.3249
 2446SOL     OW18970   3.227   0.947   6.275 -0.4656  0.3682 -0.0978
 2446SOL    HW118971   3.245   1.035   6.308  0.6211  0.3250 -0.5695
 2446SOL    HW218972   3.317   0.930   6.249 -0.4487 -1.3935  1.0994
 2447SOL     OW18973   3.271   1.272  17.702 -0.0317 -0.1827 -0.1395
 2447SOL    HW118974   3.274   1.320  17.620 -2.4854  0.3780  0.0825
 2447SOL    HW218975   3.343   1.306   0.015  0.1761  2.2860 -2.0495
 2448SOL     OW18976   4.476   0.833  14.702 -0.1647  0.3045 -0.5569
 2448SOL    HW118977   4.439   0.799  14.783  2.5240 -0.8449  0.1892
 2448SOL    HW218978   4.484   0.746  14.663 -0.3785  0.4224 -0.8658
 2449SOL     OW18979   3.778   3.329   2.916 -0.4701 -0.0334  0.1095
 2449SOL    HW118980   3.861   3.374   2.929 -0.8605  0.7203 -0.0014
 2449SOL    HW218981   3.808   3.242   2.889 -1.4599 -0.3953  0.1848
 2450SOL     OW18982   0.746   3.580   5.661 -0.1942  0.3249  0.2455
 2450SOL    HW118983   0.798   3.646   5.707 -2.5809  2.2300  0.2427
 2450SOL    HW218984   0.751   3.620   5.574 -0.5621  1.1974  0.6181
 2451SOL     OW18985   0.392   4.237   7.987 -0.5642  0.1251  0.2381
 2451SOL    HW118986   0.450   4.226   7.911 -0.7169 -1.4047  0.3382
 2451SOL    HW218987   0.336   4.300   7.941 -0.7341 -2.4463 -3.0870
 2452SOL     OW18988   0.836   2.549   9.759 -0.0203 -0.4848  0.4248
 2452SOL    HW118989   0.848   2.599   9.678 -0.3542 -0.2597  0.5175
 2452SOL    HW218990   0.806   2.469   9.716 -0.9249  0.1638 -0.1346
 2453SOL     OW18991   3.040   0.603   3.468  0.9331 -0.4647 -0.4129
 2453SOL    HW118992   3.039   0.507   3.470 -0.6660 -0.4477 -0.4714
 2453SOL    HW218993   2.969   0.639   3.521 -0.6389 -3.5672 -0.3765
 2454SOL     OW18994   3.852   2.438   6.150  0.0544 -0.1447 -0.1221
 2454SOL    HW118995   3.929   2.472   6.105 -2.1210  1.8187 -2.3156
 2454SOL    HW218996   3.845   2.356   6.102  3.1741 -1.7835  2.1600
 2455SOL     OW18997   1.282   3.333  10.256  0.2204  0.4817 -0.0807
 2455SOL    HW118998   1.197   3.376  10.243  0.1070  0.0678 -0.7230
 2455SOL    HW218999   1.260   3.240  10.252 -1.6300  0.9578 -1.0932
 2456SOL     OW19000   1.393   4.234   9.587  0.2836 -0.1060  0.0600
 2456SOL    HW119001   1.313   4.218   9.636 -0.6398 -0.3192 -1.5455
 2456SOL    HW219002   1.448   4.264   9.660  0.2972 -1.2208  0.5056
 2457SOL     OW19003   0.267   4.394   0.637 -0.1803 -0.1618  0.5999
 2457SOL    HW119004   0.359   4.417   0.629 -0.2568 -0.0829 -0.0694
 2457SOL    HW219005   0.259   4.406   0.732 -0.0600  0.9047  0.4738
 2458SOL     OW19006   0.900   1.399  17.331 -0.3692  0.4597  0.1171
 2458SOL    HW119007   0.915   1.321  17.278 -0.9683  0.3531  0.1013
 2458SOL    HW219008   0.884   1.461  17.260  0.5515  0.6449  0.0641
 2459SOL     OW19009   4.706   3.844   4.169 -0.1123 -0.0737  0.7352
 2459SOL    HW119010   4.635   3.799   4.213 -1.3718  1.0364 -0.1303
 2459SOL    HW219011   0.038   3.833   4.236 -1.8117 -2.0187  2.1221
 2460SOL     OW19012   4.675   3.604   3.529 -0.6671  0.3528  0.0594
 2460SOL    HW119013   4.674   3.600   3.434 -0.5940 -0.7217  0.1092
 2460SOL    HW219014   4.599   3.549   3.547  0.1904 -1.0008 -0.4513
 2461SOL     OW19015   1.028   1.540   8.445  0.4524  0.0643  0.0175
 2461SOL    HW119016   0.962   1.608   8.459 -0.1062 -0.3104 -0.8500
 2461SOL    HW219017   1.098   1.592   8.404  0.0520 -0.6460 -1.5503
 2462SOL     OW19018   4.557   0.333  16.754 -0.4744 -0.3250 -0.1521
 2462SOL    HW119019   4.482   0.390  16.770  0.1885  0.3643  0.5090
 2462SOL    HW219020   4.552   0.326  16.659 -1.1314 -1.3801 -0.0385
 2463SOL     OW19021   3.252   1.053   7.178  0.6088  0.2846  0.3646
 2463SOL    HW119022   3.311   1.124   7.154  0.6599 -0.4158 -1.5839
 2463SOL    HW219023   3.191   1.056   7.104  0.8625 -1.1521  0.0999
 2464SOL     OW19024   3.968   0.030   7.803  0.2894 -0.2770 -0.3431
 2464SOL    HW119025   3.878   0.041   7.836  0.3300 -1.3301  0.1305
 2464SOL    HW219026   3.969   0.102   7.740  2.1223 -0.0083  0.0019
 2465SOL     OW19027   2.473   2.550  11.000 -0.6300 -0.2897  0.2251
 2465SOL    HW119028   2.408   2.614  11.026 -0.5696  0.6108 -1.8420
 2465SOL    HW219029   2.423   2.525  10.923  1.8708  0.0934 -1.5305
 2466SOL     OW19030   3.989   2.340  16.524  0.6539 -0.2082  0.2138
 2466SOL    HW119031   4.076   2.314  16.553  1.4788 -0.1533 -2.2422
 2466SOL    HW219032   3.938   2.302  16.596  0.4321 -1.3810 -0.5648
 2467SOL     OW19033   3.679   0.622   6.457  0.0003  0.4124  0.2932
 2467SOL    HW119034   3.643   0.540   6.492 -1.2760  0.0463 -1.8305
 2467SOL    HW219035   3.771   0.597   6.447 -0.2575 -0.8653  1.1598
 2468SOL     OW19036   0.663   0.644  10.589  0.0243 -0.0431 -0.1626
 2468SOL    HW119037   0.635   0.720  10.640 -0.1784 -1.4796  1.9005
 2468SOL    HW219038   0.582   0.623  10.544 -0.6330  0.7941  0.6378
 2469SOL     OW19039   1.047   1.364   6.078 -0.6453 -0.8097 -0.6174
 2469SOL    HW119040   1.074   1.346   5.988 -2.2770 -0.5154 -1.1727
 2469SOL    HW219041   1.127   1.352   6.129 -0.1154 -0.2129 -1.3215
 2470SOL     OW19042   0.653   1.961   1.716 -0.1457  0.3458  0.4107
 2470SOL    HW119043   0.648   2.057   1.723 -1.9596  0.1993  1.1995
 2470SOL    HW219044   0.673   1.950   1.809 -0.8058 -1.1679  0.3684
 2471SOL     OW19045   1.930   4.363  14.884 -0.3102 -0.1302 -0.0340
 2471SOL    HW119046   1.893   4.451  14.896 -0.1238 -0.2157  1.1891
 2471SOL    HW219047   2.005   4.389  14.829 -1.1304 -0.0571 -1.1104
 2472SOL     OW19048   4.671   0.797   7.730  0.2305  0.4972  0.1124
 2472SOL    HW119049   0.014   0.842   7.699  0.0182  1.6382  1.2391
 2472SOL    HW219050   4.715   0.714   7.713 -0.8098  0.4071 -2.1650
 2473SOL     OW19051   2.457   0.217   6.848 -0.3378 -0.5796 -0.2798
 2473SOL    HW119052   2.419   0.292   6.802  0.8568  0.1011 -0.1893
 2473SOL    HW219053   2.529   0.206   6.785 -1.0134  0.0076 -1.1499
 2474SOL     OW19054   1.156   3.437   7.383 -0.0478  0.3532 -0.1905
 2474SOL    HW119055   1.182   3.409   7.295 -1.6431  1.3772 -0.9774
 2474SOL    HW219056   1.093   3.508   7.381  1.2228  1.4854  0.5869
 2475SOL     OW19057   2.293   2.681   8.185 -0.3960  0.3540 -0.1593
 2475SOL    HW119058   2.263   2.626   8.257 -1.5024  1.1873  0.0117
 2475SOL    HW219059   2.218   2.733   8.159 -2.5152 -1.3882  2.5514
 2476SOL     OW19060   1.920   0.440   2.244 -0.2175 -0.0433  0.0590
 2476SOL    HW119061   1.859   0.512   2.229  0.4269  0.5775  0.4829
 2476SOL    HW219062   1.866   0.361   2.247  0.8711 -0.8365 -1.2869
 2477SOL     OW19063   1.149   3.709   3.538 -0.1851 -0.0727 -0.1524
 2477SOL    HW119064   1.206   3.639   3.507 -0.4771 -1.5878  2.7477
 2477SOL    HW219065   1.073   3.655   3.557  0.0046 -0.4152 -0.3760
 2478SOL     OW19066   4.151   3.093  13.720 -0.5460 -0.0939 -0.0657
 2478SOL    HW119067   4.137   3.186  13.704 -1.3958 -0.4083 -1.2163
 2478SOL    HW219068   4.065   3.062  13.748 -0.6361  0.5334  0.3271
 2479SOL     OW19069   1.973   0.661   2.949  0.0492 -0.4065  0.4004
 2479SOL    HW119070   1.935   0.707   2.874 -1.1682 -2.0458  0.0186
 2479SOL    HW219071   2.035   0.727   2.981  0.6198 -1.4848  1.5629
 2480SOL     OW19072   1.536   0.736   1.506  0.3715 -0.0717  0.0990
 2480SOL    HW119073   1.540   0.774   1.593  0.6002 -1.4153  0.6790
 2480SOL    HW219074   1.460   0.678   1.511  1.1835 -0.9182  2.8288
 2481SOL     OW19075   1.740   3.963   2.092 -0.0358 -0.0938 -0.1216
 2481SOL    HW119076   1.662   3.913   2.069 -0.6869  0.8605 -0.0116
 2481SOL    HW219077   1.724   3.968   2.186  1.7527 -3.9790  0.3729
 2482SOL     OW19078   4.258   3.804   9.914  0.2592 -0.0640 -0.4056
 2482SOL    HW119079   4.328   3.824   9.851  0.7163 -1.5459 -0.3655
 2482SOL    HW219080   4.299   3.732   9.961  1.9169  0.1485 -1.4986
 2483SOL     OW19081   4.178   1.728  13.702 -0.2393 -0.4383  0.6126
 2483SOL    HW119082   4.214   1.658  13.648  2.0634  0.5473  0.8808
 2483SOL    HW219083   4.197   1.808  13.651 -1.6244 -1.0377 -0.8597
 2484SOL     OW19084   3.077   0.921   2.061  0.6621 -0.0314  0.2239
 2484SOL    HW119085   3.149   0.974   2.094  2.5655 -1.3311 -1.8676
 2484SOL    HW219086   3.072   0.855   2.130 -0.6806 -1.2314 -1.0078
 2485SOL     OW19087   1.569   4.699  12.852  0.0100  0.0513 -0.1927
 2485SOL    HW119088   1.538   0.055  12.854 -0.6248 -0.2047  1.5288
 2485SOL    HW219089   1.489   4.651  12.873  0.3508 -0.4780 -0.0917
 2486SOL     OW19090   0.966   1.170   0.423  0.4844 -0.2742 -0.5611
 2486SOL    HW119091   0.989   1.142   0.334  0.6040 -1.1878 -0.2384
 2486SOL    HW219092   1.057   1.181   0.451  0.2964 -1.0426  0.3396
 2487SOL     OW19093   1.834   1.533   1.815  0.1034  0.6477  0.3550
 2487SOL    HW119094   1.927   1.519   1.795 -0.3474 -0.6653 -0.7509
 2487SOL    HW219095   1.803   1.543   1.725  0.7645  0.8312  0.1482
 2488SOL     OW19096   0.901   1.809   8.994  0.4401 -0.0127 -0.7138
 2488SOL    HW119097   0.816   1.823   8.953 -0.8281 -1.9401  1.2776
 2488SOL    HW219098   0.911   1.901   9.018 -4.1742 -0.6034  3.4126
 2489SOL     OW19099   0.591   0.759   7.576  0.2583  0.2699 -0.9878
 2489SOL    HW119100   0.663   0.708   7.540  1.1791  0.0615  1.1263
 2489SOL    HW219101   0.626   0.848   7.578 -0.6814  0.5874  1.8342
 2490SOL     OW19102   1.252   4.726   3.278 -0.0064 -0.0903  0.7736
 2490SOL    HW119103   1.221   0.051   3.210 -0.9437 -0.3926  0.9359
 2490SOL    HW219104   1.174   4.670   3.278  0.9204 -1.3952 -0.6990
 2491SOL     OW19105   1.974   2.687   8.691 -0.2772  0.3110  0.5387
 2491SOL    HW119106   2.029   2.765   8.687  1.0409 -0.7545 -2.1039
 2491SOL    HW219107   1.990   2.654   8.780 -2.2632  0.5985  0.9965
 2492SOL     OW19108   3.865   1.001   8.171 -0.0722 -0.2329 -0.4644
 2492SOL    HW119109   3.955   1.031   8.155  0.3474 -1.6712 -0.7623
 2492SOL    HW219110   3.886   0.922   8.121  0.1218 -1.2705  1.2879
 2493SOL     OW19111   3.810   3.235   6.112  0.1376 -0.8017  0.2481
 2493SOL    HW119112   3.866   3.234   6.190 -0.0689 -2.0198  0.3811
 2493SOL    HW219113   3.741   3.176   6.144  0.0594 -0.5721  0.5023
 2494SOL     OW19114   0.697   2.351   9.642  0.1558 -0.4725 -0.5309
 2494SOL    HW119115   0.703   2.299   9.562 -0.7383 -1.0108 -0.2413
 2494SOL    HW219116   0.666   2.288   9.706  1.4619 -0.8729 -0.2903
 2495SOL     OW19117   2.161   3.642  16.420 -0.5535 -0.1752  0.3999
 2495SOL    HW119118   2.209   3.648  16.338  2.2560  1.6544  2.1924
 2495SOL    HW219119   2.070   3.658  16.394 -0.1455  0.7807 -0.4228
 2496SOL     OW19120   2.880   4.511   7.931  0.1734 -0.1497 -0.8996
 2496SOL    HW119121   2.861   4.561   8.011  0.4532 -1.0330 -0.2846
 2496SOL    HW219122   2.872   4.586   7.872  0.3764  1.2281  0.8230
 2497SOL     OW19123   2.031   2.861   5.510 -1.0763 -0.5208  0.1831
 2497SOL    HW119124   2.021   2.916   5.588 -0.2279  1.3748 -1.0503
 2497SOL    HW219125   2.109   2.893   5.465 -0.6249 -0.6426  0.8825
 2498SOL     OW19126   1.392   2.749   8.904 -0.2676  0.3232  0.2240
 2498SOL    HW119127   1.332   2.799   8.849  1.0268 -0.0004 -1.4875
 2498SOL    HW219128   1.418   2.690   8.833 -0.6444  1.2719 -0.7059
 2499SOL     OW19129   0.156   4.298   9.496  0.0839  0.2087 -0.5717
 2499SOL    HW119130   0.084   4.361   9.484 -0.1752  0.1537  0.7456
 2499SOL    HW219131   0.227   4.347   9.455  0.2759  0.8722  0.5754
 2500SOL     OW19132   2.975   1.004   1.818  0.7861 -0.3114 -0.8053
 2500SOL    HW119133   3.017   0.962   1.893 -2.6255 -0.4884  0.9976
 2500SOL    HW219134   3.047   1.064   1.799 -0.6122  1.4030 -0.6620
 2501SOL     OW19135   0.250   0.278  11.196  0.4823 -0.0826  0.1769
 2501SOL    HW119136   0.179   0.229  11.236  0.4589  0.2744  0.5705
 2501SOL    HW219137   0.209   0.349  11.146  0.1834 -0.0050  0.5377
 2502SOL     OW19138   2.909   2.604   5.204  0.1684 -0.0886  0.4273
 2502SOL    HW119139   2.842   2.547   5.242 -0.1230 -0.2580 -0.3379
 2502SOL    HW219140   2.979   2.546   5.234  1.4122  1.9626  1.5186
 2503SOL     OW19141   2.384   4.293   3.795 -0.2542  0.2415 -0.0064
 2503SOL    HW119142   2.387   4.261   3.885  0.1852  0.6744  0.1348
 2503SOL    HW219143   2.421   4.221   3.746  1.5416  1.9613 -1.1841
 2504SOL     OW19144   0.264   4.268   0.987  0.7914 -0.0144  0.0679
 2504SOL    HW119145   0.312   4.337   1.034  0.3965  1.1281 -1.2019
 2504SOL    HW219146   0.339   4.214   0.964  2.0756  1.8431 -0.1456
 2505SOL     OW19147   4.431   4.357  13.064  0.5676 -0.0973  0.3139
 2505SOL    HW119148   4.485   4.390  12.992 -2.4861  1.8297 -1.0811
 2505SOL    HW219149   4.384   4.428  13.106 -0.7337  0.4080 -2.0207
 2506SOL     OW19150   4.259   0.865   6.378 -0.1582 -0.3039  0.2663
 2506SOL    HW119151   4.255   0.958   6.358 -0.0380 -0.5698 -0.9762
 2506SOL    HW219152   4.171   0.845   6.347 -0.0187 -0.0647 -0.2682
 2507SOL     OW19153   2.637   0.580   6.160  0.0689  0.4920 -0.4153
 2507SOL    HW119154   2.720   0.619   6.186 -0.5634  2.3337 -1.1820
 2507SOL    HW219155   2.593   0.660   6.135 -1.7637 -1.0044 -1.9625
 2508SOL     OW19156   2.248   0.853   5.103  0.2029 -0.0243 -0.0954
 2508SOL    HW119157   2.226   0.776   5.154  0.8837 -0.8135 -1.0026
 2508SOL    HW219158   2.307   0.899   5.163 -0.8853  0.1714  0.8308
 2509SOL     OW19159   2.397   4.636   4.677  0.5914 -0.1207  0.1790
 2509SOL    HW119160   2.308   4.647   4.712  0.5488  1.2637 -0.3294
 2509SOL    HW219161   2.422   4.550   4.709  0.4995 -0.7717 -1.4856
 2510SOL     OW19162   1.035   2.688  17.712 -0.2426 -0.4708  0.0725
 2510SOL    HW119163   1.043   2.594  17.727 -1.9010 -1.0901 -2.8701
 2510SOL    HW219164   1.121   2.724  17.735 -0.1188 -0.2388 -0.7279
 2511SOL     OW19165   4.097   1.862   5.801  0.2361 -0.3384  0.3397
 2511SOL    HW119166   4.020   1.917   5.798 -0.4856 -1.3192  0.9201
 2511SOL    HW219167   4.064   1.775   5.777 -0.1277  0.4831 -2.0464
 2512SOL     OW19168   2.602   1.335   0.979  0.0852 -0.2275  0.0487
 2512SOL    HW119169   2.604   1.376   0.893  1.0214 -2.8873 -1.1939
 2512SOL    HW219170   2.535   1.267   0.968  0.5891 -0.9273  1.2235
 2513SOL     OW19171   2.215   1.359   0.773  0.3081 -0.0566 -0.2426
 2513SOL    HW119172   2.226   1.447   0.736  0.2627  0.6634  1.4222
 2513SOL    HW219173   2.179   1.306   0.703  1.2134  0.2805 -0.9617
 2514SOL     OW19174   0.938   0.777   9.784  0.1261 -0.2169  0.0543
 2514SOL    HW119175   0.892   0.835   9.723 -0.5926 -0.2244  0.5930
 2514SOL    HW219176   1.025   0.817   9.792  0.3248 -0.1828 -2.1907
 2515SOL     OW19177   1.987   1.894   7.145  0.3905 -0.0779 -0.1611
 2515SOL    HW119178   1.950   1.968   7.098 -1.6221 -1.8090 -1.3184
 2515SOL    HW219179   2.064   1.940   7.179  0.6151 -1.0527  0.6723
 2516SOL     OW19180   3.558   3.483   7.994 -0.2308  0.1148 -0.1139
 2516SOL    HW119181   3.631   3.540   7.971  0.9608 -0.4823  2.2572
 2516SOL    HW219182   3.574   3.452   8.083  1.7812 -1.6887 -1.1166
 2517SOL     OW19183   0.960   0.278   8.892  0.4532 -0.6368 -0.0848
 2517SOL    HW119184   0.977   0.307   8.802 -2.8611  0.9967 -0.1843
 2517SOL    HW219185   0.996   0.189   8.889  1.1620 -0.4294  1.9523
 2518SOL     OW19186   1.058   2.677   4.068 -0.8483 -0.8048  0.0977
 2518SOL    HW119187   0.978   2.682   4.016 -0.7767  2.7675  0.3825
 2518SOL    HW219188   1.028   2.631   4.147 -2.3986 -0.3497 -0.2271
 2519SOL     OW19189   0.101   3.829  14.737  1.0148  0.2772 -0.0023
 2519SOL    HW119190   0.048   3.836  14.657 -1.0115  1.7790  1.4686
 2519SOL    HW219191   0.058   3.752  14.773 -0.0979  0.5949 -0.6517
 2520SOL     OW19192   1.328   3.209  11.685  0.4893  0.1417 -0.1141
 2520SOL    HW119193   1.244   3.179  11.720 -0.6368 -0.0250 -2.9783
 2520SOL    HW219194   1.327   3.198  11.590  2.4264  0.2053 -0.1432
 2521SOL     OW19195   3.573   2.452   6.183  0.1020 -0.1092 -0.1930
 2521SOL    HW119196   3.537   2.389   6.121  2.0329 -1.3062 -0.1095
 2521SOL    HW219197   3.667   2.448   6.163  0.1254  0.4886 -0.1902
 2522SOL     OW19198   4.414   0.144  16.369  0.4348  0.4395  0.4779
 2522SOL    HW119199   4.327   0.183  16.358  1.1840  1.3564 -2.2402
 2522SOL    HW219200   4.469   0.194  16.429  0.4828 -0.2282  0.9902
 2523SOL     OW19201   3.587   3.662   1.566 -0.0930  0.2367  0.4337
 2523SOL    HW119202   3.633   3.630   1.488  0.3794 -0.0608  0.8306
 2523SOL    HW219203   3.499   3.630   1.544  0.6018 -0.6397 -1.1230
 2524SOL     OW19204   2.345   0.059  11.542  0.9303  0.6867  0.1033
 2524SOL    HW119205   2.282   0.040  11.611 -1.4607  1.1989 -1.9143
 2524SOL    HW219206   2.300   0.137  11.510 -0.5908 -0.6409 -1.0383
 2525SOL     OW19207   1.609   3.889   8.314 -0.8142 -0.2100 -0.8699
 2525SOL    HW119208   1.621   3.952   8.243 -0.1014  1.6978  0.9253
 2525SOL    HW219209   1.575   3.935   8.391 -0.1401  1.9996 -1.8770
 2526SOL     OW19210   2.553   3.375  16.069  0.3597  0.2022  0.2195
 2526SOL    HW119211   2.526   3.449  16.124 -0.9950 -1.0642  1.2345
 2526SOL    HW219212   2.561   3.416  15.983 -1.1023  3.6617  1.6873
 2527SOL     OW19213   3.144   3.811   4.976 -0.2326  0.1588  0.0947
 2527SOL    HW119214   3.142   3.763   4.893 -3.0330  1.5613 -0.6339
 2527SOL    HW219215   3.218   3.771   5.022 -0.0426 -0.6149 -0.8699
 2528SOL     OW19216   2.726   3.231   4.591 -0.1826 -0.2006  0.1032
 2528SOL    HW119217   2.712   3.259   4.500 -0.5356  0.6206  0.4041
 2528SOL    HW219218   2.793   3.164   4.581  0.7252  0.9347 -1.4257
 2529SOL     OW19219   3.071   4.288  10.784  0.7172 -0.5027 -0.1416
 2529SOL    HW119220   3.036   4.199  10.781 -0.6797  0.0455 -0.0570
 2529SOL    HW219221   3.112   4.292  10.698  1.2665  1.7389  0.2299
 2530SOL     OW19222   3.134   3.647   3.629  0.2080  0.2273  0.2216
 2530SOL    HW119223   3.197   3.577   3.648  0.3065  0.0885 -0.6302
 2530SOL    HW219224   3.082   3.633   3.708  1.4263  0.0722  1.0038
 2531SOL     OW19225   4.444   4.068   2.466  0.2246  0.2197 -0.3617
 2531SOL    HW119226   4.454   4.018   2.385 -1.1182  1.2096 -1.1449
 2531SOL    HW219227   4.406   4.151   2.436  1.9582  1.1075 -0.1138
 2532SOL     OW19228   3.432   0.223   2.239  0.5058 -0.3362  0.3258
 2532SOL    HW119229   3.479   0.267   2.309  0.1582  0.3074  0.1476
 2532SOL    HW219230   3.477   0.139   2.248 -0.5787 -0.9340  0.2318
 2533SOL     OW19231   0.400   1.356   2.126  0.3622 -0.2316 -0.0944
 2533SOL    HW119232   0.477   1.355   2.182  0.5522  2.1077 -0.3201
 2533SOL    HW219233   0.428   1.436   2.082  0.4577 -0.5788 -0.6600
 2534SOL     OW19234   4.019   3.165  15.581 -0.1296 -0.5702 -0.0914
 2534SOL    HW119235   3.925   3.165  15.598  0.2254 -0.6025  1.9589
 2534SOL    HW219236   4.029   3.149  15.487  0.9614 -0.4667  0.0095
 2535SOL     OW19237   4.595   3.935   8.627  0.0376 -0.9240 -0.7004
 2535SOL    HW119238   4.633   3.848   8.615  0.8419 -0.8457  1.3582
 2535SOL    HW219239   4.521   3.932   8.567  0.9709 -0.0333 -1.9111
 2536SOL     OW19240   0.944   4.425   2.774 -0.4345 -0.1060  0.4461
 2536SOL    HW119241   0.884   4.486   2.818  0.1001  0.6114  0.1835
 2536SOL    HW219242   0.989   4.388   2.850  0.5168  1.1499  0.4905
 2537SOL     OW19243   4.630   4.164  16.689 -0.3330 -0.3122 -0.1156
 2537SOL    HW119244   4.718   4.126  16.682 -0.2545 -0.2441  0.4946
 2537SOL    HW219245   4.585   4.115  16.620  0.5093 -0.0962 -0.8311
 2538SOL     OW19246   4.614   3.170  14.525  0.7632 -0.4649 -0.1209
 2538SOL    HW119247   4.657   3.216  14.453  0.2457 -0.3998 -0.3862
 2538SOL    HW219248   4.657   3.194  14.608 -1.8692  2.1460  0.4917
 2539SOL     OW19249   2.932   1.039   8.185  0.3353  0.3608  0.1551
 2539SOL    HW119250   2.958   1.105   8.250  3.4316  0.0684 -0.7937
 2539SOL    HW219251   2.837   1.050   8.180  0.0690 -1.3417  1.2511
 2540SOL     OW19252   1.083   4.156  11.607 -0.3639  0.3116 -0.1887
 2540SOL    HW119253   1.091   4.147  11.512 -1.7722  0.5228 -0.3156
 2540SOL    HW219254   0.998   4.114  11.619 -0.1471  0.1154  0.6718
 2541SOL     OW19255   3.504   3.088   9.135  0.4274  0.4062 -0.1803
 2541SOL    HW119256   3.591   3.088   9.175  0.1421 -1.1497  0.4457
 2541SOL    HW219257   3.532   3.106   9.046 -0.7371  3.7091  0.1214
 2542SOL     OW19258   0.911   1.031   1.896  0.0786  0.5390 -0.6352
 2542SOL    HW119259   0.908   1.080   1.814 -0.1842  0.5720 -0.6040
 2542SOL    HW219260   0.862   1.090   1.953  1.5602  1.6018 -0.4518
 2543SOL     OW19261   3.032   4.414  13.386  0.1077 -0.0455 -0.3407
 2543SOL    HW119262   3.122   4.398  13.357 -0.2183  0.3152 -1.5249
 2543SOL    HW219263   3.012   4.493  13.338  0.6954  0.3595  0.0691
 2544SOL     OW19264   2.468   1.909  16.759  0.7035  0.0054  0.0903
 2544SOL    HW119265   2.554   1.951  16.751  1.0610 -0.4701  1.3305
 2544SOL    HW219266   2.467   1.895  16.854 -0.0198 -2.5939 -0.3272
 2545SOL     OW19267   0.572   2.792   5.844  0.0611  0.8545 -0.2432
 2545SOL    HW119268   0.590   2.698   5.845  0.6346  0.9729  1.7239
 2545SOL    HW219269   0.484   2.794   5.882 -0.3330 -3.2598 -0.9815
 2546SOL     OW19270   3.280   1.159   8.000 -0.0954 -0.4175 -0.0664
 2546SOL    HW119271   3.336   1.100   8.052  0.9449  1.3545  0.8052
 2546SOL    HW219272   3.325   1.240   8.024  0.5625 -0.1336 -2.2293
 2547SOL     OW19273   0.866   0.324   6.744 -0.4141 -0.0599 -0.7159
 2547SOL    HW119274   0.885   0.252   6.805 -3.2526 -0.6544 -0.5374
 2547SOL    HW219275   0.806   0.369   6.803  1.4856 -1.3148  2.1671
 2548SOL     OW19276   3.591   0.453   2.118 -0.2773 -0.7834 -0.1068
 2548SOL    HW119277   3.635   0.503   2.050  0.3055  0.1414  0.9720
 2548SOL    HW219278   3.520   0.413   2.066 -1.5839 -0.6368  1.5793
 2549SOL     OW19279   2.721   3.896   3.974 -0.2174 -0.4685  0.0239
 2549SOL    HW119280   2.706   3.872   4.066 -1.5990 -1.0889 -0.3617
 2549SOL    HW219281   2.816   3.885   3.973 -0.3780 -1.8067 -0.2295
 2550SOL     OW19282   0.535   3.671  10.921 -0.3978  0.0410 -0.2966
 2550SOL    HW119283   0.614   3.686  10.868  0.3038 -2.4844  0.0532
 2550SOL    HW219284   0.549   3.710  11.007 -0.3180  0.0065 -0.2940
 2551SOL     OW19285   2.100   1.391   1.789  0.7338 -0.0374 -0.4420
 2551SOL    HW119286   2.113   1.312   1.736  0.4246  0.8391 -1.8493
 2551SOL    HW219287   2.187   1.431   1.785 -0.3363  2.0448 -2.5763
 2552SOL     OW19288   3.981   1.540   2.460 -0.7490  0.6075 -0.8399
 2552SOL    HW119289   3.991   1.530   2.365 -0.5893 -0.0676 -0.7537
 2552SOL    HW219290   3.919   1.613   2.465 -1.9563 -0.5834  1.2287
 2553SOL     OW19291   0.335   0.668   8.605 -0.4463  0.3486  0.5183
 2553SOL    HW119292   0.403   0.602   8.619  0.6116  1.2343 -0.4290
 2553SOL    HW219293   0.377   0.746   8.640  0.9397  0.5902 -1.6733
 2554SOL     OW19294   3.114   0.017   7.763  0.0667 -0.0229  0.2598
 2554SOL    HW119295   3.020   4.733   7.772  0.1826 -1.3607 -1.3095
 2554SOL    HW219296   3.170   4.684   7.799  1.1859  1.4626  1.3155
 2555SOL     OW19297   3.296   3.151   1.427  0.3496  0.0792 -0.3771
 2555SOL    HW119298   3.242   3.092   1.480  0.0460 -0.9016 -1.7626
 2555SOL    HW219299   3.385   3.124   1.446  0.9616  0.9005 -2.0763
 2556SOL     OW19300   0.487   3.389  15.851  0.0830  0.5343  0.3431
 2556SOL    HW119301   0.479   3.355  15.940 -0.0571 -0.3758 -0.0211
 2556SOL    HW219302   0.533   3.317  15.808 -3.3025 -0.6050 -1.3166
 2557SOL     OW19303   4.528   1.907  12.306  0.2064  0.1545  0.0821
 2557SOL    HW119304   4.475   1.983  12.281 -1.3846 -1.8702 -2.7045
 2557SOL    HW219305   4.602   1.943  12.354 -0.6369  1.2450  0.5732
 2558SOL     OW19306   2.818   1.128   2.642 -0.4711 -0.3692  0.2780
 2558SOL    HW119307   2.863   1.085   2.714 -2.1468 -1.9251  0.3824
 2558SOL    HW219308   2.893   1.157   2.590 -1.0032  2.1804  0.9595
 2559SOL     OW19309   4.689   4.211  10.611  0.0413 -0.6447 -0.0679
 2559SOL    HW119310   4.703   4.116  10.611  0.6262 -0.5586  2.0560
 2559SOL    HW219311   0.008   4.240  10.685  0.0187  0.1864 -0.3823
 2560SOL     OW19312   4.113   4.196  14.427  0.1455  0.1890  0.3655
 2560SOL    HW119313   4.047   4.173  14.492 -1.9873 -0.9317 -2.2036
 2560SOL    HW219314   4.179   4.232  14.487 -0.9587  0.0554  1.6436
 2561SOL     OW19315   2.085   2.008   8.071  0.2187  0.2758  0.4381
 2561SOL    HW119316   2.025   1.955   8.123 -2.0913  1.0655 -1.4313
 2561SOL    HW219317   2.034   2.087   8.053 -0.0458  0.1480  0.6208
 2562SOL     OW19318   1.174   2.785  11.057  0.4499 -0.1146 -0.7942
 2562SOL    HW119319   1.145   2.718  10.995  0.2596 -1.8828  1.1863
 2562SOL    HW219320   1.121   2.862  11.038  0.4089 -0.4519 -2.0232
 2563SOL     OW19321   0.412   1.777   3.086 -0.1465  0.3753  0.1097
 2563SOL    HW119322   0.418   1.721   3.009  0.8871  0.6512 -0.0069
 2563SOL    HW219323   0.370   1.857   3.054  0.2000  0.6049  0.2334
 2564SOL     OW19324   3.067   3.347  11.225  0.1340 -0.1453  0.3369
 2564SOL    HW119325   3.091   3.357  11.317  1.8986  0.8496 -0.2254
 2564SOL    HW219326   3.021   3.427  11.200  0.0650  0.4676  2.4396
 2565SOL     OW19327   1.180   4.003   8.582  0.2877  0.2977  0.2051
 2565SOL    HW119328   1.188   4.036   8.672 -0.1201 -0.0838  0.3822
 2565SOL    HW219329   1.243   3.932   8.579  1.0782  1.0437 -0.6507
 2566SOL     OW19330   2.317   2.160   7.640  0.2883  0.0587  0.0268
 2566SOL    HW119331   2.292   2.068   7.637 -1.8201  0.6272  0.3268
 2566SOL    HW219332   2.245   2.212   7.676  1.7677  0.5310  2.3601
 2567SOL     OW19333   1.160   0.424  12.475 -0.0725  0.2897  0.1735
 2567SOL    HW119334   1.244   0.421  12.521 -1.4160 -1.7115  2.4845
 2567SOL    HW219335   1.173   0.365  12.401  1.1588  1.3681 -0.4485
 2568SOL     OW19336   1.178   0.884   5.639 -0.5881  0.1723 -0.4826
 2568SOL    HW119337   1.261   0.896   5.684 -0.7386  0.7493 -0.3630
 2568SOL    HW219338   1.181   0.973   5.604 -1.1695  0.7142  0.8609
 2569SOL     OW19339   2.614   3.066   0.588  0.1294  0.1965  0.1444
 2569SOL    HW119340   2.657   3.127   0.529  0.6865  0.7337  1.1081
 2569SOL    HW219341   2.605   2.988   0.532 -1.2175 -0.1576  0.8361
 2570SOL     OW19342   3.868   3.511   7.058  0.0098  0.2166 -0.7083
 2570SOL    HW119343   3.873   3.432   7.111  1.7929  1.4689  1.0087
 2570SOL    HW219344   3.934   3.489   6.993  3.7319  1.0144  2.7726
 2571SOL     OW19345   1.736   3.160   4.279 -0.1747  0.0504 -0.0599
 2571SOL    HW119346   1.700   3.224   4.341  0.9759 -0.7536  1.4276
 2571SOL    HW219347   1.686   3.080   4.298 -0.8534  0.1537 -1.4334
 2572SOL     OW19348   3.759   1.768  17.293 -0.0261 -0.3131 -0.5337
 2572SOL    HW119349   3.806   1.746  17.374  0.2138 -0.9524 -0.8478
 2572SOL    HW219350   3.737   1.861  17.301 -1.2264 -0.9334  3.2026
 2573SOL     OW19351   2.656   4.481   6.690 -0.2527  0.0335  0.5077
 2573SOL    HW119352   2.698   4.419   6.631  1.7311  0.3318  1.5950
 2573SOL    HW219353   2.563   4.467   6.675 -0.5793  0.7795  1.8296
 2574SOL     OW19354   0.365   3.730   8.883  0.1466  0.1987  0.4194
 2574SOL    HW119355   0.444   3.741   8.937 -1.0700 -0.1878  2.2563
 2574SOL    HW219356   0.390   3.763   8.796 -0.5242  1.3305  0.6607
 2575SOL     OW19357   1.468   3.986  12.068  0.6437  0.2552  0.1016
 2575SOL    HW119358   1.407   3.970  12.140 -0.8120  0.1432 -1.1576
 2575SOL    HW219359   1.451   3.901  12.027  1.1610  0.1057  0.1856
 2576SOL     OW19360   4.476   0.735   6.916 -0.2574 -0.7523 -0.1156
 2576SOL    HW119361   4.558   0.775   6.943  0.0759 -0.9311 -0.8563
 2576SOL    HW219362   4.434   0.717   7.000  2.3129 -2.4443  0.7952
 2577SOL     OW19363   0.515   3.641  13.536  0.7241 -0.1730  0.5717
 2577SOL    HW119364   0.547   3.731  13.541  0.4779  0.0795 -2.1245
 2577SOL    HW219365   0.549   3.593  13.611 -1.2054 -2.5549 -0.0612
 2578SOL     OW19366   0.294   1.594   9.158 -0.1638 -0.1961  0.0819
 2578SOL    HW119367   0.374   1.561   9.116 -0.0163  0.2077  0.0438
 2578SOL    HW219368   0.235   1.547   9.099  0.8291 -2.1932  0.7038
 2579SOL     OW19369   3.503   2.656   9.001  0.2840  0.2933  0.3919
 2579SOL    HW119370   3.483   2.741   8.963  1.8043  1.8576  3.0402
 2579SOL    HW219371   3.420   2.616   9.028  0.8408 -2.5452 -2.1071
 2580SOL     OW19372   0.868   2.146   7.135 -0.2034 -0.7268  0.2933
 2580SOL    HW119373   0.795   2.086   7.150 -1.1070 -0.1395 -1.8165
 2580SOL    HW219374   0.924   2.098   7.075  1.8834 -0.3840  1.9736
 2581SOL     OW19375   3.100   1.830   3.472  0.1042  0.2688  1.1071
 2581SOL    HW119376   3.019   1.861   3.512 -0.4459 -0.4820  0.5665
 2581SOL    HW219377   3.089   1.872   3.386  0.5121 -1.8396  0.0263
 2582SOL     OW19378   0.191   4.422  16.113  0.4560  0.7656  0.5043
 2582SOL    HW119379   0.172   4.510  16.146 -2.3826 -0.2198  1.5286
 2582SOL    HW219380   0.199   4.444  16.021 -2.7022  4.1936  1.0169
 2583SOL     OW19381   4.310   1.521   5.202  0.6192  0.0326 -0.5135
 2583SOL    HW119382   4.404   1.513   5.220  0.7085 -0.8198 -1.3314
 2583SOL    HW219383   4.303   1.614   5.182  0.3953  0.1330  0.0234
 2584SOL     OW19384   1.697   2.432  10.172  0.7106 -0.1772  0.1626
 2584SOL    HW119385   1.608   2.399  10.162  1.2547 -2.1866  1.7858
 2584SOL    HW219386   1.694   2.523  10.201 -0.7166 -0.1662 -0.0229
 2585SOL     OW19387   0.041   0.514  10.115  0.1490  0.4649  0.2414
 2585SOL    HW119388   0.062   0.423  10.094 -1.3098  0.1185  0.2967
 2585SOL    HW219389   0.120   0.549  10.156 -0.1528  0.4178  0.8498
 2586SOL     OW19390   2.689   1.215   4.004  0.0007 -0.0647  0.4419
 2586SOL    HW119391   2.731   1.253   3.927  0.3811  0.1147  0.7382
 2586SOL    HW219392   2.612   1.272   4.007  0.6343  0.7352  1.4249
 2587SOL     OW19393   0.829   1.505   1.128 -0.3014  0.0921 -0.1091
 2587SOL    HW119394   0.890   1.432   1.134 -0.0092  0.0925 -3.0582
 2587SOL    HW219395   0.838   1.530   1.036  2.7754 -0.3314  0.0800
 2588SOL     OW19396   0.884   0.841  14.950 -0.0097 -0.9282  0.3661
 2588SOL    HW119397   0.887   0.841  14.854  1.0443  1.4698  0.3866
 2588SOL    HW219398   0.974   0.844  14.983  0.2917 -1.5879 -0.4035
 2589SOL     OW19399   0.611   1.306   4.915 -0.4184 -0.7483 -0.5383
 2589SOL    HW119400   0.652   1.233   4.962 -0.1255  0.2427  0.7243
 2589SOL    HW219401   0.540   1.327   4.976  1.1005  1.4200  0.4752
 2590SOL     OW19402   0.427   3.175   2.204 -0.7677  0.6530  0.1257
 2590SOL    HW119403   0.417   3.092   2.158 -1.7034  0.7896  0.0806
 2590SOL    HW219404   0.480   3.224   2.142 -1.3088 -1.2194 -1.7933
 2591SOL     OW19405   4.074   4.159  13.425  0.1233 -0.5394 -0.4271
 2591SOL    HW119406   4.167   4.143  13.411  0.3221 -0.8135  1.2603
 2591SOL    HW219407   4.056   4.121  13.511 -0.6058 -1.7196 -1.1049
 2592SOL     OW19408   3.014   0.618   0.730 -0.3279 -0.2510 -1.0569
 2592SOL    HW119409   3.040   0.709   0.748  1.4897 -0.8992 -0.3494
 2592SOL    HW219410   3.051   0.584   0.812  0.2733 -1.3776 -1.8071
 2593SOL     OW19411   1.028   1.914   2.915  0.1863 -0.2171  0.4171
 2593SOL    HW119412   1.093   1.909   2.986  1.9356 -0.5394 -1.2101
 2593SOL    HW219413   0.975   1.987   2.947  0.2257 -0.9172  2.0774
 2594SOL     OW19414   4.431   0.594  16.813 -0.1244 -0.2255  0.2103
 2594SOL    HW119415   4.338   0.577  16.797  0.0889 -0.4801 -0.7450
 2594SOL    HW219416   4.438   0.583  16.907 -0.7398  2.0229  0.5170
 2595SOL     OW19417   3.668   0.874  11.182 -0.4739 -0.0771  0.0268
 2595SOL    HW119418   3.582   0.889  11.143 -1.0456 -0.8198  0.9859
 2595SOL    HW219419   3.640   0.880  11.274  0.2569  1.4198  0.1445
 2596SOL     OW19420   4.357   2.087   1.986 -0.7900 -0.3768 -0.1976
 2596SOL    HW119421   4.406   2.016   2.026  1.2371  0.3141 -1.4764
 2596SOL    HW219422   4.430   2.129   1.941 -2.9847  2.6421 -0.9679
 2597SOL     OW19423   4.604   0.308  12.963 -0.2039 -0.2936 -0.1082
 2597SOL    HW119424   4.551   0.304  13.043  0.0355  0.1483  0.0742
 2597SOL    HW219425   4.609   0.402  12.944 -0.1839 -0.1280  0.7311
 2598SOL     OW19426   1.453   1.383   7.859  1.0872  0.1760  0.4857
 2598SOL    HW119427   1.473   1.438   7.934 -1.5483 -0.8670  1.9173
 2598SOL    HW219428   1.368   1.420   7.836  0.5328 -2.5732 -1.8626
 2599SOL     OW19429   1.497   1.339   4.431 -0.2461  0.6901 -0.7432
 2599SOL    HW119430   1.460   1.411   4.379 -2.6560 -0.2608 -0.3410
 2599SOL    HW219431   1.543   1.383   4.502 -0.4495  0.3378 -0.3939
 2600SOL     OW19432   2.606   0.951   0.379  0.3221 -0.1340 -0.1087
 2600SOL    HW119433   2.564   1.011   0.440 -1.0459  1.4854 -2.6373
 2600SOL    HW219434   2.547   0.876   0.386 -0.2781  0.3730  0.2682
 2601SOL     OW19435   4.733   4.241   0.949 -0.1474 -0.1166  0.4135
 2601SOL    HW119436   0.011   4.150   0.975 -1.1238  0.2817  2.3289
 2601SOL    HW219437   0.086   4.274   0.964 -0.1168  0.3520 -0.8206
 2602SOL     OW19438   1.248   4.358   5.641 -0.2223 -0.0461 -0.3555
 2602SOL    HW119439   1.213   4.424   5.582  0.0738  2.1211  1.8952
 2602SOL    HW219440   1.275   4.289   5.580  0.3048  1.4944 -1.8400
 2603SOL     OW19441   1.670   3.657   2.910  0.6133  0.4251 -0.0423
 2603SOL    HW119442   1.687   3.748   2.931  0.0347  0.9488 -1.7931
 2603SOL    HW219443   1.603   3.635   2.975  0.5201 -0.8936 -0.5683
 2604SOL     OW19444   4.569   4.283   8.616 -0.2707 -0.2066  0.1907
 2604SOL    HW119445   4.570   4.260   8.523  1.7714 -1.2634  0.4724
 2604SOL    HW219446   4.608   4.204   8.654 -0.1795 -0.1245  0.2668
 2605SOL     OW19447   3.721   3.938   8.860 -0.1680  0.0305  0.3854
 2605SOL    HW119448   3.704   4.030   8.840 -1.3018 -0.2458  0.0725
 2605SOL    HW219449   3.642   3.913   8.907  0.3034  0.7212  1.5271
 2606SOL     OW19450   2.865   3.554  11.199 -0.5152  0.5338  0.0322
 2606SOL    HW119451   2.812   3.479  11.227 -0.8188  0.3613 -0.9984
 2606SOL    HW219452   2.807   3.582  11.127  0.8553  1.6549 -0.6395
 2607SOL     OW19453   3.126   2.547   4.651  0.0096  0.3351  0.1770
 2607SOL    HW119454   3.164   2.532   4.564  1.4671 -0.3426  0.9213
 2607SOL    HW219455   3.124   2.642   4.652  1.3733  0.3794 -0.8201
 2608SOL     OW19456   3.302   4.733   7.237  0.2604  0.4418 -0.1142
 2608SOL    HW119457   3.319   0.070   7.298  0.1143 -1.8955  2.7034
 2608SOL    HW219458   3.252   4.679   7.298  0.5715  0.1403 -0.1322
 2609SOL     OW19459   1.518   4.006  15.236 -0.6613  0.3323  0.4990
 2609SOL    HW119460   1.461   3.946  15.187  2.0655 -1.0509 -0.9762
 2609SOL    HW219461   1.580   3.945  15.275  0.4283  0.1880 -1.4254
 2610SOL     OW19462   3.434   1.601   6.107  0.6343  0.3222 -0.4250
 2610SOL    HW119463   3.416   1.606   6.201  0.8578 -1.0075 -0.3114
 2610SOL    HW219464   3.487   1.521   6.103  0.5312  0.3344 -1.7810
 2611SOL     OW19465   1.221   1.237   0.540 -0.3708  0.2214 -0.0272
 2611SOL    HW119466   1.272   1.274   0.468  0.8190 -2.3107 -0.4917
 2611SOL    HW219467   1.298   1.188   0.570  0.8824  1.8317 -0.6513
 2612SOL     OW19468   0.583   2.052   9.707 -0.5215 -0.1455 -0.4505
 2612SOL    HW119469   0.505   2.104   9.727 -0.6997  0.0830 -1.7295
 2612SOL    HW219470   0.567   1.967   9.749  0.6006  0.4363  1.1647
 2613SOL     OW19471   1.166   0.506   9.612 -0.0313  0.3524 -0.0036
 2613SOL    HW119472   1.201   0.595   9.622  0.6026 -0.0211  1.0643
 2613SOL    HW219473   1.126   0.520   9.526 -0.0992  1.2709  0.1726
 2614SOL     OW19474   4.454   3.469   3.580 -0.0624  0.2933  0.4242
 2614SOL    HW119475   4.466   3.429   3.667 -0.9168 -0.5529  0.1423
 2614SOL    HW219476   4.386   3.533   3.601  0.3652  0.4756  1.2815
 2615SOL     OW19477   1.332   3.695  11.981 -0.2941  0.2367 -0.0174
 2615SOL    HW119478   1.291   3.611  11.964 -0.8337  0.9762 -2.4450
 2615SOL    HW219479   1.273   3.736  12.043 -1.0140  0.0381 -0.5702
 2616SOL     OW19480   0.351   2.651   8.705  0.3926 -0.0845 -0.0362
 2616SOL    HW119481   0.284   2.716   8.686 -0.6033 -1.0986  0.0575
 2616SOL    HW219482   0.313   2.578   8.655  0.2059  0.5691 -0.8505
 2617SOL     OW19483   2.842   2.705   4.947 -0.3601  0.2416  0.5903
 2617SOL    HW119484   2.824   2.613   4.928 -0.8558  0.3452  0.5544
 2617SOL    HW219485   2.882   2.698   5.033 -4.7203 -0.4591  2.5209
 2618SOL     OW19486   0.368   4.022   3.203  0.5325  0.1434  0.6471
 2618SOL    HW119487   0.398   3.940   3.241 -0.5710 -1.4107 -1.7856
 2618SOL    HW219488   0.273   4.015   3.200  0.7232 -2.4791  0.1969
 2619SOL     OW19489   3.657   1.503  12.927  0.4057 -0.0768  0.3215
 2619SOL    HW119490   3.723   1.554  12.881 -1.5123 -0.3985 -2.7880
 2619SOL    HW219491   3.596   1.574  12.948 -1.6248 -2.2755  1.8512
 2620SOL     OW19492   1.970   1.478  16.159  0.1795 -0.1417  0.8073
 2620SOL    HW119493   1.875   1.486  16.170  0.2335  1.2708  0.2568
 2620SOL    HW219494   1.977   1.396  16.109  0.5975 -0.4391  1.3580
 2621SOL     OW19495   3.793   2.120   3.300 -0.5341  0.2911  0.4466
 2621SOL    HW119496   3.729   2.115   3.370 -1.6272  0.7606 -0.5205
 2621SOL    HW219497   3.850   2.185   3.342 -0.2800  0.3575  0.0046
 2622SOL     OW19498   0.871   0.594   1.748 -0.1051  0.2428  0.2033
 2622SOL    HW119499   0.849   0.631   1.662 -0.7726 -0.1696  0.1951
 2622SOL    HW219500   0.830   0.654   1.811  2.1476 -0.3431  2.2134
 2623SOL     OW19501   0.070   0.944  10.627 -0.6668  0.3894 -0.4334
 2623SOL    HW119502   0.028   0.865  10.593  0.6015 -0.2577 -0.5022
 2623SOL    HW219503   0.004   1.008  10.652 -0.8662 -0.7653  2.0487
 2624SOL     OW19504   2.879   2.725  11.736  0.0411  0.2827 -0.2446
 2624SOL    HW119505   2.911   2.635  11.728  2.1511  1.0338 -0.3551
 2624SOL    HW219506   2.893   2.736  11.830 -1.8464 -2.3225  0.3262
 2625SOL     OW19507   4.595   4.569  12.101 -0.1868  0.5699 -0.2546
 2625SOL    HW119508   4.618   4.659  12.124  1.5700  0.0504 -0.0373
 2625SOL    HW219509   4.584   4.536  12.190 -1.1801  0.8266 -0.2766
 2626SOL     OW19510   2.407   4.726   1.635 -0.3290  0.4817  0.1846
 2626SOL    HW119511   2.449   4.641   1.623  1.5259  1.3601  0.4939
 2626SOL    HW219512   2.392   4.719   1.729  0.0468 -0.0609  0.2041
 2627SOL     OW19513   2.455   4.303   0.759 -0.3227  0.6237  0.1892
 2627SOL    HW119514   2.447   4.218   0.717 -3.7611  0.4719  1.1134
 2627SOL    HW219515   2.468   4.282   0.852  2.0370 -0.5022 -0.4083
 2628SOL     OW19516   4.466   4.734   5.417  0.0979 -0.4040  0.0134
 2628SOL    HW119517   4.461   0.094   5.405 -1.0855 -0.5591 -0.7860
 2628SOL    HW219518   4.548   4.727   5.466 -1.0148 -1.5854  1.6848
 2629SOL     OW19519   2.845   3.826   9.318 -0.4237  0.0695  0.3589
 2629SOL    HW119520   2.838   3.760   9.249  1.0621 -0.8231  1.0757
 2629SOL    HW219521   2.811   3.777   9.392 -2.1000  0.5395 -0.0890
 2630SOL     OW19522   0.948   1.627   8.004 -0.1882  0.2515 -0.0491
 2630SOL    HW119523   0.959   1.590   8.092 -0.6849 -0.5012 -0.3038
 2630SOL    HW219524   0.989   1.713   8.012 -0.9579  0.4509  1.9188
 2631SOL     OW19525   0.579   1.684   0.741 -0.2048  0.5989  0.0746
 2631SOL    HW119526   0.594   1.720   0.654  1.1145 -0.6984 -0.2317
 2631SOL    HW219527   0.528   1.606   0.719  0.4734 -0.3629  1.9228
 2632SOL     OW19528   3.559   1.195   9.766 -1.1214 -0.1824 -0.8560
 2632SOL    HW119529   3.651   1.199   9.791 -1.3961 -1.2031  0.3093
 2632SOL    HW219530   3.558   1.289   9.748 -2.9919  0.1452  0.9110
 2633SOL     OW19531   4.370   0.452   3.055 -0.1304 -0.2946 -0.0520
 2633SOL    HW119532   4.460   0.430   3.075 -0.3755 -0.7735  0.4964
 2633SOL    HW219533   4.355   0.405   2.972 -3.6861  0.8270 -0.0706
 2634SOL     OW19534   1.108   3.849   8.245  0.0642 -0.0119 -0.0308
 2634SOL    HW119535   1.179   3.902   8.207  1.4663 -1.6539  0.3228
 2634SOL    HW219536   1.069   3.904   8.313 -0.4844 -0.9226  0.3744
 2635SOL     OW19537   3.250   1.936   8.592  0.4758  0.0550  0.5478
 2635SOL    HW119538   3.198   1.934   8.673  0.3387 -1.0358  0.4371
 2635SOL    HW219539   3.333   1.903   8.627  0.9328  0.1406 -0.4705
 2636SOL     OW19540   2.596   0.023  15.897 -0.2274 -0.4181  0.0866
 2636SOL    HW119541   2.518   0.077  15.890  0.9807  1.4982  1.5282
 2636SOL    HW219542   2.664   0.088  15.880  0.5420 -1.6550 -1.6504
 2637SOL     OW19543   2.438   1.087  15.094 -0.6831 -0.6196  0.8174
 2637SOL    HW119544   2.523   1.115  15.062 -1.2108  0.2184  0.1443
 2637SOL    HW219545   2.438   0.992  15.081  0.5866 -0.4561 -0.3444
 2638SOL     OW19546   0.642   0.692   0.076  0.1575 -0.7152  0.2247
 2638SOL    HW119547   0.682   0.606   0.091 -0.3209 -0.4637  3.1019
 2638SOL    HW219548   0.705   0.741   0.130 -0.5063  0.1061  0.2437
 2639SOL     OW19549   3.201   2.445   8.415 -0.1474  0.1346  0.4705
 2639SOL    HW119550   3.148   2.446   8.336 -0.5778  1.4590  0.7716
 2639SOL    HW219551   3.272   2.385   8.394 -0.0455 -0.3035  2.0359
 2640SOL     OW19552   2.675   2.535   3.396  0.3643 -0.3623  0.6673
 2640SOL    HW119553   2.628   2.618   3.392  0.7771 -0.2965 -3.0778
 2640SOL    HW219554   2.600   2.487   3.431  0.8050  0.0947  2.2377
 2641SOL     OW19555   2.220   3.388   6.542 -0.1590 -0.3533 -0.5631
 2641SOL    HW119556   2.304   3.391   6.588 -1.6102 -0.9871  2.1643
 2641SOL    HW219557   2.171   3.333   6.603  0.0689 -0.2824 -0.3113
 2642SOL     OW19558   4.164   2.219   3.208  0.1258  0.0929 -0.1323
 2642SOL    HW119559   4.211   2.239   3.289  1.6789 -0.5416 -0.8998
 2642SOL    HW219560   4.121   2.137   3.233 -2.1727  1.1574 -0.5416
 2643SOL     OW19561   2.150   3.174   6.335 -0.4966 -0.1921 -0.2605
 2643SOL    HW119562   2.180   3.229   6.408 -2.7686 -0.1534  0.6320
 2643SOL    HW219563   2.195   3.223   6.266  0.6120  0.5816  1.0032
 2644SOL     OW19564   1.745   2.394   7.607 -0.1900 -0.2372  0.3332
 2644SOL    HW119565   1.682   2.335   7.566  1.0214 -0.5462 -1.0771
 2644SOL    HW219566   1.825   2.376   7.558 -1.0282 -1.4698 -0.5863
 2645SOL     OW19567   1.176   1.679   2.463 -0.1778 -0.7656 -0.1087
 2645SOL    HW119568   1.113   1.724   2.407 -0.3588 -2.1221 -0.9797
 2645SOL    HW219569   1.245   1.681   2.397 -0.6640  0.6161 -0.5743
 2646SOL     OW19570   4.008   3.340  16.108  0.0009 -0.4473  0.0245
 2646SOL    HW119571   3.936   3.398  16.133 -1.4041 -2.2792  0.2154
 2646SOL    HW219572   4.016   3.349  16.013  2.0674 -0.5610  0.1924
 2647SOL     OW19573   0.082   1.483  14.716  0.5831 -0.0127 -0.0952
 2647SOL    HW119574   0.037   1.562  14.747  2.9093  0.5031  1.9777
 2647SOL    HW219575   0.167   1.485  14.761  0.3415  0.2180  0.3530
 2648SOL     OW19576   2.971   0.074  10.776 -0.3072  0.1364 -0.1708
 2648SOL    HW119577   3.009   4.721  10.781 -0.6434 -0.0005  0.0295
 2648SOL    HW219578   2.898   0.049  10.720  0.5971 -0.4587 -1.0794
 2649SOL     OW19579   1.751   1.604   6.431  0.1482  0.4902  0.1696
 2649SOL    HW119580   1.756   1.517   6.392  2.5855  1.2044 -1.0557
 2649SOL    HW219581   1.793   1.648   6.358  0.7510  0.9560  0.7973
 2650SOL     OW19582   1.677   2.359   2.601  0.0008 -0.1962 -0.4658
 2650SOL    HW119583   1.754   2.374   2.547 -1.6534  3.3790 -1.8870
 2650SOL    HW219584   1.632   2.301   2.540 -0.4523  0.4688 -0.7712
 2651SOL     OW19585   1.698   2.655   4.894  0.5843 -0.0072 -0.1071
 2651SOL    HW119586   1.766   2.716   4.866  0.4175 -0.1570 -0.8226
 2651SOL    HW219587   1.743   2.602   4.960  1.2223  1.6330  0.7832
 2652SOL     OW19588   2.329   3.535   4.005  0.2982 -0.1313  0.4918
 2652SOL    HW119589   2.298   3.605   4.062  1.5166 -0.4226  1.5085
 2652SOL    HW219590   2.287   3.568   3.926  0.3723 -0.1136  0.4596
 2653SOL     OW19591   3.400   3.216   3.294  0.4489  0.2793  0.8930
 2653SOL    HW119592   3.443   3.211   3.209  1.3405  2.3989  1.2278
 2653SOL    HW219593   3.394   3.307   3.321  2.3019  0.6689 -0.0760
 2654SOL     OW19594   4.377   2.210   3.388  1.0175 -0.1135 -0.1013
 2654SOL    HW119595   4.442   2.222   3.319 -0.1739 -0.4532 -1.2935
 2654SOL    HW219596   4.365   2.115   3.383  0.9311 -0.0987 -0.1898
 2655SOL     OW19597   2.656   1.547   4.034 -0.0974 -0.6519 -0.5804
 2655SOL    HW119598   2.726   1.593   3.986 -0.3148  2.0803  1.7205
 2655SOL    HW219599   2.582   1.567   3.977 -0.8223 -1.3967  0.1055
 2656SOL     OW19600   3.916   0.630  11.247  0.2181  0.0889  0.1312
 2656SOL    HW119601   3.830   0.636  11.288  0.2372 -0.7009  0.2861
 2656SOL    HW219602   3.898   0.670  11.162  1.9780  0.2252 -0.1750
 2657SOL     OW19603   3.254   0.353   8.910  0.0541 -0.7509  0.3271
 2657SOL    HW119604   3.228   0.261   8.905 -2.4241  0.0493 -1.5287
 2657SOL    HW219605   3.168   0.397   8.911  0.0279 -0.8164  1.1674
 2658SOL     OW19606   1.560   1.814   6.929 -0.2831  0.4752  0.2461
 2658SOL    HW119607   1.535   1.905   6.914 -0.7220  0.6908  2.2817
 2658SOL    HW219608   1.651   1.821   6.958 -0.4257  0.8707  0.5975
 2659SOL     OW19609   3.896   0.942   3.711 -0.1402 -0.2420 -0.0279
 2659SOL    HW119610   3.910   0.949   3.806  0.4621 -0.7399 -0.0781
 2659SOL    HW219611   3.919   1.032   3.686 -1.5168  1.0183  3.2378
 2660SOL     OW19612   1.433   0.201   7.314  0.2806 -0.0909  0.1449
 2660SOL    HW119613   1.468   0.118   7.347  1.7219  0.5173  0.1383
 2660SOL    HW219614   1.389   0.228   7.395 -1.0795 -0.4709 -0.4686
 2661SOL     OW19615   1.919   0.022   2.911  0.3128 -0.0526 -0.1765
 2661SOL    HW119616   1.841   0.030   2.965 -0.9458 -2.9557 -1.5976
 2661SOL    HW219617   1.945   4.665   2.913  6.0947  1.5312 -1.5765
 2662SOL     OW19618   3.342   2.513   1.986 -0.2465 -0.5594  0.4548
 2662SOL    HW119619   3.413   2.457   1.957 -0.4466  0.8620 -2.7522
 2662SOL    HW219620   3.378   2.558   2.063  1.4191 -2.0994  0.5736
 2663SOL     OW19621   4.540   4.175   0.742  0.0486  0.0858  0.4080
 2663SOL    HW119622   4.615   4.136   0.697  0.7153  2.4301 -0.5244
 2663SOL    HW219623   4.578   4.198   0.827 -0.8880 -1.5908  1.2746
 2664SOL     OW19624   1.878   0.556  12.661  0.1549 -0.3381  0.2391
 2664SOL    HW119625   1.908   0.582  12.748 -0.5955  2.8477 -0.4691
 2664SOL    HW219626   1.883   0.636  12.608  0.0998 -0.0926  0.6089
 2665SOL     OW19627   0.235   0.575  12.648  0.0719  0.2002  0.2258
 2665SOL    HW119628   0.329   0.564  12.660 -0.2032 -1.6752  0.5888
 2665SOL    HW219629   0.210   0.600  12.559 -1.6894 -1.4826  0.2549
 2666SOL     OW19630   3.452   0.690   1.224  0.2213 -0.0022 -0.0076
 2666SOL    HW119631   3.369   0.686   1.271 -0.9944 -0.8885 -2.1970
 2666SOL    HW219632   3.483   0.601   1.207  1.5825  0.5642 -0.4143
 2667SOL     OW19633   3.706   3.667   0.504 -0.2159 -0.0239 -0.2221
 2667SOL    HW119634   3.763   3.709   0.568  0.1468  0.4554 -0.8700
 2667SOL    HW219635   3.741   3.701   0.422 -0.1038  3.3470  1.2254
 2668SOL     OW19636   3.809   1.262   8.464 -0.0647  0.0709 -0.3832
 2668SOL    HW119637   3.886   1.249   8.410  0.1641  0.4533 -0.1484
 2668SOL    HW219638   3.832   1.313   8.542 -0.4004  1.0264 -0.9110
 2669SOL     OW19639   2.206   2.858   7.833 -0.4191  0.4771  0.5012
 2669SOL    HW119640   2.148   2.832   7.905 -3.2817  1.2001 -1.5714
 2669SOL    HW219641   2.242   2.773   7.806  0.0246  1.9801 -3.5784
 2670SOL     OW19642   2.070   1.775   8.775 -0.4573 -0.3479  0.0448
 2670SOL    HW119643   2.139   1.725   8.730 -0.7981 -1.0089  0.2609
 2670SOL    HW219644   2.119   1.843   8.821 -0.8217 -0.4669  0.6043
 2671SOL     OW19645   1.456   4.508   4.855 -0.3728 -0.1455 -0.3060
 2671SOL    HW119646   1.540   4.536   4.819 -1.6499  3.0389 -0.7966
 2671SOL    HW219647   1.435   4.585   4.908 -1.3029 -1.5489  1.3511
 2672SOL     OW19648   3.098   2.017  15.343  0.5337  0.5529  0.0676
 2672SOL    HW119649   3.124   2.061  15.424  0.0495  0.1980  0.4167
 2672SOL    HW219650   3.143   2.065  15.274 -3.1516 -0.4895 -3.0520
 2673SOL     OW19651   1.581   1.679  17.093 -0.2895 -0.3461 -0.0026
 2673SOL    HW119652   1.518   1.651  17.160 -1.6762  0.1608 -1.0891
 2673SOL    HW219653   1.553   1.623  17.021  1.7128  1.0925 -1.8882
 2674SOL     OW19654   4.595   2.045   8.007  0.1592  0.0323 -0.2230
 2674SOL    HW119655   4.656   2.015   7.939  2.4354 -1.9926  2.6531
 2674SOL    HW219656   4.573   1.968   8.060  3.7947 -1.2949 -0.6214
 2675SOL     OW19657   0.491   0.773  14.816  0.0734 -0.0751 -0.3317
 2675SOL    HW119658   0.528   0.793  14.730 -1.7851 -0.2614 -1.1789
 2675SOL    HW219659   0.416   0.714  14.804 -0.0274  0.1188 -0.6476
 2676SOL     OW19660   4.284   3.245   8.362 -0.0334 -0.3813 -0.1786
 2676SOL    HW119661   4.377   3.226   8.354  0.4763  1.2282  1.9124
 2676SOL    HW219662   4.289   3.307   8.435  1.6556 -2.1556  1.1962
 2677SOL     OW19663   0.991   1.221  17.109 -0.0766 -0.1153 -0.1404
 2677SOL    HW119664   0.984   1.282  17.036 -1.2193 -2.5422 -2.0570
 2677SOL    HW219665   1.060   1.162  17.078 -0.3632  0.2956 -1.5307
 2678SOL     OW19666   4.643   0.563   1.315 -0.1178 -0.0802 -0.0834
 2678SOL    HW119667   4.567   0.537   1.367 -0.1286 -0.5603 -0.3354
 2678SOL    HW219668   4.685   0.621   1.379  2.1639  0.6732 -2.2649
 2679SOL     OW19669   4.272   0.826   1.270  0.3995  0.0533 -0.5928
 2679SOL    HW119670   4.270   0.917   1.242  0.6728  0.3053  0.2273
 2679SOL    HW219671   4.365   0.808   1.253  0.1640 -1.5116 -0.2838
 2680SOL     OW19672   1.224   4.593  17.363  0.6671 -0.2499 -0.1276
 2680SOL    HW119673   1.265   4.531  17.424 -2.2129  0.0335  2.0861
 2680SOL    HW219674   1.196   4.661  17.424  0.9050 -0.3791  0.1249
 2681SOL     OW19675   3.007   4.527   2.519  0.1360  0.0985  0.3286
 2681SOL    HW119676   2.921   4.541   2.558  0.2366 -1.0150  0.9209
 2681SOL    HW219677   3.031   4.439   2.546 -2.2498 -0.8120 -0.5439
 2682SOL     OW19678   2.451   1.670  17.678  0.0607 -0.7228 -0.0981
 2682SOL    HW119679   2.523   1.624  17.720  0.0500  1.2980  2.1093
 2682SOL    HW219680   2.467   1.755  17.718 -0.3531 -0.6404 -0.1067
 2683SOL     OW19681   3.456   1.507  13.733  0.2963  0.2017 -0.4171
 2683SOL    HW119682   3.433   1.501  13.826  0.7069  1.4794 -0.2283
 2683SOL    HW219683   3.381   1.482  13.679 -0.2726  1.2231 -0.1026
 2684SOL     OW19684   2.132   3.298   4.133  0.0709  0.2763  0.4213
 2684SOL    HW119685   2.082   3.375   4.105 -0.0708 -0.2794 -0.8309
 2684SOL    HW219686   2.058   3.238   4.147  0.6155 -0.4742  0.0666
 2685SOL     OW19687   1.067   1.791   8.767 -0.5498  0.3832 -0.1059
 2685SOL    HW119688   1.113   1.874   8.760 -0.5759  0.5052  1.1008
 2685SOL    HW219689   1.001   1.816   8.832 -1.5142 -1.6774 -0.2750
 2686SOL     OW19690   1.104   2.332   3.918 -0.0923 -0.2069 -0.1713
 2686SOL    HW119691   1.104   2.239   3.939 -0.3970  0.1165  1.2462
 2686SOL    HW219692   1.160   2.373   3.983  0.3347  0.5039 -0.9802
 2687SOL     OW19693   0.228   3.836   6.338  0.1410  0.3154 -0.1084
 2687SOL    HW119694   0.184   3.787   6.268 -0.5476  1.3880 -0.4213
 2687SOL    HW219695   0.287   3.765   6.366  2.1235  2.0812  0.2107
 2688SOL     OW19696   1.047   2.735   8.953 -1.0500 -0.4815 -0.0108
 2688SOL    HW119697   1.030   2.820   8.993  4.9812 -0.1365  1.7985
 2688SOL    HW219698   1.140   2.744   8.933 -1.6489  1.6489 -1.8778
 2689SOL     OW19699   3.017   0.662  11.357  0.2554 -0.8308  0.2060
 2689SOL    HW119700   3.001   0.615  11.439  0.5231 -0.0323  0.7221
 2689SOL    HW219701   2.930   0.658  11.320  0.4577  3.7102 -0.7366
 2690SOL     OW19702   2.372   0.795   6.444  0.0807 -0.2002 -0.0082
 2690SOL    HW119703   2.335   0.716   6.404 -0.6581  0.0823  0.1221
 2690SOL    HW219704   2.360   0.780   6.537  0.3471  1.3086  0.2640
 2691SOL     OW19705   0.764   1.129   0.658 -0.1169  0.2674  0.0942
 2691SOL    HW119706   0.802   1.177   0.585 -3.2126 -0.7399 -2.1755
 2691SOL    HW219707   0.671   1.135   0.635  0.0671 -0.9586 -0.9375
 2692SOL     OW19708   1.731   0.949   1.489  0.3606  0.1250  0.1789
 2692SOL    HW119709   1.792   0.877   1.496  0.8293  0.1162 -4.3015
 2692SOL    HW219710   1.657   0.904   1.448 -1.5324  0.8651  2.7346
 2693SOL     OW19711   0.515   4.591   2.026 -0.1566 -0.0637  0.4190
 2693SOL    HW119712   0.513   4.517   1.966  0.9064  0.1020  0.1747
 2693SOL    HW219713   0.604   4.592   2.062 -0.0343 -1.8649  0.1761
 2694SOL     OW19714   0.397   3.593   6.374  0.1884  0.0059  0.9158
 2694SOL    HW119715   0.425   3.506   6.345 -0.9324  0.5487 -1.7918
 2694SOL    HW219716   0.483   3.626   6.401  1.3034  1.3410 -4.1760
 2695SOL     OW19717   2.955   0.722   1.350 -0.2994 -0.4621 -0.0407
 2695SOL    HW119718   2.876   0.670   1.363  0.8654 -2.1244  0.3644
 2695SOL    HW219719   2.958   0.780   1.427 -0.8875  0.2491 -0.5607
 2696SOL     OW19720   2.519   1.031   7.491  0.0608 -0.1213  0.0958
 2696SOL    HW119721   2.570   1.104   7.457 -0.1758  0.4083  0.8950
 2696SOL    HW219722   2.498   0.976   7.415  1.3867 -0.1595 -0.2387
 2697SOL     OW19723   4.145   2.998   6.339  0.6464  0.6516 -0.0188
 2697SOL    HW119724   4.118   2.911   6.310  1.5731  1.4581 -3.2857
 2697SOL    HW219725   4.196   3.007   6.258  0.0080  1.0686 -0.3719
 2698SOL     OW19726   3.268   4.678  16.876  0.4478  0.3801  0.1217
 2698SOL    HW119727   3.222   4.598  16.850  0.9733  0.6119 -1.5207
 2698SOL    HW219728   3.331   4.698  16.807  0.3631  0.9541  0.2122
 2699SOL     OW19729   4.201   4.438   6.104  0.5417 -0.1655  0.0118
 2699SOL    HW119730   4.230   4.350   6.080 -0.0700 -0.4440  0.2811
 2699SOL    HW219731   4.282   4.489   6.115  0.9360 -0.9028  0.5139
 2700SOL     OW19732   4.224   1.129   0.927  0.8516  0.0554  0.1333
 2700SOL    HW119733   4.229   1.123   0.832 -1.3625  0.2529  0.0093
 2700SOL    HW219734   4.258   1.216   0.947 -0.7511  0.6917  0.0235
 2701SOL     OW19735   2.264   2.624   6.516  0.1620 -0.6718  0.5693
 2701SOL    HW119736   2.308   2.542   6.537 -1.2725 -1.3289  0.9745
 2701SOL    HW219737   2.213   2.633   6.597 -0.5677  2.0851 -0.1766
 2702SOL     OW19738   0.637   4.277  15.305  0.4807 -0.2067 -0.4093
 2702SOL    HW119739   0.658   4.215  15.376  0.4908 -0.0457 -0.2703
 2702SOL    HW219740   0.549   4.243  15.290  1.3953 -1.7258 -2.2969
 2703SOL     OW19741   1.350   3.948   3.603  0.0953 -0.5063 -0.8270
 2703SOL    HW119742   1.387   3.944   3.691  1.8838 -0.3626 -1.5631
 2703SOL    HW219743   1.333   3.855   3.591 -2.7965  0.3698 -3.8270
 2704SOL     OW19744   4.008   3.959   2.550 -0.2123  0.2945  0.4995
 2704SOL    HW119745   3.947   3.931   2.618  2.7779 -2.8446  1.8949
 2704SOL    HW219746   4.093   3.937   2.589 -1.8480  0.3502  4.1458
 2705SOL     OW19747   2.437   4.727   1.261 -0.3516 -0.3134 -0.1720
 2705SOL    HW119748   2.416   4.635   1.277 -0.0393 -0.3972 -0.2470
 2705SOL    HW219749   2.362   0.024   1.211  2.0028  2.9241 -1.6158
 2706SOL     OW19750   0.783   0.061   3.829 -0.2401  0.4119  1.0556
 2706SOL    HW119751   0.746   0.022   3.750 -1.0647  3.5206 -0.0999
 2706SOL    HW219752   0.864   0.009   3.828 -0.8738 -0.5750  1.0176
 2707SOL     OW19753   1.419   2.378   8.530 -0.5858 -0.4856 -0.6564
 2707SOL    HW119754   1.404   2.402   8.439 -0.4142 -2.8844 -1.2984
 2707SOL    HW219755   1.490   2.316   8.517 -0.2892 -0.4757  0.8665
 2708SOL     OW19756   0.587   0.196   2.248  0.0553 -0.3364 -0.2883
 2708SOL    HW119757   0.677   0.168   2.230  0.3327  0.7382 -0.5435
 2708SOL    HW219758   0.578   0.224   2.339  1.9037  0.8813 -0.4822
 2709SOL     OW19759   2.902   3.061   4.987  0.4499 -0.2565 -0.5492
 2709SOL    HW119760   2.996   3.067   4.968  0.5630 -1.2670 -0.2624
 2709SOL    HW219761   2.903   3.028   5.077 -0.3112 -1.9266 -1.1550
 2710SOL     OW19762   1.312   2.576   7.259  0.2110 -0.2568  0.0110
 2710SOL    HW119763   1.327   2.632   7.183 -0.5282 -0.2923 -0.1596
 2710SOL    HW219764   1.218   2.593   7.263  0.3314  0.2763  0.6064
 2711SOL     OW19765   4.058   2.752   6.220 -0.1354 -0.1114 -0.1756
 2711SOL    HW119766   4.026   2.714   6.301 -0.5003 -1.2844 -0.8753
 2711SOL    HW219767   4.102   2.676   6.181  0.8026  0.9954 -1.2981
 2712SOL     OW19768   2.639   0.671   1.058  0.7211 -0.0574 -0.1335
 2712SOL    HW119769   2.709   0.646   0.997  0.2198 -2.3100  0.2364
 2712SOL    HW219770   2.632   0.586   1.101 -0.3378 -0.2235 -0.6333
 2713SOL     OW19771   0.155   1.229  13.684  0.4974  0.0039  0.2898
 2713SOL    HW119772   0.124   1.234  13.594  2.3898 -1.2142 -0.4101
 2713SOL    HW219773   0.241   1.188  13.678  0.2727 -0.4188 -0.0311
 2714SOL     OW19774   3.086   0.064  16.601  0.3729  0.1671 -0.4965
 2714SOL    HW119775   3.000   0.066  16.642  0.1264 -1.9989 -0.9405
 2714SOL    HW219776   3.091   4.708  16.573  1.5556  0.4431 -1.1986
 2715SOL     OW19777   2.289   2.991   1.609  0.0430  0.2454 -0.3286
 2715SOL    HW119778   2.255   2.962   1.694  1.3644  0.3590  0.2432
 2715SOL    HW219779   2.260   3.082   1.614 -0.8746  0.0073 -1.3378
 2716SOL     OW19780   1.117   0.362   6.618  0.4760  0.2564 -0.0503
 2716SOL    HW119781   1.085   0.382   6.531  2.6212  3.3763 -0.1307
 2716SOL    HW219782   1.032   0.353   6.661 -1.0594 -3.6239 -3.9082
 2717SOL     OW19783   4.068   2.137  14.853 -0.0483  0.2864  0.2405
 2717SOL    HW119784   4.006   2.182  14.796  0.2879  1.4606  0.7971
 2717SOL    HW219785   4.142   2.119  14.795  1.0270  1.0158  1.3984
 2718SOL     OW19786   4.730   1.371  13.445  0.1414 -0.7040  0.4862
 2718SOL    HW119787   4.685   1.455  13.432 -1.2652 -1.1867  2.2151
 2718SOL    HW219788   4.655   1.317  13.470 -1.5538  1.0497 -0.7509
 2719SOL     OW19789   1.440   4.154   7.242  0.0516  0.2579  0.1447
 2719SOL    HW119790   1.510   4.131   7.304  1.2808 -0.2384 -1.4162
 2719SOL    HW219791   1.473   4.235   7.204  1.0670 -0.7539 -1.1536
 2720SOL     OW19792   3.288   0.286   3.299  0.2005  0.2833 -0.0942
 2720SOL    HW119793   3.235   0.254   3.372 -0.2723 -1.3903 -1.1783
 2720SOL    HW219794   3.216   0.336   3.259 -0.9591 -1.2120  0.1448
 2721SOL     OW19795   0.385   1.923  14.784 -0.1906 -0.0266  0.3290
 2721SOL    HW119796   0.390   1.980  14.861  2.7581 -0.9557  0.8215
 2721SOL    HW219797   0.476   1.916  14.756 -0.8256 -1.8788 -1.2626
 2722SOL     OW19798   4.529   4.523  15.486 -0.6533  0.2734 -0.1125
 2722SOL    HW119799   4.568   4.576  15.556 -0.5684 -0.2636  0.2510
 2722SOL    HW219800   4.535   4.587  15.415  0.1377  0.6242  0.2751
 2723SOL     OW19801   3.394   4.303   9.107 -0.2806  0.0850 -0.3687
 2723SOL    HW119802   3.343   4.377   9.138  0.4112  0.3368  0.1641
 2723SOL    HW219803   3.440   4.354   9.040 -2.4538  0.6594 -1.4127
 2724SOL     OW19804   3.239   3.006  10.896 -0.7044 -0.1315 -0.3350
 2724SOL    HW119805   3.285   2.922  10.892  2.9111  1.8154  0.2883
 2724SOL    HW219806   3.220   3.009  10.990 -0.8821 -0.4693 -0.3587
 2725SOL     OW19807   3.939   2.252   4.232 -0.0206 -0.6749 -0.3557
 2725SOL    HW119808   3.868   2.314   4.245  1.3828  0.9711 -0.4720
 2725SOL    HW219809   3.907   2.192   4.165  1.5291 -0.7694 -1.0106
 2726SOL     OW19810   3.859   1.710  17.576  0.6931  0.4980 -0.1644
 2726SOL    HW119811   3.781   1.732  17.627  1.1904  1.1797  0.2865
 2726SOL    HW219812   3.908   1.681  17.652  1.8151 -1.7975 -1.7490
 2727SOL     OW19813   0.399   3.005   0.896  0.2618  0.4357 -0.3760
 2727SOL    HW119814   0.304   3.013   0.904  0.2704  0.3404 -0.1923
 2727SOL    HW219815   0.399   2.923   0.846  0.0207 -0.5901  1.3186
 2728SOL     OW19816   1.525   0.525   6.076 -0.0338  0.3442 -0.0763
 2728SOL    HW119817   1.486   0.446   6.114 -0.5368  0.6970  0.1307
 2728SOL    HW219818   1.607   0.520   6.125 -0.5222 -0.8693  0.6295
 2729SOL     OW19819   3.728   3.508   4.941  0.0646  0.5728 -0.4310
 2729SOL    HW119820   3.646   3.536   4.981 -0.1375 -2.4150  1.2447
 2729SOL    HW219821   3.745   3.421   4.978 -0.2459  0.4508 -0.5797
 2730SOL     OW19822   1.698   0.426   7.861 -0.0989  0.3673 -0.2372
 2730SOL    HW119823   1.685   0.472   7.778  2.6048  2.4823  0.4979
 2730SOL    HW219824   1.695   0.336   7.828  2.1866 -1.2648  3.9863
 2731SOL     OW19825   1.373   2.151  13.112 -0.1876  0.0286 -0.0730
 2731SOL    HW119826   1.373   2.242  13.082 -0.9940 -0.4401 -1.4955
 2731SOL    HW219827   1.348   2.102  13.034 -0.6536  0.6712 -0.3231
 2732SOL     OW19828   4.114   2.486   6.026  0.3213 -0.0770 -0.8494
 2732SOL    HW119829   4.106   2.403   5.980  0.4721 -1.3434  1.3997
 2732SOL    HW219830   4.197   2.485   6.074 -0.6377 -0.9772  0.8126
 2733SOL     OW19831   0.048   0.252  15.435  0.3846  0.0754  0.2971
 2733SOL    HW119832   4.703   0.214  15.470  0.8607 -0.4018  0.8677
 2733SOL    HW219833   0.030   0.284  15.346  0.7227  1.3630  0.6921
 2734SOL     OW19834   4.596   1.010  14.268 -0.2012  0.0847 -0.6276
 2734SOL    HW119835   4.605   1.068  14.343 -1.9546  0.8237 -0.9906
 2734SOL    HW219836   4.501   1.009  14.257 -0.4793 -1.9226  1.9636
 2735SOL     OW19837   0.712   3.044   6.039  0.2892 -0.0281 -0.5762
 2735SOL    HW119838   0.785   3.026   6.099  0.2087  0.6618 -0.2768
 2735SOL    HW219839   0.762   3.043   5.957 -0.1600 -2.2670 -0.8260
 2736SOL     OW19840   4.253   0.577   5.266 -0.5590  0.1448 -0.8763
 2736SOL    HW119841   4.260   0.541   5.355  1.4566 -0.6400 -1.3493
 2736SOL    HW219842   4.229   0.495   5.224 -0.2887 -1.3730  1.9456
 2737SOL     OW19843   0.353   3.988  10.530 -0.3076 -0.2243  0.5567
 2737SOL    HW119844   0.337   3.932  10.606  0.6439 -0.7899  0.3431
 2737SOL    HW219845   0.335   4.077  10.560  0.7589 -0.2327  1.2401
 2738SOL     OW19846   1.920   1.740   9.175 -0.0585  0.1307  0.7860
 2738SOL    HW119847   1.865   1.813   9.203 -1.7192 -0.9451  0.3481
 2738SOL    HW219848   2.009   1.772   9.190 -0.4927  2.3618 -1.4856
 2739SOL     OW19849   1.087   3.992  10.111 -0.1480  0.2594 -0.8066
 2739SOL    HW119850   1.090   4.045  10.190 -1.0207  0.2807 -0.7983
 2739SOL    HW219851   1.168   3.939  10.113 -1.4726 -1.7108  0.3828
 2740SOL     OW19852   1.372   1.296   2.525  0.1000 -0.1678 -0.4516
 2740SOL    HW119853   1.343   1.237   2.594  2.6425 -0.1727  0.6300
 2740SOL    HW219854   1.447   1.342   2.563 -0.0868 -0.1683 -0.0903
 2741SOL     OW19855   3.470   0.349  17.261 -0.5240  0.1698  0.3237
 2741SOL    HW119856   3.381   0.316  17.249  0.1543 -1.4072 -0.4050
 2741SOL    HW219857   3.454   0.443  17.265  0.0400  0.1914  1.9608
 2742SOL     OW19858   2.558   3.926  12.989  0.1897  0.1563  0.0721
 2742SOL    HW119859   2.487   3.941  13.052 -2.5556 -0.7613 -2.7889
 2742SOL    HW219860   2.610   3.851  13.018 -1.2767 -1.1532 -0.6873
 2743SOL     OW19861   4.397   2.799  14.819 -0.0698  0.3333  0.4365
 2743SOL    HW119862   4.478   2.845  14.797  0.5490  0.2932  2.6196
 2743SOL    HW219863   4.433   2.719  14.781  0.3551  1.0519 -0.6697
 2744SOL     OW19864   2.232   2.380   6.116 -0.0171 -0.5053  0.0721
 2744SOL    HW119865   2.190   2.438   6.052 -1.0680  0.1303  1.3584
 2744SOL    HW219866   2.313   2.429   6.130  0.8644 -2.3485  1.4614
 2745SOL     OW19867   4.494   2.161  14.478 -0.1452 -0.3823  0.1410
 2745SOL    HW119868   4.538   2.100  14.537  1.3681  1.0444  0.4961
 2745SOL    HW219869   4.410   2.119  14.464  0.3470 -1.1448 -0.5105
 2746SOL     OW19870   1.727   1.532  16.182 -0.3115  0.3947 -0.1009
 2746SOL    HW119871   1.740   1.613  16.133 -2.7117  1.3747  0.8836
 2746SOL    HW219872   1.645   1.511  16.138 -1.0886 -1.4894  2.2581
 2747SOL     OW19873   3.202   1.636  14.647 -0.6175  0.3677  0.0866
 2747SOL    HW119874   3.241   1.722  14.666  3.3696 -1.3141 -0.4467
 2747SOL    HW219875   3.276   1.583  14.618 -1.4562 -1.3331  1.0842
 2748SOL     OW19876   4.267   1.280  13.728  0.2160  0.0783 -0.4183
 2748SOL    HW119877   4.200   1.333  13.770  0.2221  0.6625 -1.1420
 2748SOL    HW219878   4.303   1.237  13.805 -0.1503 -1.2752 -1.0045
 2749SOL     OW19879   3.943   3.204  13.251 -0.6291  0.1591 -0.0896
 2749SOL    HW119880   3.862   3.231  13.295  0.9505  2.6033  1.3514
 2749SOL    HW219881   3.928   3.113  13.227  0.6443 -0.9915  3.4068
 2750SOL     OW19882   0.646   1.837   7.013 -0.1069  0.7438  0.1303
 2750SOL    HW119883   0.577   1.794   7.064 -0.8511  0.5806 -1.0297
 2750SOL    HW219884   0.725   1.803   7.055 -0.4537  1.5915  1.4877
 2751SOL     OW19885   4.268   1.821  17.337  0.4945  0.1710  0.0236
 2751SOL    HW119886   4.349   1.863  17.366 -0.1924  1.3853  0.1406
 2751SOL    HW219887   4.217   1.899  17.318 -1.5934 -0.9560  0.9838
 2752SOL     OW19888   2.506   0.335   7.409 -0.0079 -0.0215  0.5185
 2752SOL    HW119889   2.536   0.375   7.490 -0.8134 -0.5696  1.0953
 2752SOL    HW219890   2.447   0.408   7.389 -0.1882 -0.8215 -1.8996
 2753SOL     OW19891   3.148   2.808   4.607 -0.1778  0.1724 -0.2788
 2753SOL    HW119892   3.235   2.844   4.591  0.2052 -1.1146 -1.0403
 2753SOL    HW219893   3.099   2.794   4.526 -1.5267  0.6030  0.4483
 2754SOL     OW19894   1.330   4.588  12.926  0.0764  0.3281 -0.7334
 2754SOL    HW119895   1.260   4.583  12.861 -0.0620 -0.4705 -0.5205
 2754SOL    HW219896   1.325   4.498  12.959  0.7120  0.6749  0.3170
 2755SOL     OW19897   3.010   4.385   7.545 -0.0959 -0.3226  0.2653
 2755SOL    HW119898   3.081   4.335   7.584  1.6251  0.9033 -1.3404
 2755SOL    HW219899   2.931   4.362   7.596 -0.2895  1.0143  0.5663
 2756SOL     OW19900   1.429   0.225   0.583 -0.1111  0.3343  0.4350
 2756SOL    HW119901   1.472   0.140   0.583 -0.3670  0.2061  0.0825
 2756SOL    HW219902   1.510   0.277   0.586  0.3543 -0.1755 -3.2797
 2757SOL     OW19903   1.481   1.145  12.596  0.0710  0.4737 -0.3056
 2757SOL    HW119904   1.459   1.238  12.588  3.7395  1.3761 -0.1699
 2757SOL    HW219905   1.397   1.112  12.627 -0.1034  0.0347 -1.2251
 2758SOL     OW19906   4.089   4.164  15.872 -0.3126 -1.0323  0.0768
 2758SOL    HW119907   4.064   4.071  15.869  0.1005 -1.1043 -1.6958
 2758SOL    HW219908   4.002   4.197  15.893  0.0349  0.3081 -0.5921
 2759SOL     OW19909   0.839   0.446   3.078 -0.1438  0.2366 -0.0072
 2759SOL    HW119910   0.838   0.538   3.104 -0.1110 -0.2268  1.6692
 2759SOL    HW219911   0.795   0.401   3.150 -3.2237  2.0607 -0.7617
 2760SOL     OW19912   0.659   2.201   5.973  0.1132 -0.0754 -0.5940
 2760SOL    HW119913   0.616   2.116   5.969  0.7313 -0.3742 -1.0130
 2760SOL    HW219914   0.720   2.196   5.899 -0.2500  1.7519 -1.0136
 2761SOL     OW19915   4.305   0.108  15.348  0.0258 -0.1696  0.3473
 2761SOL    HW119916   4.272   0.070  15.266  0.7048 -0.9479  0.4365
 2761SOL    HW219917   4.269   0.042  15.407 -0.2449 -1.1900 -0.9507
 2762SOL     OW19918   1.545   1.340   0.573  0.2537 -0.1273 -0.3675
 2762SOL    HW119919   1.548   1.393   0.652 -2.0824 -2.7976  1.5520
 2762SOL    HW219920   1.640   1.337   0.569  0.2809  0.3644 -0.0066
 2763SOL     OW19921   2.529   1.687   5.000  0.0107  0.3584 -0.2906
 2763SOL    HW119922   2.527   1.675   5.095  0.3987 -0.3211 -0.3662
 2763SOL    HW219923   2.624   1.697   4.998  0.1435 -0.8366 -0.0282
 2764SOL     OW19924   1.633   2.893   9.583  0.2625  0.4729 -0.3343
 2764SOL    HW119925   1.542   2.923   9.590 -0.2647 -0.4322 -3.4848
 2764SOL    HW219926   1.676   2.925   9.663  0.4057 -1.1639  0.2434
 2765SOL     OW19927   4.597   0.377   7.359 -0.1071 -0.0521 -1.0958
 2765SOL    HW119928   4.547   0.431   7.419 -0.8861 -1.0947 -0.7917
 2765SOL    HW219929   4.621   0.434   7.286  0.5415 -0.2636 -1.0448
 2766SOL     OW19930   2.982   0.108   3.982 -0.3816 -0.4495  0.2542
 2766SOL    HW119931   2.998   0.023   3.941  3.7897  0.7108 -0.4787
 2766SOL    HW219932   2.903   0.137   3.935 -0.0525 -0.1278 -0.0981
 2767SOL     OW19933   0.298   1.783   3.837  0.0182  0.2038  0.2980
 2767SOL    HW119934   0.386   1.821   3.836  0.1995 -0.2921 -2.7071
 2767SOL    HW219935   0.311   1.688   3.830 -1.0891  0.1466 -1.0251
 2768SOL     OW19936   3.658   0.392   8.840  0.0108 -0.1566 -0.3312
 2768SOL    HW119937   3.673   0.301   8.867  0.8674  0.1453  0.2179
 2768SOL    HW219938   3.732   0.445   8.870  0.7542 -1.3239 -0.1012
 2769SOL     OW19939   3.292   4.566   2.508  0.5800 -0.2415  0.1385
 2769SOL    HW119940   3.291   4.613   2.424 -1.7942 -0.6759 -0.0697
 2769SOL    HW219941   3.203   4.532   2.507  0.8578 -0.9351 -0.3847
 2770SOL     OW19942   3.813   0.605   3.165 -0.4641  0.1359 -0.3439
 2770SOL    HW119943   3.814   0.535   3.230 -1.3251 -0.0559 -0.5358
 2770SOL    HW219944   3.889   0.577   3.113  0.9734 -0.5066  2.1121
 2771SOL     OW19945   4.448   4.643   3.200  0.4108  0.2601 -0.0205
 2771SOL    HW119946   4.513   4.654   3.131  0.9851 -1.4376  0.2498
 2771SOL    HW219947   4.472   4.557   3.235  2.2827  1.1079  0.8169
 2772SOL     OW19948   3.416   1.508  16.702  0.6531  0.0582 -0.2910
 2772SOL    HW119949   3.459   1.491  16.618 -0.7449 -1.6172 -0.6939
 2772SOL    HW219950   3.364   1.587  16.688 -0.1274 -0.4200 -0.0982
 2773SOL     OW19951   2.275   1.213   4.984  0.6415 -0.2340 -0.0340
 2773SOL    HW119952   2.231   1.192   5.066 -1.8270 -0.0193 -1.3056
 2773SOL    HW219953   2.207   1.266   4.943  0.7785 -0.0362 -0.0012
 2774SOL     OW19954   1.576   2.305   1.808 -0.4966  0.3506 -0.1963
 2774SOL    HW119955   1.611   2.389   1.837 -0.9456  1.6681 -3.4621
 2774SOL    HW219956   1.646   2.246   1.838 -1.8658 -0.7981  0.7372
 2775SOL     OW19957   1.081   0.672   6.750 -0.3552  0.1094  0.4071
 2775SOL    HW119958   1.104   0.621   6.828 -0.2517  1.9977  1.6163
 2775SOL    HW219959   1.169   0.688   6.716 -0.1866  0.3376  0.9430
 2776SOL     OW19960   0.995   0.075  11.715 -0.2679 -0.2284  0.1594
 2776SOL    HW119961   1.001   0.155  11.663 -1.4612  0.2618  0.7901
 2776SOL    HW219962   1.027   0.010  11.652 -1.9823 -2.4362  1.5652
 2777SOL     OW19963   2.424   0.240  15.907 -0.0360  0.0401  0.4419
 2777SOL    HW119964   2.433   0.273  15.817 -1.9407 -1.2613 -0.2095
 2777SOL    HW219965   2.425   0.327  15.948  1.5327 -0.0067  0.4981
 2778SOL     OW19966   0.062   4.128   0.578  0.1886 -0.1001  0.3470
 2778SOL    HW119967   0.082   4.107   0.486 -1.6521 -1.9386  0.3783
 2778SOL    HW219968   4.729   4.194   0.568  1.0073  0.6693 -0.1637
 2779SOL     OW19969   1.096   4.456   3.007  0.6835 -0.3755 -0.1007
 2779SOL    HW119970   1.110   4.458   3.101 -1.1304 -0.4094  0.1660
 2779SOL    HW219971   1.184   4.457   2.967  0.3847  0.6936 -0.7391
 2780SOL     OW19972   3.972   2.743   2.748 -0.2153  0.5064 -0.4827
 2780SOL    HW119973   4.002   2.660   2.784  0.6639 -0.1593 -2.7304
 2780SOL    HW219974   3.953   2.788   2.831  0.1517 -0.2039 -0.0172
 2781SOL     OW19975   3.813   0.990   7.039 -0.7482  0.4647  0.2563
 2781SOL    HW119976   3.815   0.906   6.993  1.6714 -0.1455  1.5206
 2781SOL    HW219977   3.902   0.985   7.072 -0.9545  2.0034  1.0575
 2782SOL     OW19978   0.004   3.530  16.947 -0.9046 -0.1938 -0.1682
 2782SOL    HW119979   0.008   3.568  16.859  1.4049 -1.3664 -0.5553
 2782SOL    HW219980   0.070   3.461  16.942 -0.0967  0.6341 -0.8823
 2783SOL     OW19981   3.650   2.458   0.156 -0.1122  0.1449  0.3902
 2783SOL    HW119982   3.564   2.502   0.156 -1.4457 -2.4723  0.6078
 2783SOL    HW219983   3.645   2.407   0.236 -1.0638 -2.9519 -1.6368
 2784SOL     OW19984   3.172   0.299   2.151 -0.2129 -0.2252 -0.0672
 2784SOL    HW119985   3.260   0.273   2.180  0.5591  1.1079 -1.2226
 2784SOL    HW219986   3.163   0.232   2.083 -1.7464 -0.6970  0.5976
 2785SOL     OW19987   2.838   0.053   3.506  0.1666 -0.0549 -0.4258
 2785SOL    HW119988   2.748   0.039   3.534  1.0486  1.0060  3.0023
 2785SOL    HW219989   2.884   0.093   3.580  2.3643 -1.4287 -1.0565
 2786SOL     OW19990   1.875   1.720   1.209 -0.0736  0.2534 -0.0014
 2786SOL    HW119991   1.901   1.627   1.215 -1.2489  0.0125  1.3783
 2786SOL    HW219992   1.909   1.740   1.122  0.2114  0.3716  0.1364
 2787SOL     OW19993   3.984   3.521   1.122 -0.4719 -0.0938 -0.3844
 2787SOL    HW119994   3.981   3.566   1.206 -0.9616 -0.9719  0.0660
 2787SOL    HW219995   3.902   3.547   1.081  0.5280 -0.9983 -3.0037
 2788SOL     OW19996   2.639   1.411   7.410  0.3496 -0.2827  0.3103
 2788SOL    HW119997   2.596   1.336   7.369  1.5383 -0.6478 -0.2827
 2788SOL    HW219998   2.695   1.440   7.338  0.8924 -0.3572  0.6988
 2789SOL     OW19999   4.411   1.661   3.265 -0.1932  0.1107 -0.1165
 2789SOL    HW120000   4.483   1.602   3.287 -0.6492 -1.3765 -2.5306
 2789SOL    HW220001   4.342   1.638   3.327  1.1220  0.7944  1.5951
 2790SOL     OW20002   2.580   2.084   0.656  0.3033 -0.8548 -0.3746
 2790SOL    HW120003   2.574   1.988   0.664  2.8269 -1.0172 -0.3518
 2790SOL    HW220004   2.517   2.105   0.725  0.2984 -1.2504 -0.2589
 2791SOL     OW20005   3.146   0.356  11.732  0.1469 -0.4023  0.5441
 2791SOL    HW120006   3.108   0.276  11.695  0.1546 -0.4601  0.6615
 2791SOL    HW220007   3.104   0.359  11.818 -2.6797  0.4876 -0.8605
 2792SOL     OW20008   1.421   1.068   8.322 -0.0831  1.0666 -0.1466
 2792SOL    HW120009   1.447   0.978   8.341  0.0208  1.3838  1.2273
 2792SOL    HW220010   1.505   1.111   8.307 -0.4677  1.1193 -2.0645
 2793SOL     OW20011   3.373   4.418   7.526  0.0730  0.9500  0.0394
 2793SOL    HW120012   3.418   4.485   7.576  3.1853 -2.6157  1.9957
 2793SOL    HW220013   3.328   4.365   7.591  1.7734 -0.8163 -0.2450
 2794SOL     OW20014   0.463   1.631   4.968  0.0008  0.1526  0.0815
 2794SOL    HW120015   0.453   1.626   4.873  0.0787 -0.5281  0.1110
 2794SOL    HW220016   0.376   1.601   4.997  0.7789 -0.9812  1.2862
 2795SOL     OW20017   2.796   1.770   4.951 -0.1226 -0.1311  0.2148
 2795SOL    HW120018   2.873   1.824   4.970 -0.2992 -0.2829  1.3819
 2795SOL    HW220019   2.755   1.808   4.874  3.1776  3.2351  0.1296
 2796SOL     OW20020   1.963   4.054   2.845  0.2936  0.1819  0.3492
 2796SOL    HW120021   1.925   3.996   2.779  0.1104 -0.1695  0.7642
 2796SOL    HW220022   1.898   4.124   2.853 -1.6506 -1.7003  1.2515
 2797SOL     OW20023   4.681   3.949  15.161  0.0707  0.5443  0.0119
 2797SOL    HW120024   4.680   3.907  15.247 -1.2414 -0.0073 -0.2744
 2797SOL    HW220025   4.606   3.902  15.125  1.2737 -1.5833  0.2508
 2798SOL     OW20026   0.247   3.089   4.233 -0.1468 -1.0904  0.3827
 2798SOL    HW120027   0.253   3.139   4.314 -2.3554 -1.5458  0.8168
 2798SOL    HW220028   0.340   3.079   4.211  0.0949  2.2554 -0.0969
 2799SOL     OW20029   4.192   3.887  16.885  0.4548 -0.7563 -0.1262
 2799SOL    HW120030   4.152   3.840  16.813 -1.6622  0.4333  0.2787
 2799SOL    HW220031   4.273   3.836  16.892 -1.0433 -2.6565  3.4878
 2800SOL     OW20032   1.981   0.756   5.791 -0.5299 -0.5421  0.1241
 2800SOL    HW120033   2.050   0.729   5.852  0.4325  1.2442 -0.1855
 2800SOL    HW220034   1.920   0.683   5.803 -0.7648 -0.2404  0.7688
 2801SOL     OW20035   0.157   1.620  17.247 -0.0454  0.2950  0.2870
 2801SOL    HW120036   0.132   1.533  17.277  1.1825 -0.7649 -1.7640
 2801SOL    HW220037   0.075   1.639  17.201  0.0629  1.5213  0.5935
 2802SOL     OW20038   0.046   0.716  12.158 -0.0012  0.1918 -0.1152
 2802SOL    HW120039   4.719   0.666  12.105  1.9043 -1.9268 -0.3380
 2802SOL    HW220040   0.074   0.651  12.222  2.6730 -0.3537 -1.8578
 2803SOL     OW20041   0.103   4.609  11.948  0.1165  0.1957 -0.0290
 2803SOL    HW120042   0.146   4.554  11.882 -2.7132 -0.0139 -1.7006
 2803SOL    HW220043   0.024   4.559  11.967 -0.5219  1.9338  1.8384
 2804SOL     OW20044   2.271   2.526  10.802  0.8560 -0.0060  0.2764
 2804SOL    HW120045   2.327   2.500  10.729 -0.4143  0.1376 -0.7493
 2804SOL    HW220046   2.206   2.455  10.801  0.0514  0.7274  0.1207
 2805SOL     OW20047   2.519   2.900   2.607 -0.1040 -0.1085 -0.0499
 2805SOL    HW120048   2.568   2.949   2.674  1.6125 -2.1111  0.1793
 2805SOL    HW220049   2.489   2.967   2.545 -0.1067  0.1194  0.1970
 2806SOL     OW20050   2.919   4.683   5.432 -0.4714  0.0860 -0.7535
 2806SOL    HW120051   2.971   4.691   5.352  2.2249 -2.0365  0.7922
 2806SOL    HW220052   2.933   4.589   5.444 -2.0895 -0.0699 -0.1712
 2807SOL     OW20053   0.826   1.542  14.434  0.0031  0.2130 -0.0903
 2807SOL    HW120054   0.827   1.541  14.338  1.8374  2.0627 -0.1122
 2807SOL    HW220055   0.843   1.634  14.458  0.1356 -0.3461  1.9649
 2808SOL     OW20056   1.303   1.674  13.695  0.1463 -0.1295  0.4472
 2808SOL    HW120057   1.345   1.739  13.639  0.4216 -0.3532  0.3928
 2808SOL    HW220058   1.235   1.645  13.634  0.3455 -1.0978  0.6841
 2809SOL     OW20059   2.343   3.909  16.769 -0.5938 -0.4324 -0.4280
 2809SOL    HW120060   2.397   3.988  16.761  0.7950 -1.2121  1.1832
 2809SOL    HW220061   2.404   3.852  16.721  0.0570  0.1302 -0.2672
 2810SOL     OW20062   3.507   1.142   5.172 -0.0659 -0.5001  0.4472
 2810SOL    HW120063   3.509   1.050   5.197 -0.9060 -0.2313  1.5470
 2810SOL    HW220064   3.442   1.168   5.238 -1.5536 -1.3505 -0.6939
 2811SOL     OW20065   1.961   0.992  12.171  0.0906  0.2331  0.6378
 2811SOL    HW120066   1.875   0.955  12.190  1.1321 -2.9193 -0.8298
 2811SOL    HW220067   2.005   0.907  12.164 -0.4610 -0.1957  2.3561
 2812SOL     OW20068   3.208   4.686   5.904  0.3115 -0.0769 -0.4930
 2812SOL    HW120069   3.191   4.616   5.841 -1.6739  1.3716 -1.5833
 2812SOL    HW220070   3.129   0.005   5.903  0.9013  0.8331  2.6213
 2813SOL     OW20071   3.060   2.627  12.946 -0.5120  0.1698  0.0353
 2813SOL    HW120072   3.097   2.661  13.028 -0.5234  2.5526 -0.9724
 2813SOL    HW220073   3.025   2.543  12.977 -0.9259 -0.0265 -0.9816
 2814SOL     OW20074   3.772   2.167   2.882  0.3315 -0.1947  0.4920
 2814SOL    HW120075   3.720   2.113   2.940  1.1912 -0.8364  0.6610
 2814SOL    HW220076   3.705   2.211   2.829 -0.1964 -2.0554 -0.3731
 2815SOL     OW20077   3.006   3.957   8.561 -0.7669  0.0425 -0.3643
 2815SOL    HW120078   2.961   3.985   8.481 -0.3006  1.8722  0.0217
 2815SOL    HW220079   3.046   3.878   8.526  1.9943  1.1173  0.3556
 2816SOL     OW20080   4.150   1.938  15.702 -0.7212  0.0249 -0.0277
 2816SOL    HW120081   4.097   2.017  15.717 -2.2209 -0.3648 -3.1753
 2816SOL    HW220082   4.235   1.980  15.696  0.3647 -2.2383 -0.5375
 2817SOL     OW20083   3.651   0.058   1.600  0.1042  0.0746 -0.0476
 2817SOL    HW120084   3.672   4.701   1.613 -0.6260  0.2458  2.3310
 2817SOL    HW220085   3.645   0.109   1.681  0.3514 -1.0271  0.6588
 2818SOL     OW20086   2.238   1.659   1.441  0.0533  0.1975  0.7066
 2818SOL    HW120087   2.304   1.592   1.421 -0.5814 -0.3029  0.2772
 2818SOL    HW220088   2.209   1.687   1.354 -0.0232 -0.7683  0.4157
 2819SOL     OW20089   1.250   1.146   2.299 -0.0324 -0.2505 -0.4879
 2819SOL    HW120090   1.334   1.189   2.317  0.0553  1.1475 -4.3211
 2819SOL    HW220091   1.210   1.124   2.383  0.2815  0.0525 -0.2593
 2820SOL     OW20092   0.375   1.192  12.149  0.2356  0.5722 -0.0413
 2820SOL    HW120093   0.317   1.248  12.200  1.2605  1.2972  0.3161
 2820SOL    HW220094   0.348   1.104  12.176  1.7866 -0.0931 -0.6740
 2821SOL     OW20095   4.511   2.142  16.748  0.0333  0.2152 -0.1436
 2821SOL    HW120096   4.491   2.152  16.841  0.9007 -0.8901  0.1690
 2821SOL    HW220097   4.453   2.206  16.709  1.5357  0.6587 -1.6332
 2822SOL     OW20098   2.096   2.952  12.257  0.0138 -0.6389  0.2197
 2822SOL    HW120099   2.105   2.982  12.166  1.2695 -0.5449  0.3667
 2822SOL    HW220100   2.132   2.864  12.243  2.0046  0.7304 -3.4244
 2823SOL     OW20101   2.217   0.369   5.970 -0.2770  0.1289  0.0063
 2823SOL    HW120102   2.248   0.299   5.912 -1.6325 -1.3699  1.0966
 2823SOL    HW220103   2.182   0.320   6.045  1.4685 -0.8979  0.1572
 2824SOL     OW20104   2.144   4.270  15.490  0.1968 -0.1977 -0.3782
 2824SOL    HW120105   2.227   4.299  15.527 -0.2818 -1.5809  1.7547
 2824SOL    HW220106   2.091   4.350  15.497  0.6396 -0.1653  2.5348
 2825SOL     OW20107   0.452   1.994   5.945 -0.2526  0.1179  0.2693
 2825SOL    HW120108   0.397   2.054   5.995  0.0908  1.5505 -1.0372
 2825SOL    HW220109   0.429   1.912   5.988 -0.3289 -0.2064 -0.3835
 2826SOL     OW20110   1.561   3.127   1.710 -0.0344  0.2468 -0.6545
 2826SOL    HW120111   1.498   3.063   1.742  0.3411  0.1325 -0.1437
 2826SOL    HW220112   1.641   3.075   1.699  1.2555  1.9606  0.5969
 2827SOL     OW20113   2.576   2.803   5.061  0.3804 -0.0902 -0.2378
 2827SOL    HW120114   2.622   2.751   4.995  1.1629  0.0529  0.2007
 2827SOL    HW220115   2.485   2.773   5.067  0.4782 -0.7718 -2.2633
 2828SOL     OW20116   2.150   2.152   5.753 -0.6883  0.3800 -0.0682
 2828SOL    HW120117   2.237   2.137   5.790 -0.4894 -2.0555 -1.4937
 2828SOL    HW220118   2.165   2.221   5.689 -1.2614 -1.2128 -1.9332
 2829SOL     OW20119   0.096   4.583  15.478  0.0219 -0.2661 -0.2932
 2829SOL    HW120120   0.153   4.569  15.402  0.5428  2.1097 -0.3213
 2829SOL    HW220121   0.128   4.516  15.538 -0.7398 -0.7610 -0.4386
 2830SOL     OW20122   3.016   2.397   7.181 -0.2678 -0.5497  0.0961
 2830SOL    HW120123   3.103   2.436   7.184 -0.1411 -0.7040 -1.5637
 2830SOL    HW220124   2.970   2.449   7.247  0.6812  1.1972 -0.6313
 2831SOL     OW20125   1.144   3.599   0.469 -0.1488  0.3947 -0.3623
 2831SOL    HW120126   1.113   3.611   0.559  0.4224  1.7548 -0.3450
 2831SOL    HW220127   1.150   3.503   0.467  0.0189  0.3512  1.7195
 2832SOL     OW20128   1.888   0.762   1.758 -0.1241  0.4241  0.1833
 2832SOL    HW120129   1.971   0.750   1.711 -0.6982  0.8834 -0.9500
 2832SOL    HW220130   1.915   0.738   1.846  0.9788 -1.3169 -0.6145
 2833SOL     OW20131   0.525   2.984   4.985 -0.2822 -0.2892  0.1676
 2833SOL    HW120132   0.570   3.006   5.066 -1.1112 -2.4094  1.2175
 2833SOL    HW220133   0.592   2.976   4.916  1.2895 -0.4664  1.6992
 2834SOL     OW20134   2.254   3.009  16.069 -0.5370 -0.5148 -0.2736
 2834SOL    HW120135   2.282   2.964  15.989 -0.9469 -0.0009 -0.7096
 2834SOL    HW220136   2.336   3.015  16.118  0.2430 -0.1095 -1.6334
 2835SOL     OW20137   1.581   0.059   5.598 -0.1266 -0.5981  0.1733
 2835SOL    HW120138   1.544   0.106   5.524 -1.4440  0.6211  1.6058
 2835SOL    HW220139   1.599   4.706   5.565  0.6059 -0.2692 -0.3020
 2836SOL     OW20140   2.376   1.573   5.372 -0.2456 -0.2635 -0.1470
 2836SOL    HW120141   2.450   1.606   5.423  0.7359 -0.8407 -1.1992
 2836SOL    HW220142   2.302   1.617   5.414  0.2998  0.7040 -0.2107
 2837SOL     OW20143   1.854   1.023   2.710  0.7281  0.2878 -0.2743
 2837SOL    HW120144   1.894   1.051   2.793  2.0120  0.2973 -0.9005
 2837SOL    HW220145   1.887   1.090   2.650 -1.2937  2.0178  0.5360
 2838SOL     OW20146   3.302   2.071  16.315  0.4689  0.0769  0.2101
 2838SOL    HW120147   3.232   2.043  16.256 -0.2706 -2.5346  2.3505
 2838SOL    HW220148   3.256   2.094  16.395  0.3811 -0.8853  0.4311
 2839SOL     OW20149   1.822   1.353  10.592 -0.1867  0.0549  0.6714
 2839SOL    HW120150   1.873   1.355  10.511  0.4737  0.4751  1.1026
 2839SOL    HW220151   1.762   1.279  10.576  0.0992 -0.1298  0.4656
 2840SOL     OW20152   0.881   4.110   4.711  0.3815  0.0305  0.1537
 2840SOL    HW120153   0.827   4.074   4.781  1.0458  1.6333  1.4837
 2840SOL    HW220154   0.934   4.167   4.767 -0.9291  0.7288  0.7089
 2841SOL     OW20155   0.224   3.149  12.877  0.0497  0.4541 -0.1068
 2841SOL    HW120156   0.216   3.227  12.933 -2.0533 -0.3540  0.7374
 2841SOL    HW220157   0.130   3.135  12.866  0.5967 -1.1154 -2.6593
 2842SOL     OW20158   0.737   4.536  13.380 -0.6478  0.2597 -0.8526
 2842SOL    HW120159   0.772   4.483  13.308 -1.0605 -0.9569 -0.1557
 2842SOL    HW220160   0.740   4.623  13.340  2.8633  0.6194  0.2313
 2843SOL     OW20161   1.119   1.098   1.591  0.3636 -0.0953  0.1683
 2843SOL    HW120162   1.174   1.023   1.614  0.7711 -0.3759 -1.7235
 2843SOL    HW220163   1.120   1.122   1.499  1.0713  0.7336  0.3814
 2844SOL     OW20164   4.051   2.616   7.613  0.1618 -0.3236 -0.4120
 2844SOL    HW120165   4.085   2.560   7.683 -0.1878  0.3235  0.2703
 2844SOL    HW220166   3.988   2.560   7.569 -1.0597  2.2723 -1.9743
 2845SOL     OW20167   2.554   4.222   4.967  0.5177  0.0122 -0.2903
 2845SOL    HW120168   2.548   4.237   4.872  1.1892  1.9954 -0.0178
 2845SOL    HW220169   2.472   4.173   4.972  0.2411  0.6673  1.4173
 2846SOL     OW20170   1.040   4.334   7.446 -0.1772  0.0546 -0.0562
 2846SOL    HW120171   1.059   4.312   7.355  0.1879 -2.4451  0.6220
 2846SOL    HW220172   0.987   4.411   7.424 -1.4139 -1.0117 -0.8010
 2847SOL     OW20173   1.352   1.615   8.488 -0.1749 -0.5358  0.6867
 2847SOL    HW120174   1.279   1.633   8.429 -1.0173  0.3238  1.9853
 2847SOL    HW220175   1.312   1.617   8.575  2.0616  0.3327  1.6774
 2848SOL     OW20176   4.416   1.462   7.962 -0.2405 -0.2444  0.4613
 2848SOL    HW120177   4.408   1.500   7.875 -1.8444  0.6624  1.0018
 2848SOL    HW220178   4.399   1.545   8.006  2.5791  0.4733  0.2315
 2849SOL     OW20179   0.860   1.523   0.813  0.5010  0.3420  0.0785
 2849SOL    HW120180   0.791   1.459   0.795  0.5551  0.3783 -0.2599
 2849SOL    HW220181   0.935   1.465   0.801  1.5919  2.0627 -1.4602
 2850SOL     OW20182   3.671   2.189  13.044  0.1961  0.1012  0.2875
 2850SOL    HW120183   3.654   2.095  13.043  0.6554  0.0395 -1.8520
 2850SOL    HW220184   3.760   2.188  13.011 -0.0885  0.6705 -0.4887
 2851SOL     OW20185   3.531   3.905   5.812  0.7089 -0.4412 -0.5928
 2851SOL    HW120186   3.482   3.931   5.891  1.2107 -1.9837  0.2250
 2851SOL    HW220187   3.536   3.810   5.823 -0.1424 -0.5076 -0.7649
 2852SOL     OW20188   4.446   0.780   3.255  0.6583 -0.0685 -0.2224
 2852SOL    HW120189   4.517   0.721   3.277 -0.2915 -0.3480  2.2008
 2852SOL    HW220190   4.378   0.720   3.223  1.5312 -2.6326  2.7869
 2853SOL     OW20191   1.812   1.506  12.161  0.2396  0.3147  0.2065
 2853SOL    HW120192   1.903   1.492  12.187  0.4205 -0.1788 -0.6650
 2853SOL    HW220193   1.798   1.600  12.161 -0.8204  0.1551 -1.5877
 2854SOL     OW20194   3.566   1.507   9.051 -0.3377 -0.4012  0.1256
 2854SOL    HW120195   3.477   1.513   9.016 -0.6753  1.2320  1.2617
 2854SOL    HW220196   3.603   1.571   8.990 -1.0143 -2.5652 -2.5590
 2855SOL     OW20197   0.525   2.059   8.558  0.1965 -0.4196 -0.2729
 2855SOL    HW120198   0.584   2.021   8.493  1.0248 -0.0422  0.2574
 2855SOL    HW220199   0.523   1.987   8.620  2.4611 -1.5893 -1.5677
 2856SOL     OW20200   0.026   1.107   5.356 -0.0631 -0.0263 -0.2077
 2856SOL    HW120201   4.706   1.111   5.434  0.4630  1.1151  0.0961
 2856SOL    HW220202   0.025   1.198   5.329  0.2591 -0.3532 -1.3148
 2857SOL     OW20203   2.352   2.897   7.589 -0.6283  0.1750 -0.5840
 2857SOL    HW120204   2.353   2.801   7.595 -1.7125  0.2504  0.9520
 2857SOL    HW220205   2.288   2.913   7.659 -0.1747 -0.6617  0.0249
 2858SOL     OW20206   0.285   2.061  11.843 -0.2153  0.0539  0.0435
 2858SOL    HW120207   0.326   2.014  11.770  0.5560  1.2114 -0.2708
 2858SOL    HW220208   0.322   2.018  11.920 -1.4230 -0.3919  0.3656
 2859SOL     OW20209   4.403   1.802   6.109 -0.0204 -0.5457  0.3944
 2859SOL    HW120210   4.318   1.784   6.149 -0.7677  0.4522 -0.7654
 2859SOL    HW220211   4.460   1.809   6.186  0.6406  2.1732 -0.3697
 2860SOL     OW20212   0.036   0.971   7.316 -0.1356  0.3671 -0.4699
 2860SOL    HW120213   0.059   1.041   7.254  1.8071 -0.3086 -0.5384
 2860SOL    HW220214   0.071   0.892   7.275  0.0298  0.6686 -0.9221
 2861SOL     OW20215   4.490   4.411   7.086  0.0705  0.0441 -0.0957
 2861SOL    HW120216   4.459   4.486   7.035 -1.3901  0.6727  1.7248
 2861SOL    HW220217   4.583   4.432   7.088 -0.0741  0.4712  1.8825
 2862SOL     OW20218   3.204   1.942  10.902  0.2935 -0.1022  0.8053
 2862SOL    HW120219   3.180   1.854  10.933  0.1681 -0.2207  0.3717
 2862SOL    HW220220   3.228   1.980  10.986 -0.1584  0.7807  0.5337
 2863SOL     OW20221   2.345   2.087   4.579  0.4362 -0.1711 -0.0362
 2863SOL    HW120222   2.333   2.181   4.573  0.4640 -0.1500  0.2315
 2863SOL    HW220223   2.316   2.081   4.670 -0.1546 -1.5495 -0.3097
 2864SOL     OW20224   2.587   1.188   3.285  0.5744 -0.3593  0.4865
 2864SOL    HW120225   2.499   1.153   3.301 -0.2191  0.5358 -1.8591
 2864SOL    HW220226   2.626   1.124   3.225 -0.9476 -1.7134  0.9187
 2865SOL     OW20227   2.202   0.118   1.139 -0.0460  0.0325 -0.9628
 2865SOL    HW120228   2.151   0.197   1.154  1.2058  1.2241 -2.8982
 2865SOL    HW220229   2.151   0.074   1.071  0.0231  1.1367 -1.7368
 2866SOL     OW20230   3.247   4.391   4.851 -0.3811  0.5592 -0.6117
 2866SOL    HW120231   3.246   4.322   4.785 -2.0948  0.7386 -0.7710
 2866SOL    HW220232   3.331   4.370   4.891 -1.0615 -0.5693  0.2360
 2867SOL     OW20233   3.428   2.533  10.788  0.3203 -0.0482  0.0482
 2867SOL    HW120234   3.467   2.598  10.847  0.3035 -0.8630  0.9547
 2867SOL    HW220235   3.365   2.592  10.746  1.1775 -0.5156 -1.9182
 2868SOL     OW20236   3.944   1.978  13.052  0.5435  0.0894  0.6925
 2868SOL    HW120237   3.891   1.927  13.113  1.2238  1.1143  2.1454
 2868SOL    HW220238   4.014   1.914  13.036 -0.0961 -0.2520 -0.7243
 2869SOL     OW20239   1.608   0.217   8.328 -0.0758 -0.0303 -0.4857
 2869SOL    HW120240   1.649   0.243   8.246 -1.5900  2.2911 -0.5299
 2869SOL    HW220241   1.667   0.259   8.391  1.4805 -1.3284 -1.0884
 2870SOL     OW20242   4.500   0.548   1.572  0.7149  0.5183  0.3029
 2870SOL    HW120243   4.502   0.482   1.642 -0.5905  0.6821  0.4959
 2870SOL    HW220244   4.431   0.608   1.601  0.7096  0.0165  1.3671
 2871SOL     OW20245   1.505   3.796  13.887  0.0332 -0.4843 -0.4506
 2871SOL    HW120246   1.439   3.772  13.952  0.0866 -1.4018 -0.7397
 2871SOL    HW220247   1.485   3.890  13.878  0.4426 -0.3110  0.4262
 2872SOL     OW20248   2.043   1.699   1.652  0.4719  0.2446  0.1254
 2872SOL    HW120249   2.122   1.717   1.601  0.3171 -0.1929 -0.2758
 2872SOL    HW220250   2.078   1.688   1.740  1.9136 -0.0035 -0.4738
 2873SOL     OW20251   0.657   4.468   9.971  0.1259  0.0273  0.2718
 2873SOL    HW120252   0.629   4.529   9.902 -0.6410  2.9535  3.1635
 2873SOL    HW220253   0.698   4.388   9.937  1.0426  0.2816  0.7850
 2874SOL     OW20254   3.736   2.455  15.215 -0.4963 -0.5470 -0.4354
 2874SOL    HW120255   3.780   2.442  15.299 -2.7120 -0.8090  0.6899
 2874SOL    HW220256   3.772   2.542  15.197 -0.6644 -0.3401  0.2444
 2875SOL     OW20257   2.036   3.896   6.315 -0.1570  0.0567 -0.1699
 2875SOL    HW120258   2.120   3.934   6.291 -0.0280  0.7047  1.3122
 2875SOL    HW220259   2.061   3.845   6.392 -1.5032  0.2501  0.3883
 2876SOL     OW20260   0.767   1.261   2.816  0.1865 -0.1555 -0.3083
 2876SOL    HW120261   0.789   1.330   2.879  0.4422  0.2797 -0.8746
 2876SOL    HW220262   0.858   1.235   2.802  0.7265  0.9895  1.0862
 2877SOL     OW20263   2.383   3.412   3.217 -1.0895  0.1264 -0.1706
 2877SOL    HW120264   2.383   3.453   3.304 -1.5805 -0.2254 -0.0039
 2877SOL    HW220265   2.444   3.340   3.230 -2.6674 -0.4500  4.2258
 2878SOL     OW20266   2.916   2.005   8.190  0.1076 -0.2394  0.4227
 2878SOL    HW120267   2.891   2.076   8.131  1.1751  1.2833  1.8344
 2878SOL    HW220268   2.948   2.055   8.265 -0.5988 -0.8676  1.1493
 2879SOL     OW20269   1.810   2.328   4.739  0.3743 -0.1418 -0.5204
 2879SOL    HW120270   1.895   2.286   4.726 -0.4480 -2.1473  0.4864
 2879SOL    HW220271   1.755   2.257   4.704 -0.3205 -0.1807  0.6273
 2880SOL     OW20272   3.122   2.447  16.417 -0.2814 -0.0909 -0.0137
 2880SOL    HW120273   3.053   2.381  16.405 -2.8431  2.8148 -1.3292
 2880SOL    HW220274   3.091   2.489  16.498 -1.0798 -0.4611 -0.1235
 2881SOL     OW20275   2.114   3.050   5.707 -0.3751 -0.2890  0.2873
 2881SOL    HW120276   2.114   3.053   5.803  2.0884  0.0761  0.2604
 2881SOL    HW220277   2.208   3.038   5.695 -0.3816 -0.8690  0.8209
 2882SOL     OW20278   4.153   3.500  11.651 -0.0382  0.0706  0.0780
 2882SOL    HW120279   4.127   3.587  11.681  3.9245  0.7873  1.4578
 2882SOL    HW220280   4.124   3.488  11.561 -0.9397  0.4274  0.3228
 2883SOL     OW20281   0.649   0.051  16.185 -0.3167 -0.2391 -0.0443
 2883SOL    HW120282   0.715   0.077  16.121 -2.0606 -1.7042 -2.4497
 2883SOL    HW220283   0.577   0.023  16.129  0.3391 -1.2557 -0.3940
 2884SOL     OW20284   3.216   2.815   8.699 -0.7326  0.2115 -0.2113
 2884SOL    HW120285   3.292   2.853   8.742 -1.8598  0.2384  1.7883
 2884SOL    HW220286   3.264   2.765   8.633 -0.3159 -0.3415  0.4969
 2885SOL     OW20287   1.407   1.027   6.133 -0.3195  0.4446 -0.5080
 2885SOL    HW120288   1.450   1.088   6.074 -0.8561  1.9260  0.6505
 2885SOL    HW220289   1.432   0.943   6.094 -1.4577 -0.2635  0.3109
 2886SOL     OW20290   3.526   1.007   2.759 -0.2972 -0.2156  0.0014
 2886SOL    HW120291   3.512   1.070   2.689  1.8715 -0.2403 -0.4635
 2886SOL    HW220292   3.584   0.941   2.721 -0.7719  0.5116 -1.9780
 2887SOL     OW20293   1.173   1.691   2.816  1.0128 -0.2338  0.9823
 2887SOL    HW120294   1.161   1.754   2.888 -1.3880 -0.5259  0.8331
 2887SOL    HW220295   1.097   1.637   2.834  0.5212  0.8111  2.0396
 2888SOL     OW20296   0.443   4.523   9.680  0.0336 -0.1020  0.3349
 2888SOL    HW120297   0.534   4.514   9.651 -0.2751  1.6310 -1.1676
 2888SOL    HW220298   0.413   4.433   9.693 -2.4536  0.5649 -0.7675
 2889SOL     OW20299   3.043   0.539   1.747 -0.0607  0.4029 -0.1031
 2889SOL    HW120300   2.952   0.522   1.723 -0.8142  0.5876  2.6426
 2889SOL    HW220301   3.028   0.602   1.817 -0.8717 -0.7378  0.7554
 2890SOL     OW20302   3.675   1.758   6.632 -0.5873 -0.0912  0.1617
 2890SOL    HW120303   3.643   1.785   6.718 -0.2142  2.1830 -0.4272
 2890SOL    HW220304   3.684   1.663   6.646  0.2288 -0.1196 -0.5600
 2891SOL     OW20305   1.851   0.937   5.909 -0.5592 -0.5197  0.0684
 2891SOL    HW120306   1.896   0.863   5.867  0.2553 -0.6440  1.1480
 2891SOL    HW220307   1.852   1.009   5.846 -0.9095 -0.6824 -0.1208
 2892SOL     OW20308   1.190   0.435   6.255 -0.4718  0.4019  0.5522
 2892SOL    HW120309   1.202   0.491   6.179 -1.6360 -0.3989 -0.2125
 2892SOL    HW220310   1.265   0.377   6.238 -0.4048  0.7939 -0.4738
 2893SOL     OW20311   4.696   1.153   4.278  0.1600 -0.2253  0.4350
 2893SOL    HW120312   0.041   1.159   4.330 -1.9075 -0.8184  3.7020
 2893SOL    HW220313   4.717   1.152   4.185 -1.4351 -1.4525  0.0801
 2894SOL     OW20314   0.585   2.265   4.497 -0.2973  0.1253  0.2051
 2894SOL    HW120315   0.668   2.265   4.448 -0.7425 -3.7206 -0.5391
 2894SOL    HW220316   0.519   2.317   4.451  1.5284  1.7361 -0.6288
 2895SOL     OW20317   3.122   1.347   8.640  0.1295  0.2471 -0.5387
 2895SOL    HW120318   3.199   1.345   8.582 -0.5066 -1.9948 -1.3036
 2895SOL    HW220319   3.087   1.266   8.604  0.7754 -0.7200  1.0188
 2896SOL     OW20320   4.141   0.454   4.890 -0.4190  0.0875  0.2582
 2896SOL    HW120321   4.171   0.394   4.822 -1.6402  0.5221 -0.6609
 2896SOL    HW220322   4.059   0.491   4.857 -0.4798 -0.6634 -0.4322
 2897SOL     OW20323   3.703   4.515   1.040 -0.0960  0.0918  0.1016
 2897SOL    HW120324   3.731   4.487   0.953 -0.2488  2.9798 -0.8993
 2897SOL    HW220325   3.783   4.524   1.092 -0.5735 -1.1618  1.0493
 2898SOL     OW20326   2.534   4.218   7.940 -0.3105 -0.4162  0.0542
 2898SOL    HW120327   2.576   4.273   8.007  2.3659 -1.5292 -0.7028
 2898SOL    HW220328   2.477   4.279   7.894 -2.5925 -2.0687  0.7345
 2899SOL     OW20329   2.494   3.545   7.789  0.5777  0.4062 -0.2994
 2899SOL    HW120330   2.521   3.631   7.755  0.5876 -0.2411 -1.9160
 2899SOL    HW220331   2.551   3.546   7.866  0.6300  0.7962 -0.3430
 2900SOL     OW20332   1.466   3.093   5.677  0.1583 -0.1795  0.6586
 2900SOL    HW120333   1.384   3.060   5.712  0.3337  0.7067  1.9041
 2900SOL    HW220334   1.526   3.082   5.751  0.8165  2.3020  0.5009
 2901SOL     OW20335   2.959   4.201  12.994  0.0462  0.6136  0.3286
 2901SOL    HW120336   2.975   4.205  13.088  0.8157 -0.6706  0.2452
 2901SOL    HW220337   2.949   4.107  12.981  0.6241  0.8528 -1.9331
 2902SOL     OW20338   2.188   1.098   5.488 -0.1618 -0.4387 -0.4523
 2902SOL    HW120339   2.190   1.003   5.498 -1.5757 -0.3010  1.1542
 2902SOL    HW220340   2.207   1.125   5.578  0.3354 -2.4281  0.0538
 2903SOL     OW20341   0.311   1.153   7.945  0.1009 -0.9669 -0.6109
 2903SOL    HW120342   0.351   1.216   8.006  0.2841 -0.4756 -1.2389
 2903SOL    HW220343   0.224   1.191   7.936 -0.6556 -2.1135  1.8317
 2904SOL     OW20344   4.168   2.291   1.067  0.2777  0.0122  0.3666
 2904SOL    HW120345   4.193   2.321   1.155 -0.5162 -2.0446  1.3029
 2904SOL    HW220346   4.085   2.339   1.060 -0.4721 -1.3222  0.0261
 2905SOL     OW20347   3.304   3.127  17.159  1.0771 -0.0236 -0.0794
 2905SOL    HW120348   3.234   3.157  17.216  3.1445  2.0849  1.3339
 2905SOL    HW220349   3.358   3.205  17.152 -0.3030  0.8156 -1.3690
 2906SOL     OW20350   1.049   4.351  12.783 -0.3358  0.0025 -0.1167
 2906SOL    HW120351   1.119   4.388  12.729 -1.6880  2.7633 -0.0013
 2906SOL    HW220352   1.030   4.266  12.742  0.0329 -0.0664 -0.1420
 2907SOL     OW20353   4.209   4.347  10.564  0.2009 -0.2751  0.1548
 2907SOL    HW120354   4.133   4.331  10.508 -0.3397  0.8441  0.5750
 2907SOL    HW220355   4.245   4.259  10.570  1.6718  0.1107 -2.7057
 2908SOL     OW20356   4.429   0.085   7.839  0.1293  0.6024  0.3285
 2908SOL    HW120357   4.435   0.118   7.750 -1.3331  0.6795  0.2676
 2908SOL    HW220358   4.368   0.013   7.823 -1.0951  1.7124  0.0069
 2909SOL     OW20359   2.871   4.123   3.816 -0.3691  0.0366  0.9241
 2909SOL    HW120360   2.924   4.057   3.861 -0.3458 -0.3861  0.2810
 2909SOL    HW220361   2.826   4.073   3.748  1.0828  0.4970 -0.3861
 2910SOL     OW20362   2.888   0.537   5.862 -0.8577  0.0267  0.6838
 2910SOL    HW120363   2.930   0.501   5.940  0.9490  1.9444  0.5915
 2910SOL    HW220364   2.923   0.479   5.794 -0.8190 -1.5253  2.0341
 2911SOL     OW20365   1.106   1.351   8.223 -0.0373  0.4709  0.4833
 2911SOL    HW120366   1.092   1.417   8.292 -1.1074 -0.6525  1.3298
 2911SOL    HW220367   1.181   1.306   8.263  0.2112 -0.6394 -1.2673
 2912SOL     OW20368   1.358   4.224   2.351 -0.0796 -0.5412  0.1680
 2912SOL    HW120369   1.361   4.283   2.426  2.4656 -0.8167  0.2572
 2912SOL    HW220370   1.353   4.278   2.272 -1.2125 -1.3871 -0.3543
 2913SOL     OW20371   4.158   4.215  15.595  0.0397  0.1122  0.2099
 2913SOL    HW120372   4.233   4.272  15.609 -0.1300  0.5760 -0.7257
 2913SOL    HW220373   4.127   4.208  15.685 -2.1366  1.6027 -0.3976
 2914SOL     OW20374   0.707   2.403   3.488 -0.3592 -0.4567 -0.4068
 2914SOL    HW120375   0.660   2.451   3.419  1.4008 -0.1383 -1.3832
 2914SOL    HW220376   0.645   2.436   3.553  1.3813  0.8782  0.5649
 2915SOL     OW20377   4.515   4.269   5.757 -0.1460 -0.0977  0.1054
 2915SOL    HW120378   4.573   4.215   5.703 -0.3795  1.0689 -1.3312
 2915SOL    HW220379   4.511   4.344   5.697  1.1320 -0.5931 -0.6078
 2916SOL     OW20380   1.049   4.579   0.812 -0.8397  0.3377 -0.3114
 2916SOL    HW120381   1.051   4.673   0.833  0.6364  0.4326 -0.9007
 2916SOL    HW220382   1.045   4.531   0.895  0.7597 -0.1334 -0.5037
 2917SOL     OW20383   1.766   1.810  14.194  0.6643  0.5234 -0.4282
 2917SOL    HW120384   1.753   1.898  14.230  1.0769  0.3268  0.2124
 2917SOL    HW220385   1.679   1.778  14.171 -0.1104  0.7513  2.1852
 2918SOL     OW20386   1.960   1.170   7.384 -0.3292  0.8521 -0.6677
 2918SOL    HW120387   1.931   1.180   7.293 -1.3784  0.7082 -0.3429
 2918SOL    HW220388   2.045   1.215   7.391  0.0362 -0.5390  3.5857
 2919SOL     OW20389   3.330   3.598   1.500 -0.3615 -0.2320  0.0251
 2919SOL    HW120390   3.324   3.673   1.441  1.3669  0.4977  0.7676
 2919SOL    HW220391   3.252   3.544   1.487 -0.6962  0.4324 -0.7179
 2920SOL     OW20392   0.252   1.488  15.903  0.0231  0.1024  0.3271
 2920SOL    HW120393   0.228   1.395  15.907  1.0365 -0.2151 -0.9517
 2920SOL    HW220394   0.251   1.516  15.995  2.2669 -0.4332  0.5142
 2921SOL     OW20395   3.096   3.905   0.161  0.0395 -0.7450 -0.1080
 2921SOL    HW120396   3.149   3.983   0.179 -0.9375 -0.0145 -0.3769
 2921SOL    HW220397   3.076   3.914   0.068 -1.3979  2.1881  0.4842
 2922SOL     OW20398   0.630   4.669  11.215  0.1526  0.7846  0.0088
 2922SOL    HW120399   0.688   4.611  11.167 -0.2004 -1.1760  1.9577
 2922SOL    HW220400   0.658   0.022  11.191 -1.4202  0.9840 -1.0513
 2923SOL     OW20401   1.551   4.237  13.572 -0.0148 -0.9832 -0.1473
 2923SOL    HW120402   1.605   4.311  13.543 -1.5526  0.1683 -0.0541
 2923SOL    HW220403   1.478   4.273  13.621  1.2417 -1.7973  2.3165
 2924SOL     OW20404   1.130   0.621  11.848  0.9455 -0.7356  0.1237
 2924SOL    HW120405   1.108   0.590  11.760 -0.8464  0.8357  0.0014
 2924SOL    HW220406   1.041   0.622  11.884 -0.0593  5.6323 -2.4736
 2925SOL     OW20407   3.522   3.427   9.364 -0.0482 -0.3231  0.0892
 2925SOL    HW120408   3.611   3.430   9.398  1.1259 -1.7225 -2.8144
 2925SOL    HW220409   3.515   3.331   9.369  1.9823 -0.4558  0.2900
 2926SOL     OW20410   2.253   3.680   5.024  0.1922 -0.3119  0.3551
 2926SOL    HW120411   2.242   3.741   4.951 -0.7954 -0.6749  0.2028
 2926SOL    HW220412   2.277   3.604   4.971 -0.3760 -0.5989  0.5061
 2927SOL     OW20413   0.531   4.535   6.485  0.2884 -0.4634  0.2869
 2927SOL    HW120414   0.474   4.488   6.423  2.7236 -1.1460 -1.4178
 2927SOL    HW220415   0.534   4.626   6.455  1.7353  0.2344  2.6148
 2928SOL     OW20416   2.908   2.174   0.571 -0.5996  0.4730 -0.6130
 2928SOL    HW120417   2.837   2.157   0.634 -2.4478 -1.5260 -3.2088
 2928SOL    HW220418   2.854   2.213   0.502 -0.6757  1.7255  0.1453
 2929SOL     OW20419   4.436   1.017   3.078 -0.0804  0.3640  0.6286
 2929SOL    HW120420   4.420   0.925   3.099  1.8115  0.0754  0.8092
 2929SOL    HW220421   4.500   1.007   3.008  1.8634  0.0872  2.4314
 2930SOL     OW20422   0.879   1.156   6.045  0.4625 -0.0125  0.1916
 2930SOL    HW120423   0.938   1.232   6.049 -2.1899  2.0570 -0.1059
 2930SOL    HW220424   0.857   1.149   6.138 -0.4445  0.2584 -0.0002
 2931SOL     OW20425   0.498   1.161   3.436  0.1621 -0.0355  0.2209
 2931SOL    HW120426   0.484   1.178   3.529  0.5035 -0.4882  0.3549
 2931SOL    HW220427   0.427   1.216   3.402  0.7208 -0.1044 -1.0921
 2932SOL     OW20428   0.837   2.163   5.785 -0.1955  0.6629  0.0278
 2932SOL    HW120429   0.827   2.205   5.700  1.3640  1.6406  0.3356
 2932SOL    HW220430   0.916   2.111   5.771  1.6743  4.5525 -3.5692
 2933SOL     OW20431   1.614   3.183   7.669  0.1484 -0.0192 -0.3683
 2933SOL    HW120432   1.616   3.088   7.655  1.1659 -0.0731  0.1873
 2933SOL    HW220433   1.626   3.183   7.764  0.6599  2.3505 -0.4560
 2934SOL     OW20434   1.377   1.950   8.227  0.1486  0.6099 -0.5358
 2934SOL    HW120435   1.371   1.950   8.323 -0.1036 -1.5059 -0.5511
 2934SOL    HW220436   1.426   1.870   8.206  0.0839 -0.0022  1.6044
 2935SOL     OW20437   3.541   2.110   9.051 -0.6257  0.7179  0.4161
 2935SOL    HW120438   3.565   2.068   8.969  0.8218  0.8234  0.7787
 2935SOL    HW220439   3.621   2.161   9.063  0.6724 -1.8934  2.7205
 2936SOL     OW20440   4.195   2.693   5.879 -0.2076  0.4676  1.2239
 2936SOL    HW120441   4.121   2.752   5.864 -0.7386 -0.8310 -1.2210
 2936SOL    HW220442   4.156   2.622   5.929  1.9104 -1.4397  0.1539
 2937SOL     OW20443   4.432   4.001   7.721  0.2282  0.3326  0.6837
 2937SOL    HW120444   4.437   3.935   7.652 -2.3252  0.8246  0.0218
 2937SOL    HW220445   4.508   4.051   7.692  0.0150  0.5978  0.5760
 2938SOL     OW20446   0.224   4.611   1.856  0.2252 -0.6748  0.3138
 2938SOL    HW120447   0.219   4.604   1.760 -3.3402  0.6969  0.4069
 2938SOL    HW220448   0.201   4.520   1.876 -0.5109 -0.7556 -0.8722
 2939SOL     OW20449   3.050   2.048   6.838  0.0920  0.0544  0.1895
 2939SOL    HW120450   3.073   1.957   6.821 -0.3914  0.0467 -0.4434
 2939SOL    HW220451   2.960   2.026   6.863  0.5386 -2.7878 -0.6892
 2940SOL     OW20452   3.351   2.053   6.850 -0.1577 -0.1877 -0.2176
 2940SOL    HW120453   3.315   2.017   6.931 -0.4203 -0.3408 -0.3990
 2940SOL    HW220454   3.349   2.146   6.873 -0.0817  0.6725 -3.6673
 2941SOL     OW20455   3.945   3.250   6.347  0.1896 -0.6910  0.6457
 2941SOL    HW120456   3.940   3.262   6.442 -2.1647 -1.7726  0.6789
 2941SOL    HW220457   4.013   3.315   6.331  1.3970 -1.9115  0.8239
 2942SOL     OW20458   3.331   0.931   6.694  0.2682 -0.1597  0.7681
 2942SOL    HW120459   3.320   0.870   6.621 -0.7279 -0.4016  1.1160
 2942SOL    HW220460   3.424   0.948   6.680 -0.0669  0.6306 -0.5122
 2943SOL     OW20461   1.332   2.233   1.938 -0.1672  0.1892 -0.5679
 2943SOL    HW120462   1.404   2.292   1.920  0.8364 -0.3061  1.8205
 2943SOL    HW220463   1.362   2.194   2.020  1.5188  1.0081 -0.7952
 2944SOL     OW20464   1.287   2.859   6.832 -0.3406 -0.6209  0.3914
 2944SOL    HW120465   1.362   2.871   6.890 -2.0470 -0.5157  2.5911
 2944SOL    HW220466   1.315   2.917   6.761  1.2116 -0.8618  0.7941
 2945SOL     OW20467   0.955   4.452   5.297  0.4036  0.2232 -0.2994
 2945SOL    HW120468   1.009   4.478   5.372 -0.5176 -1.1404  0.8181
 2945SOL    HW220469   0.867   4.462   5.333  0.0594 -3.6592 -0.0613
 2946SOL     OW20470   1.686   3.370   9.945 -0.0112  0.0928 -0.1699
 2946SOL    HW120471   1.624   3.405   9.881 -0.0074 -2.4073 -1.5382
 2946SOL    HW220472   1.630   3.315   9.999 -2.2102  1.2389 -1.2676
 2947SOL     OW20473   3.840   2.982  12.829 -0.0685 -0.0099  0.0091
 2947SOL    HW120474   3.917   2.981  12.773  0.2206 -1.1525  0.4253
 2947SOL    HW220475   3.778   3.026  12.770 -1.2400 -0.0197  1.2171
 2948SOL     OW20476   3.328   3.940   8.488  0.6422  0.5193  0.0555
 2948SOL    HW120477   3.342   3.947   8.393  0.7604  1.4167  0.1304
 2948SOL    HW220478   3.318   3.845   8.486  0.2732  0.5381  1.2226
 2949SOL     OW20479   2.576   3.239   8.743  0.5278  0.7541 -1.2690
 2949SOL    HW120480   2.503   3.203   8.693  1.0895 -0.6022 -1.1087
 2949SOL    HW220481   2.640   3.181   8.703  0.1751  0.1601 -0.9706
 2950SOL     OW20482   2.175   1.380   9.705  0.0431  0.1923 -0.7933
 2950SOL    HW120483   2.244   1.341   9.652 -1.1886  0.7489 -2.7906
 2950SOL    HW220484   2.167   1.321   9.780 -0.4984  1.2967  0.0172
 2951SOL     OW20485   3.944   2.129   5.176  0.3791  0.3987  0.2830
 2951SOL    HW120486   3.973   2.094   5.092 -0.9877  0.6757 -0.2967
 2951SOL    HW220487   3.851   2.109   5.166  1.0390 -2.2514 -0.5863
 2952SOL     OW20488   0.299   1.884  12.091  0.1927 -0.3360  0.0291
 2952SOL    HW120489   0.335   1.942  12.158  1.2101 -0.2647 -0.5829
 2952SOL    HW220490   0.371   1.821  12.086  0.7453  0.1103  2.3032
 2953SOL     OW20491   1.211   4.181   3.249 -0.1810  0.2370 -0.4270
 2953SOL    HW120492   1.221   4.227   3.332  1.7750 -0.1893 -0.4483
 2953SOL    HW220493   1.274   4.110   3.256 -1.7231 -0.9000  1.7869
 2954SOL     OW20494   0.175   4.055   3.731  0.2843  0.9069  0.0339
 2954SOL    HW120495   0.163   4.140   3.773 -0.3479 -0.9097  3.6044
 2954SOL    HW220496   0.083   4.030   3.724  0.9793 -1.5742 -0.2255
 2955SOL     OW20497   1.268   3.492   7.937 -0.5343 -0.0543  0.4999
 2955SOL    HW120498   1.258   3.490   7.842 -1.5380  0.4430  0.5944
 2955SOL    HW220499   1.345   3.549   7.940 -1.7336  1.5895 -0.5384
 2956SOL     OW20500   4.231   0.355   9.332  0.4117 -1.1866  0.1821
 2956SOL    HW120501   4.293   0.339   9.260  0.0314 -1.6689 -0.0363
 2956SOL    HW220502   4.285   0.345   9.410 -0.3092  1.1066  0.9623
 2957SOL     OW20503   2.231   2.628   7.687  0.8343 -0.4220  0.0752
 2957SOL    HW120504   2.154   2.592   7.645  0.6005  1.6687 -1.2773
 2957SOL    HW220505   2.293   2.626   7.615  1.0587 -1.2719  0.2926
 2958SOL     OW20506   3.512   3.034   7.140 -0.5300  0.2918 -0.2786
 2958SOL    HW120507   3.581   3.074   7.192 -0.1778 -1.4259  0.5756
 2958SOL    HW220508   3.440   3.023   7.203  0.7625 -0.1153  1.1091
 2959SOL     OW20509   4.253   4.474  10.127  0.3738  0.2031 -0.2741
 2959SOL    HW120510   4.209   4.417  10.190  0.6266 -0.0427 -0.3169
 2959SOL    HW220511   4.340   4.437  10.112  0.0758 -0.3117 -0.7155
 2960SOL     OW20512   1.393   0.174  16.941  0.3089 -0.4551  0.1449
 2960SOL    HW120513   1.401   0.095  16.888  0.1429  0.8720 -1.8339
 2960SOL    HW220514   1.321   0.134  16.990 -0.7570 -0.7260 -1.6321
 2961SOL     OW20515   0.853   1.607  15.907 -0.2924 -0.7189  0.3313
 2961SOL    HW120516   0.823   1.599  15.817 -0.4949 -1.4584  0.4638
 2961SOL    HW220517   0.769   1.604  15.952 -0.1778 -1.1044  0.5247
 2962SOL     OW20518   1.758   0.851   6.155 -0.0110  0.6464 -0.6308
 2962SOL    HW120519   1.806   0.899   6.223 -2.6074  0.7119  1.1417
 2962SOL    HW220520   1.811   0.863   6.076  0.8569  1.2218  0.0294
 2963SOL     OW20521   1.907   0.347  13.664 -0.1073  0.2154 -0.2655
 2963SOL    HW120522   1.934   0.430  13.624 -1.4516  1.1168  0.6997
 2963SOL    HW220523   1.989   0.299  13.680 -1.0701 -0.9944  1.0225
 2964SOL     OW20524   0.519   2.487   2.927 -0.2973 -0.0670 -0.2086
 2964SOL    HW120525   0.580   2.507   2.998 -1.4494 -0.1865  0.8069
 2964SOL    HW220526   0.536   2.562   2.869  1.4588 -0.8453 -0.7218
 2965SOL     OW20527   3.375   3.973  13.490  0.1693  0.7616  0.2937
 2965SOL    HW120528   3.388   3.886  13.454 -1.2141 -0.3432  2.4487
 2965SOL    HW220529   3.414   3.951  13.575 -2.7412 -2.4549  0.8052
 2966SOL     OW20530   0.387   1.488   7.629 -0.0643 -0.1989  0.0445
 2966SOL    HW120531   0.408   1.499   7.721 -1.1903  1.8738  0.0523
 2966SOL    HW220532   0.309   1.541   7.615  0.7167  1.0774  0.5639
 2967SOL     OW20533   1.863   2.660   4.111  0.2179 -0.2167 -0.3935
 2967SOL    HW120534   1.797   2.722   4.079  1.6824  1.1868 -0.6718
 2967SOL    HW220535   1.807   2.582   4.117 -0.9049  0.7552  1.9684
 2968SOL     OW20536   2.843   3.338  17.052  0.0890  0.1714  0.0413
 2968SOL    HW120537   2.912   3.403  17.070  1.1830 -1.7991  2.9180
 2968SOL    HW220538   2.801   3.338  17.138  2.8584 -1.6004  1.4056
 2969SOL     OW20539   2.810   4.300   6.545 -0.1380  0.1328  0.5293
 2969SOL    HW120540   2.772   4.249   6.616  0.1899 -1.4788 -0.4666
 2969SOL    HW220541   2.855   4.227   6.502  0.1408  0.9467 -0.5773
 2970SOL     OW20542   2.953   2.972   3.983 -0.1461  0.8648  0.3200
 2970SOL    HW120543   2.901   2.930   4.052  0.6607  0.1694  0.5016
 2970SOL    HW220544   3.019   3.020   4.034  0.9134  1.1939 -1.3793
 2971SOL     OW20545   3.848   2.789  13.301 -0.0820 -0.9013  0.2550
 2971SOL    HW120546   3.850   2.868  13.247  1.8705  0.6507  2.5941
 2971SOL    HW220547   3.921   2.740  13.264  0.8735 -0.5306  1.6353
 2972SOL     OW20548   4.359   1.598   4.418  0.2308 -0.2565  0.0469
 2972SOL    HW120549   4.294   1.577   4.485 -0.5514 -0.7534 -0.8831
 2972SOL    HW220550   4.338   1.691   4.405 -1.9285 -0.7217  0.2496
 2973SOL     OW20551   1.619   0.862   1.853  0.0706 -0.1540 -0.0620
 2973SOL    HW120552   1.710   0.839   1.830  0.7116  0.2336  2.1223
 2973SOL    HW220553   1.602   0.793   1.918 -1.4004 -0.1881 -0.4903
 2974SOL     OW20554   2.217   0.224   4.799 -0.2232  0.1309  0.0400
 2974SOL    HW120555   2.309   0.239   4.819 -0.5347  0.5039  1.1779
 2974SOL    HW220556   2.205   0.148   4.855  0.3949  1.3745  1.8615
 2975SOL     OW20557   1.986   2.735   6.136 -0.1670 -0.2279 -0.0536
 2975SOL    HW120558   2.055   2.753   6.200  0.2347 -0.6765 -0.3628
 2975SOL    HW220559   2.038   2.694   6.068 -1.1046 -0.2931 -0.7265
 2976SOL     OW20560   4.581   1.143   9.612  0.4357  0.0711  0.1690
 2976SOL    HW120561   4.591   1.054   9.645 -0.4544  0.1851  0.7366
 2976SOL    HW220562   4.610   1.131   9.521  3.0175  1.6936  0.7886
 2977SOL     OW20563   4.136   2.246   2.283  0.0010  0.2711  0.0712
 2977SOL    HW120564   4.130   2.199   2.366  2.3405  0.7995  0.5237
 2977SOL    HW220565   4.056   2.299   2.284  0.0531  0.3604 -0.4257
 2978SOL     OW20566   3.365   1.873   3.558 -0.3370 -0.2713 -0.0077
 2978SOL    HW120567   3.273   1.851   3.550 -0.4613 -0.2303  1.3422
 2978SOL    HW220568   3.391   1.842   3.471  0.5314  1.7716 -0.4973
 2979SOL     OW20569   1.602   4.016   1.213 -0.2180 -0.3921 -0.2492
 2979SOL    HW120570   1.541   4.082   1.245  0.5774 -0.5449  1.5340
 2979SOL    HW220571   1.682   4.033   1.261 -0.8766  0.4403  0.5584
 2980SOL     OW20572   1.569   4.562   9.267 -0.2639  0.2745  0.3470
 2980SOL    HW120573   1.605   4.480   9.233 -0.9909 -0.6700  1.8657
 2980SOL    HW220574   1.505   4.528   9.329  1.7415 -1.7292  1.3104
 2981SOL     OW20575   0.028   0.205   6.475 -0.3413 -0.1793 -0.4999
 2981SOL    HW120576   0.070   0.145   6.413  0.6758  0.2173 -0.1862
 2981SOL    HW220577   4.687   0.148   6.491 -0.3713 -0.3872 -1.3400
 2982SOL     OW20578   4.531   4.463   1.973  1.0260 -0.0132  0.0816
 2982SOL    HW120579   4.528   4.375   2.011  2.7734 -0.6452 -1.2201
 2982SOL    HW220580   4.601   4.505   2.023  0.2411 -1.4133  2.3833
 2983SOL     OW20581   1.118   4.509   4.652 -0.1025  0.5049 -0.1372
 2983SOL    HW120582   1.166   4.591   4.660  0.5218  0.2624 -1.4776
 2983SOL    HW220583   1.030   4.549   4.649 -0.1708  0.2456 -1.4987
 2984SOL     OW20584   3.793   2.247   8.988 -0.5684  0.0120  0.3453
 2984SOL    HW120585   3.802   2.342   8.992  0.7173 -0.1243  0.7066
 2984SOL    HW220586   3.884   2.217   8.992 -0.4047  0.8201  3.1626
 2985SOL     OW20587   0.017   4.157   6.076  0.2483  0.1967  0.8565
 2985SOL    HW120588   4.677   4.209   6.105  0.4847  1.5739 -1.0313
 2985SOL    HW220589   0.075   4.226   6.045 -0.0137  0.0284 -0.0125
 2986SOL     OW20590   4.615   0.314   4.382  0.1047  0.2770 -0.3087
 2986SOL    HW120591   4.680   0.359   4.437 -1.0023  0.2517  1.0312
 2986SOL    HW220592   4.581   0.379   4.321 -1.2857 -0.5781 -0.4299
 2987SOL     OW20593   0.443   2.967   8.139 -0.5773  0.0819  0.5036
 2987SOL    HW120594   0.520   3.016   8.166 -0.1864 -0.4456  0.3575
 2987SOL    HW220595   0.469   2.934   8.052  2.1188  0.2763  1.2548
 2988SOL     OW20596   0.196   1.222  15.980  0.0013  0.0419  0.3283
 2988SOL    HW120597   0.161   1.144  15.936 -2.9867  2.3471 -1.3798
 2988SOL    HW220598   0.191   1.208  16.075  0.5530 -1.0077  0.2059
 2989SOL     OW20599   0.139   1.757   9.054 -0.2248  0.5927  0.0409
 2989SOL    HW120600   0.191   1.690   9.098 -2.0333 -1.3116 -0.6991
 2989SOL    HW220601   0.195   1.830   9.079 -0.6064 -0.4459  3.9578
 2990SOL     OW20602   1.220   0.991   7.800  0.7213 -0.6367  0.3326
 2990SOL    HW120603   1.231   1.060   7.735 -1.6702 -0.8124 -0.2465
 2990SOL    HW220604   1.239   1.044   7.877 -0.7823 -1.0899  1.0190
 2991SOL     OW20605   1.952   2.297   2.477 -0.6413  0.2068  0.2712
 2991SOL    HW120606   2.032   2.350   2.473  1.0514 -2.2499  1.6800
 2991SOL    HW220607   1.933   2.280   2.385 -1.7268 -2.8661  1.0399
 2992SOL     OW20608   3.159   1.052   2.622 -0.6353 -0.7744  0.0267
 2992SOL    HW120609   3.116   1.032   2.705  1.6531  1.6591  1.8142
 2992SOL    HW220610   3.124   1.141   2.610  0.0139 -0.5623 -0.2682
 2993SOL     OW20611   0.055   1.015   8.911 -0.2174 -0.3691  0.7977
 2993SOL    HW120612   0.023   1.086   8.966 -1.9483 -0.3080 -0.2619
 2993SOL    HW220613   0.001   1.035   8.834  0.7072  0.1777  0.2949
 2994SOL     OW20614   1.703   0.598   7.643 -0.3915 -0.1262 -0.2729
 2994SOL    HW120615   1.713   0.623   7.551  2.2186 -0.5831 -0.1206
 2994SOL    HW220616   1.639   0.657   7.681  0.3396  0.3708  0.1842
 2995SOL     OW20617   4.002   1.384  17.336 -0.3112  0.0470 -0.1271
 2995SOL    HW120618   3.929   1.350  17.386 -0.1277 -1.4563 -0.8661
 2995SOL    HW220619   3.956   1.443  17.277 -0.5048 -1.1419 -1.1688
 2996SOL     OW20620   4.599   1.729   5.155  0.1057 -0.1160 -0.0572
 2996SOL    HW120621   4.589   1.793   5.085 -1.0643  1.0209  1.1513
 2996SOL    HW220622   4.632   1.648   5.116  0.6884 -0.8855  2.0678
 2997SOL     OW20623   3.972   4.582   8.667 -0.3197  0.0432  0.1375
 2997SOL    HW120624   3.895   4.638   8.679  0.7257  1.4888 -0.0028
 2997SOL    HW220625   3.945   4.517   8.602  1.0297  0.2156 -0.5881
 2998SOL     OW20626   3.549   0.910   1.099 -0.2354  0.0903  0.2903
 2998SOL    HW120627   3.639   0.878   1.096 -0.0675  0.4962  0.9898
 2998SOL    HW220628   3.510   0.826   1.123  0.5762 -0.3063  0.2197
 2999SOL     OW20629   2.282   1.748  10.620 -0.3776 -0.1326 -0.4543
 2999SOL    HW120630   2.327   1.664  10.629 -0.0975  0.1344  0.6638
 2999SOL    HW220631   2.287   1.769  10.527  0.2518 -1.4346 -0.7188
 3000SOL     OW20632   1.693   3.742   9.563  0.0457 -0.5921  0.3639
 3000SOL    HW120633   1.706   3.737   9.658 -3.1576  1.5221  0.9238
 3000SOL    HW220634   1.782   3.743   9.528  0.0784  0.9860  0.5010
 3001SOL     OW20635   0.504   0.050   7.103 -0.1215  0.1268 -0.2502
 3001SOL    HW120636   0.528   4.728   7.176 -1.1856 -1.0155 -0.8073
 3001SOL    HW220637   0.409   0.042   7.099 -0.0546 -0.2544 -0.8947
 3002SOL     OW20638   4.598   4.698  12.467 -0.6029  0.2592  0.0761
 3002SOL    HW120639   4.583   4.607  12.441 -0.2089  0.5731 -1.2500
 3002SOL    HW220640   4.527   4.704  12.530 -1.4852  0.4812 -0.9469
 3003SOL     OW20641   2.989   1.104  10.816  0.6014  0.2927 -0.1093
 3003SOL    HW120642   2.996   1.181  10.873  3.2201 -0.2499  0.2609
 3003SOL    HW220643   2.903   1.115  10.775 -0.3545 -0.7431  1.6251
 3004SOL     OW20644   3.369   1.762   4.942 -0.2093 -0.0720 -0.1115
 3004SOL    HW120645   3.319   1.839   4.915 -1.0276 -0.3865  0.4940
 3004SOL    HW220646   3.315   1.688   4.914 -0.0757  0.1277 -0.8914
 3005SOL     OW20647   2.919   1.275   0.176 -0.2887 -0.6743  0.3878
 3005SOL    HW120648   2.985   1.235   0.233  1.1514 -1.9702 -2.2081
 3005SOL    HW220649   2.974   1.326   0.116  0.6904 -1.1253  0.8895
 3006SOL     OW20650   3.820   4.618   9.788 -0.1428 -0.1326  0.7197
 3006SOL    HW120651   3.794   4.529   9.765  0.4601 -0.8335  2.7684
 3006SOL    HW220652   3.893   4.608   9.850  0.6193  3.8906  0.4967
 3007SOL     OW20653   0.384   1.419  16.925  0.0739 -0.5644 -0.1460
 3007SOL    HW120654   0.305   1.371  16.951 -1.3528 -0.8358 -4.7821
 3007SOL    HW220655   0.440   1.343  16.912 -0.4459 -0.9482 -0.1527
 3008SOL     OW20656   1.673   2.440   4.190 -0.1834 -0.3417  0.0036
 3008SOL    HW120657   1.679   2.376   4.119  1.9840 -1.5064  1.2286
 3008SOL    HW220658   1.619   2.389   4.251  1.9563  0.4485  2.5770
 3009SOL     OW20659   3.675   0.689   0.142  0.0311  0.1587  0.0420
 3009SOL    HW120660   3.644   0.599   0.156  0.6871  0.1441  1.3157
 3009SOL    HW220661   3.593   0.737   0.151  1.5925  2.8964 -0.4225
 3010SOL     OW20662   0.411   3.066   2.954  0.2146  0.0343  0.1547
 3010SOL    HW120663   0.344   3.113   2.903 -0.2021  0.8281  1.4394
 3010SOL    HW220664   0.366   2.981   2.954  0.6692 -0.2054  0.5479
 3011SOL     OW20665   2.552   3.664  16.988  0.4060  0.1417  0.3021
 3011SOL    HW120666   2.581   3.611  17.062  0.3023 -0.8876 -0.3993
 3011SOL    HW220667   2.625   3.725  16.977  0.0663  0.4323 -0.3662
 3012SOL     OW20668   0.262   0.296  10.395 -0.0458  0.0161 -0.0750
 3012SOL    HW120669   0.253   0.297  10.300 -5.5429 -1.2128  0.4171
 3012SOL    HW220670   0.172   0.321  10.419  0.3954  1.1115  0.4728
 3013SOL     OW20671   3.308   4.163  16.453  0.3188  0.1461  0.4076
 3013SOL    HW120672   3.365   4.240  16.445 -0.1831  0.6623  1.7085
 3013SOL    HW220673   3.352   4.086  16.420 -0.0495  0.1604 -0.1181
 3014SOL     OW20674   0.060   1.903   7.847  0.2311  0.0302  0.2593
 3014SOL    HW120675   0.132   1.857   7.891 -0.6303 -0.0009  1.6434
 3014SOL    HW220676   0.103   1.958   7.783 -0.9403 -0.3954 -0.8869
 3015SOL     OW20677   1.957   0.332   1.898 -0.4912  0.4683  0.3818
 3015SOL    HW120678   2.030   0.390   1.878 -0.4626  0.9234  1.7701
 3015SOL    HW220679   2.004   0.267   1.950  1.6725  0.1093 -2.0048
 3016SOL     OW20680   3.355   2.169   3.372 -0.4320  0.5196  0.4923
 3016SOL    HW120681   3.289   2.216   3.423 -2.6577  0.0509 -1.9667
 3016SOL    HW220682   3.310   2.132   3.295  1.3960 -1.1597  0.2390
 3017SOL     OW20683   4.603   1.648   1.898  0.2298 -0.0458 -0.0033
 3017SOL    HW120684   4.516   1.613   1.915  0.0929  0.4034  0.2286
 3017SOL    HW220685   4.657   1.569   1.900  1.4550  0.7269 -2.0783
 3018SOL     OW20686   2.820   3.333   6.681  0.1042  0.4167 -0.7068
 3018SOL    HW120687   2.796   3.369   6.766  1.8249 -0.5512  0.1829
 3018SOL    HW220688   2.740   3.362   6.638  0.5990  1.5391 -0.8605
 3019SOL     OW20689   1.563   1.962   2.675  0.1926  0.7219  0.6374
 3019SOL    HW120690   1.570   1.935   2.767 -0.0494 -1.8088 -0.0934
 3019SOL    HW220691   1.512   1.895   2.630  1.0491  0.4075  0.1337
 3020SOL     OW20692   1.989   1.074  13.991 -0.3227 -0.5794 -0.2620
 3020SOL    HW120693   1.918   1.054  13.929  1.4565 -0.5759 -2.2918
 3020SOL    HW220694   2.017   1.157  13.953  0.2192 -0.9819 -0.7490
 3021SOL     OW20695   3.376   0.565   6.826 -0.5091 -0.4135  0.7508
 3021SOL    HW120696   3.364   0.630   6.894  0.9183  0.3805  0.2393
 3021SOL    HW220697   3.458   0.602   6.796 -0.8378 -0.9645 -0.8832
 3022SOL     OW20698   1.875   1.738   9.497 -0.3274 -0.1504  0.3018
 3022SOL    HW120699   1.782   1.721   9.516 -0.3441 -1.6240 -1.1077
 3022SOL    HW220700   1.923   1.656   9.487  2.2796  1.4296  0.0859
 3023SOL     OW20701   4.523   0.929   4.344  0.0292  0.5186 -0.7073
 3023SOL    HW120702   4.585   1.001   4.334 -1.2104  1.6174 -0.4677
 3023SOL    HW220703   4.572   0.874   4.405 -1.8108 -0.7087 -0.3169
 3024SOL     OW20704   0.331   0.129   6.799 -0.2900  0.5919 -0.0779
 3024SOL    HW120705   0.238   0.140   6.779 -0.1118 -0.4651 -1.5253
 3024SOL    HW220706   0.315   0.126   6.893 -1.0478 -0.6442 -0.2513
 3025SOL     OW20707   3.570   2.242   6.592  0.1077  0.0648 -0.0986
 3025SOL    HW120708   3.539   2.312   6.535  1.3765  2.0078  1.6158
 3025SOL    HW220709   3.613   2.295   6.658 -1.4546 -0.4301  1.3019
 3026SOL     OW20710   3.005   3.696  13.862  0.2540  0.3476 -0.8813
 3026SOL    HW120711   3.018   3.647  13.943  0.3281 -1.1955 -1.8244
 3026SOL    HW220712   3.017   3.631  13.794  0.0023 -0.8457  0.2128
 3027SOL     OW20713   3.286   0.090   1.682  0.2113 -0.0055  0.7597
 3027SOL    HW120714   3.200   0.082   1.642  0.7561  0.7737 -0.5614
 3027SOL    HW220715   3.315   0.179   1.662  0.0046 -0.1625 -0.2127
 3028SOL     OW20716   3.868   3.384  14.498 -0.5378  0.2238 -0.3529
 3028SOL    HW120717   3.861   3.436  14.418  2.5843  0.1093 -0.6867
 3028SOL    HW220718   3.945   3.334  14.474 -1.0117 -0.7843  0.1969
 3029SOL     OW20719   1.508   3.717   1.495  0.1586 -0.6514 -0.1534
 3029SOL    HW120720   1.429   3.737   1.447  0.0649  1.5076  0.9293
 3029SOL    HW220721   1.471   3.652   1.555  2.0948 -0.8209  0.8629
 3030SOL     OW20722   0.689   4.366   7.165  0.1693  0.3589  0.1366
 3030SOL    HW120723   0.604   4.338   7.131  1.0005 -1.0837 -0.7153
 3030SOL    HW220724   0.678   4.332   7.254 -0.3546 -1.3497 -0.5757
 3031SOL     OW20725   1.441   2.668   4.803 -0.3697  0.6739 -0.4847
 3031SOL    HW120726   1.531   2.673   4.836 -0.6224 -1.4344  0.4961
 3031SOL    HW220727   1.406   2.696   4.888  1.8507 -1.2581  1.0516
 3032SOL     OW20728   0.339   2.859  12.010 -0.4610 -0.2736 -0.3617
 3032SOL    HW120729   0.315   2.949  11.987  0.9654  0.4433  0.9527
 3032SOL    HW220730   0.404   2.875  12.079  1.3879  1.8050 -2.5822
 3033SOL     OW20731   0.026   4.728   8.845 -0.0127  0.3425 -0.0082
 3033SOL    HW120732   0.018   4.704   8.753  1.9948  1.4731 -0.4659
 3033SOL    HW220733   4.697   4.673   8.890  0.1671 -1.2879 -1.7383
 3034SOL     OW20734   1.511   0.879   4.553  0.3897  0.4391  0.0932
 3034SOL    HW120735   1.582   0.844   4.606  1.8824  0.4230 -1.8929
 3034SOL    HW220736   1.464   0.805   4.515 -1.1477  1.3825  0.1689
 3035SOL     OW20737   2.235   0.938  13.215 -0.3166 -0.2174  0.3741
 3035SOL    HW120738   2.289   0.867  13.250 -2.3019 -2.3122 -0.8358
 3035SOL    HW220739   2.271   1.010  13.267 -0.3100  0.7719 -0.9960
 3036SOL     OW20740   2.524   2.624   9.004  0.0103  0.5079 -0.4524
 3036SOL    HW120741   2.507   2.712   8.970 -0.1444  1.3619  1.8327
 3036SOL    HW220742   2.619   2.621   9.002 -0.0274 -0.8193 -0.3223
 3037SOL     OW20743   3.418   0.589   5.321 -0.1152 -0.0285 -0.0112
 3037SOL    HW120744   3.340   0.540   5.346  0.4513 -1.3421 -0.8542
 3037SOL    HW220745   3.377   0.656   5.267 -0.2897  1.0248  1.4214
 3038SOL     OW20746   1.310   0.813  16.192  0.0401 -0.2725  0.3653
 3038SOL    HW120747   1.357   0.828  16.274 -0.5167  1.4239  0.3776
 3038SOL    HW220748   1.383   0.772  16.144  1.4174  3.9415 -1.1237
 3039SOL     OW20749   0.176   1.210  16.639  0.2617  0.1006  0.1451
 3039SOL    HW120750   0.151   1.243  16.725 -0.0441 -2.4337  1.0388
 3039SOL    HW220751   0.222   1.131  16.669 -0.5094  0.2177  1.6600
 3040SOL     OW20752   1.730   3.097   3.228 -0.4568 -0.4748  0.0354
 3040SOL    HW120753   1.820   3.111   3.255  0.1359 -0.5627 -1.9376
 3040SOL    HW220754   1.736   3.097   3.132  1.6485  0.4978  0.1749
 3041SOL     OW20755   1.693   0.003   8.916 -0.1104 -0.1658  0.3587
 3041SOL    HW120756   1.662   4.729   8.827  0.1414 -2.0923  0.4766
 3041SOL    HW220757   1.615   0.009   8.971  0.5630 -0.2257  1.3324
 3042SOL     OW20758   3.837   4.394   4.144  0.3957  0.1075 -0.2768
 3042SOL    HW120759   3.888   4.443   4.208 -1.1971  1.2819  0.0844
 3042SOL    HW220760   3.762   4.451   4.125 -1.6558 -2.6772 -0.5937
 3043SOL     OW20761   2.686   0.874  15.052 -0.1368 -0.3413 -0.0970
 3043SOL    HW120762   2.731   0.958  15.038  0.0972 -0.3463  0.6180
 3043SOL    HW220763   2.756   0.808  15.054 -0.4911 -0.7130 -0.1882
 3044SOL     OW20764   2.742   1.731   8.618 -0.2255  0.5354  0.1415
 3044SOL    HW120765   2.774   1.814   8.583  1.5220  0.2002  0.9627
 3044SOL    HW220766   2.759   1.741   8.711 -0.9772 -0.8343  0.4296
 3045SOL     OW20767   4.303   2.478   4.472  0.0325 -0.7345  0.4690
 3045SOL    HW120768   4.349   2.406   4.429  0.5853 -1.5862  2.4783
 3045SOL    HW220769   4.258   2.424   4.536  0.4460 -0.9504  0.5781
 3046SOL     OW20770   3.996   1.071   5.692 -0.4579  0.0080  0.1498
 3046SOL    HW120771   4.052   1.147   5.674  1.9287 -1.8106 -0.1072
 3046SOL    HW220772   3.936   1.074   5.617  1.6112 -0.7079 -1.5317
 3047SOL     OW20773   0.603   3.908   9.500 -0.6452 -0.2909 -0.3636
 3047SOL    HW120774   0.523   3.865   9.529 -1.6327  2.8918  1.6077
 3047SOL    HW220775   0.589   4.000   9.521  2.1229 -0.5779  2.6587
 3048SOL     OW20776   3.154   1.380   4.473  0.0495  0.0628 -0.3826
 3048SOL    HW120777   3.185   1.343   4.556  0.7825 -0.5160 -0.9199
 3048SOL    HW220778   3.075   1.422   4.508  0.3950  0.2614  0.1703
 3049SOL     OW20779   3.859   2.809  13.584  0.3349  0.1365  0.3819
 3049SOL    HW120780   3.896   2.726  13.613  0.5907  0.5451  1.2500
 3049SOL    HW220781   3.892   2.818  13.495 -0.5394  2.1341  0.2467
 3050SOL     OW20782   1.572   3.108  17.506 -0.2434  0.9530  0.1143
 3050SOL    HW120783   1.585   3.191  17.553 -0.0089  1.0614 -0.1427
 3050SOL    HW220784   1.636   3.051  17.549 -0.6177  0.6447  0.2591
 3051SOL     OW20785   0.565   0.810   2.178 -0.1889 -0.4539 -0.2764
 3051SOL    HW120786   0.558   0.822   2.084  0.0878 -1.3817 -0.4149
 3051SOL    HW220787   0.531   0.894   2.208 -1.3604 -0.9029 -0.3717
 3052SOL     OW20788   3.890   4.537   2.033  0.0309 -0.3150  0.2333
 3052SOL    HW120789   3.890   4.442   2.033  3.6635 -0.3071  1.1401
 3052SOL    HW220790   3.888   4.547   1.938  1.5926  1.9295  0.4180
 3053SOL     OW20791   2.040   2.938  11.719  0.2418 -0.9660  0.4527
 3053SOL    HW120792   2.124   2.922  11.677  0.2905  0.4143  0.0375
 3053SOL    HW220793   1.986   2.911  11.645 -1.8073  0.3149  1.4697
 3054SOL     OW20794   4.229   2.959   5.399  0.3207 -0.4916 -0.0526
 3054SOL    HW120795   4.221   3.051   5.373 -0.6128 -0.3251  0.7885
 3054SOL    HW220796   4.178   2.912   5.333 -0.4342  0.3990 -0.1071
 3055SOL     OW20797   2.834   2.282   9.044 -0.0493  0.4267  0.1585
 3055SOL    HW120798   2.822   2.341   9.119  3.0925  1.3072 -0.0250
 3055SOL    HW220799   2.871   2.337   8.975  0.9641 -0.2400  0.1670
 3056SOL     OW20800   1.780   3.575   8.128  1.0077 -0.0120  0.1131
 3056SOL    HW120801   1.763   3.495   8.179 -2.6016 -0.4881 -1.8408
 3056SOL    HW220802   1.731   3.637   8.182 -0.1769  1.1021 -2.2196
 3057SOL     OW20803   0.609   4.387  14.422  0.3899 -0.4224  0.3007
 3057SOL    HW120804   0.698   4.368  14.452 -0.2614 -0.8350  1.9683
 3057SOL    HW220805   0.591   4.474  14.458  3.1483 -0.5075  1.8429
 3058SOL     OW20806   0.483   2.250  14.993  0.0476  0.0804 -0.4975
 3058SOL    HW120807   0.459   2.309  14.921  2.2144 -1.4059 -2.4254
 3058SOL    HW220808   0.455   2.308  15.064 -1.2135 -1.5588  0.3224
 3059SOL     OW20809   2.140   1.805   9.639 -0.2236 -0.4798  0.1040
 3059SOL    HW120810   2.167   1.867   9.572 -1.7904 -0.3521 -0.4187
 3059SOL    HW220811   2.056   1.767   9.612  1.3796 -1.8950 -2.9398
 3060SOL     OW20812   2.530   3.110   5.266  0.0685  0.0015  0.2451
 3060SOL    HW120813   2.572   3.109   5.180 -1.7370  2.1206 -0.6695
 3060SOL    HW220814   2.444   3.138   5.234 -0.1229 -0.8798 -0.0192
 3061SOL     OW20815   1.194   1.839   7.033  0.2712  0.0986  0.3460
 3061SOL    HW120816   1.141   1.763   7.010  2.5197 -1.0410 -1.0726
 3061SOL    HW220817   1.238   1.804   7.110 -1.4348  0.0828  1.3210
 3062SOL     OW20818   3.871   4.301   3.866  0.6753  0.2142  0.0506
 3062SOL    HW120819   3.944   4.307   3.928  0.9816  0.9505 -0.3678
 3062SOL    HW220820   3.795   4.321   3.920 -1.6842  0.1130 -3.2744
 3063SOL     OW20821   4.058   0.231   3.075 -0.3931  0.0457  0.1096
 3063SOL    HW120822   4.003   0.227   2.996 -0.6851 -1.1580  0.3794
 3063SOL    HW220823   4.145   0.243   3.036 -0.8970  1.8418 -0.4651
 3064SOL     OW20824   2.703   4.522   6.152  0.1002 -0.0881  0.2182
 3064SOL    HW120825   2.618   4.500   6.113 -0.6304  0.6248  1.4041
 3064SOL    HW220826   2.724   4.451   6.213 -0.8513  1.1703  2.0271
 3065SOL     OW20827   1.314   1.066   2.762 -0.7030 -0.6946  0.0917
 3065SOL    HW120828   1.387   1.059   2.823  1.5018  0.1219 -2.4309
 3065SOL    HW220829   1.260   1.000   2.806 -2.2509  1.3839  1.2953
 3066SOL     OW20830   3.179   4.630   2.785 -0.0465 -0.2450 -0.2285
 3066SOL    HW120831   3.196   4.541   2.816  0.1860  0.0300  0.4308
 3066SOL    HW220832   3.216   4.623   2.697  0.6240 -2.4555  0.2409
 3067SOL     OW20833   3.943   3.464   3.238 -0.1787  0.1011  0.3554
 3067SOL    HW120834   4.025   3.513   3.241 -0.4558  0.6003 -0.3000
 3067SOL    HW220835   3.978   3.381   3.271 -2.4823 -1.3462 -0.7807
 3068SOL     OW20836   2.049   3.524   3.782 -0.2300  0.2428 -0.0106
 3068SOL    HW120837   1.970   3.562   3.743 -0.8563  0.6959  1.7059
 3068SOL    HW220838   2.022   3.480   3.863 -1.3059  1.2947  0.2079
 3069SOL     OW20839   0.407   0.822   3.957 -0.0103  0.1096 -0.5508
 3069SOL    HW120840   0.350   0.810   3.881  0.5914 -1.4903 -0.7535
 3069SOL    HW220841   0.400   0.740   4.007  2.4478  1.3338  1.8271
 3070SOL     OW20842   1.839   0.667   1.466 -0.0275  0.1166  0.1352
 3070SOL    HW120843   1.849   0.627   1.552  0.3107 -2.3880 -1.0631
 3070SOL    HW220844   1.857   0.594   1.407  1.3310 -0.9283  1.8380
 3071SOL     OW20845   0.631   1.727  14.233 -0.3251 -0.4120 -0.4384
 3071SOL    HW120846   0.716   1.691  14.207 -0.8222 -2.4607  0.7686
 3071SOL    HW220847   0.579   1.724  14.153 -0.3994 -1.1959 -0.3648
 3072SOL     OW20848   2.647   0.332   2.065 -0.2512  0.1607  0.0229
 3072SOL    HW120849   2.725   0.288   2.097 -0.6033 -1.4648 -1.3711
 3072SOL    HW220850   2.611   0.254   2.023  1.6094 -0.5980 -0.1575
 3073SOL     OW20851   0.579   1.653  13.656  0.4373  0.1709 -1.0284
 3073SOL    HW120852   0.485   1.640  13.640  0.4678 -1.1501 -0.1801
 3073SOL    HW220853   0.582   1.748  13.657  1.0289  0.1243  1.5431
 3074SOL     OW20854   3.409   2.435   0.320  0.7371  0.0249 -0.2775
 3074SOL    HW120855   3.461   2.480   0.387  1.4519 -1.2257  0.0005
 3074SOL    HW220856   3.359   2.512   0.293  0.8544  0.3705  0.4912
 3075SOL     OW20857   1.018   2.444   6.012  0.3155  0.5501  0.3217
 3075SOL    HW120858   1.075   2.378   5.974 -0.8355 -0.7228  0.8382
 3075SOL    HW220859   0.957   2.453   5.939 -0.9274 -1.7530  1.0911
 3076SOL     OW20860   0.218   4.168   8.591  0.3277  0.0229 -0.7471
 3076SOL    HW120861   0.295   4.126   8.630 -0.8603  0.2995  1.8884
 3076SOL    HW220862   0.201   4.116   8.512 -2.7365  0.4484 -0.3649
 3077SOL     OW20863   1.299   1.371   3.053 -0.0567  0.5120 -0.3632
 3077SOL    HW120864   1.257   1.457   3.054  1.1199  1.0577  0.7735
 3077SOL    HW220865   1.227   1.311   3.074 -0.7637  0.4601 -2.9237
 3078SOL     OW20866   2.626   4.309   8.255 -0.6880  0.2739  0.6759
 3078SOL    HW120867   2.631   4.290   8.349  1.1405  0.1275  0.5519
 3078SOL    HW220868   2.667   4.395   8.255  0.4990 -0.2866  0.4804
 3079SOL     OW20869   0.573   3.116   4.722 -1.2980  0.8420 -0.3072
 3079SOL    HW120870   0.618   3.158   4.795 -1.3742 -0.2073  0.3428
 3079SOL    HW220871   0.483   3.144   4.739 -1.3768  0.1257  0.4243
 3080SOL     OW20872   3.983   3.732   6.613  0.4009 -0.3401 -0.1075
 3080SOL    HW120873   4.062   3.684   6.589  1.1750  0.7754  0.2117
 3080SOL    HW220874   3.922   3.697   6.548 -2.0736 -0.6538  2.3898
 3081SOL     OW20875   0.812   0.934  13.484 -0.0112  0.0404  0.2930
 3081SOL    HW120876   0.901   0.920  13.453  0.4014  1.4569  0.8410
 3081SOL    HW220877   0.816   1.014  13.536  1.5899  0.2879 -0.2126
 3082SOL     OW20878   1.276   3.732   2.561 -0.6075  0.1734 -0.5048
 3082SOL    HW120879   1.273   3.809   2.506  0.6377  0.6575  0.1073
 3082SOL    HW220880   1.347   3.760   2.618 -0.5438 -0.4058 -0.2907
 3083SOL     OW20881   1.328   2.281   7.378 -0.1880 -0.0738 -0.5852
 3083SOL    HW120882   1.393   2.254   7.443  0.5010 -0.3484 -1.3902
 3083SOL    HW220883   1.367   2.243   7.299 -1.2646 -1.2645 -0.5404
 3084SOL     OW20884   1.065   1.636   5.862 -0.2296  0.1970  0.6149
 3084SOL    HW120885   1.103   1.549   5.853  0.1664  0.4512 -0.1314
 3084SOL    HW220886   1.104   1.682   5.788  0.0149 -1.0159 -0.0091
 3085SOL     OW20887   2.118   4.345   6.408 -0.0433 -0.0308  0.0289
 3085SOL    HW120888   2.152   4.423   6.451 -1.9260 -0.4909  2.3241
 3085SOL    HW220889   2.048   4.378   6.351 -0.8995 -0.5773  0.7638
 3086SOL     OW20890   2.349   3.967   6.620  0.7508 -0.5025 -0.1072
 3086SOL    HW120891   2.352   3.983   6.714 -0.8779 -0.2878 -0.0789
 3086SOL    HW220892   2.343   4.054   6.580 -0.2010 -0.4499  0.1457
 3087SOL     OW20893   1.150   4.235   0.685  0.3239  1.2553  0.7009
 3087SOL    HW120894   1.100   4.216   0.765 -2.5136  0.6933 -1.2009
 3087SOL    HW220895   1.095   4.298   0.638 -0.8665  1.1011  1.8772
 3088SOL     OW20896   4.372   1.428   2.465 -0.4212 -0.0663 -0.7212
 3088SOL    HW120897   4.374   1.427   2.369 -0.0036 -0.1315 -0.7120
 3088SOL    HW220898   4.296   1.486   2.476  0.6044  1.1369 -0.0362
 3089SOL     OW20899   4.021   2.352   1.487 -0.5139  0.2659  0.0356
 3089SOL    HW120900   4.021   2.447   1.490 -1.3443  0.3641 -2.6083
 3089SOL    HW220901   4.080   2.327   1.416 -0.0645  1.1428  0.1118
 3090SOL     OW20902   2.089   2.656  14.854  0.1756 -0.0338  0.4759
 3090SOL    HW120903   2.109   2.572  14.812  1.4415  0.4437  0.1449
 3090SOL    HW220904   2.041   2.702  14.785 -3.4133  0.3679  3.2489
 3091SOL     OW20905   1.219   2.586   4.363 -0.4560  0.2682 -0.0580
 3091SOL    HW120906   1.125   2.581   4.342 -0.3313  2.2426 -1.0735
 3091SOL    HW220907   1.221   2.524   4.436  0.7948  1.4427  0.9059
 3092SOL     OW20908   3.171   4.070   7.413  0.3865 -0.1165  0.2037
 3092SOL    HW120909   3.185   4.017   7.334 -3.6289  2.5122 -2.2240
 3092SOL    HW220910   3.211   4.155   7.396 -2.1639  1.1036  0.3138
 3093SOL     OW20911   2.759   2.092   3.157  0.1789 -0.2728  0.2038
 3093SOL    HW120912   2.664   2.100   3.162  0.1955  0.0369  0.0330
 3093SOL    HW220913   2.783   2.185   3.158 -0.4111 -0.1248  0.7572
 3094SOL     OW20914   1.675   2.217   8.502  0.0144  0.7697  0.2630
 3094SOL    HW120915   1.621   2.183   8.573  2.6998  1.6407  2.6917
 3094SOL    HW220916   1.708   2.136   8.463  0.0507  1.3344 -0.8857
 3095SOL     OW20917   0.456   1.196   4.712  0.4289  0.1923 -0.1638
 3095SOL    HW120918   0.522   1.246   4.760  0.1887 -0.2260  0.5907
 3095SOL    HW220919   0.402   1.270   4.682  0.0563  0.2436  0.6277
 3096SOL     OW20920   3.168   2.034   4.786 -0.5192  0.0799 -0.0862
 3096SOL    HW120921   3.105   2.105   4.771 -0.0703  0.4951 -0.0029
 3096SOL    HW220922   3.125   1.961   4.741  0.2770 -0.5884  0.2368
 3097SOL     OW20923   1.313   1.796   3.916  0.3833 -0.1352  0.3845
 3097SOL    HW120924   1.389   1.741   3.897  0.3709 -0.6660  1.8890
 3097SOL    HW220925   1.254   1.791   3.841  0.6593 -1.4316  0.2571
 3098SOL     OW20926   3.791   0.243   0.116  0.0700  0.2034  0.1234
 3098SOL    HW120927   3.699   0.220   0.113  0.2942 -0.3575 -2.4710
 3098SOL    HW220928   3.819   0.291   0.038 -0.5689 -0.1698 -0.3288
 3099SOL     OW20929   2.188   3.966   7.913 -0.3859  0.0813  0.5401
 3099SOL    HW120930   2.175   4.031   7.844  1.9300 -0.2994 -0.2619
 3099SOL    HW220931   2.158   3.883   7.875  3.0509 -1.4686  1.1858
 3100SOL     OW20932   4.131   1.146  16.777  0.0484  0.0680  0.7474
 3100SOL    HW120933   4.161   1.085  16.710  2.5837  0.7396  1.2757
 3100SOL    HW220934   4.162   1.113  16.861 -0.7791 -0.4193  0.8610
 3101SOL     OW20935   1.474   2.047   5.184  0.3791  0.2167  0.4350
 3101SOL    HW120936   1.463   2.041   5.090 -1.8438 -0.6739  0.7456
 3101SOL    HW220937   1.533   1.976   5.209 -2.5052 -0.9274  4.0338
 3102SOL     OW20938   3.738   2.202   8.035 -0.6428  0.0000 -0.4185
 3102SOL    HW120939   3.732   2.298   8.031  0.0647 -0.0050 -1.7212
 3102SOL    HW220940   3.760   2.201   8.128 -0.8398  2.1074 -0.3493
 3103SOL     OW20941   4.632   2.094   8.468  0.6833 -0.1094 -0.4697
 3103SOL    HW120942   4.712   2.060   8.508  1.3130  0.9967 -0.7806
 3103SOL    HW220943   4.681   2.130   8.394  0.1155  0.7894 -0.4140
 3104SOL     OW20944   3.331   3.678   8.511  0.2090 -0.1096  0.2321
 3104SOL    HW120945   3.382   3.597   8.522 -1.3550 -1.1985 -0.5407
 3104SOL    HW220946   3.280   3.662   8.590  0.6071  2.6365  1.0350
 3105SOL     OW20947   2.025   1.663  10.765 -0.1323 -0.0572  0.5977
 3105SOL    HW120948   1.987   1.742  10.805  0.7092  1.0623 -0.8052
 3105SOL    HW220949   2.096   1.693  10.709 -1.1837  0.7102 -0.3433
 3106SOL     OW20950   3.841   1.302   4.243  0.4271 -0.0542 -0.3865
 3106SOL    HW120951   3.834   1.381   4.188 -0.8452  0.8157  1.0385
 3106SOL    HW220952   3.936   1.296   4.258  0.4488  0.5827 -0.2421
 3107SOL     OW20953   0.654   4.610  11.871  0.0387  0.0524  0.0419
 3107SOL    HW120954   0.559   4.600  11.879  0.0451  0.0808  0.1500
 3107SOL    HW220955   0.670   4.681  11.933  0.8209  1.4462 -1.7655
 3108SOL     OW20956   0.050   4.541   2.670  0.4520  0.5378 -0.2554
 3108SOL    HW120957   4.726   4.466   2.672  0.0522  0.8753  1.1671
 3108SOL    HW220958   0.101   4.533   2.590 -0.6436 -0.3706 -0.8575
 3109SOL     OW20959   0.359   4.678  13.571  0.0653  0.4458  0.2540
 3109SOL    HW120960   0.317   4.656  13.654  1.0369 -0.1994  0.5662
 3109SOL    HW220961   0.447   4.643  13.583  0.5339  0.5591 -2.6469
 3110SOL     OW20962   3.402   2.778   3.568 -0.2692 -0.1199  0.4526
 3110SOL    HW120963   3.481   2.724   3.570 -1.1506 -1.5144 -2.6821
 3110SOL    HW220964   3.431   2.847   3.509  0.6133 -0.9270 -0.0429
 3111SOL     OW20965   2.804   2.664   9.407  0.2998  0.3305 -0.0157
 3111SOL    HW120966   2.743   2.692   9.475  1.3700  1.6434  0.4019
 3111SOL    HW220967   2.785   2.717   9.330 -0.6006  0.2058  0.1183
 3112SOL     OW20968   3.315   1.982   9.974 -0.5163  0.1766  0.1189
 3112SOL    HW120969   3.254   2.017  10.038  0.5630  0.9236  0.7394
 3112SOL    HW220970   3.383   2.049   9.976 -1.6630  1.3748 -1.5917
 3113SOL     OW20971   0.557   0.907   1.908  0.7843 -0.2110  0.2036
 3113SOL    HW120972   0.553   0.999   1.881  0.5118 -0.2999 -0.0486
 3113SOL    HW220973   0.476   0.881   1.865  1.5065 -1.6654 -0.2837
 3114SOL     OW20974   4.544   2.760   6.013  0.1864 -0.3546 -0.9435
 3114SOL    HW120975   4.631   2.766   5.973  0.2433  2.8024 -0.4058
 3114SOL    HW220976   4.498   2.719   5.940  2.2370  2.6389 -3.9462
 3115SOL     OW20977   2.212   1.090   9.239  0.7669 -0.1824  0.3166
 3115SOL    HW120978   2.250   1.004   9.259  0.8233 -0.0092  0.9492
 3115SOL    HW220979   2.164   1.075   9.158  1.7930  1.5275 -0.6110
 3116SOL     OW20980   2.354   4.146  15.726 -0.1154 -0.3765  0.0991
 3116SOL    HW120981   2.375   4.127  15.634  0.7910 -1.5218  0.5408
 3116SOL    HW220982   2.386   4.235  15.738 -0.0840 -0.2900 -0.6582
 3117SOL     OW20983   1.409   4.235   7.997  0.0991 -0.6633 -0.0940
 3117SOL    HW120984   1.449   4.194   7.920 -1.5002 -0.0402 -1.2442
 3117SOL    HW220985   1.466   4.311   8.008  0.6465 -0.7463 -2.3643
 3118SOL     OW20986   3.073   3.982   9.483  0.0333 -0.0478  0.1384
 3118SOL    HW120987   3.148   3.959   9.429 -0.8611  0.2818 -1.2456
 3118SOL    HW220988   3.008   3.976   9.413 -2.3715 -2.3206  2.5544
 3119SOL     OW20989   4.391   4.460   8.610 -0.2321 -0.0644 -0.0176
 3119SOL    HW120990   4.452   4.388   8.621 -0.3870 -0.4079 -1.3952
 3119SOL    HW220991   4.450   4.532   8.589  1.3877 -1.8477 -1.5642
 3120SOL     OW20992   2.213   4.303   7.507  0.0367 -0.3323  0.1568
 3120SOL    HW120993   2.215   4.385   7.556  1.8566  0.7795 -1.7694
 3120SOL    HW220994   2.303   4.297   7.477  0.2115  0.1710  0.5882
 3121SOL     OW20995   3.908   3.545  14.739  0.7209  0.3573  0.2343
 3121SOL    HW120996   3.946   3.615  14.686 -3.0853  1.5121 -0.9562
 3121SOL    HW220997   3.897   3.475  14.674 -1.7799  0.1468  0.8942
 3122SOL     OW20998   2.567   0.832   6.082 -0.5435 -0.4589  0.5888
 3122SOL    HW120999   2.613   0.900   6.131  0.4067 -0.9953  0.4536
 3122SOL    HW221000   2.478   0.867   6.090  0.0348  1.0944  0.0213
 3123SOL     OW21001   4.517   2.809  11.361 -0.0291 -0.6367 -0.0211
 3123SOL    HW121002   4.537   2.883  11.419  0.0867 -2.3476  2.1315
 3123SOL    HW221003   4.433   2.776  11.394  0.0520  0.2395  1.0566
 3124SOL     OW21004   3.801   4.163   0.706 -0.4760 -0.1772  0.1345
 3124SOL    HW121005   3.805   4.164   0.610 -0.3229  0.6698  0.1494
 3124SOL    HW221006   3.726   4.105   0.721  0.0036 -0.7479  0.3218
 3125SOL     OW21007   4.451   3.907   2.228  0.3862 -0.0811  0.0340
 3125SOL    HW121008   4.398   3.842   2.273  0.1662 -0.5130 -0.8401
 3125SOL    HW221009   4.533   3.860   2.208 -0.2051 -0.7005 -0.9360
 3126SOL     OW21010   3.564   0.267   3.232 -0.6555  0.3262 -0.0837
 3126SOL    HW121011   3.477   0.267   3.272  0.4472  0.2980  2.3441
 3126SOL    HW221012   3.541   0.305   3.148  0.9253 -2.1396 -1.6394
 3127SOL     OW21013   2.146   3.357   8.594  0.0845 -0.7358 -0.1554
 3127SOL    HW121014   2.193   3.345   8.676  0.3328  2.5990  0.1929
 3127SOL    HW221015   2.132   3.267   8.566 -2.5089 -0.4855  0.3400
 3128SOL     OW21016   4.265   2.976   4.571 -0.2221  0.5568  0.6400
 3128SOL    HW121017   4.265   3.025   4.654  1.0552  0.5341  0.6511
 3128SOL    HW221018   4.336   2.918   4.601 -0.6201  0.7283  1.8991
 3129SOL     OW21019   0.099   0.976  10.329  0.6141  0.0275  0.0259
 3129SOL    HW121020   0.183   0.935  10.310  0.2099 -1.1929  0.9163
 3129SOL    HW221021   0.102   0.992  10.423 -1.2849  1.2622 -0.1054
 3130SOL     OW21022   3.853   1.874   2.752  0.0613  0.1296  0.5530
 3130SOL    HW121023   3.802   1.935   2.698 -0.1398 -0.8135 -0.3235
 3130SOL    HW221024   3.825   1.900   2.840 -0.7804  2.2155 -0.3214
 3131SOL     OW21025   1.597   1.956  17.039 -0.1230  0.1058 -0.5196
 3131SOL    HW121026   1.611   1.863  17.058  1.2160  0.6990  1.3088
 3131SOL    HW221027   1.501   1.955  17.041 -0.0712 -1.3027  1.0298
 3132SOL     OW21028   4.219   3.173  15.145 -0.4213 -0.0180 -0.1440
 3132SOL    HW121029   4.305   3.182  15.185 -0.4643  0.4692 -0.1524
 3132SOL    HW221030   4.227   3.259  15.103  1.8761  0.8277  2.0148
 3133SOL     OW21031   0.402   2.785   3.840 -0.0736  0.5404 -0.0506
 3133SOL    HW121032   0.491   2.777   3.804  0.2223  0.6661  0.6342
 3133SOL    HW221033   0.356   2.718   3.790  2.0102  0.5925 -2.0774
 3134SOL     OW21034   3.554   0.926   7.125 -0.3955  0.3255 -0.3238
 3134SOL    HW121035   3.539   1.020   7.136  0.1241  0.2101  1.3797
 3134SOL    HW221036   3.640   0.923   7.083 -0.5646 -1.1087 -0.5800
 3135SOL     OW21037   4.302   3.596   5.901  0.2560 -0.1914 -0.1058
 3135SOL    HW121038   4.362   3.616   5.830 -0.5422  0.4668 -0.5897
 3135SOL    HW221039   4.332   3.657   5.968  0.7341  1.5225 -1.8940
 3136SOL     OW21040   2.259   1.763  11.583  0.0064  0.5834  0.3186
 3136SOL    HW121041   2.299   1.679  11.562  0.6117  0.5918  1.4549
 3136SOL    HW221042   2.295   1.777  11.670 -0.9314 -0.5342  0.8811
 3137SOL     OW21043   2.959   0.006   8.875 -0.4090  0.1025  0.8188
 3137SOL    HW121044   2.918   0.092   8.865 -2.0108 -0.7123  0.1605
 3137SOL    HW221045   2.964   4.718   8.782 -1.5764 -0.9239  1.0039
 3138SOL     OW21046   2.821   2.992   7.067  0.0925 -0.6966  0.5279
 3138SOL    HW121047   2.872   2.919   7.101 -0.1944 -1.2747 -0.2901
 3138SOL    HW221048   2.813   3.047   7.145 -0.5241  0.8141 -0.5790
 3139SOL     OW21049   3.586   1.130   7.631 -0.1605 -0.6343  0.7779
 3139SOL    HW121050   3.521   1.194   7.603  0.8902 -0.3489 -0.9286
 3139SOL    HW221051   3.638   1.106   7.555  0.4317 -0.4533  1.1280
 3140SOL     OW21052   1.805   1.315   5.150  0.5267 -0.3311  0.2775
 3140SOL    HW121053   1.737   1.382   5.145  0.9506  0.1854  1.3962
 3140SOL    HW221054   1.849   1.357   5.223  0.3891  0.5853 -0.1666
 3141SOL     OW21055   0.577   1.628   0.296 -0.4895  0.5132 -0.6709
 3141SOL    HW121056   0.611   1.694   0.356 -1.7287 -0.6534  1.3164
 3141SOL    HW221057   0.490   1.606   0.328  0.1946 -0.6495  0.3954
 3142SOL     OW21058   0.048   1.212   2.610 -0.0345  0.1794 -0.0585
 3142SOL    HW121059   0.130   1.261   2.609  0.2218 -0.2132  1.7882
 3142SOL    HW221060   0.065   1.132   2.561 -2.9583 -1.0918  1.0075
 3143SOL     OW21061   3.762   4.644   0.732  0.7316 -0.4888  0.8814
 3143SOL    HW121062   3.786   4.561   0.774  0.6266 -1.4888 -1.0514
 3143SOL    HW221063   3.767   4.717   0.795 -0.8711  0.4986 -0.1213
 3144SOL     OW21064   0.249   2.848   3.161  0.1130  0.0048  0.1426
 3144SOL    HW121065   0.278   2.811   3.078  1.7441  0.4593  0.4979
 3144SOL    HW221066   0.288   2.935   3.169 -0.2158  0.1791 -0.1814
 3145SOL     OW21067   2.609   0.565   6.874  0.7072  0.0715  0.3556
 3145SOL    HW121068   2.519   0.595   6.877  0.1723 -1.5565  0.4072
 3145SOL    HW221069   2.611   0.518   6.957  0.8798 -0.4431  0.0568
 3146SOL     OW21070   2.427   4.335   9.620 -0.4707 -0.0337  0.5712
 3146SOL    HW121071   2.347   4.358   9.572 -0.2992 -0.6162 -0.0023
 3146SOL    HW221072   2.440   4.421   9.660 -0.3985  0.3515 -0.2661
 3147SOL     OW21073   2.612   0.846   6.763  0.2817 -0.3959 -0.1479
 3147SOL    HW121074   2.567   0.766   6.791 -0.9923  0.2499 -0.3372
 3147SOL    HW221075   2.616   0.845   6.667  0.1033 -1.5468 -0.1404
 3148SOL     OW21076   1.511   2.160   2.481 -0.0483 -0.1588 -0.3213
 3148SOL    HW121077   1.419   2.157   2.453  0.6255 -0.5696 -2.5406
 3148SOL    HW221078   1.506   2.150   2.576 -0.5092  0.6277 -0.2615
 3149SOL     OW21079   0.767   2.114   3.523  0.0556 -0.2264  0.2208
 3149SOL    HW121080   0.767   2.209   3.519 -0.2526 -0.1418  2.0324
 3149SOL    HW221081   0.689   2.085   3.476 -0.3334  2.1018 -0.5305
 3150SOL     OW21082   4.005   3.004   1.410 -0.3783 -0.6854 -0.2856
 3150SOL    HW121083   3.947   2.929   1.422 -1.8507  0.2653 -1.4846
 3150SOL    HW221084   4.086   2.955   1.401  0.8578  1.3328 -0.1656
 3151SOL     OW21085   0.455   1.949   2.179 -0.0105 -0.1915 -0.2569
 3151SOL    HW121086   0.428   1.858   2.190  1.6971 -0.5480  0.8324
 3151SOL    HW221087   0.410   1.998   2.248  0.4622  2.4783 -1.8754
 3152SOL     OW21088   4.084   3.843   5.928 -0.2165 -0.1437  0.3475
 3152SOL    HW121089   4.018   3.859   5.860  0.1192  0.5425  0.1829
 3152SOL    HW221090   4.164   3.839   5.875 -1.2871 -0.5816 -1.2535
 3153SOL     OW21091   1.578   3.309   6.475  0.7799  0.1825  0.0912
 3153SOL    HW121092   1.612   3.234   6.427 -1.6626  0.0956 -1.5056
 3153SOL    HW221093   1.611   3.305   6.564  2.2555  1.1538 -0.4040
 3154SOL     OW21094   3.593   0.867   5.146  0.1071  0.2238  0.4510
 3154SOL    HW121095   3.626   0.779   5.127  0.0242  0.8940 -2.8731
 3154SOL    HW221096   3.534   0.865   5.221 -0.2720 -1.2922  0.1216
 3155SOL     OW21097   3.664   1.641   7.285  0.8986  0.7127  0.1959
 3155SOL    HW121098   3.717   1.695   7.226 -1.2228  1.7666 -0.7128
 3155SOL    HW221099   3.690   1.668   7.373  2.2551 -1.2376  0.4088
 3156SOL     OW21100   1.355   0.978  17.377 -0.1830 -0.0351 -0.9025
 3156SOL    HW121101   1.339   0.957  17.469 -0.0368 -0.4429 -0.9662
 3156SOL    HW221102   1.442   0.939  17.366  0.8013  2.5277 -2.0940
 3157SOL     OW21103   4.709   2.347   9.469 -0.1162 -0.1706  0.2826
 3157SOL    HW121104   0.031   2.270   9.466 -1.3443 -1.1422  1.9213
 3157SOL    HW221105   0.001   2.382   9.384  0.7367 -2.4635 -0.3802
 3158SOL     OW21106   0.246   1.567   6.192 -0.5970 -0.2902  0.0188
 3158SOL    HW121107   0.290   1.497   6.240  0.4893  0.7687  0.5761
 3158SOL    HW221108   0.154   1.548   6.210 -1.0736  1.5699 -0.4004
 3159SOL     OW21109   2.786   4.050   7.237 -0.0299  0.4635 -0.0112
 3159SOL    HW121110   2.831   4.040   7.321  0.5122  0.0520 -0.3572
 3159SOL    HW221111   2.786   3.967   7.190  0.6830 -1.2522  2.9862
 3160SOL     OW21112   0.066   3.586   8.296  0.0412  0.0114  0.5436
 3160SOL    HW121113   0.010   3.625   8.229 -0.3309  0.7743  1.3062
 3160SOL    HW221114   0.034   3.616   8.381  2.1020 -0.8543  1.6211
 3161SOL     OW21115   1.681   1.403  12.381  0.2259 -0.5583 -0.2778
 3161SOL    HW121116   1.636   1.487  12.375 -1.4890 -1.4606 -0.0315
 3161SOL    HW221117   1.743   1.410  12.308  0.4121  0.7021  0.0178
 3162SOL     OW21118   2.210   0.776   1.322 -0.6927  0.4009 -0.8163
 3162SOL    HW121119   2.213   0.867   1.294 -0.6302  0.5741 -0.2437
 3162SOL    HW221120   2.295   0.744   1.292 -1.2103 -0.9895 -0.7837
 3163SOL     OW21121   3.926   4.721   5.894  0.4666  0.2883  0.6021
 3163SOL    HW121122   3.846   0.019   5.936 -0.5068 -0.6255 -0.5022
 3163SOL    HW221123   3.892   4.691   5.810  2.4531  0.4557 -0.2322
 3164SOL     OW21124   4.068   4.068   6.857 -0.5150 -0.1121  0.1402
 3164SOL    HW121125   4.104   4.142   6.807 -1.7022  2.2626  2.8281
 3164SOL    HW221126   4.116   4.074   6.940 -2.7132 -0.4922  1.4209
 3165SOL     OW21127   0.233   3.819   0.563  0.0142  0.4035  0.4227
 3165SOL    HW121128   0.232   3.741   0.509 -1.1820  1.4463 -1.0718
 3165SOL    HW221129   0.193   3.888   0.509 -0.2149  0.6937  0.9598
 3166SOL     OW21130   4.486   4.020  16.517 -0.4021  0.3608 -0.4641
 3166SOL    HW121131   4.464   3.927  16.528  1.0695  0.0954  0.2570
 3166SOL    HW221132   4.454   4.027  16.427  1.9860  2.3653 -1.1649
 3167SOL     OW21133   4.236   3.535   1.656 -0.2764  0.1794  0.2365
 3167SOL    HW121134   4.317   3.489   1.682 -0.5781 -0.3784  0.1849
 3167SOL    HW221135   4.255   3.623   1.689  2.0985  0.2761 -1.3324
 3168SOL     OW21136   3.458   3.540   7.752 -0.4289 -0.0776  0.2743
 3168SOL    HW121137   3.529   3.595   7.720  0.0526 -1.2708 -0.7148
 3168SOL    HW221138   3.475   3.523   7.845 -0.0896  3.3133  0.8139
 3169SOL     OW21139   4.689   2.943   7.651  0.2668 -0.2804 -0.1582
 3169SOL    HW121140   4.714   2.854   7.677 -2.6444 -0.5240  1.8829
 3169SOL    HW221141   4.613   2.950   7.709  1.9038 -2.6314  2.2789
 3170SOL     OW21142   2.704   1.634   9.402 -0.3333 -0.3570  0.0568
 3170SOL    HW121143   2.744   1.548   9.415  0.7120 -0.1527 -1.8228
 3170SOL    HW221144   2.772   1.693   9.436  0.7848 -1.3107 -0.5048
 3171SOL     OW21145   2.119   2.071   2.135  0.0689  0.3662 -0.0719
 3171SOL    HW121146   2.156   1.995   2.178  0.2427  0.1889 -0.5405
 3171SOL    HW221147   2.202   2.116   2.121  0.9397 -1.7288 -1.6377
 3172SOL     OW21148   3.162   4.075  11.328 -0.1382  0.5057 -0.6405
 3172SOL    HW121149   3.164   4.052  11.421 -0.7188  0.9333 -0.5251
 3172SOL    HW221150   3.256   4.063  11.312 -0.1944 -0.3368 -0.3363
 3173SOL     OW21151   0.751   0.769   1.009  0.2601 -0.0196 -0.1933
 3173SOL    HW121152   0.656   0.775   1.015  0.3679 -0.8419  2.2523
 3173SOL    HW221153   0.766   0.776   0.914  1.8482 -0.5931  0.0108
 3174SOL     OW21154   1.525   1.017   5.156  0.3292 -0.2038 -0.1321
 3174SOL    HW121155   1.563   0.931   5.137 -1.5861 -1.2768  0.8952
 3174SOL    HW221156   1.560   1.067   5.083  2.2580 -0.8343  0.3564
 3175SOL     OW21157   3.957   0.414   5.770  0.6264  0.1473  0.1893
 3175SOL    HW121158   3.913   0.330   5.759  0.5660  0.2197 -0.1216
 3175SOL    HW221159   3.942   0.435   5.863 -2.2935  1.1571 -0.5210
 3176SOL     OW21160   2.963   3.116   6.685  0.1169  0.4433 -0.3948
 3176SOL    HW121161   2.919   3.200   6.698 -0.3641  0.4093 -1.8297
 3176SOL    HW221162   3.038   3.147   6.634  0.0991  3.5105  1.4532
 3177SOL     OW21163   2.230   0.895   4.626 -0.1525  0.3824  0.0559
 3177SOL    HW121164   2.234   0.986   4.596 -0.1943  0.5669  0.6209
 3177SOL    HW221165   2.291   0.892   4.700  0.0953 -0.6131 -0.1775
 3178SOL     OW21166   0.967   3.407  10.810 -0.4820  0.5731  1.0113
 3178SOL    HW121167   0.932   3.419  10.898  1.0212  0.0165  1.6816
 3178SOL    HW221168   0.910   3.346  10.762  0.3165 -1.5766  2.7912
 3179SOL     OW21169   0.811   0.925   1.301 -0.0192  0.3206 -0.3517
 3179SOL    HW121170   0.791   0.962   1.387 -1.6709 -0.6474 -0.3057
 3179SOL    HW221171   0.725   0.896   1.270  0.1090  1.0868 -1.4265
 3180SOL     OW21172   3.154   0.141   1.924 -0.1498 -0.4612 -0.1272
 3180SOL    HW121173   3.203   0.061   1.944  1.2961  0.7642  1.2169
 3180SOL    HW221174   3.214   0.173   1.857  1.7544 -2.8756  0.3957
 3181SOL     OW21175   2.559   4.209   9.007 -0.0273 -0.0860 -0.2426
 3181SOL    HW121176   2.643   4.163   9.010  0.6280  1.0172 -2.7309
 3181SOL    HW221177   2.583   4.296   8.976  1.2875 -0.4372 -0.2096
 3182SOL     OW21178   2.466   4.545   7.231  0.3892 -0.6070 -0.7159
 3182SOL    HW121179   2.562   4.537   7.228  0.3963 -0.5684 -0.5611
 3182SOL    HW221180   2.462   4.638   7.254  1.6591 -0.3646 -1.4363
 3183SOL     OW21181   1.078   1.427   5.041 -0.3812 -0.4060  0.0658
 3183SOL    HW121182   0.997   1.448   5.088  1.2036  2.7409  1.3570
 3183SOL    HW221183   1.082   1.331   5.047  0.7538 -0.3838 -0.3868
 3184SOL     OW21184   2.970   3.039  13.929 -0.1447  0.4413  0.1223
 3184SOL    HW121185   2.888   3.002  13.961 -0.0766  0.0650 -0.1392
 3184SOL    HW221186   2.947   3.132  13.935  3.1336  1.0971  2.5048
 3185SOL     OW21187   1.789   4.119   8.995  0.3173  0.1657 -0.6446
 3185SOL    HW121188   1.721   4.056   8.972 -0.0218 -0.2829  1.5336
 3185SOL    HW221189   1.838   4.070   9.061  1.1193 -0.0945 -1.4290
 3186SOL     OW21190   3.557   3.352   7.015  0.4398  0.1547  0.3494
 3186SOL    HW121191   3.610   3.380   7.089 -0.0506  0.4010  0.6100
 3186SOL    HW221192   3.475   3.329   7.059  0.4585 -1.0358 -0.2427
 3187SOL     OW21193   1.958   4.423   9.342 -0.1159 -0.3565 -0.5302
 3187SOL    HW121194   1.906   4.503   9.334 -0.4312 -0.5705 -0.5969
 3187SOL    HW221195   1.951   4.390   9.252  0.4487 -0.7976 -0.4155
 3188SOL     OW21196   2.194   0.540   8.122  0.3009 -0.0298 -0.0130
 3188SOL    HW121197   2.156   0.588   8.195 -2.4193 -0.8303 -0.9263
 3188SOL    HW221198   2.252   0.482   8.172 -1.2370 -3.9710 -2.7866
 3189SOL     OW21199   0.357   0.125   2.921  0.3439  0.2686 -0.4492
 3189SOL    HW121200   0.405   0.165   2.848 -0.3628  0.7397 -0.6557
 3189SOL    HW221201   0.375   0.179   2.998 -1.6766 -0.4042  0.4734
 3190SOL     OW21202   1.170   1.833   4.152 -0.5332  0.3665  0.3584
 3190SOL    HW121203   1.232   1.807   4.084 -1.9948  1.5341 -1.4263
 3190SOL    HW221204   1.208   1.799   4.233 -1.1976 -0.8636  0.1581
 3191SOL     OW21205   1.479   0.279   8.720 -0.0000  0.1151  0.1915
 3191SOL    HW121206   1.466   0.295   8.626 -5.2730  0.7319  1.0324
 3191SOL    HW221207   1.565   0.298   8.757 -0.4656 -2.7392  2.7075
 3192SOL     OW21208   1.990   4.645   7.852 -0.1007  0.1811 -0.0182
 3192SOL    HW121209   1.943   4.617   7.931  0.7772  1.2644  0.8755
 3192SOL    HW221210   1.946   4.719   7.811 -0.0879 -1.1907 -2.4990
 3193SOL     OW21211   1.014   4.633   7.625  0.0102 -0.0120 -0.8830
 3193SOL    HW121212   1.093   4.651   7.573  0.1963 -0.3125 -0.7081
 3193SOL    HW221213   0.940   4.631   7.564 -0.1786  1.0180 -0.6809
 3194SOL     OW21214   3.665   4.665   2.128  0.0616 -0.2047 -0.1156
 3194SOL    HW121215   3.615   4.642   2.050 -1.7862  1.8845  0.4650
 3194SOL    HW221216   3.754   4.660   2.093  0.5698  1.2559  0.9960
 3195SOL     OW21217   3.328   2.194  10.199 -0.7209  0.8512 -0.2762
 3195SOL    HW121218   3.323   2.282  10.237 -0.2562 -0.3970  2.7475
 3195SOL    HW221219   3.388   2.153  10.262  1.6966  0.5147 -2.8447
 3196SOL     OW21220   3.889   1.481  10.753  0.2556  0.3456 -0.0102
 3196SOL    HW121221   3.974   1.460  10.791 -0.2291 -0.0275  0.8722
 3196SOL    HW221222   3.898   1.471  10.658 -0.4791 -1.0417  0.0718
 3197SOL     OW21223   2.314   2.262  16.359 -0.4032  0.0241  0.1006
 3197SOL    HW121224   2.378   2.191  16.349 -1.7608 -0.9165 -1.9102
 3197SOL    HW221225   2.237   2.214  16.386  0.2567  0.2792  2.4873
 3198SOL     OW21226   2.962   0.200   6.281 -0.0650 -0.4097 -0.3546
 3198SOL    HW121227   2.926   0.143   6.349 -3.2797 -0.0840 -1.7876
 3198SOL    HW221228   3.054   0.175   6.289  0.0681  0.4980  0.9372
 3199SOL     OW21229   0.328   4.441  14.957 -0.3499  0.0054  0.1974
 3199SOL    HW121230   0.418   4.422  14.986 -0.0808  0.5186 -0.3034
 3199SOL    HW221231   0.328   4.391  14.875 -1.7832  0.7729 -0.2580
 3200SOL     OW21232   3.756   3.239  17.062  0.6092 -0.6497 -0.3415
 3200SOL    HW121233   3.817   3.272  17.128  0.9089 -0.5187 -0.6867
 3200SOL    HW221234   3.715   3.163  17.104 -0.4584 -0.9534 -1.9313
 3201SOL     OW21235   1.367   4.327   3.845 -0.2017  0.2687  0.2345
 3201SOL    HW121236   1.336   4.313   3.934  0.9911 -1.3502  0.4021
 3201SOL    HW221237   1.303   4.280   3.791 -0.5588 -1.0728  1.8205
 3202SOL     OW21238   1.801   0.461   3.236  0.5042  0.2857 -0.3106
 3202SOL    HW121239   1.804   0.553   3.212 -0.9045 -0.0632 -1.8273
 3202SOL    HW221240   1.760   0.467   3.322 -0.5175 -0.3232 -0.7475
 3203SOL     OW21241   2.843   4.211  10.598 -0.0295  0.2770 -0.1934
 3203SOL    HW121242   2.925   4.250  10.567 -1.1658  2.7416 -0.1476
 3203SOL    HW221243   2.875   4.160  10.672 -2.2540  0.6071  0.9891
 3204SOL     OW21244   2.790   3.072   3.275 -1.0106 -0.2230  0.1231
 3204SOL    HW121245   2.847   3.114   3.340  0.3149  0.1161 -1.2389
 3204SOL    HW221246   2.836   2.990   3.258  1.6137  1.5383 -1.3262
 3205SOL     OW21247   4.410   1.107  17.582 -0.4636 -0.9349  0.1394
 3205SOL    HW121248   4.394   1.126  17.675  0.6718 -2.1628  0.5841
 3205SOL    HW221249   4.461   1.183  17.553  1.2411 -2.1893 -0.1530
 3206SOL     OW21250   0.842   4.449  13.687  0.1733  0.0308 -0.0592
 3206SOL    HW121251   0.903   4.523  13.690  3.4890 -2.6524 -1.4831
 3206SOL    HW221252   0.858   4.395  13.764 -0.3650  1.9843  1.4523
 3207SOL     OW21253   3.771   2.767   2.544 -0.2286 -0.2657 -0.4221
 3207SOL    HW121254   3.820   2.805   2.472 -1.7632 -0.7070 -1.6940
 3207SOL    HW221255   3.844   2.743   2.601  0.4115 -0.0489 -1.1658
 3208SOL     OW21256   4.283   4.420  13.858  0.0729 -0.4157 -0.8321
 3208SOL    HW121257   4.265   4.511  13.884 -1.0007 -0.1043 -2.5862
 3208SOL    HW221258   4.215   4.415  13.790 -2.0141 -0.9559  1.2666
 3209SOL     OW21259   1.145   4.589   3.569 -0.3655 -0.0908 -0.6753
 3209SOL    HW121260   1.237   4.603   3.589  0.4015 -1.0325 -3.5235
 3209SOL    HW221261   1.115   4.518   3.626  1.0332  0.0205  0.1899
 3210SOL     OW21262   1.981   0.481   4.977  0.0367  0.0458  0.3891
 3210SOL    HW121263   2.027   0.521   5.050 -0.4127 -0.8325  1.1558
 3210SOL    HW221264   1.965   0.394   5.013  0.5223 -0.5170 -0.7615
 3211SOL     OW21265   2.811   1.059  13.398  0.2135  0.1111  0.0163
 3211SOL    HW121266   2.778   0.991  13.457  1.6914 -0.1111  0.5915
 3211SOL    HW221267   2.758   1.047  13.320  1.4476  1.7516 -1.0714
 3212SOL     OW21268   4.697   4.113   4.092  0.1423  0.1500  0.4679
 3212SOL    HW121269   4.695   4.017   4.091  0.8204  0.1192  1.5955
 3212SOL    HW221270   4.613   4.147   4.122 -0.8936 -2.2008  0.2704
 3213SOL     OW21271   3.976   2.893  15.028 -0.2261 -0.4727 -0.6330
 3213SOL    HW121272   3.953   2.980  14.994 -0.9435  0.0228  1.0946
 3213SOL    HW221273   4.039   2.861  14.964 -0.1126 -3.4051  0.9303
 3214SOL     OW21274   0.291   2.358   5.884 -0.5510 -0.7608  0.0229
 3214SOL    HW121275   0.207   2.404   5.886 -0.0665 -0.0340  2.9463
 3214SOL    HW221276   0.289   2.310   5.967  0.4616  1.2894  1.2404
 3215SOL     OW21277   1.686   0.539  16.720  0.0427  0.3204 -0.1513
 3215SOL    HW121278   1.728   0.501  16.643  0.5386 -0.1020  0.3319
 3215SOL    HW221279   1.603   0.491  16.714 -0.3597  1.0548 -0.6521
 3216SOL     OW21280   1.882   3.917   5.932 -0.3377  0.0382  0.5202
 3216SOL    HW121281   1.876   3.889   5.840  1.6582  2.5407 -0.3944
 3216SOL    HW221282   1.942   3.853   5.969 -0.2342  0.6151  1.3455
 3217SOL     OW21283   1.497   0.815   8.419 -0.6196  0.4130 -0.4818
 3217SOL    HW121284   1.591   0.795   8.415 -0.2374  1.5708  3.1296
 3217SOL    HW221285   1.470   0.737   8.467  1.6604  0.1972  0.4769
 3218SOL     OW21286   1.439   0.407  16.652 -0.0630 -0.3669 -0.3393
 3218SOL    HW121287   1.345   0.400  16.638 -0.4834 -0.8359  2.5621
 3218SOL    HW221288   1.462   0.314  16.643 -0.6240 -0.6546  1.2165
 3219SOL     OW21289   0.407   3.932   4.559  0.6310 -0.2903 -0.1146
 3219SOL    HW121290   0.445   3.895   4.479  0.8512  0.3304 -0.2940
 3219SOL    HW221291   0.412   4.024   4.535 -2.8235  0.1147  0.7180
 3220SOL     OW21292   2.469   1.263  10.360 -0.3691 -0.3217  0.3497
 3220SOL    HW121293   2.532   1.282  10.291 -1.7926 -0.0957 -0.8822
 3220SOL    HW221294   2.398   1.232  10.303  0.1526 -1.5755  0.3863
 3221SOL     OW21295   1.569   4.660   7.688 -0.0827  0.2824 -0.5680
 3221SOL    HW121296   1.579   4.570   7.655 -0.2983  0.0909 -0.1136
 3221SOL    HW221297   1.501   4.642   7.753  0.3762 -0.8329 -0.3977
 3222SOL     OW21298   0.549   1.402   3.068  0.1448  0.1173  0.3846
 3222SOL    HW121299   0.634   1.447   3.059 -0.1128  0.3091 -1.1099
 3222SOL    HW221300   0.513   1.446   3.145  0.8061  0.9200  0.2499
 3223SOL     OW21301   3.546   1.797   5.979  0.0412 -0.0904  0.3053
 3223SOL    HW121302   3.568   1.724   5.922 -0.8130 -1.9136  2.3085
 3223SOL    HW221303   3.490   1.748   6.039 -0.5140  1.8569  1.3648
 3224SOL     OW21304   4.150   0.364   6.837  0.1267 -0.5504 -0.2277
 3224SOL    HW121305   4.143   0.275   6.870 -0.4622 -1.0242 -1.6402
 3224SOL    HW221306   4.228   0.389   6.887  0.8952 -1.1852 -1.1253
 3225SOL     OW21307   0.306   0.664   4.707  0.1171  0.0946 -0.6052
 3225SOL    HW121308   0.265   0.669   4.620  0.9875  1.7095 -0.9156
 3225SOL    HW221309   0.319   0.758   4.719 -2.1622  0.7182 -2.9452
 3226SOL     OW21310   2.557   1.179  10.597 -0.1491 -0.4620  0.1847
 3226SOL    HW121311   2.547   1.210  10.507  0.3030  1.2405  0.7232
 3226SOL    HW221312   2.616   1.105  10.582 -0.1242 -0.0567 -1.7913
 3227SOL     OW21313   2.709   3.899  16.838 -0.7185  0.0957  0.0966
 3227SOL    HW121314   2.746   3.971  16.787  0.6934 -0.9264 -0.3136
 3227SOL    HW221315   2.635   3.884  16.779 -0.3123 -0.6634 -0.2224
 3228SOL     OW21316   1.468   1.243   3.646 -0.5368  0.1576  0.3060
 3228SOL    HW121317   1.472   1.266   3.553 -0.6600 -0.4868  0.1445
 3228SOL    HW221318   1.445   1.150   3.649 -2.6951  0.6060 -1.6899
 3229SOL     OW21319   3.707   3.020   8.929  0.2751 -0.0013 -0.0977
 3229SOL    HW121320   3.775   2.966   8.887 -0.8623 -2.7641  1.6192
 3229SOL    HW221321   3.750   3.104   8.944  0.0853  0.2939 -1.2126
 3230SOL     OW21322   0.353   2.230   7.735  0.4094 -0.3397 -0.4338
 3230SOL    HW121323   0.300   2.275   7.800 -0.7137 -1.0401 -0.8539
 3230SOL    HW221324   0.435   2.211   7.780 -0.0958 -0.3762  0.4589
 3231SOL     OW21325   1.693   1.314  14.068 -0.3270  0.2703 -0.1634
 3231SOL    HW121326   1.703   1.219  14.074 -1.7145  0.1105 -0.4905
 3231SOL    HW221327   1.776   1.333  14.025 -0.0739 -0.9529 -0.2208
 3232SOL     OW21328   1.637   1.552   2.980 -0.3023 -0.2610  0.0316
 3232SOL    HW121329   1.566   1.559   2.916  0.0067 -2.0415 -0.5248
 3232SOL    HW221330   1.723   1.547   2.938 -0.0220  0.9662  0.4869
 3233SOL     OW21331   3.166   4.048   3.294  0.0546 -0.7434  0.0587
 3233SOL    HW121332   3.143   3.955   3.298 -1.1124 -0.4042  1.3029
 3233SOL    HW221333   3.138   4.082   3.379 -1.8365  2.8658 -2.0332
 3234SOL     OW21334   4.195   3.008   8.418 -0.0733 -0.4790 -0.7601
 3234SOL    HW121335   4.235   2.946   8.357  1.0278 -0.2620 -0.2678
 3234SOL    HW221336   4.221   3.095   8.387 -0.0323  0.8559  3.0529
 3235SOL     OW21337   2.280   2.211   3.336 -0.1813 -0.6090 -0.4264
 3235SOL    HW121338   2.196   2.166   3.336  0.1718 -1.2699  1.2286
 3235SOL    HW221339   2.283   2.250   3.248 -1.5597  0.4579  0.0044
 3236SOL     OW21340   2.977   0.979   2.841 -0.0047  0.5894 -0.1792
 3236SOL    HW121341   2.922   0.905   2.867  1.6057  0.4117  2.7924
 3236SOL    HW221342   2.993   1.020   2.926  0.2971  0.2856 -0.0884
 3237SOL     OW21343   4.128   3.638   5.307 -0.1373 -0.3407 -0.3140
 3237SOL    HW121344   4.186   3.700   5.352 -0.1081 -1.2933  0.9636
 3237SOL    HW221345   4.074   3.705   5.264 -1.3981 -1.0352  0.1972
 3238SOL     OW21346   2.052   3.566   1.933 -0.1624  0.0540  0.4266
 3238SOL    HW121347   2.092   3.499   1.988 -1.1696 -0.9048  0.0087
 3238SOL    HW221348   2.024   3.627   2.001 -1.1895  0.6919 -0.5670
 3239SOL     OW21349   2.539   0.728   1.971 -0.0720 -0.0501  0.4248
 3239SOL    HW121350   2.632   0.705   1.970  0.2168  1.1107  0.1250
 3239SOL    HW221351   2.504   0.663   2.031  0.5140  2.3150  3.3486
 3240SOL     OW21352   0.468   1.149  13.855  0.1429  0.1132 -0.3078
 3240SOL    HW121353   0.560   1.122  13.859 -0.0782 -0.8141 -1.4287
 3240SOL    HW221354   0.454   1.165  13.762 -0.7632 -0.9160 -0.3448
 3241SOL     OW21355   3.822   4.462  15.597  0.3879  0.0494  0.2250
 3241SOL    HW121356   3.782   4.436  15.680 -0.2402  2.0485  0.5599
 3241SOL    HW221357   3.828   4.557  15.607  1.6133 -0.0049  0.0364
 3242SOL     OW21358   3.106   4.260  12.758 -0.3320 -0.4020  0.1350
 3242SOL    HW121359   3.066   4.336  12.714  0.6393  0.7908  1.2916
 3242SOL    HW221360   3.056   4.256  12.840  0.8217 -0.4625  0.8461
 3243SOL     OW21361   3.992   4.465   5.351  0.1731 -0.0566  0.3434
 3243SOL    HW121362   4.039   4.545   5.328 -0.0800 -0.1776 -0.5898
 3243SOL    HW221363   4.011   4.464   5.445  0.6481  1.9354  0.2694
 3244SOL     OW21364   3.451   2.498   0.766  0.1940  0.2924  0.6841
 3244SOL    HW121365   3.390   2.430   0.795  0.0638  0.5251  0.9626
 3244SOL    HW221366   3.410   2.574   0.809 -1.9105 -0.8467  0.6937
 3245SOL     OW21367   2.733   2.384   1.485 -0.8617 -0.3965  0.0025
 3245SOL    HW121368   2.813   2.333   1.496 -1.0042 -0.8559 -1.0914
 3245SOL    HW221369   2.781   2.466   1.473 -0.7907 -0.2743  1.1434
 3246SOL     OW21370   3.443   3.536   4.016 -0.0464 -0.1046  0.6171
 3246SOL    HW121371   3.504   3.603   4.046 -0.1992 -0.3360  1.4417
 3246SOL    HW221372   3.370   3.561   4.073 -0.9845 -0.1931 -0.5511
 3247SOL     OW21373   2.438   0.461   3.793  0.1511 -0.4843 -0.6570
 3247SOL    HW121374   2.526   0.498   3.787 -0.4809  0.9770 -0.8351
 3247SOL    HW221375   2.389   0.527   3.744 -0.8170 -1.3996 -0.9147
 3248SOL     OW21376   1.390   1.427  16.487  0.0232 -0.0751 -0.0967
 3248SOL    HW121377   1.336   1.486  16.540 -1.3186  1.1898 -2.8631
 3248SOL    HW221378   1.464   1.480  16.457 -0.9221  1.4021  0.1450
 3249SOL     OW21379   1.464   0.016   5.007 -0.1057 -0.2363 -0.0253
 3249SOL    HW121380   1.553   4.735   5.037 -0.2453 -1.9982 -0.5622
 3249SOL    HW221381   1.446   0.110   5.013 -2.6751 -0.6800 -0.4006
 3250SOL     OW21382   0.079   0.384   1.174 -0.2753 -0.1094  0.0292
 3250SOL    HW121383   0.023   0.446   1.222 -0.3789 -1.1933  1.2968
 3250SOL    HW221384   0.153   0.368   1.232 -1.9106 -2.1662  1.5406
 3251SOL     OW21385   3.662   2.016   2.602 -0.3636 -0.3821 -0.2319
 3251SOL    HW121386   3.682   2.106   2.578 -2.3113  0.0173 -0.3360
 3251SOL    HW221387   3.659   1.971   2.518 -2.9029  1.0040 -0.8926
 3252SOL     OW21388   2.931   1.197   6.533  0.0637 -0.1351 -0.1765
 3252SOL    HW121389   2.856   1.255   6.521 -0.7482 -0.9336  0.9511
 3252SOL    HW221390   2.995   1.267   6.544 -1.2148  0.9473  0.4238
 3253SOL     OW21391   3.943   2.112  16.081 -0.4994 -0.9388  0.0271
 3253SOL    HW121392   3.889   2.097  16.158 -0.9798 -0.9186 -0.3042
 3253SOL    HW221393   3.962   2.206  16.091 -0.8174 -0.9272  0.5341
 3254SOL     OW21394   0.325   0.611   3.041  0.5241  0.0853  0.0521
 3254SOL    HW121395   0.416   0.641   3.045  0.2771  1.0175 -1.3790
 3254SOL    HW221396   0.294   0.619   3.131  0.8593  0.1632  0.1583
 3255SOL     OW21397   1.777   4.690  11.231  0.3505  0.4722 -0.5031
 3255SOL    HW121398   1.685   4.661  11.234  0.3611  0.4298 -0.5899
 3255SOL    HW221399   1.827   4.610  11.217 -0.5130 -0.4791  1.6813
 3256SOL     OW21400   2.324   2.461   8.651  0.0121 -0.1066 -0.0435
 3256SOL    HW121401   2.253   2.419   8.605 -0.0297  0.3433 -0.3923
 3256SOL    HW221402   2.377   2.496   8.579 -0.7219  0.3614 -0.3524
 3257SOL     OW21403   1.904   4.350   8.565  0.1492  0.1606 -0.4181
 3257SOL    HW121404   1.885   4.442   8.551 -1.3623 -0.1053 -0.1061
 3257SOL    HW221405   1.975   4.361   8.628 -0.2288  0.5817 -0.0646
 3258SOL     OW21406   4.315   2.631   7.415 -0.3713 -0.1039  0.5132
 3258SOL    HW121407   4.319   2.563   7.348 -1.2249  0.6386 -0.2903
 3258SOL    HW221408   4.338   2.700   7.353  1.0753 -0.0718  1.0923
 3259SOL     OW21409   1.743   0.793   4.675  0.4606 -0.3408  0.2538
 3259SOL    HW121410   1.791   0.743   4.608  0.7585 -0.3930  0.5071
 3259SOL    HW221411   1.824   0.818   4.719  0.4684  0.0721  0.0062
 3260SOL     OW21412   2.230   0.853   7.249 -1.0798  0.3877 -0.4101
 3260SOL    HW121413   2.324   0.865   7.262 -0.6744 -3.6038  0.2194
 3260SOL    HW221414   2.193   0.862   7.337  1.5472 -0.2716  0.7558
 3261SOL     OW21415   1.439   0.283   5.113  0.2069  0.3878  0.3355
 3261SOL    HW121416   1.521   0.258   5.155 -0.0482  0.4863  0.9025
 3261SOL    HW221417   1.449   0.378   5.114 -0.4284  0.4609 -0.0237
 3262SOL     OW21418   2.177   3.917   1.204 -0.1587 -0.0316  0.2405
 3262SOL    HW121419   2.174   3.823   1.225 -2.1635  0.0161  0.1769
 3262SOL    HW221420   2.088   3.931   1.170 -0.2363 -0.8795  0.0954
 3263SOL     OW21421   1.707   4.643  12.474  0.2721 -0.5090  0.4078
 3263SOL    HW121422   1.687   0.001  12.470 -1.2959 -0.9116 -0.8867
 3263SOL    HW221423   1.763   4.654  12.551  2.1409 -2.7993 -0.6035
 3264SOL     OW21424   4.379   3.504   3.104  0.2885  0.2467  0.5412
 3264SOL    HW121425   4.335   3.419   3.100  0.6895  0.0296  0.7106
 3264SOL    HW221426   4.443   3.492   3.174 -0.2767 -0.6278  0.9102
 3265SOL     OW21427   2.206   4.230   5.516 -0.4254  0.5368 -0.4932
 3265SOL    HW121428   2.125   4.181   5.530 -0.0585  0.8275  2.5676
 3265SOL    HW221429   2.214   4.208   5.423 -3.1900 -1.6018 -0.2099
 3266SOL     OW21430   3.484   4.167  12.536 -0.3521  0.3457  0.2106
 3266SOL    HW121431   3.578   4.152  12.540 -0.3445  0.3097 -0.1398
 3266SOL    HW221432   3.447   4.082  12.559  1.2236 -0.3625  0.1012
 3267SOL     OW21433   1.485   2.932   2.869 -0.1407  0.1212  0.1320
 3267SOL    HW121434   1.532   2.870   2.925  0.5521  0.0555 -0.5339
 3267SOL    HW221435   1.395   2.925   2.901 -0.9393  2.8914 -1.4508
 3268SOL     OW21436   3.749   3.604   3.051  0.2872 -0.3466 -0.0599
 3268SOL    HW121437   3.802   3.673   3.012 -0.0447 -0.9589 -1.5830
 3268SOL    HW221438   3.787   3.603   3.139  2.1492  0.2149 -0.8477
 3269SOL     OW21439   0.973   1.055   8.184  0.0650  0.0517  0.0107
 3269SOL    HW121440   0.999   1.145   8.200 -2.2699  0.7686 -0.1318
 3269SOL    HW221441   1.010   1.042   8.096 -1.3918 -0.3166 -0.5519
 3270SOL     OW21442   2.543   3.827  16.631  0.4352  0.0388  0.1668
 3270SOL    HW121443   2.551   3.744  16.584 -0.4561 -0.4084  0.8234
 3270SOL    HW221444   2.550   3.883  16.553 -0.0774 -0.3014 -0.1191
 3271SOL     OW21445   0.085   2.638   5.216 -0.3515 -0.8649  0.1580
 3271SOL    HW121446   0.060   2.553   5.178 -0.8530 -1.5881  2.0796
 3271SOL    HW221447   0.111   2.612   5.304  0.1862 -3.2030 -0.6941
 3272SOL     OW21448   0.348   2.606  12.070 -0.1874  0.3260  0.7168
 3272SOL    HW121449   0.330   2.695  12.041 -0.1194 -0.4044 -1.6075
 3272SOL    HW221450   0.436   2.607  12.031 -0.7516 -1.8208 -0.5929
 3273SOL     OW21451   2.707   3.929   5.584  0.4570 -0.0052  0.2206
 3273SOL    HW121452   2.615   3.940   5.562  0.6349  1.5109  0.2320
 3273SOL    HW221453   2.716   3.851   5.640 -0.7652 -0.0986  0.3006
 3274SOL     OW21454   2.662   4.143  10.851 -0.9203 -0.3194 -0.7409
 3274SOL    HW121455   2.716   4.191  10.914 -3.9313  3.5715 -1.1343
 3274SOL    HW221456   2.573   4.179  10.855 -0.5205  0.6410 -0.4913
 3275SOL     OW21457   2.774   0.752   2.891  0.7881  0.0477  0.0881
 3275SOL    HW121458   2.721   0.816   2.843  2.2170  3.2258  2.7405
 3275SOL    HW221459   2.786   0.696   2.815  0.4644 -0.9293  0.7616
 3276SOL     OW21460   3.424   2.847  15.603  0.0431 -0.2601  0.4324
 3276SOL    HW121461   3.473   2.917  15.560  0.5376 -1.1675 -0.4794
 3276SOL    HW221462   3.399   2.894  15.682 -0.0363 -1.5720  1.1790
 3277SOL     OW21463   2.348   3.683   8.845  0.0178 -0.6826 -0.0213
 3277SOL    HW121464   2.256   3.706   8.839  0.0942 -0.0834  1.0012
 3277SOL    HW221465   2.371   3.650   8.759  1.4011  2.2471 -0.7686
 3278SOL     OW21466   3.695   1.171   4.467 -0.2040 -0.5470  0.6617
 3278SOL    HW121467   3.732   1.239   4.410  0.1020 -0.2439  1.2194
 3278SOL    HW221468   3.702   1.214   4.552 -0.6511 -1.6020  1.2336
 3279SOL     OW21469   1.300   4.417  13.609 -0.5772 -0.2224  0.2380
 3279SOL    HW121470   1.318   4.496  13.558 -1.0423 -1.6008 -2.0729
 3279SOL    HW221471   1.334   4.443  13.694  2.0337 -1.2304 -0.4974
 3280SOL     OW21472   0.013   3.206   6.567 -0.0259  0.2582  0.1625
 3280SOL    HW121473   0.017   3.213   6.662  1.7128  0.5045  0.0750
 3280SOL    HW221474   0.103   3.179   6.549 -0.5591 -1.0659 -0.5496
 3281SOL     OW21475   2.039   2.207   4.945  0.2913 -0.1611 -0.4054
 3281SOL    HW121476   1.996   2.158   5.016 -0.3486 -0.3969 -0.9516
 3281SOL    HW221477   2.093   2.268   4.995  1.1617 -0.6279 -0.7812
 3282SOL     OW21478   1.917   4.154   7.651  0.3583 -0.2593  0.1383
 3282SOL    HW121479   2.010   4.153   7.628  0.5303  1.7875  0.6863
 3282SOL    HW221480   1.902   4.197   7.735  0.2861 -0.7346  0.3643
 3283SOL     OW21481   1.544   3.055   5.108  0.1042  0.3367  0.1782
 3283SOL    HW121482   1.552   2.985   5.173 -0.4700 -0.6407 -0.8031
 3283SOL    HW221483   1.587   3.011   5.035 -0.8445 -0.8398  0.3390
 3284SOL     OW21484   1.734   3.241   7.066  0.3295  0.1749  0.6469
 3284SOL    HW121485   1.791   3.306   7.024 -1.4932  1.0502 -0.4320
 3284SOL    HW221486   1.670   3.297   7.109  0.0595  0.3493  0.0071
 3285SOL     OW21487   1.850   2.583   3.065  0.0392  0.0068  0.1642
 3285SOL    HW121488   1.902   2.511   3.101  0.5730 -0.2595 -1.1384
 3285SOL    HW221489   1.918   2.625   3.011 -0.0269  0.0325  0.1009
 3286SOL     OW21490   3.459   4.534  12.941 -0.7786  0.1225  0.0212
 3286SOL    HW121491   3.527   4.499  12.884  1.5340  1.0998  2.1749
 3286SOL    HW221492   3.383   4.544  12.884 -3.0797 -1.5117  2.7835
 3287SOL     OW21493   4.206   4.125   2.748  0.3033  0.4563 -0.0096
 3287SOL    HW121494   4.216   4.037   2.713 -1.0809  0.4336 -0.3449
 3287SOL    HW221495   4.186   4.107   2.839 -0.2861 -1.8616 -0.6130
 3288SOL     OW21496   0.757   4.329   3.443  0.4941 -0.7933  0.1230
 3288SOL    HW121497   0.663   4.324   3.427  0.7902 -3.7325 -0.6657
 3288SOL    HW221498   0.779   4.409   3.396 -2.8308  0.7108  1.1717
 3289SOL     OW21499   0.262   1.935   6.585 -0.0233  0.7771  0.0729
 3289SOL    HW121500   0.274   1.890   6.668  0.9475 -1.1518 -1.1087
 3289SOL    HW221501   0.247   1.856   6.532 -1.9576  0.2078  1.4666
 3290SOL     OW21502   0.369   1.519   8.411 -0.3346  0.2827  0.4224
 3290SOL    HW121503   0.451   1.470   8.416 -0.5079  0.1120  1.5244
 3290SOL    HW221504   0.366   1.572   8.491 -0.9991 -0.5543  0.9426
 3291SOL     OW21505   0.693   1.593   7.511  0.5997 -0.5995 -0.3146
 3291SOL    HW121506   0.684   1.526   7.578 -1.2921  0.3592  0.4099
 3291SOL    HW221507   0.608   1.597   7.467  0.8456  1.4812 -0.6000
 3292SOL     OW21508   0.709   0.736   6.569  0.4186 -0.4482  0.5536
 3292SOL    HW121509   0.772   0.671   6.538  0.1262 -0.6190  0.3202
 3292SOL    HW221510   0.726   0.731   6.663 -0.2144  1.4094  0.7735
 3293SOL     OW21511   1.011   1.841   2.312  0.2332  0.0302 -0.1856
 3293SOL    HW121512   1.043   1.804   2.230 -0.7590  1.1642 -1.0875
 3293SOL    HW221513   1.061   1.919   2.334 -0.8773  0.4230  0.9771
 3294SOL     OW21514   3.485   3.580   3.741  0.4438  0.0030 -0.0424
 3294SOL    HW121515   3.480   3.576   3.836  0.4516 -3.1104 -0.1617
 3294SOL    HW221516   3.413   3.520   3.724  0.9542 -0.8714  0.8916
 3295SOL     OW21517   2.144   0.044   8.185  0.0460  0.4723 -0.1425
 3295SOL    HW121518   2.097   0.099   8.123  0.6083  0.9431 -0.1543
 3295SOL    HW221519   2.071   0.019   8.242  0.5968 -2.8823 -0.8780
 3296SOL     OW21520   4.702   0.658   6.044 -0.5155  0.6288  0.3919
 3296SOL    HW121521   0.053   0.683   6.011 -0.7807 -0.6849 -1.3012
 3296SOL    HW221522   4.725   0.596   6.114  2.4095  1.8190  0.4695
 3297SOL     OW21523   2.565   0.150   8.983  0.5402 -0.4925 -0.4003
 3297SOL    HW121524   2.536   0.070   9.026  0.0263  0.0210  0.1965
 3297SOL    HW221525   2.486   0.196   8.953  0.5010 -0.7007 -0.6161
 3298SOL     OW21526   4.323   2.245   5.582  0.6758 -0.4224 -0.2571
 3298SOL    HW121527   4.302   2.166   5.631 -1.5660  0.1728 -0.2712
 3298SOL    HW221528   4.378   2.216   5.509 -0.2371  1.4571 -1.6871
 3299SOL     OW21529   3.673   4.243   9.222  0.5639 -0.2918  0.2236
 3299SOL    HW121530   3.578   4.241   9.208  0.7877 -3.4529 -0.9526
 3299SOL    HW221531   3.710   4.233   9.134 -0.3046 -2.3678  0.0860
 3300SOL     OW21532   0.681   2.551  17.529  0.3749 -0.1171 -0.0227
 3300SOL    HW121533   0.685   2.623  17.467  1.0024 -0.2869 -0.1892
 3300SOL    HW221534   0.771   2.527  17.507  0.6228  0.6639  0.1470
 3301SOL     OW21535   3.478   3.851   3.734 -0.7714 -0.1763 -0.0749
 3301SOL    HW121536   3.528   3.857   3.815  0.7774  1.6919 -1.1590
 3301SOL    HW221537   3.472   3.756   3.728 -0.0945  0.0118 -3.9947
 3302SOL     OW21538   0.358   0.525   0.951 -0.1281 -0.1146  0.1280
 3302SOL    HW121539   0.338   0.612   0.916 -0.8248  0.4611  1.9503
 3302SOL    HW221540   0.307   0.467   0.895  0.2700 -0.2617 -0.0842
 3303SOL     OW21541   0.766   0.130   9.534  0.1788 -0.0259 -0.4719
 3303SOL    HW121542   0.709   0.194   9.492 -0.1555 -0.5253 -0.7807
 3303SOL    HW221543   0.711   0.105   9.609 -1.1028 -0.9966 -1.7273
 3304SOL     OW21544   1.994   2.489   8.912 -0.5875  0.0471  0.4867
 3304SOL    HW121545   2.053   2.522   8.980  1.2556 -4.4020  1.0634
 3304SOL    HW221546   2.053   2.432   8.863 -1.7444 -0.2985 -0.5039
 3305SOL     OW21547   3.306   1.608   4.382 -0.1537  0.3883 -0.2653
 3305SOL    HW121548   3.346   1.601   4.469  1.8779 -1.9004 -1.3740
 3305SOL    HW221549   3.241   1.538   4.386 -0.3190  0.4566 -1.7608
 3306SOL     OW21550   3.427   2.115   7.246 -0.2965  0.8529  0.2831
 3306SOL    HW121551   3.394   2.196   7.207 -2.0247 -0.2846 -0.5634
 3306SOL    HW221552   3.399   2.055   7.178  0.7806 -0.2862  0.8360
 3307SOL     OW21553   2.197   4.063   7.629 -0.4989 -0.1733  0.0018
 3307SOL    HW121554   2.194   4.149   7.586 -0.4593  0.3090  0.9587
 3307SOL    HW221555   2.289   4.059   7.655  0.0273 -0.3308 -1.9213
 3308SOL     OW21556   0.785   4.310   4.545 -0.3595 -0.5328 -0.7830
 3308SOL    HW121557   0.812   4.240   4.603  1.8530 -0.7141 -2.0217
 3308SOL    HW221558   0.851   4.319   4.476 -2.1543  2.1323 -2.1634
 3309SOL     OW21559   1.647   1.304   5.812 -0.6036  0.9253 -0.3404
 3309SOL    HW121560   1.581   1.258   5.761  0.5168 -1.6269  0.4995
 3309SOL    HW221561   1.635   1.252   5.891 -1.7795  0.8400 -0.5763
 3310SOL     OW21562   4.136   3.636   9.713  0.0311  0.2550 -0.6721
 3310SOL    HW121563   4.057   3.664   9.759 -1.9765 -2.2702 -2.5456
 3310SOL    HW221564   4.176   3.708   9.761  0.6386  1.3721 -2.8704
 3311SOL     OW21565   2.798   1.312   0.606  0.3567  0.4852 -0.1804
 3311SOL    HW121566   2.784   1.218   0.619  1.2460  0.3303 -0.3413
 3311SOL    HW221567   2.892   1.311   0.588  0.0068 -1.6891 -1.9394
 3312SOL     OW21568   1.223   4.543   8.544  0.2230  0.2062  0.4759
 3312SOL    HW121569   1.273   4.545   8.626  1.3678 -0.8550 -0.2049
 3312SOL    HW221570   1.141   4.589   8.562 -0.0969 -0.7274  1.4011
 3313SOL     OW21571   0.850   4.368  12.952  0.2858  0.3843  0.7209
 3313SOL    HW121572   0.811   4.302  12.895  0.7523  0.3780  0.4108
 3313SOL    HW221573   0.917   4.393  12.888 -1.2046  0.6149 -0.7629
 3314SOL     OW21574   1.645   1.176   7.781 -0.0606 -0.2517 -0.3907
 3314SOL    HW121575   1.711   1.224   7.730 -0.1128 -0.1381 -0.3526
 3314SOL    HW221576   1.585   1.241   7.818  1.3093  0.2716  0.9216
 3315SOL     OW21577   3.463   0.897   4.013  0.7531  0.5100 -0.7982
 3315SOL    HW121578   3.379   0.941   4.004  0.5968  0.1270 -1.2337
 3315SOL    HW221579   3.520   0.958   4.059  0.5400  0.6531 -0.7321
 3316SOL     OW21580   2.952   4.005   8.840 -0.5172  0.0423  0.1829
 3316SOL    HW121581   3.035   4.051   8.854 -0.1265 -0.2980 -1.0796
 3316SOL    HW221582   2.972   3.981   8.750  0.1820  1.6587 -0.0960
 3317SOL     OW21583   2.292   3.539   1.492 -0.1649 -0.2469  0.1460
 3317SOL    HW121584   2.349   3.580   1.557  0.5104  1.0976 -1.3001
 3317SOL    HW221585   2.217   3.506   1.541 -0.9782 -2.3822 -2.5428
 3318SOL     OW21586   3.764   1.027   5.467  0.1079 -0.1661  0.3444
 3318SOL    HW121587   3.674   1.028   5.434 -0.2001  2.5189  1.3104
 3318SOL    HW221588   3.781   1.120   5.477  1.5792 -0.4761  0.7314
 3319SOL     OW21589   0.974   4.440   0.584 -0.0536  0.4943  0.0089
 3319SOL    HW121590   0.991   4.498   0.658 -0.3206 -0.4404  0.8071
 3319SOL    HW221591   0.904   4.485   0.537  0.1031  1.2350  0.4957
 3320SOL     OW21592   3.629   0.952  17.143 -0.1622  0.0881  0.4961
 3320SOL    HW121593   3.571   0.893  17.191  1.0902 -1.9324 -0.5057
 3320SOL    HW221594   3.579   0.978  17.066  0.7455  1.4327  0.3601
 3321SOL     OW21595   1.032   4.047   5.317 -0.0602  0.1061 -0.6892
 3321SOL    HW121596   1.011   4.105   5.389 -2.6807 -1.9796  0.2251
 3321SOL    HW221597   1.057   3.968   5.366  0.1250  0.8781  0.4425
 3322SOL     OW21598   0.768   2.684   7.155 -0.5092 -0.8471 -0.3364
 3322SOL    HW121599   0.830   2.660   7.086  1.9879  1.4227  1.1651
 3322SOL    HW221600   0.739   2.602   7.195  1.4406 -0.5628  1.6211
 3323SOL     OW21601   4.612   1.941  14.613  0.4852 -0.6816  0.2695
 3323SOL    HW121602   4.698   1.920  14.650  1.8757 -0.3788 -2.7717
 3323SOL    HW221603   4.571   1.864  14.651 -2.0116 -1.3866 -3.8568
 3324SOL     OW21604   3.681   3.864   8.592  0.0703  0.2127 -0.2276
 3324SOL    HW121605   3.755   3.869   8.652  0.1197 -0.4115 -0.2320
 3324SOL    HW221606   3.627   3.795   8.631  2.9614 -1.9346 -0.0059
 3325SOL     OW21607   2.832   3.809  16.083  0.3642  0.5397 -0.1516
 3325SOL    HW121608   2.899   3.838  16.022 -2.8531  1.4134 -3.3054
 3325SOL    HW221609   2.840   3.879  16.147 -0.6246  0.2332  0.3084
 3326SOL     OW21610   0.220   0.729   5.996 -0.1037  0.4744  0.7799
 3326SOL    HW121611   0.261   0.772   6.070  0.8455 -1.9564  1.6695
 3326SOL    HW221612   0.291   0.665   5.991 -0.1497  0.4025  1.0631
 3327SOL     OW21613   2.031   1.285  12.370 -0.2384  0.7672 -0.2656
 3327SOL    HW121614   2.048   1.263  12.279 -0.8561 -0.8269 -0.0084
 3327SOL    HW221615   2.074   1.370  12.366  0.2030  0.6671  2.1548
 3328SOL     OW21616   2.219   4.093   4.444  0.8479  0.0853  0.1903
 3328SOL    HW121617   2.282   4.151   4.401  2.8883 -2.7182 -0.6120
 3328SOL    HW221618   2.132   4.132   4.430  0.2020 -1.0831  0.9512
 3329SOL     OW21619   0.068   0.155   2.983 -0.2216 -0.8846  0.4747
 3329SOL    HW121620   0.161   0.129   2.984  0.6057  2.0612 -0.4750
 3329SOL    HW221621   0.057   0.193   2.896  2.0270 -0.9263  0.1713
 3330SOL     OW21622   3.609   1.078   1.722 -0.4746 -0.0847 -0.3893
 3330SOL    HW121623   3.606   1.126   1.639  2.2455  1.9753  0.6782
 3330SOL    HW221624   3.632   1.154   1.776  0.0173 -0.7649  0.3643
 3331SOL     OW21625   0.725   2.132   8.337 -0.4446  0.2316  0.0518
 3331SOL    HW121626   0.671   2.119   8.259 -1.9638  2.5836  0.7144
 3331SOL    HW221627   0.708   2.220   8.372  0.0209  0.5434 -0.5007
 3332SOL     OW21628   2.600   0.827   7.685  0.8263 -0.0001 -0.0870
 3332SOL    HW121629   2.693   0.810   7.696  0.9996  0.7609 -0.3545
 3332SOL    HW221630   2.601   0.901   7.624  2.8847  0.2335  0.2586
 3333SOL     OW21631   4.221   0.451  12.261  0.8490 -0.0036 -0.6235
 3333SOL    HW121632   4.298   0.396  12.275  0.9465  0.2673 -0.0740
 3333SOL    HW221633   4.261   0.531  12.295 -0.5846  0.0446  0.9744
 3334SOL     OW21634   3.122   3.312   4.191  0.2330  0.0610 -0.1762
 3334SOL    HW121635   3.037   3.316   4.148 -0.6597  1.0475  1.6887
 3334SOL    HW221636   3.166   3.228   4.173 -0.0854  0.3098 -2.1381
 3335SOL     OW21637   1.961   3.095   7.309 -0.3900 -0.1917  0.0551
 3335SOL    HW121638   1.980   3.096   7.403 -1.9964 -2.0826  0.4059
 3335SOL    HW221639   1.980   3.187   7.289  0.0156  0.3127  2.7788
 3336SOL     OW21640   0.893   0.826   6.837  0.0896 -0.0439  0.1250
 3336SOL    HW121641   0.944   0.869   6.906  2.7750 -1.7372 -0.8184
 3336SOL    HW221642   0.956   0.774   6.786 -1.1405 -2.4921  1.1068
 3337SOL     OW21643   2.646   4.329   2.100 -0.0910 -0.6132  0.4096
 3337SOL    HW121644   2.623   4.280   2.179  1.1122 -0.3487  0.9205
 3337SOL    HW221645   2.734   4.361   2.120 -0.2516 -1.4263  2.3760
 3338SOL     OW21646   4.724   0.910  14.055 -0.0278 -0.0730  0.2878
 3338SOL    HW121647   0.031   0.981  14.006 -0.3021  0.2762  0.5494
 3338SOL    HW221648   4.700   0.956  14.136 -0.3963 -1.0684  0.7449
 3339SOL     OW21649   3.245   3.228   9.161  0.4517  0.1175  0.0949
 3339SOL    HW121650   3.300   3.302   9.137 -1.3668  0.8971 -1.6564
 3339SOL    HW221651   3.313   3.161   9.167  0.7870  0.4537  0.0125
 3340SOL     OW21652   2.733   1.295  14.492  0.3172 -0.0590 -0.1959
 3340SOL    HW121653   2.743   1.208  14.454 -0.3517 -0.2988  0.1849
 3340SOL    HW221654   2.819   1.330  14.516 -0.2643  1.6599 -0.6235
 3341SOL     OW21655   4.459   4.565  13.665 -0.0733  0.2840 -0.1377
 3341SOL    HW121656   4.415   4.485  13.694 -0.3569  0.9860  1.4168
 3341SOL    HW221657   4.461   4.618  13.745 -0.6777 -0.0231  0.0815
 3342SOL     OW21658   4.015   4.407   8.892 -0.1531 -0.1791 -0.6030
 3342SOL    HW121659   3.955   4.478   8.915  0.9458  0.6586 -0.2808
 3342SOL    HW221660   4.042   4.443   8.807  0.4042 -0.2204 -0.4457
 3343SOL     OW21661   1.992   4.497   2.987 -0.2635 -0.0058 -0.3064
 3343SOL    HW121662   1.976   4.505   3.081  1.5144 -0.2655  0.0288
 3343SOL    HW221663   2.087   4.508   2.985 -0.3150  0.1662 -1.9112
 3344SOL     OW21664   1.959   0.565   0.312  0.4381  0.5048  0.1293
 3344SOL    HW121665   1.883   0.618   0.288  2.3008  2.8494 -0.5758
 3344SOL    HW221666   1.928   0.536   0.398 -1.3838 -0.6330 -0.9109
 3345SOL     OW21667   1.018   0.478  11.613 -0.3713  0.3009  0.3675
 3345SOL    HW121668   1.042   0.393  11.576  2.0012  0.9487  0.4233
 3345SOL    HW221669   0.924   0.467  11.623 -0.3072  0.3068  0.9763
 3346SOL     OW21670   1.217   3.754   8.670 -0.0735  0.0411 -0.2141
 3346SOL    HW121671   1.144   3.692   8.668  0.4836 -0.6659  1.3688
 3346SOL    HW221672   1.227   3.771   8.764  0.9338 -0.8732 -0.1556
 3347SOL     OW21673   1.237   2.904   2.925  0.3861 -0.2778  0.7634
 3347SOL    HW121674   1.156   2.928   2.969 -0.7817 -0.0438 -1.5452
 3347SOL    HW221675   1.208   2.933   2.839  1.8496 -0.4103  0.2229
 3348SOL     OW21676   3.295   0.569   2.778  0.3593 -0.4290 -0.5705
 3348SOL    HW121677   3.225   0.548   2.716  2.2884 -0.0849 -2.8862
 3348SOL    HW221678   3.276   0.504   2.845  3.1051  0.6443  1.2190
 3349SOL     OW21679   0.337   3.226   4.789  0.0860 -0.1242 -0.2232
 3349SOL    HW121680   0.306   3.142   4.821  1.0245 -0.9573 -1.4814
 3349SOL    HW221681   0.317   3.282   4.863  1.3068 -1.8285  1.3855
 3350SOL     OW21682   4.337   4.152   8.173  0.5991  0.4205 -0.0760
 3350SOL    HW121683   4.248   4.128   8.149 -0.6307  2.2156  2.7377
 3350SOL    HW221684   4.322   4.230   8.227 -1.8537 -1.3436  1.7545
 3351SOL     OW21685   3.153   3.641   3.001 -0.4522 -0.2328  0.3091
 3351SOL    HW121686   3.152   3.627   2.906  0.0632 -0.9303  0.4079
 3351SOL    HW221687   3.141   3.551   3.033 -1.3471 -0.2848 -0.1500
 3352SOL     OW21688   1.235   2.728   1.134  0.4078 -0.0717  0.3466
 3352SOL    HW121689   1.208   2.640   1.162  0.2306 -0.3613 -0.7547
 3352SOL    HW221690   1.210   2.727   1.042 -1.0871  0.5615  0.7401
 3353SOL     OW21691   2.374   2.503   1.233 -0.3107 -0.4841 -0.3033
 3353SOL    HW121692   2.279   2.504   1.227 -0.3538 -2.5770 -0.1896
 3353SOL    HW221693   2.400   2.581   1.281 -1.8069 -0.3638  0.2954
 3354SOL     OW21694   1.575   1.676   5.981  0.0827  0.1381  0.4686
 3354SOL    HW121695   1.515   1.633   6.042 -1.8576  0.6125 -1.1072
 3354SOL    HW221696   1.569   1.769   6.003  0.7164 -0.6397  3.9255
 3355SOL     OW21697   4.683   0.705  10.484  0.0465  0.4766  0.6655
 3355SOL    HW121698   4.735   0.626  10.469  0.6816  1.1291 -0.6070
 3355SOL    HW221699   4.608   0.682  10.429  1.1803 -3.6858  0.8805
 3356SOL     OW21700   1.730   4.100  13.818  0.0309 -0.1966 -0.5422
 3356SOL    HW121701   1.735   4.185  13.861  1.9245 -1.2156  1.2214
 3356SOL    HW221702   1.640   4.097  13.785 -0.2879 -1.4814  0.4412
 3357SOL     OW21703   0.921   1.378   9.240 -0.1364 -0.0591 -0.4650
 3357SOL    HW121704   0.927   1.284   9.219 -1.1477 -0.0292 -0.9467
 3357SOL    HW221705   0.831   1.392   9.209 -0.5790  2.2318  1.8671
 3358SOL     OW21706   3.434   1.292   2.068 -0.2381 -0.1739  0.1016
 3358SOL    HW121707   3.459   1.206   2.034  0.0814 -0.0274 -0.0278
 3358SOL    HW221708   3.433   1.339   1.985  0.5129  0.4397  0.4411
 3359SOL     OW21709   0.631   1.811   6.221  0.1298  0.3888 -0.1464
 3359SOL    HW121710   0.721   1.842   6.231  0.1755  0.0573  0.5406
 3359SOL    HW221711   0.598   1.817   6.311  1.9076  0.0636  0.5172
 3360SOL     OW21712   0.803   0.179   8.227  0.2253  0.3225 -0.0305
 3360SOL    HW121713   0.884   0.129   8.221 -1.3454 -2.3507  1.0571
 3360SOL    HW221714   0.771   0.155   8.314 -0.2262 -0.6503 -0.4775
 3361SOL     OW21715   1.773   3.118  14.924  0.8350 -0.2196 -0.8318
 3361SOL    HW121716   1.863   3.093  14.946  0.1042 -1.1198  1.2188
 3361SOL    HW221717   1.735   3.132  15.011 -0.8437  0.1551 -1.6387
 3362SOL     OW21718   0.167   0.428   2.887 -0.4335 -0.6648  0.3572
 3362SOL    HW121719   0.262   0.439   2.894 -0.4854  1.7815 -2.4922
 3362SOL    HW221720   0.144   0.505   2.939 -1.0036 -0.5021 -0.1360
 3363SOL     OW21721   0.464   2.675   4.525 -0.1451  0.5275  0.6887
 3363SOL    HW121722   0.555   2.646   4.525 -0.1337  0.5635 -0.7591
 3363SOL    HW221723   0.461   2.769   4.511 -1.5081  0.7152  2.0958
 3364SOL     OW21724   2.245   0.699   3.957  0.4978  0.0524  0.4474
 3364SOL    HW121725   2.233   0.605   3.944  1.0120  0.0597 -0.1208
 3364SOL    HW221726   2.284   0.686   4.043  0.7853 -0.4000  0.2497
 3365SOL     OW21727   1.711   3.690   0.451  0.2345 -0.0069 -0.8359
 3365SOL    HW121728   1.616   3.690   0.465  0.4522  2.6570  0.7297
 3365SOL    HW221729   1.724   3.623   0.384  2.6776 -1.0031  0.6375
 3366SOL     OW21730   3.960   2.464   0.250  0.2471  0.4125 -0.5946
 3366SOL    HW121731   3.882   2.463   0.305  0.6817  2.7159  0.0573
 3366SOL    HW221732   3.979   2.371   0.256 -3.3025 -0.3363 -0.9552
 3367SOL     OW21733   3.625   0.726  16.897  0.4639 -0.5958  0.0720
 3367SOL    HW121734   3.663   0.717  16.810  0.1677 -1.4990  0.0375
 3367SOL    HW221735   3.586   0.813  16.887 -2.8657 -2.2375 -1.0899
 3368SOL     OW21736   3.334   3.872  10.088  0.2278 -0.0604  0.1210
 3368SOL    HW121737   3.386   3.806  10.134 -1.4336  0.1406  2.3210
 3368SOL    HW221738   3.302   3.920  10.164  0.9787  0.8016 -0.1036
 3369SOL     OW21739   3.839   1.101  16.749  0.0263  0.7167 -0.3327
 3369SOL    HW121740   3.864   1.065  16.664 -3.0364 -2.4073  0.1063
 3369SOL    HW221741   3.924   1.138  16.775 -0.4037  1.2104  0.3801
 3370SOL     OW21742   2.229   4.003  12.186  0.7413 -0.4545 -0.8738
 3370SOL    HW121743   2.156   4.064  12.184 -1.6890 -3.2305  3.2252
 3370SOL    HW221744   2.222   3.991  12.091 -0.6273 -1.6793 -0.6101
 3371SOL     OW21745   2.046   2.225   4.665  0.2846 -0.2899 -0.0855
 3371SOL    HW121746   2.056   2.132   4.644 -0.4915  0.2575 -2.8066
 3371SOL    HW221747   2.068   2.218   4.758 -1.7199 -2.0694  0.2432
 3372SOL     OW21748   2.523   3.084   6.644 -0.0425 -0.2235 -0.1439
 3372SOL    HW121749   2.533   3.163   6.592 -0.1094  0.2977  0.6337
 3372SOL    HW221750   2.551   3.109   6.732 -0.1541  0.3560 -0.2699
 3373SOL     OW21751   3.677   2.822   5.102 -1.1086  0.2775 -0.2074
 3373SOL    HW121752   3.699   2.861   5.186  1.1081  2.4112 -1.7877
 3373SOL    HW221753   3.754   2.842   5.049 -0.8126 -0.0299  0.1078
 3374SOL     OW21754   3.943   1.441  14.273 -0.4283 -0.2013 -0.0298
 3374SOL    HW121755   4.006   1.510  14.296  0.8374 -1.9599  1.7414
 3374SOL    HW221756   3.990   1.397  14.202 -0.9474 -2.1292  0.8254
 3375SOL     OW21757   1.592   2.030   8.065 -0.0554 -0.3589 -0.1778
 3375SOL    HW121758   1.519   2.021   8.127 -1.7784  2.8317 -1.7675
 3375SOL    HW221759   1.575   2.121   8.042 -0.4055 -0.9782 -2.3501
 3376SOL     OW21760   0.151   3.557   5.024  0.4848 -0.5254  0.1963
 3376SOL    HW121761   0.230   3.586   5.069 -1.6491  2.8680  1.7239
 3376SOL    HW221762   0.150   3.462   5.037 -2.0720 -0.3602  1.2874
 3377SOL     OW21763   1.793   0.696  13.853  0.1513 -0.3232  0.0433
 3377SOL    HW121764   1.720   0.731  13.904 -0.3921  0.0459 -0.9765
 3377SOL    HW221765   1.819   0.619  13.902 -0.5690 -1.7251 -1.7752
 3378SOL     OW21766   1.722   0.425   2.863 -0.9579 -0.2513  0.3641
 3378SOL    HW121767   1.738   0.488   2.934  1.8060  1.0587 -1.4360
 3378SOL    HW221768   1.807   0.382   2.861 -0.3253  1.0064  0.2328
 3379SOL     OW21769   1.128   3.056   8.978  0.4250  0.5961 -0.7468
 3379SOL    HW121770   1.191   3.128   8.974  1.9675 -0.7510 -0.8416
 3379SOL    HW221771   1.046   3.103   8.986  0.6257  1.0991 -1.6611
 3380SOL     OW21772   3.804   0.319   1.806  0.2211 -0.3170 -0.3017
 3380SOL    HW121773   3.860   0.356   1.738 -1.3242  0.9150 -0.9134
 3380SOL    HW221774   3.864   0.314   1.880  1.2290  0.7898 -1.0484
 3381SOL     OW21775   3.002   2.424   1.977 -0.6134  0.4308 -0.2840
 3381SOL    HW121776   2.920   2.391   1.942 -1.2180  1.2832  0.3374
 3381SOL    HW221777   2.975   2.444   2.066 -0.7539 -0.5942 -0.0973
 3382SOL     OW21778   3.860   0.258  15.611 -0.6154  0.5831  0.9522
 3382SOL    HW121779   3.772   0.292  15.626 -0.7848  0.7091 -0.3386
 3382SOL    HW221780   3.914   0.317  15.664 -1.0652  1.2818  0.6271
 3383SOL     OW21781   2.419   4.000  13.625 -0.2104  0.1102 -0.4531
 3383SOL    HW121782   2.485   4.062  13.656  0.1799 -0.4943 -0.0837
 3383SOL    HW221783   2.461   3.916  13.643 -0.2225 -0.2216 -2.0055
 3384SOL     OW21784   3.416   3.470   3.397 -0.0796 -0.7999 -0.7365
 3384SOL    HW121785   3.512   3.479   3.401 -0.1879  0.4242 -0.8285
 3384SOL    HW221786   3.389   3.536   3.333  0.2778 -0.6903 -0.7766
 3385SOL     OW21787   1.387   0.726   3.769 -0.0692 -0.7129 -0.5338
 3385SOL    HW121788   1.340   0.677   3.836  0.3710 -0.0567  0.2659
 3385SOL    HW221789   1.339   0.809   3.763 -1.2206 -1.2771  1.0148
 3386SOL     OW21790   3.347   0.792  11.720 -0.1923  0.8077 -0.2921
 3386SOL    HW121791   3.435   0.829  11.717 -0.2672  1.0348  0.3837
 3386SOL    HW221792   3.322   0.819  11.631 -0.5639  1.2766 -0.0512
 3387SOL     OW21793   3.029   2.993   9.672 -0.3305 -0.1143 -0.0376
 3387SOL    HW121794   2.989   2.998   9.758  0.5452 -2.5698  0.5214
 3387SOL    HW221795   3.049   2.899   9.675 -0.9098 -0.1844  1.4879
 3388SOL     OW21796   2.859   3.779   2.285  0.4423  0.3756 -0.3825
 3388SOL    HW121797   2.922   3.799   2.216  1.8753 -2.1972  0.1777
 3388SOL    HW221798   2.777   3.802   2.240  0.3588  0.0612 -0.3919
 3389SOL     OW21799   0.721   0.899   2.812 -0.7981  0.0217  0.2646
 3389SOL    HW121800   0.701   0.970   2.873  1.3514 -1.0820  2.2336
 3389SOL    HW221801   0.669   0.921   2.735  0.1481 -0.1374 -0.4097
 3390SOL     OW21802   2.069   4.021   7.197 -0.0706 -0.6792  0.3680
 3390SOL    HW121803   1.992   4.078   7.204  1.3258  1.2769 -0.0321
 3390SOL    HW221804   2.055   3.964   7.272  1.0528 -0.0816  1.0289
 3391SOL     OW21805   4.054   2.301   6.620  0.0400 -0.0974 -0.1531
 3391SOL    HW121806   3.963   2.327   6.637 -0.4822 -0.3096 -2.6498
 3391SOL    HW221807   4.086   2.295   6.710 -1.8645 -0.2206  0.5348
 3392SOL     OW21808   1.496   1.596   7.074 -0.9253  0.4100 -0.1825
 3392SOL    HW121809   1.513   1.664   7.008 -3.7795 -0.9744 -2.3570
 3392SOL    HW221810   1.584   1.561   7.088 -0.6960  1.6121  1.3614
 3393SOL     OW21811   4.275   2.499  15.037 -0.5496 -0.7022 -0.1809
 3393SOL    HW121812   4.268   2.585  14.995  1.0283 -1.3311 -1.7633
 3393SOL    HW221813   4.325   2.522  15.115  3.2461 -1.0265 -2.5466
 3394SOL     OW21814   2.028   4.145   0.403 -0.2136  0.4320  0.2381
 3394SOL    HW121815   2.011   4.052   0.419  2.1324  0.2077  1.4835
 3394SOL    HW221816   1.948   4.161   0.354 -0.5422  1.9674  1.2808
 3395SOL     OW21817   2.638   2.559   6.384  0.1141  0.0150 -0.1467
 3395SOL    HW121818   2.665   2.531   6.471  1.6023  1.9207  0.0109
 3395SOL    HW221819   2.659   2.652   6.396 -1.2197  0.3973 -0.7292
 3396SOL     OW21820   1.085   3.986   9.423  0.2125  0.1276  0.6125
 3396SOL    HW121821   1.100   4.055   9.487 -1.7675 -1.6887  3.0587
 3396SOL    HW221822   1.013   3.933   9.458  1.0192  0.1906  2.3266
 3397SOL     OW21823   3.749   1.952   5.670  0.3995 -0.2662 -0.1828
 3397SOL    HW121824   3.775   1.913   5.754 -4.3954 -2.8256  0.0789
 3397SOL    HW221825   3.661   1.981   5.694 -0.4610 -3.4649  0.5056
 3398SOL     OW21826   1.680   2.013   6.526 -0.6855  0.4756  0.4291
 3398SOL    HW121827   1.689   2.107   6.538 -0.6305  0.5420 -0.1197
 3398SOL    HW221828   1.764   1.969   6.540 -0.5079  0.1022 -1.7108
 3399SOL     OW21829   0.674   0.993   2.439 -0.0231  0.2713 -0.9643
 3399SOL    HW121830   0.648   0.999   2.347 -0.8566  0.2439 -0.7354
 3399SOL    HW221831   0.759   1.035   2.431 -0.5411  1.5413 -0.0220
 3400SOL     OW21832   2.660   1.204   9.762 -0.4184 -0.1522  0.0477
 3400SOL    HW121833   2.753   1.217   9.776 -0.3760 -0.3066 -0.1010
 3400SOL    HW221834   2.639   1.272   9.698 -0.4264  0.9631  1.2228
 3401SOL     OW21835   2.422   0.002   6.600 -0.2536 -0.4965 -0.1934
 3401SOL    HW121836   2.462   4.712   6.516 -0.8323  1.6261 -1.0871
 3401SOL    HW221837   2.500   0.036   6.644 -0.0557  0.1742 -1.0625
 3402SOL     OW21838   1.724   3.425   5.635  0.4250  0.4198 -0.0151
 3402SOL    HW121839   1.655   3.381   5.685 -0.2679 -0.6941 -1.9845
 3402SOL    HW221840   1.675   3.506   5.620 -0.6821  0.3867  3.4044
 3403SOL     OW21841   3.466   1.488  14.669 -0.0266  0.7203  0.3640
 3403SOL    HW121842   3.494   1.523  14.753  0.2561  0.6458  0.3015
 3403SOL    HW221843   3.551   1.493  14.625 -0.9615 -1.3395 -1.6708
 3404SOL     OW21844   4.682   4.033  14.845 -0.0490 -0.7844 -0.0674
 3404SOL    HW121845   4.628   3.993  14.913 -1.9746  0.1719 -1.0268
 3404SOL    HW221846   4.735   3.961  14.812 -0.2636 -0.6638 -0.6687
 3405SOL     OW21847   0.496   3.988   7.517  0.0653 -0.1780  0.2258
 3405SOL    HW121848   0.444   4.026   7.445  0.6272  1.0345  0.4534
 3405SOL    HW221849   0.504   3.901   7.478  1.9810  0.3938 -0.6672
 3406SOL     OW21850   4.036   1.884   3.679 -0.4597 -0.5435  0.6484
 3406SOL    HW121851   3.952   1.898   3.634  0.6520  1.8745 -0.6983
 3406SOL    HW221852   4.037   1.789   3.683 -0.1923 -0.6798 -2.8193
 3407SOL     OW21853   3.351   4.665  17.135 -0.0915 -0.6010  0.1212
 3407SOL    HW121854   3.337   4.680  17.041 -1.2020  0.6282  0.4780
 3407SOL    HW221855   3.435   4.707  17.151 -0.1802  0.5127 -2.3718
 3408SOL     OW21856   3.531   4.512   4.752 -0.2458  0.0297  0.2692
 3408SOL    HW121857   3.506   4.447   4.817 -0.3597  0.2259  0.4190
 3408SOL    HW221858   3.555   4.581   4.814  0.3616  2.3858 -2.5781
 3409SOL     OW21859   4.151   3.592   6.418  0.3113  0.5998  0.2603
 3409SOL    HW121860   4.106   3.617   6.338 -1.1274 -2.2800  0.1695
 3409SOL    HW221861   4.195   3.510   6.397 -0.2420 -0.4531  3.2215
 3410SOL     OW21862   2.595   0.019   5.551  0.1012 -0.2258  0.2205
 3410SOL    HW121863   2.518   0.038   5.498 -0.7704 -0.1403  1.5220
 3410SOL    HW221864   2.599   4.660   5.534  0.2033 -0.3142  0.7171
 3411SOL     OW21865   3.097   1.271   4.034 -0.3297  0.4425 -0.8400
 3411SOL    HW121866   3.044   1.341   4.072 -0.1121 -0.4472  1.0987
 3411SOL    HW221867   3.095   1.298   3.942 -0.4567 -2.4764 -1.6940
 3412SOL     OW21868   0.917   2.973   6.197  0.3835 -0.1004  0.2352
 3412SOL    HW121869   0.942   2.964   6.289  2.1374  2.2605 -0.0292
 3412SOL    HW221870   0.918   2.878   6.183  2.7223 -0.3297  2.0088
 3413SOL     OW21871   3.821   1.044  17.348  0.1088 -0.3876 -0.4601
 3413SOL    HW121872   3.905   1.009  17.320  0.4202 -1.0995  1.3338
 3413SOL    HW221873   3.761   1.024  17.276 -1.0860  1.0091  0.1267
 3414SOL     OW21874   3.309   1.306   2.322  0.4945 -0.1345 -0.1879
 3414SOL    HW121875   3.275   1.381   2.371  2.1736  0.0576  0.7141
 3414SOL    HW221876   3.372   1.349   2.264  0.0723 -0.0033 -0.5478
 3415SOL     OW21877   2.489   0.924   4.223  0.1124  0.3894  0.1917
 3415SOL    HW121878   2.474   0.831   4.209 -0.4210  0.6198 -0.7460
 3415SOL    HW221879   2.508   0.930   4.316  1.0067 -3.7540  0.2690
 3416SOL     OW21880   1.030   4.676   3.840  0.0131  0.2945  0.3078
 3416SOL    HW121881   1.084   0.014   3.809  0.3254 -0.3518 -0.6853
 3416SOL    HW221882   1.100   4.611   3.848 -0.5655 -0.6451 -2.2107
 3417SOL     OW21883   1.572   0.305   3.214 -0.2145  0.7596  0.0685
 3417SOL    HW121884   1.638   0.373   3.224  0.6297 -0.1203  0.5920
 3417SOL    HW221885   1.504   0.350   3.163 -2.3170 -0.6222  1.6354
 3418SOL     OW21886   2.554   4.517   8.927  0.0133  0.0031  0.5488
 3418SOL    HW121887   2.605   4.597   8.909  1.7534 -1.3991 -0.7563
 3418SOL    HW221888   2.471   4.564   8.931 -0.6487 -1.2386  1.3211
 3419SOL     OW21889   1.923   3.855   3.336  0.7921  0.9620  0.9594
 3419SOL    HW121890   2.017   3.844   3.323  0.0488 -1.5893 -2.2066
 3419SOL    HW221891   1.903   3.906   3.257  1.1580 -0.0132  0.2363
 3420SOL     OW21892   2.750   4.349   0.839 -0.5789 -0.1831  0.0711
 3420SOL    HW121893   2.770   4.437   0.810 -3.5491  0.1128 -1.0596
 3420SOL    HW221894   2.777   4.360   0.930 -0.5336 -1.6114  0.2391
 3421SOL     OW21895   1.929   2.294   5.502 -0.2688  0.0266  0.2051
 3421SOL    HW121896   2.024   2.310   5.506 -0.1379 -0.9013  0.9271
 3421SOL    HW221897   1.920   2.271   5.410  2.2841 -0.1690  0.0064
 3422SOL     OW21898   0.363   2.687   4.245 -0.2506 -0.0154  0.0233
 3422SOL    HW121899   0.392   2.653   4.330  0.5462 -0.4859 -0.4404
 3422SOL    HW221900   0.268   2.693   4.258 -0.0317  0.3430  1.5057
 3423SOL     OW21901   4.519   4.644   2.351  0.0090 -0.0538  0.1046
 3423SOL    HW121902   4.575   4.712   2.389  1.2932 -1.1002  0.1037
 3423SOL    HW221903   4.428   4.670   2.363 -0.4100 -0.0428 -2.9886
 3424SOL     OW21904   3.501   4.429   5.634 -0.2029  0.2373  0.2771
 3424SOL    HW121905   3.509   4.353   5.575 -2.3116  0.5400 -0.4157
 3424SOL    HW221906   3.437   4.480   5.584 -1.1510  1.0434  2.3073
 3425SOL     OW21907   2.272   3.461   6.124 -0.1477  0.0389  0.1709
 3425SOL    HW121908   2.293   3.505   6.207 -0.5057 -2.3891  1.5629
 3425SOL    HW221909   2.332   3.387   6.133  0.4221  0.4500 -0.3401
 3426SOL     OW21910   2.664   4.505   9.609 -0.1741 -0.0424  0.2656
 3426SOL    HW121911   2.663   4.461   9.524 -3.8356 -1.4441  1.0421
 3426SOL    HW221912   2.698   4.436   9.667 -0.3882  0.3565  0.8692
 3427SOL     OW21913   1.184   4.054   3.897 -0.1299  0.4318 -0.0054
 3427SOL    HW121914   1.209   4.111   3.825 -2.0909 -0.8215 -1.6604
 3427SOL    HW221915   1.107   4.095   3.937 -0.7608 -2.8444  2.2194
 3428SOL     OW21916   2.045   2.236   7.716 -0.2952 -0.2280  0.2992
 3428SOL    HW121917   1.964   2.197   7.749 -0.0667 -2.2590 -1.5956
 3428SOL    HW221918   2.020   2.236   7.624 -2.1192  0.9910  0.8025
 3429SOL     OW21919   1.909   4.676   5.678  0.4787 -0.2384  0.1122
 3429SOL    HW121920   1.974   4.647   5.613 -0.2528 -1.4570 -0.0648
 3429SOL    HW221921   1.886   4.587   5.705  0.8176  0.8062  3.8249
 3430SOL     OW21922   3.147   1.238   9.421 -0.1231  0.5771  0.2771
 3430SOL    HW121923   3.165   1.229   9.515 -0.2736  0.3934  0.2886
 3430SOL    HW221924   3.231   1.232   9.375  0.3853 -1.7522  1.4596
 3431SOL     OW21925   1.497   3.720  16.153  0.7158  0.2633  0.3366
 3431SOL    HW121926   1.522   3.800  16.200 -0.3066 -0.1530  1.5927
 3431SOL    HW221927   1.428   3.690  16.213  0.2102 -0.5429 -0.6657
 3432SOL     OW21928   3.591   3.184   8.532 -0.8275  0.1039 -0.5034
 3432SOL    HW121929   3.505   3.193   8.574 -1.6024 -0.8765 -1.8781
 3432SOL    HW221930   3.655   3.199   8.602 -0.9920 -1.7952  0.0602
 3433SOL     OW21931   3.654   2.389  10.672 -0.2632  0.3138 -0.2847
 3433SOL    HW121932   3.566   2.409  10.702  0.3388  0.8573  1.0826
 3433SOL    HW221933   3.698   2.472  10.688 -2.5079  0.9215  2.5747
 3434SOL     OW21934   0.866   3.607   9.717 -0.1683 -0.8164  0.4089
 3434SOL    HW121935   0.940   3.551   9.692 -0.4516 -0.1107 -2.0231
 3434SOL    HW221936   0.854   3.589   9.810 -1.7541 -0.1407  0.3343
 3435SOL     OW21937   3.485   0.718   5.565 -0.1198 -0.3412  0.1574
 3435SOL    HW121938   3.447   0.687   5.483 -1.7055 -0.3806  0.9144
 3435SOL    HW221939   3.575   0.689   5.550  0.0823  0.1295  0.4488
 3436SOL     OW21940   1.971   3.631  13.900 -0.3175  0.2586 -0.4471
 3436SOL    HW121941   1.907   3.602  13.834 -0.2633 -1.9935  0.5067
 3436SOL    HW221942   1.928   3.716  13.905 -0.6696  0.3164 -4.1506
 3437SOL     OW21943   4.126   1.185   1.876  0.7056 -0.4291 -0.0101
 3437SOL    HW121944   4.140   1.221   1.964 -0.8825  3.0056 -1.1352
 3437SOL    HW221945   4.031   1.173   1.881  0.4998  0.9645 -0.5734
 3438SOL     OW21946   4.140   1.208  12.087  0.4253  0.0616 -0.4079
 3438SOL    HW121947   4.045   1.198  12.080  0.7959 -3.0474 -0.7066
 3438SOL    HW221948   4.169   1.140  12.147  1.0543  0.6399 -0.0571
 3439SOL     OW21949   0.523   2.543   1.799  0.4241  0.2307 -0.4487
 3439SOL    HW121950   0.599   2.552   1.856  1.4028 -0.6057 -1.6153
 3439SOL    HW221951   0.451   2.576   1.852  0.3472 -0.1138 -0.3363
 3440SOL     OW21952   1.756   4.558   5.282 -0.1587 -0.6688  0.3357
 3440SOL    HW121953   1.676   4.574   5.333 -1.6125 -0.2270 -2.0497
 3440SOL    HW221954   1.813   4.509   5.341 -0.0140 -1.0082 -0.0877
 3441SOL     OW21955   2.388   1.478  13.462 -0.3526 -0.3002 -0.3202
 3441SOL    HW121956   2.440   1.548  13.422 -0.0973 -1.0875 -1.3751
 3441SOL    HW221957   2.450   1.454  13.531  0.8436 -0.0981 -1.3246
 3442SOL     OW21958   3.324   4.542   0.845 -0.1879 -0.4826  0.4935
 3442SOL    HW121959   3.284   4.462   0.811 -1.1631  0.3290 -0.2475
 3442SOL    HW221960   3.386   4.560   0.774  0.5855 -2.3551  0.6836
 3443SOL     OW21961   4.353   0.397   7.030 -0.4778 -0.3605 -0.9809
 3443SOL    HW121962   4.448   0.397   7.019 -0.1414 -0.4251  1.8076
 3443SOL    HW221963   4.334   0.489   7.048  0.5564 -0.3995  0.3776
 3444SOL     OW21964   3.929   2.900   2.389  0.0198  0.3747 -0.2769
 3444SOL    HW121965   3.982   2.852   2.325  0.5932  1.9653 -1.0103
 3444SOL    HW221966   3.981   2.967   2.433 -0.4104  1.3068 -1.1872
 3445SOL     OW21967   1.137   3.827   5.414  0.0551  0.0449 -0.4710
 3445SOL    HW121968   1.190   3.769   5.468  0.2766 -0.2119 -0.9719
 3445SOL    HW221969   1.164   3.784   5.333 -0.2499 -1.0096 -0.0199
 3446SOL     OW21970   1.416   3.644  17.179  0.1617  0.2687  0.0668
 3446SOL    HW121971   1.418   3.710  17.248  0.0587  0.4664 -0.1176
 3446SOL    HW221972   1.324   3.635  17.154  0.8055 -0.3214 -2.0749
 3447SOL     OW21973   3.948   2.141  15.459 -0.0726  0.6822  0.8402
 3447SOL    HW121974   3.974   2.138  15.551 -1.7894  0.5670  1.3371
 3447SOL    HW221975   3.853   2.152  15.469  0.1867  1.7802  2.0718
 3448SOL     OW21976   4.296   3.170   7.112  0.3400 -0.1277  0.2615
 3448SOL    HW121977   4.354   3.094   7.116 -1.0468 -1.2634 -1.2784
 3448SOL    HW221978   4.348   3.230   7.058  1.2675 -2.6144 -1.5580
 3449SOL     OW21979   0.185   4.412   0.069 -0.2716 -0.8385 -0.1481
 3449SOL    HW121980   0.239   4.490   0.063  0.9360 -1.6832 -0.2948
 3449SOL    HW221981   0.116   4.447   0.125  1.4880  1.6707  0.4382
 3450SOL     OW21982   3.443   0.161   2.663 -0.4004 -0.3369  0.2615
 3450SOL    HW121983   3.386   0.204   2.599  1.5441 -0.4156 -1.5172
 3450SOL    HW221984   3.469   0.085   2.612 -1.2456 -0.9119  0.6812
 3451SOL     OW21985   1.882   0.991   6.374  0.2316 -0.4908 -0.0650
 3451SOL    HW121986   1.831   0.953   6.446 -0.8467  1.8943  0.4373
 3451SOL    HW221987   1.969   1.003   6.411  0.0065 -0.7759  0.5549
 3452SOL     OW21988   1.246   4.376  16.732 -0.2338 -0.2131  0.2470
 3452SOL    HW121989   1.182   4.371  16.804  1.4859 -1.0869  1.7154
 3452SOL    HW221990   1.191   4.350  16.658 -1.8780 -0.6791  1.6157
 3453SOL     OW21991   1.131   3.497  11.925  0.6057 -0.2320  0.3025
 3453SOL    HW121992   1.083   3.571  11.887  2.0258  0.4791 -0.0821
 3453SOL    HW221993   1.058   3.449  11.965  0.2494 -1.4130 -1.7612
 3454SOL     OW21994   1.304   1.282   4.091  0.2307 -0.7974  0.0422
 3454SOL    HW121995   1.330   1.275   4.182  0.3830 -2.5437 -0.1302
 3454SOL    HW221996   1.265   1.370   4.088  2.8942  0.3885  0.6707
 3455SOL     OW21997   4.070   4.078   2.042 -0.2481 -0.0005 -0.7964
 3455SOL    HW121998   4.084   4.017   2.115  2.7025 -1.5942 -2.6914
 3455SOL    HW221999   4.160   4.108   2.035 -0.0153 -0.3380  0.6801
 3456SOL     OW22000   4.464   3.228   1.933 -0.0615 -0.1711  0.1021
 3456SOL    HW122001   4.371   3.209   1.940 -0.0600 -0.4180 -0.5833
 3456SOL    HW222002   4.478   3.252   1.842 -0.7698  0.6737  0.2149
 3457SOL     OW22003   1.602   2.382   3.769 -0.2106 -0.4244  0.2873
 3457SOL    HW122004   1.537   2.436   3.815  0.1859  1.4802 -1.3970
 3457SOL    HW222005   1.560   2.299   3.746 -0.1254 -0.0736 -1.1181
 3458SOL     OW22006   2.688   1.017   6.224  0.8855  0.0473  0.4611
 3458SOL    HW122007   2.663   1.110   6.225  1.4691  0.1823  2.2773
 3458SOL    HW222008   2.782   1.034   6.219  0.9907 -1.4458 -2.6909
 3459SOL     OW22009   3.118   2.834   7.449 -0.3410 -0.7403  0.3236
 3459SOL    HW122010   3.082   2.806   7.365 -0.6345  1.1758 -0.1867
 3459SOL    HW222011   3.212   2.817   7.438 -0.1949  0.2502  0.0258
 3460SOL     OW22012   1.428   0.580   9.238  0.4822 -0.0743  0.3998
 3460SOL    HW122013   1.372   0.560   9.314  0.0607  0.5126  0.2530
 3460SOL    HW222014   1.379   0.640   9.181  0.9675 -0.7797 -0.7524
 3461SOL     OW22015   3.442   0.935   5.364 -0.5923 -0.7915 -0.2825
 3461SOL    HW122016   3.347   0.939   5.375 -0.7030  0.0668 -1.5781
 3461SOL    HW222017   3.471   0.888   5.442 -1.4935  0.7981  1.0241
 3462SOL     OW22018   0.939   0.794   2.190 -0.1916  0.0865 -0.2762
 3462SOL    HW122019   0.972   0.873   2.147  2.1701 -0.7979 -0.1020
 3462SOL    HW222020   0.878   0.769   2.120  0.1265  1.8196 -1.1679
 3463SOL     OW22021   0.895   0.713   3.140 -0.5560  0.4186 -0.3235
 3463SOL    HW122022   0.853   0.794   3.168 -0.1032  0.5807 -0.1084
 3463SOL    HW222023   0.982   0.718   3.180 -0.4919  1.8900 -0.6454
 3464SOL     OW22024   2.235   0.461  14.593 -0.1437  0.5936  0.4097
 3464SOL    HW122025   2.185   0.382  14.609 -0.2122  0.7750  1.1208
 3464SOL    HW222026   2.328   0.441  14.579 -0.3093  0.4672 -0.4657
 3465SOL     OW22027   4.133   0.406   3.808 -0.2201 -0.4520 -0.2477
 3465SOL    HW122028   4.104   0.316   3.825 -1.1676 -0.0356  0.3629
 3465SOL    HW222029   4.115   0.452   3.890 -0.6013 -1.1841  0.0826
 3466SOL     OW22030   3.358   1.446  13.156  0.4738  0.7107 -0.2005
 3466SOL    HW122031   3.427   1.424  13.218 -0.6381 -0.4107  0.6283
 3466SOL    HW222032   3.313   1.365  13.133  1.0017  0.5479 -0.6509
 3467SOL     OW22033   1.774   1.711   3.238 -0.0360  0.2342 -0.6296
 3467SOL    HW122034   1.811   1.788   3.194  0.3810 -0.1641 -0.9623
 3467SOL    HW222035   1.707   1.754   3.292 -0.5632 -2.2461  0.6634
 3468SOL     OW22036   4.460   0.619   7.611  0.4281  0.3593  0.0344
 3468SOL    HW122037   4.483   0.705   7.646  1.6513 -0.1898  0.5633
 3468SOL    HW222038   4.525   0.582   7.669  2.1738  1.9072 -0.9367
 3469SOL     OW22039   2.438   1.654   3.908 -0.0495 -0.0652 -0.2202
 3469SOL    HW122040   2.366   1.687   3.961  0.8372  2.9162 -0.8314
 3469SOL    HW222041   2.400   1.664   3.821  0.4675 -1.8657 -0.6432
 3470SOL     OW22042   4.042   0.267  15.183  0.2900 -0.6173 -0.0779
 3470SOL    HW122043   3.956   0.241  15.215  0.5197 -3.0895 -1.4311
 3470SOL    HW222044   4.093   0.186  15.183 -1.7472 -1.9065 -1.3207
 3471SOL     OW22045   0.730   2.972   6.670  0.1620  0.1036  0.3318
 3471SOL    HW122046   0.662   2.908   6.690 -0.4873  1.1309  1.3943
 3471SOL    HW222047   0.782   2.956   6.748  1.6127  1.1409 -0.4249
 3472SOL     OW22048   2.404   3.998  17.610 -0.3621  0.8776 -0.0168
 3472SOL    HW122049   2.426   4.088  17.587  1.9671 -0.0196 -1.3559
 3472SOL    HW222050   2.464   3.981  17.683  0.0201  2.3011 -0.0110
 3473SOL     OW22051   0.188   2.039   7.629  0.1385 -0.0026 -0.3604
 3473SOL    HW122052   0.219   2.029   7.539 -1.5796 -1.1919 -0.8231
 3473SOL    HW222053   0.268   2.076   7.667  0.3935  0.3385 -1.2412
 3474SOL     OW22054   0.032   4.591   6.790  0.4715  0.6169 -0.0100
 3474SOL    HW122055   0.019   4.608   6.883  0.2373  0.4959 -0.0212
 3474SOL    HW222056   0.011   4.498   6.778 -0.2573  0.9472 -1.1906
 3475SOL     OW22057   3.863   1.292  17.065  0.0551  0.4068 -0.3800
 3475SOL    HW122058   3.944   1.294  17.015  0.7133  1.2995  0.7422
 3475SOL    HW222059   3.879   1.376  17.108 -0.2000 -0.0001  0.4966
 3476SOL     OW22060   0.102   3.889  11.923 -0.2575 -0.3521 -0.0558
 3476SOL    HW122061   0.164   3.818  11.906  0.4197  0.6266 -1.5650
 3476SOL    HW222062   0.138   3.927  12.003 -3.4696  0.3635  1.0742
 3477SOL     OW22063   2.428   3.262   8.445  0.7473 -0.1906  0.1610
 3477SOL    HW122064   2.384   3.206   8.509 -0.2279 -0.3879 -0.6892
 3477SOL    HW222065   2.361   3.265   8.378 -0.0405  0.8812  1.0000
 3478SOL     OW22066   4.590   1.032  14.563 -0.6105 -0.2607 -0.5219
 3478SOL    HW122067   4.544   0.965  14.614 -0.8123  1.8545  2.0792
 3478SOL    HW222068   4.597   1.106  14.623 -0.3342  1.0138 -2.1646
 3479SOL     OW22069   4.506   3.749   9.413 -0.0131  0.1082  0.4635
 3479SOL    HW122070   4.431   3.790   9.370  1.2767 -1.9370 -3.6716
 3479SOL    HW222071   4.469   3.726   9.499 -0.0592  1.4876  0.8064
 3480SOL     OW22072   4.466   2.754  13.663 -0.6587 -0.4338  0.1851
 3480SOL    HW122073   4.524   2.729  13.735  1.1480  1.8428 -0.4954
 3480SOL    HW222074   4.383   2.707  13.675 -0.3204 -1.0600  0.0759
 3481SOL     OW22075   0.328   1.260  14.090  0.2345  0.0301  0.3110
 3481SOL    HW122076   0.405   1.310  14.118  1.2855 -2.0623  1.1829
 3481SOL    HW222077   0.365   1.212  14.016  0.8688  1.0922 -0.0505
 3482SOL     OW22078   0.604   0.955   7.829 -0.2975 -0.0502 -0.0788
 3482SOL    HW122079   0.559   0.874   7.854 -1.5468  0.7439  0.2800
 3482SOL    HW222080   0.647   0.985   7.909  0.3355 -1.6287  0.1724
 3483SOL     OW22081   1.072   2.812   3.399  0.3311 -0.2248  0.1085
 3483SOL    HW122082   1.091   2.736   3.453  1.9700 -0.8773 -1.3912
 3483SOL    HW222083   1.133   2.876   3.434 -1.6958  0.6749  1.9946
 3484SOL     OW22084   0.834   3.542   0.501 -0.6899  0.3676 -0.0686
 3484SOL    HW122085   0.768   3.563   0.567 -2.3125  1.0445 -1.8867
 3484SOL    HW222086   0.903   3.514   0.561 -0.0472  0.8384 -0.5912
 3485SOL     OW22087   4.171   1.514   4.594  0.5039 -0.4510  0.3373
 3485SOL    HW122088   4.102   1.523   4.529  0.1592  2.6819  1.1411
 3485SOL    HW222089   4.171   1.420   4.612  2.7113 -0.2844  1.2118
 3486SOL     OW22090   2.840   1.129   9.549  0.0005 -0.6771  0.8440
 3486SOL    HW122091   2.919   1.080   9.527  1.0634  1.0132  0.8751
 3486SOL    HW222092   2.872   1.154   9.635 -2.0693  0.0386  1.3972
 3487SOL     OW22093   0.328   0.959   2.692 -0.3851  0.2754  0.3681
 3487SOL    HW122094   0.274   0.935   2.766  1.2262 -0.0601  1.4339
 3487SOL    HW222095   0.377   1.033   2.728  0.9527 -0.9935  1.1589
 3488SOL     OW22096   0.868   2.582   9.231 -0.8579 -0.5819 -0.5714
 3488SOL    HW122097   0.801   2.585   9.163  0.0622  1.7609 -1.3785
 3488SOL    HW222098   0.933   2.521   9.196  0.6585  0.7308 -0.0253
 3489SOL     OW22099   0.513   0.885  11.918  0.3501  0.3695 -0.4130
 3489SOL    HW122100   0.464   0.955  11.875 -0.2113  0.5288  0.4830
 3489SOL    HW222101   0.439   0.834  11.949  0.9677 -1.2109 -1.5691
 3490SOL     OW22102   2.109   2.793   9.175 -0.1108 -0.1321 -0.0983
 3490SOL    HW122103   2.151   2.728   9.120  0.3602  0.9715 -1.0487
 3490SOL    HW222104   2.118   2.873   9.123 -0.9462 -0.0760 -0.1653
 3491SOL     OW22105   1.931   3.772   2.096 -0.4709 -0.2281 -0.3877
 3491SOL    HW122106   1.865   3.712   2.129 -2.2945  1.3842 -1.1358
 3491SOL    HW222107   1.875   3.849   2.097 -1.2618 -0.7927 -1.3113
 3492SOL     OW22108   0.807   3.702   2.694  0.0981  0.4661  0.2662
 3492SOL    HW122109   0.795   3.783   2.645  0.3672  0.4022  0.0962
 3492SOL    HW222110   0.785   3.725   2.784  0.4795 -1.9296  0.9681
 3493SOL     OW22111   4.149   0.232  11.236  0.3082 -0.0808 -0.4253
 3493SOL    HW122112   4.140   0.216  11.329  4.0163 -0.3379 -0.1117
 3493SOL    HW222113   4.172   0.144  11.203  1.9795  0.2644 -0.1321
 3494SOL     OW22114   3.979   1.442   2.722  0.2795 -0.2186 -0.0789
 3494SOL    HW122115   4.024   1.365   2.686 -0.4069  0.0265 -1.4530
 3494SOL    HW222116   3.983   1.504   2.650 -2.1130 -2.3312 -2.0628
 3495SOL     OW22117   4.145   4.669  13.783  0.5961 -0.0648 -0.0957
 3495SOL    HW122118   4.210   4.724  13.740  1.6778 -1.7792 -0.6748
 3495SOL    HW222119   4.136   4.716  13.866 -1.5392  0.6678 -0.7521
 3496SOL     OW22120   4.572   2.728   8.093 -0.0029 -0.2963 -0.7332
 3496SOL    HW122121   4.656   2.772   8.080  0.0477  0.5766  2.5530
 3496SOL    HW222122   4.523   2.787   8.151  0.2213 -1.1848  0.3608
 3497SOL     OW22123   2.758   2.868   9.197 -0.3183 -0.1117  0.0610
 3497SOL    HW122124   2.797   2.927   9.132 -1.4360  0.8434  0.2542
 3497SOL    HW222125   2.774   2.911   9.280  0.6293 -0.7233  0.1950
 3498SOL     OW22126   1.972   0.883  13.269  0.2585 -0.5196  0.1531
 3498SOL    HW122127   1.991   0.789  13.278  0.9141 -0.3346  0.7253
 3498SOL    HW222128   2.042   0.910  13.210 -0.4081  4.0440  1.4615
 3499SOL     OW22129   1.780   0.843  12.587  0.4971  1.0216 -0.0932
 3499SOL    HW122130   1.708   0.876  12.640 -0.2472 -0.2154 -0.3243
 3499SOL    HW222131   1.847   0.862  12.652 -0.5607 -0.9218  1.5666
 3500SOL     OW22132   3.588   0.750   6.715 -0.4935  0.1289  0.2833
 3500SOL    HW122133   3.628   0.725   6.632 -0.6134  0.7511  0.0322
 3500SOL    HW222134   3.612   0.842   6.731  0.0864 -0.1997  1.2694
 3501SOL     OW22135   3.141   3.217   4.452 -0.0835 -0.7759  0.4166
 3501SOL    HW122136   3.140   3.263   4.368  0.2277 -1.1054  0.2320
 3501SOL    HW222137   3.234   3.195   4.447 -0.0638 -0.6553  0.2057
 3502SOL     OW22138   0.960   1.445  16.672 -0.0663  0.3167 -0.2580
 3502SOL    HW122139   0.996   1.433  16.760 -0.2509  1.1567 -0.0728
 3502SOL    HW222140   0.969   1.355  16.641  0.5605 -0.6298  2.6807
 3503SOL     OW22141   3.219   0.415   5.346 -0.0521 -0.0197  0.1905
 3503SOL    HW122142   3.159   0.487   5.327 -0.1139 -0.0359  0.3236
 3503SOL    HW222143   3.205   0.392   5.438  0.2100  0.3287  0.3213
 3504SOL     OW22144   1.626   4.292   5.858  0.1160 -0.0860  0.7823
 3504SOL    HW122145   1.701   4.257   5.905 -0.7107 -0.7232  1.6226
 3504SOL    HW222146   1.566   4.219   5.867  0.7046 -0.6034  0.4911
 3505SOL     OW22147   2.411   4.402   5.592  0.2475 -0.4123  0.5785
 3505SOL    HW122148   2.435   4.342   5.663  1.7876  1.2148  1.4164
 3505SOL    HW222149   2.343   4.359   5.540  0.1802  2.5455 -1.7478
 3506SOL     OW22150   2.395   3.001  10.874  0.2462 -0.0837 -0.3898
 3506SOL    HW122151   2.309   2.987  10.832 -0.0415  0.3890  0.0437
 3506SOL    HW222152   2.409   3.093  10.852 -1.0126  0.2210  0.0648
 3507SOL     OW22153   3.911   0.822   5.361  0.0155  0.1295 -0.3198
 3507SOL    HW122154   3.997   0.849   5.395 -0.1739  0.8398 -0.4036
 3507SOL    HW222155   3.855   0.890   5.399 -0.1965 -0.6851  0.8146
 3508SOL     OW22156   0.451   0.353  12.692  0.3071 -0.1251  0.3899
 3508SOL    HW122157   0.391   0.279  12.702  0.1502 -0.1102 -0.4278
 3508SOL    HW222158   0.492   0.356  12.778  0.3257 -1.0496  0.4127
 3509SOL     OW22159   0.854   1.296   5.190  0.0624  0.0335  0.3126
 3509SOL    HW122160   0.821   1.220   5.142  0.7188 -1.2734  1.9563
 3509SOL    HW222161   0.804   1.370   5.154  1.8734  0.1440 -1.9502
 3510SOL     OW22162   3.241   0.451  13.316 -0.0048  0.8206 -0.1855
 3510SOL    HW122163   3.325   0.445  13.362 -1.8305 -2.7888  2.7037
 3510SOL    HW222164   3.183   0.476  13.388  0.9598 -0.7080  1.1421
 3511SOL     OW22165   2.547   2.414   8.291  0.4401 -0.6997 -0.3016
 3511SOL    HW122166   2.548   2.488   8.351  0.8504 -0.6869 -0.3208
 3511SOL    HW222167   2.550   2.449   8.202 -0.5158  4.1910  1.6222
 3512SOL     OW22168   0.680   3.986   5.993  0.1041  0.1587  0.3873
 3512SOL    HW122169   0.691   3.891   5.990  0.6112  0.3042 -2.1748
 3512SOL    HW222170   0.656   4.003   6.084 -0.5099  1.3176  0.0080
 3513SOL     OW22171   3.514   3.582   8.284  0.0259  0.0141 -0.0067
 3513SOL    HW122172   3.607   3.583   8.260  0.1146  2.3093  0.5088
 3513SOL    HW222173   3.518   3.560   8.377 -0.1430 -2.7634 -0.6336
 3514SOL     OW22174   3.906   2.416   0.983 -0.1239  0.2112  0.1184
 3514SOL    HW122175   3.856   2.393   1.062 -0.5605 -0.6609 -0.4132
 3514SOL    HW222176   3.838   2.452   0.926 -0.7824 -0.1915  0.6474
 3515SOL     OW22177   1.018   2.951  10.652  0.4493 -0.0971  0.2294
 3515SOL    HW122178   0.983   2.948  10.741 -0.8581  1.4032 -0.2280
 3515SOL    HW222179   0.992   2.867  10.614 -1.4432  0.8990 -0.6907
 3516SOL     OW22180   4.726   1.162   1.968 -0.1253  0.0956 -0.3593
 3516SOL    HW122181   4.721   1.118   2.052 -2.0626 -0.7584 -0.9111
 3516SOL    HW222182   0.058   1.102   1.935 -0.2218  0.1009 -0.5655
 3517SOL     OW22183   1.265   3.469   6.708 -0.0036 -0.1379  0.1378
 3517SOL    HW122184   1.278   3.561   6.684  0.1226  0.0324  0.8470
 3517SOL    HW222185   1.316   3.421   6.644 -0.4742  0.3366 -0.5899
 3518SOL     OW22186   1.030   1.706   1.794 -0.1634  0.7982  0.0674
 3518SOL    HW122187   1.087   1.647   1.843  0.2063  0.5867 -0.6180
 3518SOL    HW222188   0.969   1.742   1.858  0.4473 -0.1951  1.2018
 3519SOL     OW22189   3.959   3.170   5.351 -0.0225  0.8428  0.0087
 3519SOL    HW122190   3.983   3.185   5.260 -0.9559 -2.1934 -0.7428
 3519SOL    HW222191   3.963   3.260   5.382 -1.5887  1.0726 -0.4644
 3520SOL     OW22192   1.542   3.290   8.113  0.8075 -0.1851 -0.1224
 3520SOL    HW122193   1.499   3.297   8.027 -0.6387 -1.3454  0.5131
 3520SOL    HW222194   1.474   3.327   8.170  0.2947 -1.2909 -0.0120
 3521SOL     OW22195   1.811   0.332   6.179  0.6116  0.4496  0.4767
 3521SOL    HW122196   1.870   0.390   6.131 -0.6301  1.5621  0.3076
 3521SOL    HW222197   1.758   0.399   6.221 -2.2362 -0.9164 -0.9850
 3522SOL     OW22198   2.619   0.030   3.828  0.0387  0.0884 -0.0402
 3522SOL    HW122199   2.573   4.710   3.890 -0.8741  1.1855  0.2647
 3522SOL    HW222200   2.707   0.018   3.862  0.0890  1.4264  0.3118
 3523SOL     OW22201   3.180   0.306  13.942 -0.6564  0.4932 -0.1920
 3523SOL    HW122202   3.245   0.238  13.922 -0.1658  0.9578 -0.1803
 3523SOL    HW222203   3.208   0.321  14.032 -2.0518 -0.3081  0.3720
 3524SOL     OW22204   4.209   3.175  12.938  0.1814  0.7676 -0.1081
 3524SOL    HW122205   4.236   3.265  12.916  0.4920  0.3505 -1.4294
 3524SOL    HW222206   4.182   3.202  13.025 -0.0399  2.7751 -0.7916
 3525SOL     OW22207   3.548   2.906   6.662 -0.3046 -0.1723 -0.1817
 3525SOL    HW122208   3.472   2.951   6.624 -0.2368 -0.4958 -0.6931
 3525SOL    HW222209   3.617   2.944   6.608  0.8391 -1.7776  0.1581
 3526SOL     OW22210   3.145   3.098   3.103 -0.6044  0.2971 -0.9672
 3526SOL    HW122211   3.193   3.139   3.030  3.2136 -1.4882  0.5526
 3526SOL    HW222212   3.132   3.170   3.164 -0.0847 -1.4512  1.1958
 3527SOL     OW22213   2.835   3.931   4.567  0.2550 -0.2205 -0.6203
 3527SOL    HW122214   2.895   4.002   4.543 -0.8287 -0.3862 -3.7988
 3527SOL    HW222215   2.862   3.911   4.657  0.6422  1.2470 -0.4109
 3528SOL     OW22216   2.746   2.663  10.875  0.5691  0.0274  0.0454
 3528SOL    HW122217   2.663   2.620  10.896  0.5781 -0.3041 -0.5944
 3528SOL    HW222218   2.770   2.698  10.961 -0.0665 -1.9690  1.0434
 3529SOL     OW22219   2.326   1.887   7.623 -0.3669  0.4152 -0.1215
 3529SOL    HW122220   2.336   1.792   7.623  1.0388  0.5665  0.4520
 3529SOL    HW222221   2.322   1.896   7.718 -0.2761  0.2481 -0.1018
 3530SOL     OW22222   0.833   3.024   2.500  0.3314  0.1047 -0.2157
 3530SOL    HW122223   0.837   2.937   2.462  2.0264  0.3445 -0.5886
 3530SOL    HW222224   0.747   3.026   2.544  0.9456  2.8631  0.8740
 3531SOL     OW22225   2.134   4.067  11.332  0.2339 -0.5659  0.7371
 3531SOL    HW122226   2.091   4.009  11.395  1.4750  0.1416  2.2562
 3531SOL    HW222227   2.225   4.071  11.362  0.7546 -0.7018 -0.8140
 3532SOL     OW22228   4.120   0.562   2.196  0.3529 -0.1596  0.8671
 3532SOL    HW122229   4.077   0.542   2.280 -1.9925  2.0834  0.2033
 3532SOL    HW222230   4.108   0.657   2.189 -0.4820 -0.5221 -2.3327
 3533SOL     OW22231   1.902   0.161   6.823  0.1560  0.7840  0.1912
 3533SOL    HW122232   1.846   0.134   6.896  1.6573 -0.7218  0.7887
 3533SOL    HW222233   1.936   0.082   6.781  1.6122  0.4950  1.8565
 3534SOL     OW22234   3.088   2.415   0.504 -0.8322 -0.2678  1.1719
 3534SOL    HW122235   3.134   2.345   0.459  2.4082  1.3100  2.0654
 3534SOL    HW222236   3.004   2.381   0.474 -1.1454  1.5441 -0.0468
 3535SOL     OW22237   2.584   0.861   1.479 -0.2187  0.6013 -0.1493
 3535SOL    HW122238   2.550   0.840   1.566 -1.0974  0.1122 -0.6069
 3535SOL    HW222239   2.679   0.856   1.487 -0.2251 -1.3187 -1.1627
 3536SOL     OW22240   1.087   4.407   8.016  0.0726 -0.5722  0.1346
 3536SOL    HW122241   1.070   4.313   8.019  0.2948 -0.5888  1.1065
 3536SOL    HW222242   1.172   4.408   8.060 -0.3422 -1.3128  0.9464
 3537SOL     OW22243   4.065   3.429  17.078 -0.5328  0.3826 -0.1158
 3537SOL    HW122244   4.101   3.354  17.032  2.5316  1.2331  0.9048
 3537SOL    HW222245   3.981   3.390  17.099  0.3207 -1.5852 -0.3854
 3538SOL     OW22246   0.721   3.881   1.508 -0.3178  0.3006  0.0558
 3538SOL    HW122247   0.711   3.786   1.508 -3.2056  0.6130  1.3742
 3538SOL    HW222248   0.635   3.913   1.480 -0.7219 -1.4232 -0.6462
 3539SOL     OW22249   2.827   0.596   7.490  0.3624  0.1144  0.2523
 3539SOL    HW122250   2.898   0.541   7.523 -0.6433  0.2319  2.5950
 3539SOL    HW222251   2.852   0.595   7.397  2.1789 -1.4475  0.7501
 3540SOL     OW22252   1.797   3.545   3.684  0.2351  0.0338 -0.6234
 3540SOL    HW122253   1.716   3.535   3.733  1.0355  0.9279  0.9056
 3540SOL    HW222254   1.765   3.593   3.607 -2.1230 -1.2908 -0.4467
 3541SOL     OW22255   4.101   1.250   4.319 -0.4853 -0.1063  0.1420
 3541SOL    HW122256   4.189   1.280   4.299  0.1231 -2.6262 -0.9991
 3541SOL    HW222257   4.101   1.256   4.415 -1.4722 -1.0403  0.2127
 3542SOL     OW22258   1.163   2.676   8.161 -0.3233  0.1201  0.0158
 3542SOL    HW122259   1.220   2.689   8.085  2.1533 -0.5400  1.7503
 3542SOL    HW222260   1.114   2.603   8.123 -0.4393 -0.0337  0.4624
 3543SOL     OW22261   1.450   1.142   4.615 -0.1592  0.8657 -0.2166
 3543SOL    HW122262   1.464   1.052   4.584 -1.6316  0.1868  1.0991
 3543SOL    HW222263   1.490   1.202   4.553 -0.0441  1.0713  0.0600
 3544SOL     OW22264   3.590   1.245  12.987 -0.0765 -0.3177  0.4207
 3544SOL    HW122265   3.524   1.218  12.923  1.1204 -3.0767  0.3403
 3544SOL    HW222266   3.594   1.340  12.976 -1.0700 -0.3888 -0.5903
 3545SOL     OW22267   1.425   4.037   4.051 -0.1756  0.7886 -0.0897
 3545SOL    HW122268   1.346   4.080   4.019  0.3756 -0.3457 -3.0031
 3545SOL    HW222269   1.414   4.050   4.145 -2.6672  3.8019 -0.7978
 3546SOL     OW22270   2.643   2.465   8.734 -0.0934 -0.0310  0.1213
 3546SOL    HW122271   2.669   2.375   8.717 -1.6686 -0.3620 -0.5209
 3546SOL    HW222272   2.581   2.454   8.805  0.0453  1.5516  0.4815
 3547SOL     OW22273   3.876   4.252   0.076  0.0374  0.3136  0.1515
 3547SOL    HW122274   3.900   4.338   0.110  0.5673  0.1924  0.0869
 3547SOL    HW222275   3.963   4.213   0.064 -0.6748 -1.2017 -0.0759
 3548SOL     OW22276   0.891   1.444   2.464 -0.0519  0.1395  0.7245
 3548SOL    HW122277   0.974   1.477   2.497 -0.4299  0.7054  1.0921
 3548SOL    HW222278   0.834   1.518   2.445  0.3073  0.2875  0.2272
 3549SOL     OW22279   4.324   2.137  11.376  0.1042  0.5064  0.1467
 3549SOL    HW122280   4.289   2.161  11.462 -0.5701 -2.7363  0.7784
 3549SOL    HW222281   4.351   2.045  11.378 -0.8588  0.2710  1.7221
 3550SOL     OW22282   3.231   2.957  15.770  0.5952 -0.0554 -0.2833
 3550SOL    HW122283   3.229   2.946  15.866  0.8975 -0.1886 -0.2915
 3550SOL    HW222284   3.150   3.005  15.756  0.2858 -0.2525  0.7653
 3551SOL     OW22285   1.960   0.129  15.956  0.0869 -0.6308 -0.1880
 3551SOL    HW122286   2.055   0.112  15.959  0.4821  1.9729  2.6376
 3551SOL    HW222287   1.926   0.071  16.025  0.0468  2.1263  2.1280
 3552SOL     OW22288   1.826   0.391  16.076 -0.5689 -0.2877 -0.2731
 3552SOL    HW122289   1.884   0.347  16.014 -1.0406  0.3632 -1.1882
 3552SOL    HW222290   1.823   0.484  16.051 -0.6405 -0.0933  0.4647
 3553SOL     OW22291   0.527   4.222  13.018 -0.1228  0.4599 -0.4859
 3553SOL    HW122292   0.569   4.270  12.946  0.4064 -0.1236 -0.5654
 3553SOL    HW222293   0.449   4.276  13.023  0.7057  1.6749 -0.7366
 3554SOL     OW22294   4.671   0.083   3.883 -0.5593 -0.3185 -0.3506
 3554SOL    HW122295   4.718   0.166   3.890  2.1020 -1.4801 -4.2994
 3554SOL    HW222296   4.714   0.051   3.804 -2.3874 -0.7296 -1.1999
 3555SOL     OW22297   2.919   1.298  13.519  0.4899  0.2468  0.4336
 3555SOL    HW122298   2.924   1.217  13.469  0.5522 -1.1005  2.6403
 3555SOL    HW222299   2.988   1.276  13.582  0.6845  0.4979  0.3086
 3556SOL     OW22300   2.151   2.577   6.918 -1.0983 -0.4574  0.2755
 3556SOL    HW122301   2.106   2.628   6.850  1.4568  1.0380 -0.2795
 3556SOL    HW222302   2.130   2.630   6.995 -2.9257 -3.7895  2.0814
 3557SOL     OW22303   2.982   3.858   2.992  0.2173 -0.4588  0.3360
 3557SOL    HW122304   2.906   3.804   2.974  1.6688 -2.0709 -1.0031
 3557SOL    HW222305   3.044   3.788   3.015 -0.7972 -0.6431  2.5180
 3558SOL     OW22306   2.001   3.892   0.506  0.1035 -0.1755 -0.6394
 3558SOL    HW122307   1.909   3.912   0.525  0.5434  0.4572  0.8694
 3558SOL    HW222308   2.015   3.822   0.570 -2.8072 -0.6838 -0.5903
 3559SOL     OW22309   3.528   3.552   2.861 -0.4922 -0.0361  0.4816
 3559SOL    HW122310   3.596   3.560   2.928 -0.5707 -0.8430  0.6539
 3559SOL    HW222311   3.556   3.472   2.817 -0.4163 -0.7093  1.7594
 3560SOL     OW22312   0.910   3.037  17.195 -0.2069  0.5191 -0.0658
 3560SOL    HW122313   0.981   3.032  17.131 -0.7988  1.4546 -0.7853
 3560SOL    HW222314   0.831   3.049  17.142 -0.1916 -0.0518 -0.2193
 3561SOL     OW22315   1.521   4.284  16.707 -0.2373 -0.8746 -0.5901
 3561SOL    HW122316   1.426   4.283  16.695 -0.2655  1.0201 -0.5867
 3561SOL    HW222317   1.538   4.251  16.795 -1.5049  2.7234  1.0224
 3562SOL     OW22318   4.104   2.682   0.297  0.7432 -0.2913  0.1700
 3562SOL    HW122319   4.164   2.621   0.340  2.3950  0.6992 -0.7155
 3562SOL    HW222320   4.040   2.615   0.273 -0.5932  1.2649 -0.6119
 3563SOL     OW22321   1.024   1.916  14.237 -0.3991  0.2409 -0.3528
 3563SOL    HW122322   0.982   1.906  14.322 -0.5422  1.3116 -0.2966
 3563SOL    HW222323   1.103   1.863  14.248  0.5121  1.8083  0.6124
 3564SOL     OW22324   1.726   4.372  12.079 -0.0639 -0.1288 -0.0369
 3564SOL    HW122325   1.719   4.376  11.984  0.7021 -0.1936 -0.0925
 3564SOL    HW222326   1.662   4.438  12.105  0.9602 -0.4073  3.1916
 3565SOL     OW22327   1.406   2.017   8.968 -0.5819 -0.0720 -0.0307
 3565SOL    HW122328   1.435   2.096   9.014 -1.5442  0.0213  0.4223
 3565SOL    HW222329   1.490   1.973   8.960  0.4162  1.6771  0.6860
 3566SOL     OW22330   4.157   0.872  17.636  0.0244  0.5419  0.4072
 3566SOL    HW122331   4.198   0.820  17.705  0.1694 -2.8763 -2.2825
 3566SOL    HW222332   4.069   0.885  17.671 -0.0811  0.2161  0.2573
 3567SOL     OW22333   2.946   1.047   3.363 -0.0327 -0.3332  0.6052
 3567SOL    HW122334   2.932   0.955   3.340  2.3150 -0.2033 -1.3790
 3567SOL    HW222335   3.038   1.052   3.336 -0.0509 -1.1442  0.4021
 3568SOL     OW22336   1.628   0.948   2.542 -0.3390 -1.0298  0.4187
 3568SOL    HW122337   1.641   1.035   2.506  0.2867 -0.8495  1.0874
 3568SOL    HW222338   1.692   0.957   2.612  0.5130  1.6448 -0.7082
 3569SOL     OW22339   3.235   3.595   6.085 -0.2375 -0.1161 -0.2370
 3569SOL    HW122340   3.324   3.582   6.117 -0.3627  1.0137  0.5818
 3569SOL    HW222341   3.186   3.582   6.166 -0.2793  1.8005  0.0605
 3570SOL     OW22342   1.975   2.858   4.307  0.4692  0.8376 -0.0125
 3570SOL    HW122343   1.924   2.784   4.275 -0.3749  1.3719  0.0870
 3570SOL    HW222344   2.038   2.810   4.361 -1.5756 -2.3776 -0.4858
 3571SOL     OW22345   2.282   1.347   6.330 -0.4128  0.2907 -0.0248
 3571SOL    HW122346   2.261   1.376   6.242 -0.2878 -0.8894 -0.4408
 3571SOL    HW222347   2.274   1.252   6.323  0.0337  0.3408 -1.2992
 3572SOL     OW22348   3.037   0.896  17.147 -0.2746 -0.0288  0.1893
 3572SOL    HW122349   2.965   0.838  17.174 -0.9515  0.2924 -0.9184
 3572SOL    HW222350   2.993   0.980  17.154 -1.1366 -0.3920 -0.9618
 3573SOL     OW22351   1.134   0.928   4.482  0.6913  0.3926  0.1512
 3573SOL    HW122352   1.226   0.912   4.460  0.7488  0.6260  0.2256
 3573SOL    HW222353   1.124   1.014   4.441 -0.7394  1.5046  2.8623
 3574SOL     OW22354   3.255   4.218  10.959  0.5154 -0.0401 -0.1866
 3574SOL    HW122355   3.209   4.270  10.893  2.9126  0.6615 -1.2888
 3574SOL    HW222356   3.183   4.223  11.022  2.7709  1.9195  2.2672
 3575SOL     OW22357   4.327   0.352   8.223  0.9620  0.1906 -0.0691
 3575SOL    HW122358   4.406   0.349   8.170  1.7535 -1.1570  1.1785
 3575SOL    HW222359   4.338   0.436   8.268  1.4620  0.4518 -0.6779
 3576SOL     OW22360   0.308   4.425   5.335  0.2563 -0.0733  0.5835
 3576SOL    HW122361   0.251   4.499   5.359  0.9529  0.3318  0.9661
 3576SOL    HW222362   0.395   4.459   5.356  0.2734 -0.2713  0.8233
 3577SOL     OW22363   0.010   2.967   3.347 -0.1617  0.2409 -0.2494
 3577SOL    HW122364   0.046   3.002   3.265  2.2780 -1.7164 -0.0231
 3577SOL    HW222365   0.087   2.976   3.404 -0.2635 -1.4982  0.1537
 3578SOL     OW22366   1.814   1.715  10.439  0.2156 -0.3045  0.6109
 3578SOL    HW122367   1.897   1.668  10.448  1.7813  2.5280  0.8819
 3578SOL    HW222368   1.846   1.805  10.435  0.8578 -0.6278 -1.9248
 3579SOL     OW22369   1.627   4.327   4.631 -0.7209 -0.4018  0.4035
 3579SOL    HW122370   1.648   4.412   4.671 -2.5229 -0.5433  1.6422
 3579SOL    HW222371   1.697   4.278   4.676 -0.0100 -1.3382 -1.7394
 3580SOL     OW22372   0.164   1.004  16.210  0.4951 -0.1625 -0.2548
 3580SOL    HW122373   0.176   0.938  16.278  0.0156  1.0921  1.0566
 3580SOL    HW222374   0.183   0.962  16.126  1.3731 -3.9005  1.7984
 3581SOL     OW22375   0.304   2.156   6.907 -0.5627 -0.1838  0.4422
 3581SOL    HW122376   0.232   2.219   6.903  0.3416  0.7890 -0.3762
 3581SOL    HW222377   0.370   2.195   6.849  0.7091 -0.6563  1.5671
 3582SOL     OW22378   0.859   1.672   7.126  0.3628  0.2149  0.2526
 3582SOL    HW122379   0.927   1.652   7.062 -0.8446  2.5413 -1.7626
 3582SOL    HW222380   0.844   1.583   7.157 -1.8204 -0.8735 -3.9243
 3583SOL     OW22381   0.453   1.452   7.365  0.6291 -0.0310  0.5165
 3583SOL    HW122382   0.495   1.367   7.353  1.4402  0.1495  2.1443
 3583SOL    HW222383   0.448   1.461   7.460 -1.1984  2.6144  0.1588
 3584SOL     OW22384   3.002   2.806   4.388 -0.3486  0.0932 -0.3537
 3584SOL    HW122385   3.068   2.786   4.322  0.5409 -1.2487  0.9512
 3584SOL    HW222386   2.927   2.800   4.328 -0.6143 -1.7567  0.1718
 3585SOL     OW22387   1.000   0.181   5.371  0.3729  0.1192  0.5356
 3585SOL    HW122388   1.060   0.215   5.438  0.6082 -1.8601  1.3115
 3585SOL    HW222389   1.011   0.255   5.312 -0.8203 -0.7532 -0.7691
 3586SOL     OW22390   0.188   0.863   2.898 -0.3398  0.2746 -0.3087
 3586SOL    HW122391   0.176   0.807   2.975  0.9113  0.0048 -0.3165
 3586SOL    HW222392   0.172   0.803   2.825  0.3363 -0.5929  0.2619
 3587SOL     OW22393   1.475   3.359   2.632  0.4069 -0.1791  0.3522
 3587SOL    HW122394   1.389   3.338   2.668 -0.0860 -0.5385 -1.0058
 3587SOL    HW222395   1.525   3.378   2.711  0.0525  1.0679  0.2697
 3588SOL     OW22396   1.580   0.198   2.106 -0.5266 -0.2849 -0.4374
 3588SOL    HW122397   1.623   0.144   2.173  0.9828  2.6917  0.9911
 3588SOL    HW222398   1.490   0.176   2.131 -0.7831  0.9456 -0.2867
 3589SOL     OW22399   1.361   1.099   3.913  0.6741 -0.4686 -0.3982
 3589SOL    HW122400   1.335   1.170   3.971  0.8121  0.3704 -1.3641
 3589SOL    HW222401   1.401   1.038   3.975 -2.3298 -1.6803  0.3367
 3590SOL     OW22402   1.698   2.796   6.040 -0.0516  0.1132  0.5610
 3590SOL    HW122403   1.669   2.774   6.129 -0.6327  3.4441  1.2052
 3590SOL    HW222404   1.790   2.786   6.063  0.1680  0.7996 -0.0280
 3591SOL     OW22405   3.155   3.169   5.729  0.3859 -0.3621 -0.8767
 3591SOL    HW122406   3.154   3.260   5.760  3.4313 -0.8875  0.8224
 3591SOL    HW222407   3.082   3.165   5.668  0.7411  2.8883 -1.5438
 3592SOL     OW22408   3.952   0.371   2.033 -0.6488  0.0182  0.3088
 3592SOL    HW122409   4.002   0.416   1.965 -0.8095 -1.6053 -0.8876
 3592SOL    HW222410   3.991   0.416   2.108 -1.0916  1.1827 -0.1539
 3593SOL     OW22411   2.973   3.272   3.903  0.4187 -0.3442  0.3817
 3593SOL    HW122412   3.040   3.215   3.866  1.5575  0.7718  0.7286
 3593SOL    HW222413   2.892   3.226   3.882  0.9193 -0.6981 -0.8014
 3594SOL     OW22414   3.931   3.252   4.696 -0.4867  0.6482 -0.2618
 3594SOL    HW122415   3.874   3.315   4.651  0.1621  0.2685 -1.6005
 3594SOL    HW222416   3.999   3.313   4.726 -0.6415  0.8683 -0.3509
 3595SOL     OW22417   0.621   3.524   5.273  0.3303  0.1533 -0.3354
 3595SOL    HW122418   0.644   3.494   5.361 -1.0899 -0.3710 -0.1379
 3595SOL    HW222419   0.710   3.530   5.237  0.5622  0.5958  0.3002
 3596SOL     OW22420   1.357   4.175   8.369 -0.0919  0.0576  0.1264
 3596SOL    HW122421   1.426   4.188   8.434 -2.8255 -0.3835  3.0927
 3596SOL    HW222422   1.290   4.152   8.433 -0.4477 -1.1932 -0.7000
 3597SOL     OW22423   4.427   3.919   3.456  0.0136 -0.9593 -0.2641
 3597SOL    HW122424   4.443   3.846   3.396  0.2151  0.1579 -1.5571
 3597SOL    HW222425   4.332   3.930   3.447  0.2776 -0.2782 -2.1679
 3598SOL     OW22426   1.943   2.023   8.610 -0.7998 -0.0665  0.3477
 3598SOL    HW122427   1.916   2.083   8.680  0.0676  0.0867  0.5502
 3598SOL    HW222428   2.001   1.971   8.666  0.0627  0.9686  0.4300
 3599SOL     OW22429   0.909   0.153   3.207 -0.3372  0.0824  0.1639
 3599SOL    HW122430   0.843   0.113   3.151  0.0456  1.4751 -1.2498
 3599SOL    HW222431   0.981   0.163   3.146 -1.6550  2.1139 -1.0485
 3600SOL     OW22432   2.276   2.981   4.646  0.3281 -0.2524 -0.7634
 3600SOL    HW122433   2.371   2.991   4.649  0.0781  2.5269 -2.6297
 3600SOL    HW222434   2.243   3.057   4.599  0.8468  0.3877 -0.1029
 3601SOL     OW22435   3.151   0.189   6.646  0.3763  0.2782  0.3957
 3601SOL    HW122436   3.163   0.283   6.639 -1.4755  0.2855 -2.6863
 3601SOL    HW222437   3.072   0.173   6.699  0.9777 -3.0864  0.2859
 3602SOL     OW22438   4.262   2.066  14.676 -0.0278 -0.2020  0.2344
 3602SOL    HW122439   4.322   1.992  14.683  0.3434  0.0952  0.1957
 3602SOL    HW222440   4.231   2.078  14.586  1.7150 -0.4915 -0.4058
 3603SOL     OW22441   3.672   4.012   4.229  0.5771  0.3033 -0.2390
 3603SOL    HW122442   3.720   4.069   4.289  1.3726  0.1503 -0.7439
 3603SOL    HW222443   3.747   3.981   4.179 -1.0615  0.6113 -2.8361
 3604SOL     OW22444   2.929   0.908   8.722  0.3275  0.1484 -0.1499
 3604SOL    HW122445   2.981   0.832   8.750  0.2077  0.5949  1.2616
 3604SOL    HW222446   2.850   0.863   8.694 -0.1928  1.2669 -0.4751
 3605SOL     OW22447   3.165   2.911   2.067 -0.5965  0.3123 -0.3176
 3605SOL    HW122448   3.178   2.848   1.996  1.5365 -0.0625  0.4384
 3605SOL    HW222449   3.195   2.985   2.015  0.3826 -0.2253 -0.5084
 3606SOL     OW22450   2.357   2.813  13.105  0.0503 -0.6150 -0.0352
 3606SOL    HW122451   2.387   2.735  13.059 -2.0171  0.5726 -3.4044
 3606SOL    HW222452   2.423   2.878  13.082 -2.6275  2.7899  1.8477
 3607SOL     OW22453   2.871   3.203  13.231 -0.1907  1.0454 -0.1898
 3607SOL    HW122454   2.924   3.165  13.301 -1.1519  0.2319  0.1008
 3607SOL    HW222455   2.824   3.134  13.184 -0.8407  1.0078  0.5196
 3608SOL     OW22456   0.629   3.049   7.726  0.5339  0.5953 -0.1862
 3608SOL    HW122457   0.630   2.976   7.663 -0.1132 -0.9222  1.5591
 3608SOL    HW222458   0.535   3.069   7.724  0.0670 -1.6907 -1.3087
 3609SOL     OW22459   1.021   0.471   2.712  0.2328 -0.2395 -0.0714
 3609SOL    HW122460   0.998   0.559   2.743  2.3758 -0.7390  3.0041
 3609SOL    HW222461   0.952   0.422   2.758 -0.7759  1.0876 -0.1710
 3610SOL     OW22462   0.268   0.901  15.454 -0.0802  0.3274 -0.7187
 3610SOL    HW122463   0.253   0.807  15.443  0.4384 -0.0815  2.0741
 3610SOL    HW222464   0.238   0.930  15.368  0.3473  0.4961 -0.8123
 3611SOL     OW22465   2.551   1.973   4.443 -0.3607  0.2747 -0.4629
 3611SOL    HW122466   2.611   2.048   4.450  1.0947 -1.1917  2.8019
 3611SOL    HW222467   2.475   2.010   4.487 -2.4618  0.6142 -4.3644
 3612SOL     OW22468   3.343   1.994   1.317 -0.0776  0.4175 -0.0375
 3612SOL    HW122469   3.394   2.006   1.397 -0.1246  0.4051 -0.0058
 3612SOL    HW222470   3.374   2.057   1.252  0.1646 -1.1826 -1.4739
 3613SOL     OW22471   1.712   4.593   4.754 -0.1585 -0.1381 -0.4043
 3613SOL    HW122472   1.690   4.659   4.688  0.2949  0.5053  0.0899
 3613SOL    HW222473   1.780   4.643   4.798  1.2608 -3.0111  0.6451
 3614SOL     OW22474   2.427   0.019   8.736  0.2711  0.4559  0.2019
 3614SOL    HW122475   2.521   0.034   8.743  0.7071 -2.6922  1.0468
 3614SOL    HW222476   2.429   4.701   8.656 -1.4208  1.5460 -0.5721
 3615SOL     OW22477   1.658   3.992   2.350 -0.3072  0.4982  0.3674
 3615SOL    HW122478   1.582   3.938   2.368 -0.5275  0.6464 -0.1299
 3615SOL    HW222479   1.660   4.073   2.401  1.3091  1.3599 -1.0466
 3616SOL     OW22480   4.490   1.809   8.441 -0.3616 -0.3239  0.0348
 3616SOL    HW122481   4.540   1.770   8.514 -1.1732 -0.0461  0.7391
 3616SOL    HW222482   4.551   1.877   8.412 -0.3268 -0.2140  0.3585
 3617SOL     OW22483   2.702   2.032  16.809  0.6845 -1.2175 -0.1335
 3617SOL    HW122484   2.689   2.113  16.858  0.2364 -1.3845  0.0275
 3617SOL    HW222485   2.794   2.017  16.832  0.8670  1.9459  1.1964
 3618SOL     OW22486   1.103   3.610   2.770  0.6757 -0.2112  0.3707
 3618SOL    HW122487   1.010   3.623   2.751  0.5905 -2.3752 -0.7268
 3618SOL    HW222488   1.134   3.661   2.695 -1.3588  0.2645 -0.1617
 3619SOL     OW22489   2.526   4.453  13.655 -1.0506  0.3182 -0.3570
 3619SOL    HW122490   2.549   4.546  13.650 -1.1387  0.3691  0.2199
 3619SOL    HW222491   2.537   4.426  13.564 -0.0519 -1.2880  0.2306
 3620SOL     OW22492   4.166   0.156   4.631  0.0786  0.4408  0.2301
 3620SOL    HW122493   4.085   0.152   4.581 -0.2948 -1.5071  1.0027
 3620SOL    HW222494   4.225   0.099   4.582  1.2912  2.7872 -1.0158
 3621SOL     OW22495   4.334   2.608   8.172  0.1078 -0.0845  0.3009
 3621SOL    HW122496   4.329   2.569   8.260 -1.7748  1.0333  0.6932
 3621SOL    HW222497   4.429   2.595   8.162  0.2434  0.3114  1.0509
 3622SOL     OW22498   0.750   4.018   7.781  0.2994  0.5060  0.4036
 3622SOL    HW122499   0.761   4.113   7.771  2.0550  0.5209  2.4327
 3622SOL    HW222500   0.660   4.010   7.811  0.2899  0.9813  0.5011
 3623SOL     OW22501   1.355   3.614  10.077 -0.0658  0.0583  0.0628
 3623SOL    HW122502   1.330   3.650   9.992 -0.0657 -0.4794 -0.1687
 3623SOL    HW222503   1.329   3.523  10.061 -1.7768  0.2485  1.7619
 3624SOL     OW22504   2.543   2.146  15.472  0.1746 -0.5650  0.2299
 3624SOL    HW122505   2.527   2.082  15.403  1.9414 -1.3595  0.5578
 3624SOL    HW222506   2.635   2.167  15.455 -0.0866 -0.8179 -1.4659
 3625SOL     OW22507   4.365   0.565   4.949 -0.1565 -0.4732  0.2091
 3625SOL    HW122508   4.299   0.634   4.953  0.3407  0.0135 -0.0318
 3625SOL    HW222509   4.295   0.501   4.935 -0.5018  0.0972 -0.6891
 3626SOL     OW22510   3.450   0.746   8.323  0.1345 -0.1521  0.2920
 3626SOL    HW122511   3.534   0.719   8.360  1.4699  2.9967 -0.4157
 3626SOL    HW222512   3.421   0.655   8.311 -0.2928  0.0442 -0.2144
 3627SOL     OW22513   2.809   4.234   6.216 -0.3683  0.6098 -0.0529
 3627SOL    HW122514   2.869   4.167   6.247 -0.4894  0.9954  1.0027
 3627SOL    HW222515   2.757   4.187   6.151  1.1163  0.8792 -1.4278
 3628SOL     OW22516   1.289   2.749   5.011 -0.1805  0.1697 -0.0495
 3628SOL    HW122517   1.227   2.821   4.999  0.2257  0.3405 -1.1237
 3628SOL    HW222518   1.318   2.771   5.099 -0.7164 -1.1288  0.4465
 3629SOL     OW22519   1.008   0.018   7.853  0.2044  0.1383  0.3024
 3629SOL    HW122520   0.953   4.706   7.916  2.6008 -0.6366  1.8298
 3629SOL    HW222521   0.996   4.704   7.772  0.5648  0.5627 -0.0086
 3630SOL     OW22522   0.063   0.753   9.226 -0.4612  0.0748  0.3005
 3630SOL    HW122523   0.045   0.664   9.256 -1.0286 -0.5643 -1.9355
 3630SOL    HW222524   0.036   0.812   9.297 -0.6231  0.1467  0.1798
 3631SOL     OW22525   2.234   0.058  13.084  0.1489 -0.2644  0.0440
 3631SOL    HW122526   2.291   4.729  13.127 -0.7337 -0.3180  1.1278
 3631SOL    HW222527   2.290   0.114  13.031  2.2234 -1.3152  1.1031
 3632SOL     OW22528   1.823   3.491   6.637 -0.6346 -0.6513 -0.5066
 3632SOL    HW122529   1.860   3.410   6.603  0.8053 -1.0446  1.9953
 3632SOL    HW222530   1.862   3.554   6.576  1.7047 -0.1276  1.5178
 3633SOL     OW22531   1.827   2.167   7.813  0.2938 -0.0817  0.6240
 3633SOL    HW122532   1.764   2.101   7.785  1.5946 -0.7703 -0.6298
 3633SOL    HW222533   1.821   2.153   7.908 -0.7519  2.2359  0.9114
 3634SOL     OW22534   0.662   1.857   0.553 -0.4716 -0.7408 -0.0650
 3634SOL    HW122535   0.751   1.835   0.525 -0.1881  0.8704 -0.4439
 3634SOL    HW222536   0.624   1.904   0.478 -0.0046  2.1886  1.5320
 3635SOL     OW22537   3.437   4.481   8.682  0.1811  0.3376 -0.4457
 3635SOL    HW122538   3.346   4.504   8.700  0.3757  0.2282  0.6398
 3635SOL    HW222539   3.492   4.494   8.759 -1.1376 -0.2335  0.5902
 3636SOL     OW22540   1.187   0.781   1.506  0.0535  0.0026 -0.3335
 3636SOL    HW122541   1.112   0.785   1.447 -0.1192 -0.8207 -0.1584
 3636SOL    HW222542   1.195   0.690   1.531  0.5124  0.2158  0.3057
 3637SOL     OW22543   1.327   4.282  11.567 -0.0302 -0.3181  0.2433
 3637SOL    HW122544   1.245   4.234  11.562 -0.1621 -0.2117  1.3827
 3637SOL    HW222545   1.318   4.325  11.652 -1.8045  0.1373 -0.1888
 3638SOL     OW22546   3.754   2.277   2.541  0.5771  0.6921  0.0995
 3638SOL    HW122547   3.835   2.287   2.591 -0.3771  2.5097  1.2857
 3638SOL    HW222548   3.711   2.362   2.552 -0.7144 -0.1155  1.3491
 3639SOL     OW22549   1.930   2.298  13.044 -0.2937  0.6219  0.0876
 3639SOL    HW122550   1.954   2.254  13.126 -1.0379  1.1296  0.5718
 3639SOL    HW222551   1.945   2.225  12.983  2.9224  0.8857  0.5691
 3640SOL     OW22552   3.891   1.032   4.014  0.8436  0.1288 -0.2523
 3640SOL    HW122553   3.931   1.082   4.085  0.8432 -1.8942  1.1910
 3640SOL    HW222554   3.798   1.053   4.017  0.9538  0.6456 -0.4667
 3641SOL     OW22555   0.795   1.047   7.601  0.5134 -0.1287  0.0877
 3641SOL    HW122556   0.780   1.132   7.641 -0.7151 -1.3190  2.1499
 3641SOL    HW222557   0.852   1.001   7.663 -1.3328 -3.0371 -0.3670
 3642SOL     OW22558   4.171   0.001   6.453 -0.1794 -0.0970  0.0466
 3642SOL    HW122559   4.146   0.072   6.511 -0.5160 -0.0662 -0.1354
 3642SOL    HW222560   4.089   4.687   6.447  0.1388 -0.5566 -0.6173
 3643SOL     OW22561   3.513   0.075   3.477  0.0052 -0.3730  0.0108
 3643SOL    HW122562   3.543   4.731   3.522  0.9356 -1.3884 -2.3786
 3643SOL    HW222563   3.592   0.128   3.472 -0.1081 -0.0776  1.5274
 3644SOL     OW22564   0.431   4.492  12.831 -0.9089  0.0275  0.5101
 3644SOL    HW122565   0.391   4.462  12.913  0.2253 -2.6991  0.0473
 3644SOL    HW222566   0.380   4.440  12.769  0.8105 -2.1461  0.9099
 3645SOL     OW22567   0.501   3.099  12.912  0.2558  1.2645  0.5146
 3645SOL    HW122568   0.411   3.107  12.881  0.5537 -1.9685 -1.2922
 3645SOL    HW222569   0.545   3.103  12.826 -2.5045 -1.0127 -1.0105
 3646SOL     OW22570   4.242   4.508   2.467 -0.1520  0.5584  0.3062
 3646SOL    HW122571   4.165   4.485   2.519 -1.2637  0.3799 -1.4361
 3646SOL    HW222572   4.312   4.460   2.512  0.2366  0.3919 -0.4756
 3647SOL     OW22573   2.417   4.591   3.982  0.1531  0.1478 -0.1157
 3647SOL    HW122574   2.410   4.573   3.888  3.5815 -2.6500  0.1560
 3647SOL    HW222575   2.464   4.517   4.021  1.3844  0.7273 -0.5064
 3648SOL     OW22576   1.221   1.523   4.830 -0.5701 -0.2148  0.2340
 3648SOL    HW122577   1.301   1.471   4.827  1.5219  2.9394  1.4613
 3648SOL    HW222578   1.178   1.494   4.910 -2.2629  1.9241  0.1175
 3649SOL     OW22579   1.883   3.436   7.646 -0.5396  0.0734  0.2493
 3649SOL    HW122580   1.890   3.376   7.720 -0.2984  0.9354  0.9318
 3649SOL    HW222581   1.954   3.409   7.588 -1.8186 -0.5186 -1.0434
 3650SOL     OW22582   0.289   4.549   3.788 -0.0702  0.3250  0.2489
 3650SOL    HW122583   0.279   4.478   3.851 -0.7135 -2.3439 -2.8924
 3650SOL    HW222584   0.384   4.547   3.777 -0.2531  1.8961 -1.6230
 3651SOL     OW22585   2.153   0.755   1.965  0.2356 -0.0807 -0.1813
 3651SOL    HW122586   2.065   0.728   1.989  0.8663 -1.3769  0.6588
 3651SOL    HW222587   2.180   0.800   2.045  1.1418  0.4258 -0.7703
 3652SOL     OW22588   0.618   2.294   8.686 -0.0889  0.0103 -0.8187
 3652SOL    HW122589   0.595   2.204   8.665 -3.4636  0.8333 -0.6891
 3652SOL    HW222590   0.647   2.282   8.776 -0.2873 -0.2001 -0.7837
 3653SOL     OW22591   2.349   0.760   7.672  0.2356  0.1835 -0.1088
 3653SOL    HW122592   2.435   0.791   7.702  0.7237 -1.3387  0.0887
 3653SOL    HW222593   2.321   0.722   7.756  1.0859 -2.2619 -0.9209
 3654SOL     OW22594   3.142   4.646   8.153  0.3686  0.0364  0.1416
 3654SOL    HW122595   3.048   4.645   8.134  0.1333 -2.5166  1.2960
 3654SOL    HW222596   3.182   4.586   8.090 -0.3722 -0.7294  0.3993
 3655SOL     OW22597   2.858   1.066   1.305 -0.5964 -0.4800 -0.4285
 3655SOL    HW122598   2.922   0.996   1.288 -0.5119  0.2877 -3.2449
 3655SOL    HW222599   2.860   1.110   1.220  3.6205  1.3905  0.6640
 3656SOL     OW22600   1.389   1.929   6.559 -0.1702  0.8404 -0.1825
 3656SOL    HW122601   1.388   1.862   6.491 -1.0680 -0.3243  0.9744
 3656SOL    HW222602   1.481   1.955   6.558  0.1892 -0.3505  1.1289
 3657SOL     OW22603   2.882   1.134   5.059  0.0980 -0.4129 -0.0870
 3657SOL    HW122604   2.835   1.054   5.082  0.5585 -0.4325  0.7862
 3657SOL    HW222605   2.958   1.088   5.025  0.5496  0.0043  0.3463
 3658SOL     OW22606   3.268   1.581   5.291 -0.2386  0.5510  0.1735
 3658SOL    HW122607   3.180   1.596   5.326 -0.9508 -1.7853 -0.6627
 3658SOL    HW222608   3.321   1.637   5.348 -1.3942  0.6103  1.1961
 3659SOL     OW22609   0.829   1.330   6.895 -0.7172 -0.1674  0.6884
 3659SOL    HW122610   0.876   1.397   6.846 -1.2718 -1.4649 -1.5854
 3659SOL    HW222611   0.749   1.374   6.926 -0.4056 -1.0095  2.6478
 3660SOL     OW22612   0.609   1.212   1.372 -0.2369 -0.1687  0.5462
 3660SOL    HW122613   0.657   1.295   1.363  0.3113 -0.4443  0.9831
 3660SOL    HW222614   0.526   1.248   1.341  0.1801  0.4631  0.1596
 3661SOL     OW22615   3.640   1.108   3.468  0.5528  0.1112  0.2312
 3661SOL    HW122616   3.583   1.086   3.394  0.5351  2.8843 -0.5722
 3661SOL    HW222617   3.677   1.190   3.435 -0.1896  0.2075 -0.3585
 3662SOL     OW22618   1.287   1.806   7.551 -0.5660 -0.0560 -0.2298
 3662SOL    HW122619   1.341   1.748   7.604  0.4088  1.1779  0.1385
 3662SOL    HW222620   1.316   1.891   7.585 -2.1303  0.5291 -0.3451
 3663SOL     OW22621   1.472   2.750   9.159 -0.0428  0.1220 -0.1379
 3663SOL    HW122622   1.394   2.767   9.212 -0.2387  0.1585 -0.4430
 3663SOL    HW222623   1.438   2.777   9.074 -0.6586  0.7149  0.3022
 3664SOL     OW22624   1.005   4.562   9.514 -0.1628  0.0441 -0.1520
 3664SOL    HW122625   0.948   4.493   9.480  0.9629  0.4856 -2.8760
 3664SOL    HW222626   0.993   4.638   9.456 -0.3107 -0.1228 -0.3390
 3665SOL     OW22627   3.194   2.286   8.081 -0.5458  0.5862  0.1256
 3665SOL    HW122628   3.270   2.238   8.047  0.1933  1.7199  0.1883
 3665SOL    HW222629   3.204   2.271   8.175  2.5139 -0.5750 -0.3856
 3666SOL     OW22630   3.547   0.248   7.072 -0.4429  0.3218 -0.1838
 3666SOL    HW122631   3.524   0.158   7.094 -0.9153  0.6729  0.7715
 3666SOL    HW222632   3.481   0.262   7.003  0.6340  0.7717 -1.1213
 3667SOL     OW22633   2.604   2.072   2.124  0.1879 -0.1845  0.2598
 3667SOL    HW122634   2.575   2.083   2.215 -1.7659 -2.2042 -0.1196
 3667SOL    HW222635   2.698   2.074   2.145 -0.0834  0.6806  1.4307
 3668SOL     OW22636   1.413   0.270   6.160  0.1404 -0.2382  0.0071
 3668SOL    HW122637   1.380   0.195   6.110  0.2054 -0.2628  0.0006
 3668SOL    HW222638   1.481   0.236   6.218 -0.0708 -2.0185 -0.7836
 3669SOL     OW22639   4.702   1.962   5.315 -0.3520  0.1086  0.7128
 3669SOL    HW122640   4.719   1.920   5.231  0.0261 -0.2043  0.9475
 3669SOL    HW222641   0.005   1.910   5.385 -2.3815 -0.4796  1.3982
 3670SOL     OW22642   2.907   2.983   9.400 -0.2870  0.0561  0.1991
 3670SOL    HW122643   2.940   2.990   9.489  3.3607 -1.7280 -1.0009
 3670SOL    HW222644   2.864   3.069   9.403  0.2929  0.3092  1.0165
 3671SOL     OW22645   3.542   3.809  13.661  0.5043 -0.5852 -0.5883
 3671SOL    HW122646   3.593   3.846  13.732  1.0052 -0.3805 -1.0534
 3671SOL    HW222647   3.594   3.826  13.583 -0.2969  0.0881 -0.9854
 3672SOL     OW22648   0.244   1.816   2.631 -0.1544 -0.4263  0.0779
 3672SOL    HW122649   0.234   1.892   2.573  0.0889 -0.7268 -0.3574
 3672SOL    HW222650   0.260   1.747   2.566 -1.3601 -1.2615  0.6823
 3673SOL     OW22651   4.329   3.080   6.773 -0.2993 -0.1829 -0.4204
 3673SOL    HW122652   4.291   3.161   6.741  0.2504 -0.4133 -1.6618
 3673SOL    HW222653   4.380   3.116   6.846 -1.6232 -2.6605  1.7511
 3674SOL     OW22654   0.997   0.553   5.048 -0.4730  0.0329 -0.1591
 3674SOL    HW122655   0.998   0.564   5.143  1.1665 -1.2166 -0.0249
 3674SOL    HW222656   0.984   0.644   5.022 -0.2944  0.0673 -0.1223
 3675SOL     OW22657   4.177   2.352   4.689 -0.3084 -0.1002  0.3109
 3675SOL    HW122658   4.107   2.401   4.731 -0.0390 -0.6723  1.4212
 3675SOL    HW222659   4.150   2.260   4.692 -1.0080 -0.0047 -2.3808
 3676SOL     OW22660   4.435   4.439  15.204 -0.3863 -0.4672 -0.4832
 3676SOL    HW122661   4.488   4.516  15.220  0.1860 -1.3220  1.7018
 3676SOL    HW222662   4.384   4.438  15.285  0.0233  1.8920 -0.2052
 3677SOL     OW22663   3.807   2.438   0.475 -0.1363 -0.1656  0.0607
 3677SOL    HW122664   3.781   2.375   0.542 -2.2746  0.9029  0.2669
 3677SOL    HW222665   3.731   2.497   0.480 -2.3259 -2.7120 -2.5763
 3678SOL     OW22666   2.229   4.032   1.591 -0.0519  0.2419  0.0212
 3678SOL    HW122667   2.304   4.048   1.648  0.7419  0.4729 -1.1067
 3678SOL    HW222668   2.184   4.115   1.604  1.3110  1.0830 -0.7219
 3679SOL     OW22669   3.568   0.061   5.287 -1.1381 -0.4603  0.3314
 3679SOL    HW122670   3.493   0.121   5.289  0.8554  2.0013  1.2742
 3679SOL    HW222671   3.569   0.033   5.378 -1.5057 -2.5541 -0.3042
 3680SOL     OW22672   2.969   2.548  17.540  0.1965 -0.0099 -0.2101
 3680SOL    HW122673   3.048   2.575  17.493  0.3445  2.4300  1.4169
 3680SOL    HW222674   2.915   2.626  17.524 -1.0789 -0.9751 -0.5409
 3681SOL     OW22675   1.314   1.663   9.204  0.0597 -0.1910 -0.0326
 3681SOL    HW122676   1.224   1.649   9.173 -0.5452  1.6399  0.9061
 3681SOL    HW222677   1.340   1.575   9.233  0.0710  0.2317  1.2243
 3682SOL     OW22678   1.533   3.064   9.085  0.0661 -0.7153 -0.3418
 3682SOL    HW122679   1.578   3.013   9.152  1.8550 -1.0152 -1.7717
 3682SOL    HW222680   1.452   3.082   9.132 -0.1030  1.0544 -1.3002
 3683SOL     OW22681   1.102   2.999   2.668 -0.4177  0.7369 -0.1127
 3683SOL    HW122682   1.067   3.079   2.627 -0.0288  1.3790  0.8254
 3683SOL    HW222683   1.112   2.948   2.588 -1.1580 -0.1114  0.3425
 3684SOL     OW22684   0.844   4.275   6.819  0.2580 -0.3689  0.5719
 3684SOL    HW122685   0.915   4.248   6.761 -0.0191 -0.1234  0.1227
 3684SOL    HW222686   0.810   4.353   6.775  2.4780 -0.8541 -2.0352
 3685SOL     OW22687   3.294   3.958   8.754  0.1583  0.0734 -0.5049
 3685SOL    HW122688   3.270   4.050   8.740  0.6258 -0.3046 -3.7543
 3685SOL    HW222689   3.283   3.935   8.662 -3.0160  0.0917 -0.1314
 3686SOL     OW22690   3.979   3.073  17.432 -0.7146  0.0426 -0.1506
 3686SOL    HW122691   3.990   3.147  17.372  0.7397 -1.8253 -2.1901
 3686SOL    HW222692   4.019   3.000  17.384  0.0065  0.6745 -0.5196
 3687SOL     OW22693   3.643   0.610  11.295  0.2976 -0.1769 -0.0712
 3687SOL    HW122694   3.580   0.674  11.329  0.5687 -0.3193  0.7080
 3687SOL    HW222695   3.625   0.622  11.202 -1.6569  0.3086  0.3671
 3688SOL     OW22696   2.297   4.604   5.732 -0.0971 -0.2483  0.1005
 3688SOL    HW122697   2.364   4.553   5.685 -0.4703 -0.1281 -0.5620
 3688SOL    HW222698   2.219   4.599   5.678 -0.2755 -1.2228  0.4521
 3689SOL     OW22699   2.267   2.349  11.071  0.2603  0.2078  0.0876
 3689SOL    HW122700   2.247   2.396  11.152  0.1637 -0.9377  0.7261
 3689SOL    HW222701   2.239   2.407  11.000 -1.4534 -0.6844  0.0241
 3690SOL     OW22702   1.089   0.857   6.429  0.2182  0.4464 -0.0717
 3690SOL    HW122703   1.175   0.816   6.428 -1.1641 -2.4781  1.9421
 3690SOL    HW222704   1.114   0.943   6.461  2.7422  0.2436 -1.5300
 3691SOL     OW22705   4.043   0.641  10.892 -0.0035  0.5051  0.1690
 3691SOL    HW122706   3.999   0.557  10.908 -2.0710  1.4972 -0.3633
 3691SOL    HW222707   4.004   0.689  10.965 -1.1259  1.0164 -0.7720
 3692SOL     OW22708   2.540   0.679   2.411 -0.7246  0.3933 -0.2682
 3692SOL    HW122709   2.474   0.612   2.393 -1.4220  1.0482 -0.2111
 3692SOL    HW222710   2.612   0.650   2.356  0.5067  0.1294  1.5054
 3693SOL     OW22711   3.273   0.198   7.879  0.7785  0.2854 -0.5402
 3693SOL    HW122712   3.212   0.146   7.827  0.6439  0.1002 -0.1966
 3693SOL    HW222713   3.246   0.285   7.850  0.0202  0.6267  1.1851
 3694SOL     OW22714   3.091   1.359   4.837  0.0120  0.2478  0.1487
 3694SOL    HW122715   3.161   1.294   4.841  1.6950  2.0289 -0.0656
 3694SOL    HW222716   3.049   1.319   4.760  0.0493 -0.1562  0.3388
 3695SOL     OW22717   1.542   1.345   3.139 -0.3159  0.0413 -0.2428
 3695SOL    HW122718   1.548   1.430   3.095 -0.4430  0.1304 -0.0876
 3695SOL    HW222719   1.450   1.324   3.122 -0.0216 -1.3708 -0.1233
 3696SOL     OW22720   2.846   4.466   1.693  0.5367  0.4152 -0.0426
 3696SOL    HW122721   2.796   4.524   1.751 -1.9617 -0.3399 -1.3978
 3696SOL    HW222722   2.781   4.470   1.622 -1.5116 -1.1884  1.7236
 3697SOL     OW22723   2.346   1.350   1.961  0.2955 -0.4843  0.1793
 3697SOL    HW122724   2.344   1.373   1.868  1.2378 -0.9599  0.0383
 3697SOL    HW222725   2.370   1.434   2.001  0.6004  0.4512 -1.9212
 3698SOL     OW22726   4.710   0.840   6.977  0.0361  0.5101  0.4542
 3698SOL    HW122727   4.732   0.798   7.060  0.1333 -1.9202 -0.7700
 3698SOL    HW222728   0.002   0.931   6.984  0.3376  0.5625 -1.4266
 3699SOL     OW22729   2.936   4.010  10.801  0.6658  0.4376  0.1582
 3699SOL    HW122730   2.955   3.983  10.890 -0.7586 -0.6086  0.1455
 3699SOL    HW222731   2.886   3.935  10.769 -0.2425  1.7271 -1.5127
 3700SOL     OW22732   0.464   2.567   1.500  0.1934  0.7527 -0.4027
 3700SOL    HW122733   0.475   2.553   1.594 -0.8139 -1.3226 -0.5783
 3700SOL    HW222734   0.371   2.584   1.485 -0.1046 -0.5910 -0.0594
 3701SOL     OW22735   4.100   3.396   2.377  0.3748  0.0523  0.3286
 3701SOL    HW122736   4.012   3.402   2.413 -0.9858 -3.4158 -2.4685
 3701SOL    HW222737   4.090   3.420   2.285  0.5504  1.1167  0.5827
 3702SOL     OW22738   4.272   3.051   7.662 -0.1666 -0.5768  0.2414
 3702SOL    HW122739   4.362   3.028   7.687  0.1322  3.0137  2.5035
 3702SOL    HW222740   4.213   2.984   7.695 -0.8047 -0.0182  0.2343
 3703SOL     OW22741   0.975   2.565   6.986 -0.2211  0.3386  0.0413
 3703SOL    HW122742   0.894   2.521   6.963  0.0605 -0.6945  1.0280
 3703SOL    HW222743   1.017   2.492   7.031 -0.0604 -0.3548 -1.2401
 3704SOL     OW22744   1.936   3.328   3.533  0.3478 -0.3418  0.4560
 3704SOL    HW122745   1.921   3.400   3.594 -2.0979  0.6207 -1.2731
 3704SOL    HW222746   2.003   3.284   3.586  1.2951  1.4996  0.7770
 3705SOL     OW22747   3.258   2.693   7.846 -0.2761 -0.2254 -0.2575
 3705SOL    HW122748   3.310   2.666   7.922 -1.0896 -0.4945  0.2028
 3705SOL    HW222749   3.183   2.633   7.855 -0.2252 -0.5280 -1.8797
 3706SOL     OW22750   1.507   3.922  16.360  0.2717  0.0208 -0.0155
 3706SOL    HW122751   1.498   3.979  16.283  3.7591 -1.0055 -1.1605
 3706SOL    HW222752   1.531   3.983  16.429  1.5726  0.9297 -1.2548
 3707SOL     OW22753   0.854   4.368   2.392 -0.2318 -0.0730 -0.1949
 3707SOL    HW122754   0.846   4.456   2.427  1.0967 -0.3838  0.8943
 3707SOL    HW222755   0.780   4.322   2.432  0.3236 -1.6946 -1.0407
 3708SOL     OW22756   0.545   0.349   5.254  0.4350  0.0731  0.4872
 3708SOL    HW122757   0.593   0.313   5.179  2.2010  0.0231  1.6346
 3708SOL    HW222758   0.485   0.278   5.275  0.4233  0.2548  1.0712
 3709SOL     OW22759   1.346   0.166   2.221  0.3043 -0.6247  0.2859
 3709SOL    HW122760   1.381   0.166   2.310  0.1746  0.2421  0.3337
 3709SOL    HW222761   1.255   0.180   2.246  0.3722 -0.9880  0.7396
 3710SOL     OW22762   0.221   2.899   5.196 -0.2183  0.4337  0.6154
 3710SOL    HW122763   0.199   2.806   5.184  2.7447 -0.0009 -1.6433
 3710SOL    HW222764   0.250   2.894   5.287  0.7015  0.3336  0.3177
 3711SOL     OW22765   2.222   1.295   8.845 -0.8038  0.7489  0.0049
 3711SOL    HW122766   2.223   1.201   8.829 -1.5184  1.0221 -1.6131
 3711SOL    HW222767   2.290   1.299   8.913 -1.5841 -3.2588  1.0410
 3712SOL     OW22768   4.625   2.545  13.257 -0.4021 -0.0608  0.0342
 3712SOL    HW122769   4.666   2.598  13.188 -1.2297 -0.9414 -1.1134
 3712SOL    HW222770   4.615   2.611  13.326 -0.1033 -0.4707  0.4635
 3713SOL     OW22771   2.958   3.809   9.988  0.0801  0.5363  0.1607
 3713SOL    HW122772   2.897   3.776  10.054 -0.3354  0.5146 -0.2403
 3713SOL    HW222773   2.963   3.900  10.019 -0.2294  0.0060  1.7539
 3714SOL     OW22774   0.383   1.332   5.071 -0.2817  0.0010  0.0579
 3714SOL    HW122775   0.399   1.359   5.162  0.7324  1.4112 -0.5286
 3714SOL    HW222776   0.318   1.396   5.042  0.4607 -0.1002 -1.8439
 3715SOL     OW22777   1.208   3.995   5.774 -0.3457 -0.1996 -0.0412
 3715SOL    HW122778   1.119   3.970   5.800 -0.2676 -0.5719 -0.1416
 3715SOL    HW222779   1.249   3.909   5.772  0.7899  0.3486 -0.3973
 3716SOL     OW22780   2.192   2.019   9.816 -0.1270  0.2024  0.2014
 3716SOL    HW122781   2.119   2.081   9.809 -0.2017  0.2124  1.0847
 3716SOL    HW222782   2.166   1.942   9.764  0.9093 -0.5604  0.8124
 3717SOL     OW22783   1.559   3.762   2.002 -0.1546  0.0246  0.2596
 3717SOL    HW122784   1.630   3.707   1.968 -0.2394  0.4951 -0.6973
 3717SOL    HW222785   1.484   3.704   1.990 -1.3244  1.1058  2.4140
 3718SOL     OW22786   2.878   2.290   5.284  0.1124 -0.4636 -0.5816
 3718SOL    HW122787   2.792   2.319   5.255  0.6793 -2.1073 -3.8417
 3718SOL    HW222788   2.857   2.201   5.312  0.4393  0.0448  1.2732
 3719SOL     OW22789   0.689   0.862   4.105 -0.3653  0.0705  0.0352
 3719SOL    HW122790   0.727   0.803   4.039 -0.7116 -0.2898  0.1613
 3719SOL    HW222791   0.640   0.923   4.050  0.5991  1.7955  1.1046
 3720SOL     OW22792   2.188   3.358  11.580 -0.6909  0.6319  0.1904
 3720SOL    HW122793   2.092   3.354  11.584 -0.6168  0.8645  2.5302
 3720SOL    HW222794   2.196   3.451  11.556 -0.0705  0.1390 -1.4419
 3721SOL     OW22795   3.625   2.316   3.867 -0.7519  0.1790 -0.1900
 3721SOL    HW122796   3.630   2.226   3.901 -0.1868 -0.9756 -3.2826
 3721SOL    HW222797   3.661   2.351   3.949 -1.6553  0.1740  0.2084
 3722SOL     OW22798   2.698   0.213  16.837 -0.1211  0.2197 -0.1552
 3722SOL    HW122799   2.747   0.257  16.907  1.3895 -0.7114 -0.6257
 3722SOL    HW222800   2.606   0.236  16.848 -0.0171 -0.7604  2.7212
 3723SOL     OW22801   1.852   4.614   8.576  0.8440 -0.3373  0.1968
 3723SOL    HW122802   1.913   4.649   8.642 -0.7415  0.4938  1.2127
 3723SOL    HW222803   1.767   4.651   8.598  1.0464  0.7341 -0.8348
 3724SOL     OW22804   1.723   2.661   7.188 -0.2493 -0.0878 -0.6584
 3724SOL    HW122805   1.684   2.597   7.248 -1.4120 -0.3910 -1.7386
 3724SOL    HW222806   1.696   2.735   7.243  2.0748  0.8215 -0.7624
 3725SOL     OW22807   1.024   1.877   4.565 -0.0023 -0.2853 -0.8587
 3725SOL    HW122808   1.019   1.803   4.625  1.3331  0.6626  0.4247
 3725SOL    HW222809   1.057   1.950   4.618 -0.9346  1.1331 -2.2399
 3726SOL     OW22810   1.576   4.727   2.810  0.1992  0.2457  0.1797
 3726SOL    HW122811   1.508   4.682   2.859  0.7034 -1.4537 -0.6857
 3726SOL    HW222812   1.631   0.030   2.878  2.1334  0.2860 -1.4207
 3727SOL     OW22813   4.194   3.606   4.023 -0.2561  0.0421  0.0003
 3727SOL    HW122814   4.171   3.688   3.979  0.1888 -0.1481 -0.6022
 3727SOL    HW222815   4.288   3.619   4.007 -0.0101 -1.0835  0.5140
 3728SOL     OW22816   0.644   2.617   9.957 -0.1099  0.2855 -0.2554
 3728SOL    HW122817   0.720   2.582   9.911  1.7629  1.1181  2.2216
 3728SOL    HW222818   0.664   2.710   9.965 -0.2839  0.1138  2.1476
 3729SOL     OW22819   0.803   3.566   3.887 -0.2989 -0.2206  1.0549
 3729SOL    HW122820   0.767   3.643   3.932 -0.3668 -0.8288  2.0353
 3729SOL    HW222821   0.737   3.561   3.818 -0.5774 -0.0743  1.3109
 3730SOL     OW22822   1.181   4.474   9.865 -0.1969  0.0277  0.4651
 3730SOL    HW122823   1.231   4.397   9.840 -0.9268  0.1271 -1.3254
 3730SOL    HW222824   1.166   4.446   9.955  0.2050  1.2483  0.9079
 3731SOL     OW22825   0.052   3.902   5.223  0.0636 -0.7416  0.3645
 3731SOL    HW122826   0.034   3.827   5.166 -1.7479  1.0558 -1.4298
 3731SOL    HW222827   0.123   3.874   5.281  0.5600  0.2134  0.2220
 3732SOL     OW22828   2.984   2.967   8.635  0.5489  0.0319 -0.1882
 3732SOL    HW122829   2.986   2.977   8.540 -1.1536  0.0505 -0.2216
 3732SOL    HW222830   3.064   2.916   8.650  0.1926  0.5408  3.4177
 3733SOL     OW22831   4.693   4.122   2.543  0.4542 -0.0570 -0.4002
 3733SOL    HW122832   4.676   4.200   2.597 -2.3473 -0.6892 -0.3611
 3733SOL    HW222833   4.605   4.088   2.524  0.3421  0.3241 -0.5615
 3734SOL     OW22834   3.454   3.347   1.616  0.2492 -0.4276  0.2708
 3734SOL    HW122835   3.404   3.401   1.555 -0.2339 -0.2939  0.7893
 3734SOL    HW222836   3.498   3.279   1.566 -1.0604 -1.2095  0.2064
 3735SOL     OW22837   4.625   1.286  14.680  0.3524  0.8840 -0.2268
 3735SOL    HW122838   4.706   1.333  14.700  0.9749  0.5160 -1.9124
 3735SOL    HW222839   4.580   1.370  14.672 -2.1201  0.1310  5.3699
 3736SOL     OW22840   0.009   2.617  11.540 -0.7279 -0.0633 -0.7238
 3736SOL    HW122841   4.709   2.690  11.489  0.1598  1.7979  1.3664
 3736SOL    HW222842   0.102   2.622  11.517 -0.5958  0.0439 -0.1597
 3737SOL     OW22843   2.623   0.883   9.446  0.1601 -0.4694 -0.6861
 3737SOL    HW122844   2.697   0.875   9.507  0.5136 -1.8750 -1.3072
 3737SOL    HW222845   2.659   0.946   9.383 -1.4341  1.2855  0.1552
 3738SOL     OW22846   2.251   3.835   4.549  0.1897 -0.2692 -0.6343
 3738SOL    HW122847   2.216   3.921   4.529  0.7297 -0.5473 -2.8339
 3738SOL    HW222848   2.193   3.782   4.495  0.2103 -0.7367 -0.2038
 3739SOL     OW22849   1.997   0.370   4.368 -0.3777 -0.2826  0.5247
 3739SOL    HW122850   1.918   0.329   4.333 -1.7109  1.8439  1.0581
 3739SOL    HW222851   2.032   0.415   4.291  0.8848 -1.8021  0.2027
 3740SOL     OW22852   0.115   3.951   7.743  0.0578 -0.3767  0.0718
 3740SOL    HW122853   0.209   3.932   7.743  0.3893  1.1978 -0.5253
 3740SOL    HW222854   0.114   4.042   7.773 -0.0302 -0.9783  1.9343
 3741SOL     OW22855   4.303   4.432   9.161  0.3894 -0.4586  0.0238
 3741SOL    HW122856   4.251   4.509   9.142  0.2694 -1.0931 -2.1746
 3741SOL    HW222857   4.240   4.383   9.213  0.2458  0.7133  0.9601
 3742SOL     OW22858   0.529   1.270   5.962 -0.8389  0.0069  0.0422
 3742SOL    HW122859   0.565   1.337   5.903 -1.1416  0.7343  0.6871
 3742SOL    HW222860   0.592   1.198   5.959  0.6928  1.3534 -0.5396
 3743SOL     OW22861   3.557   0.809   7.914  0.2029  0.0469 -0.7844
 3743SOL    HW122862   3.487   0.852   7.865 -1.0566 -0.0745  0.9329
 3743SOL    HW222863   3.611   0.886   7.933 -1.3066  0.9952 -0.3956
 3744SOL     OW22864   4.317   3.732   6.183 -0.0118 -0.2901 -0.1236
 3744SOL    HW122865   4.271   3.812   6.207 -1.1677  0.0212 -3.2922
 3744SOL    HW222866   4.367   3.721   6.264 -2.7382  0.3809  1.6482
 3745SOL     OW22867   1.047   2.011   6.467  0.0271 -0.2339  0.3596
 3745SOL    HW122868   1.135   1.988   6.498  0.0608 -4.2265 -2.7367
 3745SOL    HW222869   1.013   2.070   6.535 -0.9284  1.2167 -1.3609
 3746SOL     OW22870   0.998   3.436   5.615 -0.4054  0.4741  0.4199
 3746SOL    HW122871   0.937   3.402   5.681 -0.4577  1.3708  0.8368
 3746SOL    HW222872   0.984   3.531   5.620 -0.5377  0.4115  1.3401
 3747SOL     OW22873   1.983   3.736   1.700 -0.0581  0.4411 -0.0710
 3747SOL    HW122874   1.921   3.805   1.722 -1.3207 -0.5368 -0.5733
 3747SOL    HW222875   2.001   3.683   1.778 -0.5330  0.0808 -0.2027
 3748SOL     OW22876   2.631   1.211   9.394 -0.5882 -0.0933  0.3538
 3748SOL    HW122877   2.691   1.174   9.458 -1.5204 -2.6172 -0.1890
 3748SOL    HW222878   2.617   1.140   9.330 -0.2408  0.2752 -0.1247
 3749SOL     OW22879   4.399   1.094  14.886  0.7012  0.1318  0.2756
 3749SOL    HW122880   4.435   1.033  14.821  0.8597  0.9920 -0.4332
 3749SOL    HW222881   4.326   1.042  14.920  2.0532 -2.0392 -0.1179
 3750SOL     OW22882   3.574   4.510   1.902  0.8199  0.4509 -0.0468
 3750SOL    HW122883   3.523   4.549   1.832 -1.1924 -1.0918  0.5860
 3750SOL    HW222884   3.654   4.486   1.855  1.5907  0.5530  1.1833
 3751SOL     OW22885   4.698   3.310   7.340  0.2754 -0.5087  0.0416
 3751SOL    HW122886   4.680   3.228   7.386 -1.1217 -0.8785 -1.1842
 3751SOL    HW222887   0.003   3.365   7.408  0.5775 -0.7460  0.0555
 3752SOL     OW22888   2.106   4.297   1.721  0.0778  0.4687 -0.6498
 3752SOL    HW122889   2.048   4.318   1.648 -0.2050  1.4721 -0.1330
 3752SOL    HW222890   2.045   4.304   1.795  0.2961 -2.4809 -0.1660
 3753SOL     OW22891   1.564   1.710   5.337 -0.1797 -0.5621  0.8145
 3753SOL    HW122892   1.621   1.675   5.404 -0.7268 -0.3494  1.3988
 3753SOL    HW222893   1.564   1.638   5.274 -1.0333  1.1749 -1.1876
 3754SOL     OW22894   4.601   4.209   7.591 -0.1129  0.4121 -0.2417
 3754SOL    HW122895   4.631   4.218   7.681  0.4246 -0.5963 -0.3164
 3754SOL    HW222896   4.619   4.295   7.553  0.6506 -0.0458 -0.9086
 3755SOL     OW22897   2.104   1.005  16.360  0.6245  0.1502 -0.6677
 3755SOL    HW122898   2.174   1.069  16.373  1.2063 -0.6387  0.0777
 3755SOL    HW222899   2.068   1.027  16.274 -2.7683 -0.0852  0.6832
 3756SOL     OW22900   1.800   4.196   0.270 -0.2668  0.5601  0.6303
 3756SOL    HW122901   1.757   4.139   0.206  0.2688  1.5569 -0.6151
 3756SOL    HW222902   1.719   4.242   0.290  0.5244  2.4179 -0.4781
 3757SOL     OW22903   2.069   4.163  13.185 -0.0226  0.5359  0.1534
 3757SOL    HW122904   2.058   4.179  13.091 -0.3947  1.9760  0.4363
 3757SOL    HW222905   2.115   4.079  13.187  1.6442  1.4752  2.0253
 3758SOL     OW22906   4.504   1.256  13.540  0.0955  0.0182  0.3451
 3758SOL    HW122907   4.478   1.312  13.613  2.2920  1.3275  0.1236
 3758SOL    HW222908   4.523   1.175  13.587  1.6440  1.6118  2.4566
 3759SOL     OW22909   1.603   1.879   2.939  0.6040 -0.2833  0.1834
 3759SOL    HW122910   1.696   1.904   2.945  0.6173 -0.4704  0.6667
 3759SOL    HW222911   1.606   1.790   2.974  2.7225 -0.9244 -1.6110
 3760SOL     OW22912   0.908   3.091   4.508  0.8133  0.4183  0.3375
 3760SOL    HW122913   0.936   3.157   4.571 -0.0311  1.1748 -0.0871
 3760SOL    HW222914   0.940   3.008   4.544  0.9214  0.1600 -0.3586
 3761SOL     OW22915   1.402   2.355   6.616  0.2166 -0.3037 -0.1645
 3761SOL    HW122916   1.471   2.327   6.556  0.8703 -1.3344  1.0648
 3761SOL    HW222917   1.439   2.328   6.701 -2.5560  0.0150  1.1385
 3762SOL     OW22918   2.793   1.819   2.023  0.1415 -0.8553 -0.1135
 3762SOL    HW122919   2.780   1.873   1.945  1.5653  1.1534  1.0477
 3762SOL    HW222920   2.873   1.768   2.008  0.7510  0.3066 -0.8614
 3763SOL     OW22921   3.270   0.899   8.470  0.6860 -0.5387 -0.2535
 3763SOL    HW122922   3.225   0.814   8.474  0.3827 -0.3889 -0.5249
 3763SOL    HW222923   3.352   0.874   8.426  1.9300  0.5956  1.4076
 3764SOL     OW22924   4.384   4.630   9.685 -0.0110  0.5122 -0.1358
 3764SOL    HW122925   4.331   4.552   9.700 -2.5217  2.3390  0.6075
 3764SOL    HW222926   4.314   4.667   9.630  0.6022  1.3913 -0.3234
 3765SOL     OW22927   0.931   1.113   0.854  0.0934  0.4883  0.2590
 3765SOL    HW122928   0.870   1.119   0.780  0.3967 -1.0251 -0.1220
 3765SOL    HW222929   0.882   1.149   0.927 -1.4404  0.3535 -0.7105
 3766SOL     OW22930   2.622   0.751   3.538  0.0022 -0.2264 -0.3901
 3766SOL    HW122931   2.651   0.705   3.617  0.3947 -0.8707 -0.9053
 3766SOL    HW222932   2.564   0.681   3.508  0.1341 -0.3625 -0.3346
 3767SOL     OW22933   2.419   3.292   2.051 -0.0649  0.4204  0.0230
 3767SOL    HW122934   2.497   3.341   2.026 -2.2734  3.4268 -0.9256
 3767SOL    HW222935   2.435   3.254   2.137  0.1163 -0.9949 -0.6285
 3768SOL     OW22936   1.158   2.329   8.634 -0.1913 -0.1852  0.0710
 3768SOL    HW122937   1.132   2.421   8.627  0.5240  0.0434  0.4467
 3768SOL    HW222938   1.253   2.326   8.625 -0.3130 -0.7445 -1.1889
 3769SOL     OW22939   4.155   2.119   4.093  0.6156  0.6101 -0.2381
 3769SOL    HW122940   4.073   2.124   4.142  0.3317 -0.7716 -0.5743
 3769SOL    HW222941   4.121   2.095   4.006 -2.0793 -5.2975  2.4770
 3770SOL     OW22942   2.271   3.181   9.215 -0.4824  0.4064  0.6528
 3770SOL    HW122943   2.253   3.206   9.305  1.3711  0.5959  0.9567
 3770SOL    HW222944   2.333   3.251   9.194  1.9217 -1.6199  1.0997
 3771SOL     OW22945   0.372   1.347   2.705 -0.0625  0.2120 -1.1018
 3771SOL    HW122946   0.449   1.290   2.717  1.1179  2.1143  0.2057
 3771SOL    HW222947   0.348   1.331   2.613 -1.6212 -0.9539 -0.4901
 3772SOL     OW22948   1.967   3.408  16.549  0.3001 -0.0249  0.7952
 3772SOL    HW122949   2.011   3.323  16.545  1.2799  0.2818  5.0429
 3772SOL    HW222950   1.879   3.389  16.517  0.5518 -3.0726  1.9206
 3773SOL     OW22951   2.421   1.627   1.971  0.3050  0.1222  0.4523
 3773SOL    HW122952   2.485   1.592   2.033  0.4379 -0.2630  0.0915
 3773SOL    HW222953   2.475   1.655   1.897  1.0315  1.6766  1.5627
 3774SOL     OW22954   2.284   4.435   9.181 -0.4785 -0.3797  0.3726
 3774SOL    HW122955   2.300   4.485   9.101 -0.5662 -1.5550 -0.3934
 3774SOL    HW222956   2.211   4.375   9.161 -1.9849  0.8574  2.2170
 3775SOL     OW22957   3.065   2.811   6.290  0.0357 -0.1150 -0.2980
 3775SOL    HW122958   3.155   2.832   6.267  0.3175  0.2970  1.1664
 3775SOL    HW222959   3.068   2.776   6.379  0.7203 -2.1454 -1.1290
 3776SOL     OW22960   0.424   1.412   0.067 -0.3118  0.3183  0.0360
 3776SOL    HW122961   0.366   1.428  17.731 -0.2806 -0.0176 -0.0596
 3776SOL    HW222962   0.488   1.482   0.052 -1.4483  1.7835  1.9620
 3777SOL     OW22963   3.419   4.171   3.385 -0.4875 -0.3485 -0.5105
 3777SOL    HW122964   3.434   4.105   3.452  3.0708  1.6529  0.6356
 3777SOL    HW222965   3.356   4.125   3.330 -0.3172 -0.1657 -0.8621
 3778SOL     OW22966   1.742   2.404   8.318  0.2239  0.2044 -0.4073
 3778SOL    HW122967   1.728   2.343   8.390  2.0043  0.4178  0.1234
 3778SOL    HW222968   1.746   2.485   8.369 -0.4757 -1.2157  1.8874
 3779SOL     OW22969   3.818   3.332  12.852 -0.3562  0.0217 -0.7082
 3779SOL    HW122970   3.886   3.316  12.917  0.2794  0.2496 -1.3244
 3779SOL    HW222971   3.731   3.316  12.889 -0.3224  0.2984 -0.5014
 3780SOL     OW22972   1.731   2.922   6.838 -0.6335 -0.2556  0.6057
 3780SOL    HW122973   1.810   2.922   6.891  0.4958 -2.2751 -1.0504
 3780SOL    HW222974   1.753   2.869   6.761 -0.4164  0.6831  0.0171
 3781SOL     OW22975   0.942   0.530   9.036 -0.1355 -0.5791  0.1430
 3781SOL    HW122976   0.847   0.521   9.028 -0.2267  2.1980 -1.6667
 3781SOL    HW222977   0.975   0.441   9.023  1.8892  0.2722 -0.5238
 3782SOL     OW22978   3.294   2.717  15.877 -0.1235 -0.7467 -0.7190
 3782SOL    HW122979   3.256   2.781  15.818 -1.0939 -1.4480 -0.8555
 3782SOL    HW222980   3.299   2.774  15.953  0.2505  0.0256 -1.3247
 3783SOL     OW22981   1.342   1.941   3.465  0.3070 -0.3094  0.5493
 3783SOL    HW122982   1.351   1.865   3.407  0.2819  1.0500 -1.2072
 3783SOL    HW222983   1.286   1.910   3.537 -1.4042  1.4005 -0.0309
 3784SOL     OW22984   1.123   4.599   7.239 -0.1947 -0.2264  0.0304
 3784SOL    HW122985   1.123   4.684   7.194 -1.0164 -1.4365 -2.2649
 3784SOL    HW222986   1.181   4.545   7.185 -0.2709  2.1968 -2.4854
 3785SOL     OW22987   0.458   1.010   7.299 -0.2483  0.3318 -0.1736
 3785SOL    HW122988   0.486   0.919   7.287 -0.5523  0.3133 -0.7272
 3785SOL    HW222989   0.395   1.005   7.371  0.9895 -2.9991  0.6635
 3786SOL     OW22990   0.212   0.500   2.449 -0.1033 -0.2342 -0.0648
 3786SOL    HW122991   0.195   0.417   2.404  1.4343 -1.4530  1.6484
 3786SOL    HW222992   0.219   0.553   2.369  0.3979  1.0837  0.8559
 3787SOL     OW22993   2.178   2.865  16.919 -0.2723 -0.1524  0.7766
 3787SOL    HW122994   2.241   2.807  16.877 -1.3068 -0.4465 -0.3790
 3787SOL    HW222995   2.106   2.853  16.857 -1.4446  0.9511  1.9191
 3788SOL     OW22996   0.649   3.246  15.676 -0.1509  0.5778 -0.5883
 3788SOL    HW122997   0.580   3.226  15.613  0.5934 -0.2437 -1.1308
 3788SOL    HW222998   0.706   3.301  15.622  0.5922 -0.9528 -1.3484
 3789SOL     OW22999   3.722   0.848   2.552  0.0081 -0.4082  0.4420
 3789SOL    HW123000   3.804   0.841   2.601 -0.4474 -0.7451  1.1573
 3789SOL    HW223001   3.678   0.767   2.577 -0.1940 -0.6950 -0.8522
 3790SOL     OW23002   1.252   1.761   6.036 -1.1327 -0.2919  0.2801
 3790SOL    HW123003   1.247   1.812   5.955 -1.5897 -1.1480 -0.2251
 3790SOL    HW223004   1.179   1.702   6.016  0.3410 -1.8074 -0.6709
 3791SOL     OW23005   2.400   4.438  14.013 -0.2060 -0.0837  0.4765
 3791SOL    HW123006   2.305   4.448  14.009 -0.3348 -0.6585  2.1019
 3791SOL    HW223007   2.427   4.510  13.956 -0.7680  0.0293  0.3598
 3792SOL     OW23008   3.128   3.542   6.352  0.9560  0.1187  0.0482
 3792SOL    HW123009   3.104   3.451   6.367 -0.8887  0.9398  2.0314
 3792SOL    HW223010   3.056   3.587   6.397  1.6659  0.2796  1.0172
 3793SOL     OW23011   0.013   3.922   9.483  0.2356  0.3813 -0.2812
 3793SOL    HW123012   4.665   3.892   9.520  1.2830 -0.1541  1.6538
 3793SOL    HW223013   4.714   3.950   9.398  0.7942 -0.1782 -0.6947
 3794SOL     OW23014   2.742   2.265   3.498 -0.3049  0.2874 -0.4546
 3794SOL    HW123015   2.654   2.238   3.473  1.2924 -1.8855 -3.6763
 3794SOL    HW223016   2.747   2.351   3.455 -1.6397  0.7074  0.2259
 3795SOL     OW23017   3.780   2.360  14.970  0.2310  0.0210  0.1490
 3795SOL    HW123018   3.752   2.375  15.061 -1.2398  1.1279 -0.4861
 3795SOL    HW223019   3.875   2.349  14.978  0.3475  0.8773 -0.0381
 3796SOL     OW23020   4.623   0.172   9.839  0.2149  0.1950  0.6688
 3796SOL    HW123021   4.657   0.131   9.759  0.7276  0.2104  0.8771
 3796SOL    HW223022   4.593   0.090   9.878  2.1086  0.0030  1.7080
 3797SOL     OW23023   0.619   2.472  12.228 -0.6545 -0.2077 -0.1108
 3797SOL    HW123024   0.544   2.508  12.181 -0.7504  0.2683  0.4034
 3797SOL    HW223025   0.668   2.554  12.233 -1.7344  0.5714 -2.1611
 3798SOL     OW23026   0.945   0.834   5.989  0.1445  0.5711 -0.4200
 3798SOL    HW123027   1.017   0.823   5.926  1.6004 -2.6729  1.8006
 3798SOL    HW223028   0.985   0.882   6.061 -0.8362 -0.8845  1.0855
 3799SOL     OW23029   2.438   4.321   0.363 -0.3976  0.1260 -0.2095
 3799SOL    HW123030   2.464   4.413   0.359 -0.3259  0.1229  0.1525
 3799SOL    HW223031   2.363   4.320   0.423 -1.3366 -2.7870 -1.4008
 3800SOL     OW23032   2.213   3.277   7.190 -0.3833 -0.2774 -0.1930
 3800SOL    HW123033   2.257   3.202   7.150  1.3093  1.3472 -1.3746
 3800SOL    HW223034   2.223   3.255   7.282  1.7934  0.4652 -0.2399
 3801SOL     OW23035   1.623   1.374   4.905 -0.0995 -0.6662  0.4931
 3801SOL    HW123036   1.533   1.355   4.876 -0.7305 -0.6910  2.4584
 3801SOL    HW223037   1.662   1.290   4.930 -0.5230 -0.8287  0.6149
 3802SOL     OW23038   0.042   2.285   7.613 -0.1656  0.3518 -0.3448
 3802SOL    HW123039   0.068   2.196   7.634 -2.2201 -0.2912 -0.5191
 3802SOL    HW223040   4.686   2.278   7.639 -0.4090  4.0476 -0.1069
 3803SOL     OW23041   2.082   2.099  10.979  0.1627  0.2384  0.2257
 3803SOL    HW123042   2.036   2.148  11.048  0.6241  2.7080 -1.2367
 3803SOL    HW223043   2.170   2.075  11.007  0.8610  1.7159 -0.6942
 3804SOL     OW23044   0.876   2.936   6.906  0.2880  0.4936 -0.0897
 3804SOL    HW123045   0.905   3.023   6.934  1.1397  1.1123 -2.8272
 3804SOL    HW223046   0.835   2.901   6.984  0.3604  1.0822  0.2135
 3805SOL     OW23047   2.823   3.313   2.980 -0.4440 -0.3402  0.6888
 3805SOL    HW123048   2.869   3.283   2.902 -1.8932 -0.2075 -0.2227
 3805SOL    HW223049   2.807   3.231   3.028 -0.7688 -1.0307 -0.5988
 3806SOL     OW23050   2.052   1.685   7.412 -0.0769  0.0134  0.1608
 3806SOL    HW123051   2.045   1.590   7.427  0.3782 -0.3110 -1.6641
 3806SOL    HW223052   2.122   1.685   7.347 -0.9897 -0.4342 -0.8358
 3807SOL     OW23053   2.185   3.179   2.887  0.4578 -0.3626 -0.4218
 3807SOL    HW123054   2.233   3.219   2.815  1.3946 -0.3516  0.2147
 3807SOL    HW223055   2.212   3.240   2.955  0.3174 -0.3839 -0.3458
 3808SOL     OW23056   0.776   2.858   1.902 -0.0616 -0.0850  0.0145
 3808SOL    HW123057   0.781   2.907   1.819  0.6264 -0.9785 -0.4692
 3808SOL    HW223058   0.862   2.877   1.940 -0.0068 -0.7941  0.2333
 3809SOL     OW23059   4.088   2.710   4.529 -0.0087 -0.4318  0.3928
 3809SOL    HW123060   4.047   2.793   4.556  1.5016  0.7809 -1.0670
 3809SOL    HW223061   4.034   2.660   4.590 -0.7954 -0.8619 -0.6386
 3810SOL     OW23062   2.154   1.139  10.672  0.3853 -0.1887  0.2073
 3810SOL    HW123063   2.089   1.093  10.619 -0.2192  2.3566 -1.2870
 3810SOL    HW223064   2.115   1.226  10.685  0.2811 -0.0595 -0.9444
 3811SOL     OW23065   3.848   4.321   6.214  0.1120  0.1455 -0.1545
 3811SOL    HW123066   3.855   4.411   6.182 -1.3433 -0.7206 -2.8453
 3811SOL    HW223067   3.756   4.314   6.237  0.3067 -2.3903 -0.1344
 3812SOL     OW23068   2.007   1.534  14.430  0.0655  0.0899  0.6750
 3812SOL    HW123069   2.091   1.492  14.447 -1.6715 -2.6194  2.5271
 3812SOL    HW223070   1.967   1.455  14.394 -1.1497  0.3418  1.4558
 3813SOL     OW23071   3.585   0.480   8.585 -0.3231  0.3195 -0.8373
 3813SOL    HW123072   3.629   0.564   8.593 -2.8129  1.6934 -1.6801
 3813SOL    HW223073   3.611   0.443   8.670 -2.1945  0.6855 -0.0932
 3814SOL     OW23074   1.055   1.304  12.239 -0.0905  0.2419  0.4055
 3814SOL    HW123075   1.052   1.242  12.166 -0.2320  0.5391  0.1610
 3814SOL    HW223076   1.018   1.252  12.310 -1.2491  1.0430  0.3710
 3815SOL     OW23077   4.628   0.070   1.794 -0.2002  0.8858 -0.0230
 3815SOL    HW123078   4.647   0.075   1.888  0.0038  2.2731 -0.1411
 3815SOL    HW223079   4.583   0.150   1.769 -0.4326  0.3032 -1.4969
 3816SOL     OW23080   2.830   3.479   3.605 -0.1289  0.7333 -0.4366
 3816SOL    HW123081   2.864   3.543   3.667  2.8478 -0.9746 -0.3455
 3816SOL    HW223082   2.768   3.543   3.570 -1.8997  0.5110  2.3032
 3817SOL     OW23083   0.049   0.382   3.996  0.6712  1.0676  0.1464
 3817SOL    HW123084   0.039   0.426   4.080  0.9270  0.7852  0.3224
 3817SOL    HW223085   0.131   0.333   3.999  0.5999  1.0175  1.2265
 3818SOL     OW23086   2.630   1.160   7.237 -0.1382  0.0099  0.1729
 3818SOL    HW123087   2.644   1.070   7.209  0.0204 -0.4772  1.7747
 3818SOL    HW223088   2.642   1.202   7.152  1.4224 -0.0461  0.3762
 3819SOL     OW23089   0.805   2.874   3.430 -0.6101 -0.6318  0.4535
 3819SOL    HW123090   0.893   2.837   3.422  0.2724  1.5133  0.0450
 3819SOL    HW223091   0.820   2.942   3.496 -1.7143 -1.1196  1.2034
 3820SOL     OW23092   1.902   1.791  11.893 -0.0760  0.1031  0.2976
 3820SOL    HW123093   1.936   1.805  11.804 -1.5573  0.7685 -0.1718
 3820SOL    HW223094   1.854   1.873  11.909  1.2474  0.7905  0.7585
 3821SOL     OW23095   1.169   4.646   2.136  0.1572 -0.7834 -0.2579
 3821SOL    HW123096   1.182   4.652   2.231 -0.2058  2.4384 -0.4011
 3821SOL    HW223097   1.112   4.571   2.117 -0.1544 -0.6768  0.2489
 3822SOL     OW23098   0.416   0.789   6.759 -0.3205 -0.0118 -0.0120
 3822SOL    HW123099   0.493   0.828   6.801  0.4899 -2.4774  0.7783
 3822SOL    HW223100   0.447   0.698   6.760 -0.2589 -0.0026 -0.6740
 3823SOL     OW23101   4.434   4.284   8.963 -0.0944  0.5568  0.1889
 3823SOL    HW123102   4.516   4.244   8.992  0.4579 -0.6761 -3.0653
 3823SOL    HW223103   4.399   4.305   9.050  1.5158  1.3166  0.6545
 3824SOL     OW23104   1.735   3.326  13.690 -0.1952 -0.1051 -0.5548
 3824SOL    HW123105   1.748   3.243  13.645  1.0411  1.6055 -3.3352
 3824SOL    HW223106   1.643   3.306  13.708  0.1751  0.2934  1.8282
 3825SOL     OW23107   3.277   4.211   5.228  0.2299  0.1063  0.0240
 3825SOL    HW123108   3.223   4.152   5.176  0.3098 -0.8759  1.0445
 3825SOL    HW223109   3.240   4.296   5.202 -1.3388  0.1306  2.3297
 3826SOL     OW23110   2.321   4.052   4.923  0.1316 -0.3264 -0.4024
 3826SOL    HW123111   2.235   4.082   4.893  1.3197  1.7372 -1.7819
 3826SOL    HW223112   2.347   3.988   4.857 -0.9177 -0.9599 -0.1996
 3827SOL     OW23113   1.788   2.492   4.517 -0.5250 -0.2094 -0.2869
 3827SOL    HW123114   1.818   2.455   4.600 -2.4950 -1.7840 -0.2748
 3827SOL    HW223115   1.702   2.521   4.547 -0.1529 -0.1072  0.6631
 3828SOL     OW23116   1.666   1.255   4.220 -0.5264  0.3664  0.4356
 3828SOL    HW123117   1.659   1.161   4.237 -2.5020  0.6093  0.9852
 3828SOL    HW223118   1.632   1.282   4.305 -3.6601 -0.5391 -0.5125
 3829SOL     OW23119   0.339   3.439   3.855 -0.1701 -0.0294  0.2060
 3829SOL    HW123120   0.280   3.364   3.852  0.6803 -0.6681 -0.8710
 3829SOL    HW223121   0.316   3.482   3.773  1.2794 -0.2814 -0.3442
 3830SOL     OW23122   3.786   3.543   3.958  0.0384 -0.5428  0.2110
 3830SOL    HW123123   3.792   3.566   4.051 -0.2579 -0.2428  0.1580
 3830SOL    HW223124   3.783   3.448   3.964 -0.1857 -0.3904  2.6931
 3831SOL     OW23125   2.567   2.155   6.313  0.0871 -0.4767 -0.0780
 3831SOL    HW123126   2.517   2.169   6.233  1.2925  0.3834 -0.6774
 3831SOL    HW223127   2.659   2.160   6.286  0.1799 -0.0227  0.3036
 3832SOL     OW23128   2.028   1.649   4.855 -0.2505 -0.5508 -0.5107
 3832SOL    HW123129   2.094   1.606   4.910  0.5397  0.1304 -0.9301
 3832SOL    HW223130   2.061   1.622   4.769  1.3027 -1.0596  0.2470
 3833SOL     OW23131   1.191   0.334  16.591  0.2916 -0.1248  0.2324
 3833SOL    HW123132   1.105   0.368  16.619  0.3133  0.7762 -0.8009
 3833SOL    HW223133   1.181   0.243  16.619 -1.8379  0.1065  0.2477
 3834SOL     OW23134   2.231   1.072   2.648  0.2053  0.5032 -0.0414
 3834SOL    HW123135   2.245   1.001   2.711 -1.2085 -1.2609 -1.6865
 3834SOL    HW223136   2.206   1.028   2.566 -0.3706 -1.4364  1.1583
 3835SOL     OW23137   4.174   0.498   1.879 -0.0930 -0.7500 -0.0692
 3835SOL    HW123138   4.091   0.540   1.854 -0.0334 -0.9681 -0.6437
 3835SOL    HW223139   4.212   0.560   1.941 -0.2974 -0.2481 -0.4472
 3836SOL     OW23140   2.656   0.681  17.074  0.1918  0.4629 -0.2972
 3836SOL    HW123141   2.679   0.745  17.007  0.2619 -0.1091 -0.8211
 3836SOL    HW223142   2.714   0.714  17.143  0.6393 -1.3153  0.1825
 3837SOL     OW23143   3.580   3.648   5.897 -0.0850  0.3654 -0.0826
 3837SOL    HW123144   3.535   3.630   5.979 -1.1747  1.5143 -0.4271
 3837SOL    HW223145   3.617   3.561   5.879  0.1449  0.5139 -0.3384
 3838SOL     OW23146   1.887   1.775   2.627 -0.0146  0.0127 -0.1272
 3838SOL    HW123147   1.845   1.706   2.577  0.9553 -1.1342  0.6359
 3838SOL    HW223148   1.980   1.755   2.618 -0.3208 -0.9505 -1.0556
 3839SOL     OW23149   4.489   1.308   7.060  0.2100  0.2897  0.0822
 3839SOL    HW123150   4.564   1.354   7.098  2.0629 -2.1090 -0.6797
 3839SOL    HW223151   4.420   1.358   7.104 -0.0992 -0.1985  0.1536
 3840SOL     OW23152   1.155   0.603   1.804 -0.2517 -0.5620  0.2295
 3840SOL    HW123153   1.163   0.674   1.867 -1.1505  0.0291 -0.3242
 3840SOL    HW223154   1.062   0.611   1.781 -0.5106 -0.9043  1.1666
 3841SOL     OW23155   4.108   0.951   6.579  0.3679  0.0761  0.5765
 3841SOL    HW123156   4.178   0.931   6.518 -0.0735 -2.7202  0.9586
 3841SOL    HW223157   4.130   0.897   6.655  0.8864  0.6495  0.8267
 3842SOL     OW23158   4.118   1.753  14.508  0.0178 -0.2267 -0.3892
 3842SOL    HW123159   4.101   1.763  14.414  0.7639  0.5670 -0.4433
 3842SOL    HW223160   4.131   1.658  14.506 -0.5040 -0.3730  2.9326
 3843SOL     OW23161   1.641   0.238  10.915  0.0213  0.5675  0.4498
 3843SOL    HW123162   1.677   0.233  11.004  1.4033 -3.6544 -0.3364
 3843SOL    HW223163   1.566   0.296  10.927  2.1806  3.2840  0.6561
 3844SOL     OW23164   4.190   3.144   4.376  0.0905 -0.3273 -0.2524
 3844SOL    HW123165   4.255   3.188   4.321 -1.7756 -0.8327 -2.8270
 3844SOL    HW223166   4.242   3.083   4.429  1.6492  1.8396  0.6965
 3845SOL     OW23167   4.149   0.425   3.410 -0.2251  0.4704 -0.0333
 3845SOL    HW123168   4.126   0.332   3.416  1.4081  0.1720  1.5649
 3845SOL    HW223169   4.084   0.463   3.469  1.4345  2.1534  0.6948
 3846SOL     OW23170   1.407   3.484   5.333 -0.3340  0.2601  0.2637
 3846SOL    HW123171   1.416   3.401   5.380 -0.6463  0.2692  0.3405
 3846SOL    HW223172   1.486   3.490   5.279 -1.5084 -0.0246 -1.4958
 3847SOL     OW23173   0.799   0.274   4.216  0.2597 -0.2945 -0.4540
 3847SOL    HW123174   0.742   0.327   4.160  0.5609 -1.3658 -1.7788
 3847SOL    HW223175   0.842   0.209   4.161  0.2320 -0.1119 -0.6925
 3848SOL     OW23176   4.029   1.975  13.761  0.0782  0.7449  0.6239
 3848SOL    HW123177   4.081   1.896  13.749 -0.9279  0.2680 -0.5985
 3848SOL    HW223178   4.096   2.043  13.747  0.8585  0.2794  2.0537
 3849SOL     OW23179   3.873   0.534   4.783  0.2195 -0.4833  0.0491
 3849SOL    HW123180   3.795   0.578   4.749  0.3724  0.4661  0.9541
 3849SOL    HW223181   3.853   0.446   4.751  2.1700 -0.5614 -0.9612
 3850SOL     OW23182   0.156   1.181  14.302 -0.2773  0.1084  0.5046
 3850SOL    HW123183   0.227   1.212  14.245 -1.3428  0.2170 -0.7724
 3850SOL    HW223184   0.211   1.122  14.353 -2.3887 -4.1308 -2.1647
 3851SOL     OW23185   2.131   0.157   2.058 -0.2559  0.6693  0.0252
 3851SOL    HW123186   2.078   0.130   2.134 -3.0434  2.0259 -1.4409
 3851SOL    HW223187   2.137   0.071   2.017  1.8127  0.5574  0.5568
 3852SOL     OW23188   1.247   1.451   3.481  0.9194  0.7026  0.3303
 3852SOL    HW123189   1.326   1.414   3.441  0.3557 -0.0718 -0.0772
 3852SOL    HW223190   1.186   1.402   3.425  1.3736  1.5752 -0.9322
 3853SOL     OW23191   2.216   1.286  13.361 -0.4474 -0.0284 -0.1117
 3853SOL    HW123192   2.262   1.204  13.381 -0.1318  0.2698  0.3559
 3853SOL    HW223193   2.281   1.353  13.379 -0.5536  0.4427 -1.5087
 3854SOL     OW23194   1.921   1.825   7.582 -0.0571 -0.1939  0.4213
 3854SOL    HW123195   1.956   1.806   7.669 -1.4477 -1.4630  0.7004
 3854SOL    HW223196   1.965   1.762   7.525  1.2376 -0.0379  1.2644
 3855SOL     OW23197   4.079   1.521   3.180 -0.2302 -0.0806  0.1908
 3855SOL    HW123198   4.118   1.594   3.130 -0.7875 -2.0512 -3.1183
 3855SOL    HW223199   4.002   1.561   3.221  0.3964  1.0120  0.3283
 3856SOL     OW23200   4.512   0.841   7.929  0.0425 -0.1447  0.2435
 3856SOL    HW123201   4.553   0.825   8.014  1.1801 -1.0775 -0.4913
 3856SOL    HW223202   4.570   0.811   7.860  0.9330  0.0822  0.8999
 3857SOL     OW23203   3.473   1.188  17.407  0.3548  0.1369  0.1789
 3857SOL    HW123204   3.540   1.179  17.339  1.3670  0.7199  1.0883
 3857SOL    HW223205   3.496   1.279  17.427  0.7439  0.1289 -0.2142
 3858SOL     OW23206   1.739   1.551  17.277 -0.4061 -0.0775 -0.1596
 3858SOL    HW123207   1.713   1.567  17.186  0.7535 -1.2432 -0.6905
 3858SOL    HW223208   1.652   1.558  17.316 -0.4014  1.2360 -0.3820
 3859SOL     OW23209   0.503   1.082   0.694 -0.1620  0.1183  0.1947
 3859SOL    HW123210   0.499   0.988   0.715  2.7138  0.2379  1.3265
 3859SOL    HW223211   0.412   1.106   0.708  0.4952  2.1926  0.9500
 3860SOL     OW23212   4.520   3.154   9.005  0.2158  0.0645  0.2739
 3860SOL    HW123213   4.607   3.134   9.040 -0.0336  1.3499  1.6153
 3860SOL    HW223214   4.469   3.077   9.031  0.5295 -0.0306  0.6083
 3861SOL     OW23215   2.337   4.722  12.025  0.3024  0.1749 -0.0874
 3861SOL    HW123216   2.385   4.690  11.948 -0.9196 -1.2961 -0.2538
 3861SOL    HW223217   2.376   4.676  12.099 -1.1414 -3.7943 -1.7280
 3862SOL     OW23218   1.618   3.109   7.335  0.2629 -0.5987  0.8001
 3862SOL    HW123219   1.580   3.175   7.391 -2.1696  1.9449 -3.9045
 3862SOL    HW223220   1.670   3.162   7.275 -0.0035  0.7484  1.7864
 3863SOL     OW23221   2.613   2.098   7.764  0.3647  0.0811  0.0571
 3863SOL    HW123222   2.532   2.087   7.714  0.3402  0.1891  0.0711
 3863SOL    HW223223   2.682   2.058   7.713  1.2458 -0.5847  1.7660
 3864SOL     OW23224   1.008   3.113  13.126  0.2387  0.3404  0.6242
 3864SOL    HW123225   0.943   3.101  13.195 -0.8010  0.1153 -0.3870
 3864SOL    HW223226   1.077   3.154  13.176  1.7903 -2.2504  0.5903
 3865SOL     OW23227   4.708   1.413   0.528  0.0590  0.2024 -0.1304
 3865SOL    HW123228   4.649   1.340   0.509  0.3440  0.1635 -0.8627
 3865SOL    HW223229   4.680   1.473   0.460  1.5183  1.5455  0.4569
 3866SOL     OW23230   3.656   0.222   6.260  0.2323 -0.7194  0.4914
 3866SOL    HW123231   3.639   0.141   6.211  0.1586  1.2690 -2.7200
 3866SOL    HW223232   3.736   0.262   6.226  0.2514  1.0003  2.6266
 3867SOL     OW23233   3.486   4.425   2.654 -0.2934  0.2442 -0.2784
 3867SOL    HW123234   3.430   4.489   2.610 -2.2449 -2.8177 -2.1921
 3867SOL    HW223235   3.499   4.363   2.583 -1.2437 -1.7095  1.2631
 3868SOL     OW23236   3.014   0.761   4.498 -0.0122  0.7173  0.2843
 3868SOL    HW123237   3.019   0.742   4.404  1.0250 -2.5995  1.0096
 3868SOL    HW223238   2.964   0.842   4.488 -1.3280  0.0727  1.8003
 3869SOL     OW23239   4.057   4.022   8.892 -0.1915  0.5385 -0.8377
 3869SOL    HW123240   3.976   4.045   8.847 -0.6161  1.4299  0.4041
 3869SOL    HW223241   4.126   4.070   8.846  0.0488 -1.5776 -2.7032
 3870SOL     OW23242   3.292   1.047   2.174  0.3491 -0.5067  0.5190
 3870SOL    HW123243   3.304   1.138   2.199  0.0798 -0.5400  0.7733
 3870SOL    HW223244   3.375   1.007   2.148  1.7868  3.6720 -1.2226
 3871SOL     OW23245   1.593   1.639  11.942 -0.2315  0.7224  0.4500
 3871SOL    HW123246   1.666   1.694  11.971  1.8536 -3.1232  2.4591
 3871SOL    HW223247   1.523   1.689  11.983 -1.9741 -0.5111 -1.0137
 3872SOL     OW23248   4.236   4.376  10.833  0.1432 -0.1758  0.2596
 3872SOL    HW123249   4.214   4.368  10.740 -0.4355 -0.0768  0.3868
 3872SOL    HW223250   4.245   4.471  10.830  1.3584 -0.2666  1.2869
 3873SOL     OW23251   1.717   0.800   8.960 -0.2395 -0.7067 -0.2569
 3873SOL    HW123252   1.777   0.855   9.011 -0.9378  0.1156 -0.3208
 3873SOL    HW223253   1.655   0.872   8.952  2.6163  1.7137 -0.8324
 3874SOL     OW23254   0.003   2.152   2.293 -0.7088  0.1826 -0.0946
 3874SOL    HW123255   0.033   2.111   2.373  1.3579 -0.9271 -1.4326
 3874SOL    HW223256   4.713   2.236   2.331  1.3218  1.1321 -0.8388
 3875SOL     OW23257   0.190   1.704   2.045  0.6764 -0.1895  0.2273
 3875SOL    HW123258   0.155   1.774   2.101 -1.0553  0.9589 -2.2972
 3875SOL    HW223259   0.190   1.630   2.106 -2.6423 -1.0778 -0.8388
 3876SOL     OW23260   2.020   0.084   8.653 -0.2342  0.0245 -0.5173
 3876SOL    HW123261   2.062   0.145   8.592 -1.7843  1.0804 -0.5335
 3876SOL    HW223262   2.047   0.137   8.728 -0.7812 -3.5046  2.1735
 3877SOL     OW23263   3.899   1.405   5.681 -0.1978  0.2762  0.1687
 3877SOL    HW123264   3.929   1.460   5.608 -2.7395  3.1051  1.2581
 3877SOL    HW223265   3.943   1.445   5.756  1.7507  1.2438 -1.4553
 3878SOL     OW23266   3.675   3.156   5.491 -0.3003 -0.4527 -0.3206
 3878SOL    HW123267   3.586   3.124   5.476 -0.6240 -0.0210  0.6478
 3878SOL    HW223268   3.693   3.220   5.423  1.3329 -1.3926 -0.7704
 3879SOL     OW23269   2.615   4.688  13.652  0.5219  0.0623 -0.5276
 3879SOL    HW123270   2.557   4.727  13.586  2.6670  1.2710 -1.7050
 3879SOL    HW223271   2.652   0.034  13.687  0.9491 -1.0686  1.6053
 3880SOL     OW23272   1.725   3.909  17.281 -0.5166  0.5381 -0.5018
 3880SOL    HW123273   1.783   3.966  17.330  2.8264 -1.3838 -2.2128
 3880SOL    HW223274   1.670   3.977  17.243  0.0512  0.6904 -1.0433
 3881SOL     OW23275   3.413   3.142   6.122  0.2556  0.0422 -0.4130
 3881SOL    HW123276   3.449   3.152   6.034 -0.2746  1.1002 -0.5094
 3881SOL    HW223277   3.329   3.188   6.116  2.2404  3.4834 -2.2971
 3882SOL     OW23278   0.911   3.764   5.006 -0.3186  0.0052 -0.5425
 3882SOL    HW123279   0.989   3.810   4.976  1.5468 -2.9435 -0.2526
 3882SOL    HW223280   0.853   3.838   5.024 -1.3721 -0.0574 -3.5679
 3883SOL     OW23281   3.537   2.801   8.427  0.0690 -0.1876  0.2525
 3883SOL    HW123282   3.505   2.853   8.354  0.8617  0.6967  0.5330
 3883SOL    HW223283   3.458   2.759   8.459  1.4987 -2.6798  0.5127
 3884SOL     OW23284   0.443   1.963  11.644 -0.3350  0.6502 -0.2790
 3884SOL    HW123285   0.433   2.007  11.559  3.6292 -1.1373 -1.6875
 3884SOL    HW223286   0.391   1.886  11.622  0.2493  0.2645 -0.3047
 3885SOL     OW23287   1.360   3.547   2.033 -0.1520  0.7998 -0.0826
 3885SOL    HW123288   1.270   3.528   2.009 -0.4059 -1.3596  2.5840
 3885SOL    HW223289   1.404   3.477   1.985  1.2656  0.5869  1.4802
 3886SOL     OW23290   3.992   4.064   8.382 -0.6157  0.1743  0.0486
 3886SOL    HW123291   4.047   4.084   8.305  0.8479 -1.9692  0.5263
 3886SOL    HW223292   3.910   4.053   8.333 -0.8523 -0.3847  0.5781
 3887SOL     OW23293   1.057   1.305   7.959  0.2132 -0.7501 -0.0782
 3887SOL    HW123294   1.126   1.351   7.911 -0.2922  0.0441 -0.0386
 3887SOL    HW223295   1.080   1.319   8.051  2.0285 -0.7427 -0.5315
 3888SOL     OW23296   0.743   0.834   0.746  0.0925 -0.3530 -0.0309
 3888SOL    HW123297   0.726   0.927   0.729  0.0925 -0.1577  1.0441
 3888SOL    HW223298   0.788   0.816   0.663  1.6198 -2.3432  1.2245
 3889SOL     OW23299   4.040   0.179   3.376 -0.1521  0.5874 -0.2148
 3889SOL    HW123300   4.005   0.212   3.294 -4.7090  1.9317  2.2373
 3889SOL    HW223301   4.080   0.102   3.337  0.1185  0.4048  0.4229
 3890SOL     OW23302   1.105   3.906  17.433  0.7211  0.1952  0.0361
 3890SOL    HW123303   1.119   3.894  17.339  0.2432  1.7379 -0.2388
 3890SOL    HW223304   1.183   3.863  17.468  1.4206  1.3431 -0.1048
 3891SOL     OW23305   2.447   4.034   1.743  0.1128  0.6061 -0.0134
 3891SOL    HW123306   2.422   3.962   1.801 -1.1910  0.1824 -1.0843
 3891SOL    HW223307   2.495   4.091   1.803  0.6243  0.0260  0.1259
 3892SOL     OW23308   2.238   1.336   8.312  0.1080 -0.1317  0.0077
 3892SOL    HW123309   2.143   1.325   8.318  0.1311 -0.3198 -0.0011
 3892SOL    HW223310   2.254   1.411   8.369  0.5946 -0.6094  0.4960
 3893SOL     OW23311   4.538   3.403   4.092 -0.5707  0.8586  0.6512
 3893SOL    HW123312   4.622   3.357   4.101 -0.7087  0.3911 -0.4858
 3893SOL    HW223313   4.490   3.337   4.043  0.2410  1.4546 -0.9470
 3894SOL     OW23314   1.613   3.447   9.609 -0.6209 -0.6897 -0.0898
 3894SOL    HW123315   1.670   3.521   9.588 -0.9993  0.1472  1.8263
 3894SOL    HW223316   1.649   3.371   9.564 -1.0038 -1.0428  0.1987
 3895SOL     OW23317   2.124   0.170  16.792 -0.7358 -0.6090 -0.1031
 3895SOL    HW123318   2.090   0.191  16.879 -3.9624 -0.4022 -1.4086
 3895SOL    HW223319   2.056   0.220  16.747  0.6349  2.4576  1.1997
 3896SOL     OW23320   1.449   4.711   9.068 -0.2660 -0.2977  0.0340
 3896SOL    HW123321   1.354   4.696   9.070 -0.8903  3.7496  0.8096
 3896SOL    HW223322   1.476   4.667   9.148  0.6396 -2.5335 -1.5084
 3897SOL     OW23323   0.476   2.155  13.670  0.8225 -0.0352  0.1424
 3897SOL    HW123324   0.469   2.177  13.763 -2.4783 -0.3123 -0.0451
 3897SOL    HW223325   0.516   2.234  13.634  0.0824  0.6124  0.7334
 3898SOL     OW23326   0.832   0.925  16.200  0.0115  0.2455 -0.2165
 3898SOL    HW123327   0.899   0.932  16.132 -0.2089 -0.7439 -0.5354
 3898SOL    HW223328   0.837   1.016  16.231 -1.8763 -0.4754  2.1980
 3899SOL     OW23329   4.053   3.682   8.192  0.5119 -0.0743 -0.4362
 3899SOL    HW123330   4.137   3.726   8.206  1.8470 -2.3751 -1.2648
 3899SOL    HW223331   4.080   3.591   8.205 -3.6358 -1.0667  1.3044
 3900SOL     OW23332   2.991   0.514   4.809  0.1524 -0.1922 -0.3259
 3900SOL    HW123333   3.066   0.545   4.759  0.1605 -0.9589 -0.7883
 3900SOL    HW223334   2.921   0.492   4.747  0.1620  0.1180 -0.4413
 3901SOL     OW23335   3.072   2.519   7.976 -0.0517  0.3104 -0.0585
 3901SOL    HW123336   3.098   2.457   8.045  2.2830  0.5062 -0.8050
 3901SOL    HW223337   2.976   2.518   7.984  0.1355 -2.1246  1.9455
 3902SOL     OW23338   0.357   0.004   2.250 -0.5234 -0.9376  0.1109
 3902SOL    HW123339   0.385   0.086   2.208 -0.5975 -1.4765 -0.9813
 3902SOL    HW223340   0.354   4.676   2.178 -1.0477  0.0810 -0.7623
 3903SOL     OW23341   4.029   2.417   5.239 -0.2871 -0.0870 -0.9025
 3903SOL    HW123342   4.002   2.325   5.242  1.8895 -0.6299  2.3200
 3903SOL    HW223343   4.110   2.408   5.290  0.4103 -0.1702 -2.0136
 3904SOL     OW23344   3.943   4.064   7.725 -0.4000  0.3402  0.1356
 3904SOL    HW123345   3.976   4.113   7.800 -0.5968  0.5259  0.1013
 3904SOL    HW223346   3.888   4.003   7.773 -2.3396  2.4243  0.5732
 3905SOL     OW23347   1.486   2.193   9.136  0.3322  0.2369  0.0102
 3905SOL    HW123348   1.565   2.237   9.170  0.3079 -0.2852  0.7512
 3905SOL    HW223349   1.422   2.253   9.173 -1.0778 -1.7846  0.8223
 3906SOL     OW23350   1.881   1.929  12.468 -0.2271  0.3421 -0.0324
 3906SOL    HW123351   1.928   2.009  12.492  0.0317 -0.1561  1.1116
 3906SOL    HW223352   1.947   1.859  12.476 -0.5382  0.0676  0.1345
 3907SOL     OW23353   2.966   0.883   0.019  0.3982 -0.2400  0.4558
 3907SOL    HW123354   3.043   0.938   0.003  1.0337 -0.9132  1.1714
 3907SOL    HW223355   2.897   0.928  17.711  0.3103 -0.5302  0.3070
 3908SOL     OW23356   3.632   4.659  17.355 -0.4729  0.0023  0.3759
 3908SOL    HW123357   3.581   4.698  17.426 -2.9124 -2.0727 -0.2481
 3908SOL    HW223358   3.600   4.729  17.299 -0.2059 -0.5750 -0.4982
 3909SOL     OW23359   3.867   2.706   8.762 -0.4653  0.0396 -0.1699
 3909SOL    HW123360   3.807   2.772   8.726  0.5284  0.5034 -0.9653
 3909SOL    HW223361   3.949   2.743   8.729  0.4934 -0.4828  1.6144
 3910SOL     OW23362   3.392   4.726   4.318  0.3473  0.1654 -0.1813
 3910SOL    HW123363   3.339   0.060   4.279 -2.3529 -1.4355  0.6091
 3910SOL    HW223364   3.331   4.652   4.329 -1.8020  1.9634 -0.0481
 3911SOL     OW23365   3.437   1.807   2.758 -0.1945  0.0308 -0.6055
 3911SOL    HW123366   3.374   1.783   2.826  0.1883  0.3203 -0.1513
 3911SOL    HW223367   3.494   1.732   2.743  2.9618  2.1068  1.2571
 3912SOL     OW23368   2.963   2.645   5.544 -0.3057  0.7080  0.0511
 3912SOL    HW123369   3.004   2.731   5.532 -0.6678  1.0876  1.4714
 3912SOL    HW223370   3.036   2.595   5.582  0.7562  1.1354 -1.4410
 3913SOL     OW23371   3.750   2.432   6.434  0.1039 -0.8898 -0.6251
 3913SOL    HW123372   3.828   2.444   6.381 -0.2320 -0.5676 -1.0395
 3913SOL    HW223373   3.674   2.441   6.377 -1.8550  2.3373  2.5179
 3914SOL     OW23374   0.602   4.606  13.634 -0.0986  0.3370  0.6702
 3914SOL    HW123375   0.650   4.574  13.558  0.5838  0.8796  0.8765
 3914SOL    HW223376   0.658   4.574  13.705 -1.4953  1.5400  2.3107
 3915SOL     OW23377   1.731   4.216   2.479  0.0704 -0.2835  0.1407
 3915SOL    HW123378   1.674   4.287   2.448  0.7637 -0.3076 -1.1812
 3915SOL    HW223379   1.812   4.247   2.439 -0.3306 -0.5611 -0.8864
 3916SOL     OW23380   3.276   2.503   6.909  0.2163 -0.3628 -0.6692
 3916SOL    HW123381   3.306   2.593   6.892  2.9078 -0.9007  1.1795
 3916SOL    HW223382   3.186   2.513   6.941  0.5293 -2.1038  0.7593
 3917SOL     OW23383   3.528   0.301   5.892 -0.7889  0.1992  0.5365
 3917SOL    HW123384   3.559   0.370   5.951 -1.7633 -0.1406  1.4462
 3917SOL    HW223385   3.461   0.267   5.952 -0.4643 -0.7980  0.3181
 3918SOL     OW23386   2.154   1.173   5.220  0.1933  0.1217  0.7368
 3918SOL    HW123387   2.210   1.148   5.293  0.9079  0.5624  0.3391
 3918SOL    HW223388   2.069   1.137   5.247 -0.0586  1.0229  1.1486
 3919SOL     OW23389   4.139   2.886  17.273  0.5520  0.0572 -0.2397
 3919SOL    HW123390   4.204   2.826  17.311  1.3537  0.6178 -0.7136
 3919SOL    HW223391   4.201   2.955  17.249 -0.8535  0.8595 -1.4931
 3920SOL     OW23392   2.790   4.023   8.412  0.3074  0.7595 -0.5141
 3920SOL    HW123393   2.743   4.094   8.456 -3.1132 -2.6727  1.3165
 3920SOL    HW223394   2.719   3.963   8.391 -0.6665  0.6660  3.0945
 3921SOL     OW23395   4.422   2.741  15.096 -0.0485  0.0495  0.3492
 3921SOL    HW123396   4.341   2.779  15.132 -0.0545  0.5213 -0.1713
 3921SOL    HW223397   4.428   2.785  15.012 -1.6423  0.5232  0.4677
 3922SOL     OW23398   4.317   0.722   1.676  0.0744 -0.5739  0.2035
 3922SOL    HW123399   4.326   0.660   1.749  1.5371  0.2237  0.6987
 3922SOL    HW223400   4.348   0.805   1.713  3.6874 -0.8986 -2.1240
 3923SOL     OW23401   0.919   1.002  15.283  0.0901  0.0860 -0.0982
 3923SOL    HW123402   0.882   1.067  15.343  1.2270 -0.2131  0.9301
 3923SOL    HW223403   0.856   0.930  15.288 -0.6785  0.7070 -0.9470
 3924SOL     OW23404   3.719   0.978   8.925 -0.0553  0.0574  0.2196
 3924SOL    HW123405   3.678   0.951   8.843 -0.2799 -0.1930  0.4131
 3924SOL    HW223406   3.724   1.073   8.919  1.0157 -0.0069  0.1396
 3925SOL     OW23407   1.324   3.521  10.478  0.5130  0.3874 -0.3271
 3925SOL    HW123408   1.402   3.575  10.465 -0.6622  2.2588  0.3919
 3925SOL    HW223409   1.321   3.464  10.402  0.9823  2.0385 -1.5752
 3926SOL     OW23410   1.405   2.522  13.960 -0.5501  0.6994  0.1910
 3926SOL    HW123411   1.428   2.574  13.883 -2.2177  1.8629  0.4825
 3926SOL    HW223412   1.396   2.581  14.035 -1.9078  0.4979  0.1865
 3927SOL     OW23413   1.510   2.461   3.081 -0.0860 -0.2783 -0.0920
 3927SOL    HW123414   1.423   2.502   3.086 -0.2345 -0.3776 -1.7873
 3927SOL    HW223415   1.552   2.543   3.053 -0.8028  0.8267  2.0025
 3928SOL     OW23416   3.320   2.496   2.786  0.3578 -0.1835 -0.7145
 3928SOL    HW123417   3.232   2.530   2.806  0.5223 -1.0487  1.4039
 3928SOL    HW223418   3.361   2.579   2.762 -2.4312  1.4875  0.2299
 3929SOL     OW23419   1.371   3.793   5.825  0.4918 -0.4982 -0.8793
 3929SOL    HW123420   1.367   3.738   5.903 -0.1471  0.1105 -0.4862
 3929SOL    HW223421   1.439   3.857   5.845  0.4183 -0.1271 -1.8070
 3930SOL     OW23422   0.624   0.238   3.220 -0.4280  0.3853  0.1930
 3930SOL    HW123423   0.637   0.154   3.176  1.8944 -0.5942  2.8142
 3930SOL    HW223424   0.548   0.269   3.170 -0.0404  1.5597  0.3274
 3931SOL     OW23425   3.498   4.139  13.799  0.3378  0.9117 -0.4156
 3931SOL    HW123426   3.469   4.114  13.887 -0.8203  3.5701 -0.0727
 3931SOL    HW223427   3.594   4.141  13.800  0.3155  1.2958  0.3083
 3932SOL     OW23428   4.255   4.191   8.795  0.6441  0.2188  0.4907
 3932SOL    HW123429   4.202   4.251   8.847  0.1540  0.5865 -0.4400
 3932SOL    HW223430   4.341   4.222   8.824  0.4393  0.9794  0.2802
 3933SOL     OW23431   2.082   1.596   8.477 -0.1919  0.1795 -0.3191
 3933SOL    HW123432   2.155   1.591   8.538 -1.6772  0.4797  1.4723
 3933SOL    HW223433   2.020   1.530   8.508 -0.0467 -0.4172 -1.3080
 3934SOL     OW23434   0.980   1.915  12.088  0.1621  0.0017 -0.5367
 3934SOL    HW123435   0.899   1.953  12.053 -1.4409  0.6829  3.8997
 3934SOL    HW223436   1.016   1.993  12.131 -1.1545  0.8679 -1.0037
 3935SOL     OW23437   2.261   4.185   6.800  0.3420  0.3633  0.9904
 3935SOL    HW123438   2.199   4.220   6.864 -0.4778 -0.5454  0.6896
 3935SOL    HW223439   2.301   4.261   6.757 -2.6537  0.6759 -1.1886
 3936SOL     OW23440   0.964   3.017   4.010 -0.3070 -0.2519  0.0694
 3936SOL    HW123441   0.934   3.108   4.007 -1.3582 -0.5388  1.5241
 3936SOL    HW223442   1.002   3.023   4.098  2.0991 -1.2807 -0.9004
 3937SOL     OW23443   3.134   2.762   4.866  0.7676  0.6906  0.4481
 3937SOL    HW123444   3.043   2.738   4.854  0.0042  4.0873 -0.5233
 3937SOL    HW223445   3.166   2.797   4.783  1.3294 -0.4333  0.2035
 3938SOL     OW23446   4.069   1.153  10.235 -0.1451 -0.2528 -0.4146
 3938SOL    HW123447   4.072   1.230  10.292  1.0972 -0.9458  0.4481
 3938SOL    HW223448   4.000   1.107  10.283 -0.8284  2.7496  1.4745
 3939SOL     OW23449   1.607   4.616   6.229  0.0381  0.2743 -0.2059
 3939SOL    HW123450   1.524   4.622   6.277  0.5896  0.4365  0.7317
 3939SOL    HW223451   1.577   4.575   6.148  0.5580  0.3568 -0.4373
 3940SOL     OW23452   3.324   0.631   6.019  0.1615 -0.2831  0.0970
 3940SOL    HW123453   3.419   0.626   6.020  0.1272 -0.9373 -0.3625
 3940SOL    HW223454   3.310   0.678   5.936 -2.1147 -0.7126  0.2244
 3941SOL     OW23455   3.821   1.957   6.530 -0.3760  0.3191 -0.3746
 3941SOL    HW123456   3.784   1.884   6.579 -0.6303  0.6369 -0.0892
 3941SOL    HW223457   3.913   1.949   6.558  0.4622  3.1801 -2.2868
 3942SOL     OW23458   0.272   2.436  13.295  0.1054  0.2320  0.4312
 3942SOL    HW123459   0.313   2.374  13.234 -0.9147 -1.6713  1.6677
 3942SOL    HW223460   0.303   2.519  13.258 -1.8078 -0.4887 -2.7449
 3943SOL     OW23461   0.907   1.781   2.704  0.3770 -0.4564 -0.2078
 3943SOL    HW123462   0.956   1.826   2.774  0.4511  1.0764 -1.2485
 3943SOL    HW223463   0.954   1.833   2.639 -0.0703  1.2017  0.7779
 3944SOL     OW23464   1.385   4.268   4.538 -0.9196 -0.3077 -0.4983
 3944SOL    HW123465   1.469   4.302   4.568 -1.3617  0.1164  0.2457
 3944SOL    HW223466   1.330   4.297   4.611 -0.7243  0.2608 -0.5774
 3945SOL     OW23467   3.419   1.346   3.329 -0.2617  0.1013 -0.3403
 3945SOL    HW123468   3.351   1.402   3.291 -0.4435  2.3489  3.2814
 3945SOL    HW223469   3.400   1.260   3.291 -1.5418  1.1488 -2.0232
 3946SOL     OW23470   2.287   0.819   2.782 -0.2535  0.6007 -0.0269
 3946SOL    HW123471   2.260   0.744   2.728 -1.4108 -1.4757  3.4353
 3946SOL    HW223472   2.349   0.785   2.846 -1.0356  0.8927  0.8853
 3947SOL     OW23473   0.689   4.011   9.247  0.3162 -0.4746 -0.0853
 3947SOL    HW123474   0.605   4.023   9.203  0.5766 -0.2500 -0.5194
 3947SOL    HW223475   0.658   3.971   9.328  0.5558 -0.2786  0.1001
 3948SOL     OW23476   1.032   0.037   2.844 -0.4549 -0.1193  1.0484
 3948SOL    HW123477   0.957   4.716   2.826 -0.0381 -0.3820  0.1758
 3948SOL    HW223478   1.030   0.088   2.763  3.7845 -1.2154  0.2765
 3949SOL     OW23479   1.161   0.684   3.220 -0.3893 -0.0306 -0.1740
 3949SOL    HW123480   1.225   0.753   3.237 -1.3865  0.4664  1.4951
 3949SOL    HW223481   1.171   0.623   3.293 -0.9795  0.5323  0.3703
 3950SOL     OW23482   4.050   2.503  10.597 -0.4712  0.2647 -0.3426
 3950SOL    HW123483   4.145   2.498  10.601 -0.5003 -1.0861 -1.2630
 3950SOL    HW223484   4.021   2.440  10.531  0.1432  0.2493 -0.5926
 3951SOL     OW23485   3.904   0.902  16.945  0.2601 -0.5133  0.2529
 3951SOL    HW123486   3.866   0.923  16.860  0.6604 -4.4288 -0.8718
 3951SOL    HW223487   3.932   0.988  16.978  1.6361 -0.6337 -0.6190
 3952SOL     OW23488   4.002   0.392  14.543  0.0464 -0.0412 -0.9215
 3952SOL    HW123489   3.991   0.487  14.547 -1.2082 -0.2190 -0.3270
 3952SOL    HW223490   3.945   0.370  14.469  1.5437 -0.1476 -2.0391
 3953SOL     OW23491   0.080   0.161   7.437 -0.4263 -0.3951 -0.4046
 3953SOL    HW123492   0.018   0.227   7.407 -0.8780 -0.0900  1.1514
 3953SOL    HW223493   0.064   0.168   7.532 -0.4190 -2.0662 -0.2801
 3954SOL     OW23494   3.036   1.774   6.803  0.2279 -0.1673 -0.0324
 3954SOL    HW123495   3.116   1.734   6.769  0.7600 -0.1145  1.1661
 3954SOL    HW223496   3.042   1.755   6.896 -2.4029 -2.2328 -0.2815
 3955SOL     OW23497   1.523   2.279  11.583  0.8118  0.5111  0.0162
 3955SOL    HW123498   1.564   2.339  11.646 -3.5605 -1.4863  4.6592
 3955SOL    HW223499   1.462   2.226  11.633  1.9581 -1.5291 -0.7710
 3956SOL     OW23500   3.181   4.264  12.290 -0.2043 -0.0498  0.0268
 3956SOL    HW123501   3.138   4.323  12.227 -0.6281  0.3944  0.7352
 3956SOL    HW223502   3.266   4.309  12.296 -0.9078  1.2784 -0.0369
 3957SOL     OW23503   1.382   3.857  17.357 -0.0833 -0.6902  0.5945
 3957SOL    HW123504   1.445   3.919  17.394 -0.6187  0.7686 -0.9456
 3957SOL    HW223505   1.369   3.906  17.276  2.1434 -0.6763  0.2429
 3958SOL     OW23506   2.297   2.754  10.990  0.3586 -0.2410  0.3426
 3958SOL    HW123507   2.353   2.822  10.953 -1.4773  0.1440 -1.7957
 3958SOL    HW223508   2.261   2.717  10.909 -0.5540 -1.0959  1.1380
 3959SOL     OW23509   1.243   0.093   4.453  0.2509 -0.4128 -0.1917
 3959SOL    HW123510   1.228   0.037   4.529  1.3126 -0.9500 -0.3869
 3959SOL    HW223511   1.245   0.177   4.499 -0.1247  0.2076 -1.3132
 3960SOL     OW23512   1.694   3.722  12.077  0.2777  0.0040 -0.2394
 3960SOL    HW123513   1.644   3.684  12.005  0.7016 -0.5671 -0.2300
 3960SOL    HW223514   1.764   3.760  12.025  1.3099  0.0879  1.2151
 3961SOL     OW23515   0.446   4.445   1.096  0.1372  0.3152 -0.1260
 3961SOL    HW123516   0.466   4.538   1.083 -1.0005  0.3350 -1.7013
 3961SOL    HW223517   0.519   4.405   1.048  0.3096  1.3445 -0.7199
 3962SOL     OW23518   0.340   0.774   9.125 -0.3356  0.3140 -0.7473
 3962SOL    HW123519   0.250   0.773   9.158  0.6718 -1.1435  1.9488
 3962SOL    HW223520   0.377   0.840   9.184 -1.5893 -0.5454  0.9952
 3963SOL     OW23521   0.160   0.210   3.302  0.8766 -0.6456  0.3804
 3963SOL    HW123522   0.219   0.135   3.311  2.4094  0.2542 -2.4149
 3963SOL    HW223523   0.086   0.165   3.263 -0.2208  1.1433  0.4211
 3964SOL     OW23524   2.586   1.221   3.662  0.0731  0.0163 -0.0804
 3964SOL    HW123525   2.605   1.154   3.596  0.6983 -1.3453  1.5135
 3964SOL    HW223526   2.670   1.242   3.701  0.4480 -2.7964  0.5744
 3965SOL     OW23527   4.513   2.947  14.416  0.7562 -0.0517  0.0601
 3965SOL    HW123528   4.561   2.873  14.453  1.5129 -0.3755 -1.5740
 3965SOL    HW223529   4.556   3.008  14.476 -2.6150  0.5881  1.7758
 3966SOL     OW23530   0.592   2.773  17.113 -0.4021  0.4420  0.0008
 3966SOL    HW123531   0.616   2.681  17.114 -2.9935 -0.2302 -0.5665
 3966SOL    HW223532   0.611   2.803  17.202  1.6368 -0.8756  0.0149
 3967SOL     OW23533   3.113   3.367  11.516 -0.0529  0.1429  0.0304
 3967SOL    HW123534   3.186   3.376  11.576  0.1150  0.1578 -0.1769
 3967SOL    HW223535   3.045   3.370  11.583 -0.6841 -1.1539 -0.5431
 3968SOL     OW23536   0.702   3.950   7.222  0.1885 -0.3705 -0.4448
 3968SOL    HW123537   0.703   3.877   7.159  1.6581 -1.1769  0.5369
 3968SOL    HW223538   0.756   4.014   7.176 -0.3145 -0.1047 -0.6687
 3969SOL     OW23539   1.537   4.189   4.939  0.2553  0.3172 -0.4899
 3969SOL    HW123540   1.492   4.264   4.900  2.1023  2.4535  1.4627
 3969SOL    HW223541   1.549   4.216   5.030  0.1193 -1.2517 -0.0059
 3970SOL     OW23542   0.859   3.762   5.495  0.2228  0.0239  0.3149
 3970SOL    HW123543   0.935   3.793   5.545 -0.9342 -0.1993  2.2255
 3970SOL    HW223544   0.902   3.719   5.421 -0.4662  1.6549 -1.0258
 3971SOL     OW23545   3.099   0.395   8.383  0.7138  0.0337 -0.5657
 3971SOL    HW123546   3.120   0.467   8.442 -0.1154 -0.1607 -0.0334
 3971SOL    HW223547   3.177   0.385   8.329  0.6639 -0.4129 -0.5560
 3972SOL     OW23548   1.690   0.595   8.435 -0.3310 -0.3869  0.9365
 3972SOL    HW123549   1.636   0.516   8.435 -0.8018 -0.0704 -0.4053
 3972SOL    HW223550   1.716   0.587   8.527  1.9770 -1.9380  0.1499
 3973SOL     OW23551   4.435   1.267   3.177  0.3091  0.3615  0.7431
 3973SOL    HW123552   4.414   1.176   3.153  3.3839  0.0660 -0.9019
 3973SOL    HW223553   4.405   1.311   3.097  1.1203  1.8674  1.2694
 3974SOL     OW23554   3.244   0.690   3.301 -0.4121  0.2563 -0.7263
 3974SOL    HW123555   3.330   0.649   3.312 -0.6401  0.0569  0.3904
 3974SOL    HW223556   3.183   0.637   3.353 -1.1364  1.6454 -0.1584
 3975SOL     OW23557   2.115   3.488   9.044 -0.5367  0.1123  0.1174
 3975SOL    HW123558   2.146   3.574   9.072 -0.5215 -0.1280  0.8395
 3975SOL    HW223559   2.063   3.466   9.121  0.3443 -0.8705  0.4306
 3976SOL     OW23560   3.338   0.611  12.247  0.8451  0.2701 -0.2565
 3976SOL    HW123561   3.397   0.679  12.215  0.4680  0.0688 -1.3811
 3976SOL    HW223562   3.288   0.591  12.168  0.5460  1.7886 -0.4482
 3977SOL     OW23563   3.150   0.854   0.886  0.4247  0.0348 -0.2757
 3977SOL    HW123564   3.140   0.939   0.845 -0.4438 -0.2944 -0.7607
 3977SOL    HW223565   3.236   0.829   0.853  0.4194  1.0993 -1.0828
 3978SOL     OW23566   2.938   1.563   9.198  0.0296  0.4893 -0.2237
 3978SOL    HW123567   2.946   1.499   9.128 -1.2754  0.1413 -0.0527
 3978SOL    HW223568   2.933   1.501   9.271  1.2352 -1.2006 -1.6007
 3979SOL     OW23569   1.407   1.445   0.066  0.5499  0.3588 -0.7451
 3979SOL    HW123570   1.453   1.517   0.022 -0.0296  0.1226 -1.7346
 3979SOL    HW223571   1.325   1.463   0.021  1.4157  2.4021 -1.5208
 3980SOL     OW23572   0.793   2.878  15.330 -0.1491 -0.2615  0.1245
 3980SOL    HW123573   0.813   2.848  15.242 -0.2756 -1.3095  0.4459
 3980SOL    HW223574   0.804   2.972  15.318  0.3133 -0.5239 -1.3955
 3981SOL     OW23575   0.112   0.254   2.679  1.1102  0.4524  0.5180
 3981SOL    HW123576   0.107   0.290   2.590  0.3691  2.4375  1.3778
 3981SOL    HW223577   0.114   0.333   2.733  0.3645  0.9411 -0.1563
 3982SOL     OW23578   0.406   0.430  16.372 -0.4043 -0.2034  0.4203
 3982SOL    HW123579   0.464   0.496  16.408 -1.2132 -0.7128  2.6683
 3982SOL    HW223580   0.454   0.351  16.346 -0.3123 -0.4034  1.1961
 3983SOL     OW23581   3.067   4.120   3.564  0.0693 -0.2429  0.1389
 3983SOL    HW123582   2.990   4.065   3.576  0.9231 -1.7449 -1.2346
 3983SOL    HW223583   3.026   4.197   3.525  0.4779 -0.9937 -1.7560
 3984SOL     OW23584   2.209   4.495  13.169  0.2786  0.3418 -0.3986
 3984SOL    HW123585   2.172   4.463  13.087  0.6282 -0.8872 -0.0753
 3984SOL    HW223586   2.288   4.442  13.175 -0.8298 -1.1620  1.0536
 3985SOL     OW23587   2.144   2.738   4.811 -0.4992  0.0357  0.0084
 3985SOL    HW123588   2.110   2.667   4.757  0.8505 -0.5497 -0.0976
 3985SOL    HW223589   2.165   2.796   4.738 -1.5205  1.7881  1.1295
 3986SOL     OW23590   0.006   3.065   7.423  0.3701  0.2915  0.0161
 3986SOL    HW123591   4.717   3.028   7.508 -0.1846 -0.6507 -0.5539
 3986SOL    HW223592   4.686   3.012   7.365  0.6364 -0.1777  0.1911
 3987SOL     OW23593   2.695   4.230  13.002 -0.2132 -0.2045 -0.2876
 3987SOL    HW123594   2.654   4.189  12.926 -1.9714  0.0716  0.4878
 3987SOL    HW223595   2.789   4.215  12.991 -0.0225  1.2334 -0.6636
 3988SOL     OW23596   4.719   4.269  14.975 -0.2639  0.1129  0.5110
 3988SOL    HW123597   4.696   4.191  14.926 -0.6326 -0.0215  0.8903
 3988SOL    HW223598   0.009   4.236  15.061  1.2913  2.7847  1.0987
 3989SOL     OW23599   3.588   1.149   6.431 -0.1466  0.6791 -0.2129
 3989SOL    HW123600   3.561   1.223   6.486 -1.3913  2.0599 -2.6821
 3989SOL    HW223601   3.499   1.133   6.401 -0.0505 -2.7756  1.3487
 3990SOL     OW23602   2.425   0.799   8.650 -0.0581 -0.4097 -0.0297
 3990SOL    HW123603   2.517   0.791   8.622  0.0670  0.0070  0.2699
 3990SOL    HW223604   2.383   0.819   8.566  1.5241 -1.4569 -1.0738
 3991SOL     OW23605   2.418   3.949   2.387  0.4402 -0.2707  0.0138
 3991SOL    HW123606   2.362   4.025   2.402  2.0421  0.8355  0.3314
 3991SOL    HW223607   2.355   3.903   2.331  0.0224 -0.8208  0.9329
 3992SOL     OW23608   0.020   4.413  14.267 -0.0347  0.7691 -0.1793
 3992SOL    HW123609   0.089   4.479  14.260 -1.4914  2.2811 -0.1622
 3992SOL    HW223610   0.031   4.376  14.355 -0.3670  1.9743  0.3533
 3993SOL     OW23611   0.153   2.150  16.164 -0.5435  0.2362  0.0065
 3993SOL    HW123612   0.216   2.078  16.168 -0.5912  0.1903 -0.0682
 3993SOL    HW223613   0.188   2.206  16.095  1.5341 -0.0804  0.8026
 3994SOL     OW23614   2.779   0.207  13.485  0.6173 -0.2451 -0.4475
 3994SOL    HW123615   2.872   0.188  13.495  0.5637 -0.3268 -0.0904
 3994SOL    HW223616   2.778   0.301  13.501  1.7733  0.0491 -2.1047
 3995SOL     OW23617   2.904   3.152   5.581  0.0980  0.5961 -0.4628
 3995SOL    HW123618   2.858   3.147   5.664 -1.4879 -1.6191 -1.4965
 3995SOL    HW223619   2.848   3.093   5.532 -2.1250  2.1157  0.2449
 3996SOL     OW23620   3.209   1.708   9.529 -0.4423  0.2306  0.9083
 3996SOL    HW123621   3.124   1.710   9.573 -0.8804 -2.0150  0.1531
 3996SOL    HW223622   3.244   1.623   9.554 -0.2901  0.8133  2.7162
 3997SOL     OW23623   3.465   0.626   4.510 -0.1362  0.1540 -0.1542
 3997SOL    HW123624   3.466   0.679   4.429  1.1953  2.3011  1.2799
 3997SOL    HW223625   3.382   0.581   4.495 -0.3804  0.0378  1.5832
 3998SOL     OW23626   3.809   1.488   4.050 -0.7010 -0.3195 -0.0699
 3998SOL    HW123627   3.759   1.570   4.056 -0.2914 -0.0569 -0.2672
 3998SOL    HW223628   3.740   1.427   4.022  0.7785 -1.4172 -1.2981
 3999SOL     OW23629   2.872   1.933   3.593  0.0015  0.5960  0.5821
 3999SOL    HW123630   2.820   1.918   3.672 -0.5475  0.5857  0.2187
 3999SOL    HW223631   2.807   1.914   3.525  0.1826 -0.7038  0.7704
 4000SOL     OW23632   3.930   2.196  16.930 -0.6639  0.9962 -0.3424
 4000SOL    HW123633   4.020   2.227  16.946 -1.0518  1.5220  0.8490
 4000SOL    HW223634   3.935   2.172  16.838  0.5422  0.5442 -0.1610
 4001SOL     OW23635   3.839   0.387   8.007 -0.0587  0.0956  0.3551
 4001SOL    HW123636   3.850   0.454   7.940  0.7396 -0.8422 -0.4568
 4001SOL    HW223637   3.926   0.349   7.997  0.6803  2.3111 -1.6164
 4002SOL     OW23638   0.904   2.109   4.826  0.1300 -0.4351  0.1094
 4002SOL    HW123639   0.836   2.045   4.844  1.3089 -2.0073 -0.9575
 4002SOL    HW223640   0.946   2.115   4.912  0.7734  0.4881 -0.2714
 4003SOL     OW23641   2.246   0.459  12.162 -0.1662  0.4479 -0.6112
 4003SOL    HW123642   2.233   0.365  12.148  0.7524  0.0448  1.2703
 4003SOL    HW223643   2.177   0.476  12.226 -0.5208 -2.2207 -0.2680
 4004SOL     OW23644   0.212   3.250   2.372 -0.1767 -0.1717 -0.2435
 4004SOL    HW123645   0.300   3.234   2.340 -0.1172  1.4366 -0.8781
 4004SOL    HW223646   0.165   3.177   2.331 -1.1196  0.5186 -0.4087
 4005SOL     OW23647   0.261   3.936  14.132  0.1031 -0.3268  0.5360
 4005SOL    HW123648   0.269   4.024  14.169 -0.2431  0.3043 -0.8970
 4005SOL    HW223649   0.347   3.928  14.090 -0.1849 -1.5847  0.1647
 4006SOL     OW23650   2.876   2.489   2.224 -0.6617 -1.0652  0.1159
 4006SOL    HW123651   2.857   2.583   2.216  0.6955 -0.7727  0.3329
 4006SOL    HW223652   2.794   2.444   2.203  0.0799 -1.8492 -1.1061
 4007SOL     OW23653   2.236   3.722   3.809 -0.1025 -0.1034  0.1486
 4007SOL    HW123654   2.235   3.779   3.733 -1.5402 -1.9784 -1.2390
 4007SOL    HW223655   2.179   3.650   3.782  0.6124  0.2279 -2.2466
 4008SOL     OW23656   1.516   2.322   4.415  0.3904 -0.1688  0.6004
 4008SOL    HW123657   1.539   2.391   4.478 -1.7263 -1.8376  3.1729
 4008SOL    HW223658   1.427   2.341   4.386  0.2048  0.1990  1.4012
 4009SOL     OW23659   1.907   1.615   3.616 -0.2784  0.2072 -0.4157
 4009SOL    HW123660   1.979   1.614   3.680 -2.0072 -1.0810  1.5082
 4009SOL    HW223661   1.843   1.552   3.648 -1.9580  2.0287 -0.2360
 4010SOL     OW23662   0.078   4.645   7.687  0.5034  0.3714  0.2077
 4010SOL    HW123663   0.046   4.735   7.676 -3.4071 -0.9718  0.6817
 4010SOL    HW223664   0.084   4.645   7.782  1.0254  1.3993  0.1755
 4011SOL     OW23665   2.058   2.308  13.633 -0.3641  0.7000  0.0036
 4011SOL    HW123666   1.984   2.290  13.575  0.1261  2.4842 -1.1808
 4011SOL    HW223667   2.012   2.354  13.703 -1.0911 -0.2168  0.1311
 4012SOL     OW23668   1.498   1.255   9.687 -0.5596  0.4848  0.0526
 4012SOL    HW123669   1.449   1.332   9.714 -1.5059  0.1020 -0.5777
 4012SOL    HW223670   1.583   1.291   9.660  0.2118 -0.3786  1.3414
 4013SOL     OW23671   2.511   1.764   8.454  0.5476  0.6016  0.4261
 4013SOL    HW123672   2.453   1.831   8.491  0.2190 -0.1443  1.2696
 4013SOL    HW223673   2.563   1.749   8.533  0.2067  0.0531  0.5460
 4014SOL     OW23674   2.915   0.627   7.250  0.8161  0.5464  0.2703
 4014SOL    HW123675   2.879   0.605   7.164  0.1314  0.7280  0.5130
 4014SOL    HW223676   3.007   0.641   7.226  1.2201 -1.6749  0.6094
 4015SOL     OW23677   4.442   2.880   2.618 -0.2580  0.1145  0.0129
 4015SOL    HW123678   4.434   2.963   2.571 -2.3116 -0.1760 -0.1539
 4015SOL    HW223679   4.395   2.900   2.700 -0.7820  0.3017 -0.3341
 4016SOL     OW23680   0.371   2.777   0.734  0.5742 -0.4791  0.1035
 4016SOL    HW123681   0.326   2.725   0.667 -0.2978 -0.4160  0.6449
 4016SOL    HW223682   0.385   2.709   0.799 -1.4477  0.4782  1.5261
 4017SOL     OW23683   0.842   0.756   1.525  0.7228 -0.0235  0.0145
 4017SOL    HW123684   0.768   0.814   1.545  0.8050  0.7259 -1.8443
 4017SOL    HW223685   0.838   0.766   1.430 -0.7895 -1.1806 -0.0443
 4018SOL     OW23686   1.986   2.758  15.065 -0.3147 -0.3152  0.4019
 4018SOL    HW123687   2.031   2.708  14.997 -0.3600  0.8168 -0.4632
 4018SOL    HW223688   2.018   2.846  15.043 -0.9402  0.1770  1.4513
 4019SOL     OW23689   1.406   2.334   7.732 -0.2913 -0.4551 -0.6954
 4019SOL    HW123690   1.415   2.295   7.645 -0.7902  2.3814 -2.0235
 4019SOL    HW223691   1.383   2.424   7.708 -2.3834 -0.1862  2.2758
 4020SOL     OW23692   4.250   3.114   4.810 -0.4700 -0.1925  0.1315
 4020SOL    HW123693   4.289   3.138   4.894  0.7661 -1.3357 -0.1392
 4020SOL    HW223694   4.253   3.202   4.772 -0.0533  0.7552  2.3432
 4021SOL     OW23695   1.983   2.646  12.142 -0.3996  0.5953 -0.2687
 4021SOL    HW123696   1.932   2.581  12.190 -0.0879  0.1120 -0.5812
 4021SOL    HW223697   1.921   2.719  12.142 -0.8743  0.1871 -1.7793
 4022SOL     OW23698   3.690   3.069   3.637 -0.5555 -0.0235  0.1241
 4022SOL    HW123699   3.720   2.979   3.653 -3.1093 -0.9056 -0.0674
 4022SOL    HW223700   3.771   3.117   3.624 -0.1118 -1.3432 -1.9625
 4023SOL     OW23701   4.325   3.758   8.049  0.9045 -0.2351  0.2161
 4023SOL    HW123702   4.343   3.681   7.995  0.7958  0.5360 -0.9006
 4023SOL    HW223703   4.263   3.795   7.987  1.8821  0.7474 -0.1838
 4024SOL     OW23704   4.594   2.595   3.322 -0.0019 -0.0222 -0.0780
 4024SOL    HW123705   4.683   2.612   3.353  0.3004 -1.1843 -0.3027
 4024SOL    HW223706   4.609   2.582   3.229 -0.5941  0.1048 -0.1884
 4025SOL     OW23707   2.660   1.476   0.752 -0.2215  0.1945  0.0816
 4025SOL    HW123708   2.698   1.544   0.697  1.7285 -0.4310  0.6386
 4025SOL    HW223709   2.708   1.403   0.712  0.1315  2.6377 -3.8888
 4026SOL     OW23710   0.517   2.187   6.738  0.1280  0.6535  0.1837
 4026SOL    HW123711   0.557   2.103   6.764 -0.7372  0.2757  0.3250
 4026SOL    HW223712   0.570   2.214   6.664  0.3972 -0.9500 -0.2088
 4027SOL     OW23713   0.497   4.387   8.189  0.2995  0.0766 -0.1658
 4027SOL    HW123714   0.459   4.328   8.124  1.4773 -0.6568 -0.2012
 4027SOL    HW223715   0.580   4.399   8.141 -0.2361 -1.3873 -1.4317
 4028SOL     OW23716   2.494   1.895  14.152 -0.2807  0.4002 -0.3364
 4028SOL    HW123717   2.467   1.937  14.070  0.0621 -1.3928 -1.3739
 4028SOL    HW223718   2.411   1.903  14.198  0.2058 -0.4391  0.6722
 4029SOL     OW23719   0.643   2.858   2.146 -0.3737  0.3269 -0.5060
 4029SOL    HW123720   0.679   2.862   2.057 -2.8555  1.1866 -1.4713
 4029SOL    HW223721   0.553   2.889   2.132 -0.0187  0.7397 -1.9025
 4030SOL     OW23722   2.613   4.580   8.247  0.4186 -0.1221 -0.6671
 4030SOL    HW123723   2.579   4.582   8.337  2.7666 -1.8816  0.2417
 4030SOL    HW223724   2.541   4.559   8.188 -1.8812  3.3906  0.8760
 4031SOL     OW23725   0.609   1.323   9.460  0.1083  0.3039 -0.0918
 4031SOL    HW123726   0.579   1.406   9.495  1.3082  0.8887 -0.4249
 4031SOL    HW223727   0.629   1.350   9.370  2.2993  1.4559  0.7313
 4032SOL     OW23728   3.254   1.425   6.238  0.0992  0.4898  0.6680
 4032SOL    HW123729   3.212   1.423   6.152  0.2854 -2.3033  0.6543
 4032SOL    HW223730   3.235   1.514   6.267  0.8793  0.8675 -0.0023
 4033SOL     OW23731   3.835   3.636   2.516 -0.1082 -0.4030 -0.1557
 4033SOL    HW123732   3.827   3.702   2.585  0.0822 -0.8338  0.2845
 4033SOL    HW223733   3.810   3.689   2.441  0.5355  0.9826  0.6116
 4034SOL     OW23734   4.412   4.023   4.397 -0.3333 -0.3129  0.0215
 4034SOL    HW123735   4.391   4.025   4.304 -2.0167  3.4851  0.4946
 4034SOL    HW223736   4.346   4.080   4.437 -0.5630 -1.0885  0.7492
 4035SOL     OW23737   1.675   0.088   3.056  0.0748 -0.1881 -0.0530
 4035SOL    HW123738   1.641   0.039   3.131  0.5234 -1.5147 -0.7277
 4035SOL    HW223739   1.645   0.170   3.094  1.0846 -0.1783  0.7314
 4036SOL     OW23740   4.365   0.474   3.603 -0.0055  0.5616  0.3068
 4036SOL    HW123741   4.348   0.431   3.520 -0.3995  0.4355  0.4531
 4036SOL    HW223742   4.278   0.468   3.644  0.0441  0.3586  0.3831
 4037SOL     OW23743   1.865   3.985   8.617  0.2103  0.4024  0.0160
 4037SOL    HW123744   1.853   4.080   8.615 -2.2535  0.0796 -1.6280
 4037SOL    HW223745   1.881   3.968   8.524 -0.8796  0.0697 -0.1120
 4038SOL     OW23746   3.200   3.071   4.062 -0.2114 -0.0350 -0.3266
 4038SOL    HW123747   3.252   3.136   4.016 -1.6569  0.0089 -1.8924
 4038SOL    HW223748   3.260   2.998   4.073 -0.3411 -0.2153 -0.8663
 4039SOL     OW23749   4.529   0.336   2.400 -0.3912  0.0654 -0.0791
 4039SOL    HW123750   4.587   0.314   2.327  0.5529 -0.2700  0.7791
 4039SOL    HW223751   4.457   0.353   2.339 -0.9482  1.0456  0.8345
 4040SOL     OW23752   3.829   1.731   0.768  0.0298  0.1427 -0.2528
 4040SOL    HW123753   3.751   1.763   0.722 -0.7694 -1.0636  0.2339
 4040SOL    HW223754   3.836   1.650   0.718  0.2572 -0.2204  0.3683
 4041SOL     OW23755   0.644   3.742   6.347  0.0033 -0.1362  0.4693
 4041SOL    HW123756   0.637   3.729   6.252 -0.1858  0.6297  0.3718
 4041SOL    HW223757   0.631   3.837   6.345 -2.3259 -0.4680 -1.2260
 4042SOL     OW23758   3.779   4.701   4.098 -0.1820  0.4769 -0.0812
 4042SOL    HW123759   3.833   4.697   4.019 -1.6698  0.6990 -1.1092
 4042SOL    HW223760   3.784   0.056   4.132 -0.4117 -0.3588  2.1618
 4043SOL     OW23761   3.625   4.702   2.436  0.1036 -1.2102  0.2511
 4043SOL    HW123762   3.655   4.688   2.346 -0.1445 -1.1614  0.1602
 4043SOL    HW223763   3.634   4.612   2.467  0.0364 -0.5480  2.1547
 4044SOL     OW23764   4.385   0.667   5.734 -0.0003  0.0668  0.8322
 4044SOL    HW123765   4.293   0.687   5.753  0.4770  2.3017  0.8002
 4044SOL    HW223766   4.418   0.630   5.816  0.6971  0.4176  0.7063
 4045SOL     OW23767   2.711   1.987  11.150 -0.5685 -0.1593 -0.0119
 4045SOL    HW123768   2.620   1.958  11.157 -0.8068  1.2291  2.6040
 4045SOL    HW223769   2.730   2.031  11.067  4.0328  0.1401  1.2133
 4046SOL     OW23770   1.486   3.237   5.458  0.4493 -0.3802  0.6443
 4046SOL    HW123771   1.492   3.175   5.531  0.9334 -2.0406 -0.8268
 4046SOL    HW223772   1.574   3.234   5.421  0.0887 -2.9918  0.0067
 4047SOL     OW23773   3.085   2.799   9.103 -0.0852 -0.3366 -0.1668
 4047SOL    HW123774   3.156   2.735   9.101 -2.3076 -2.8087  1.2313
 4047SOL    HW223775   3.084   2.796   9.199 -1.9773 -1.1662 -0.2174
 4048SOL     OW23776   1.510   3.404   5.824 -0.5546  0.6449 -0.1536
 4048SOL    HW123777   1.463   3.474   5.779 -1.4501  1.6280  2.2804
 4048SOL    HW223778   1.432   3.350   5.836 -0.5442  0.9012  1.1235
 4049SOL     OW23779   4.440   0.939   2.095  0.0180 -0.1342 -0.2474
 4049SOL    HW123780   4.423   1.004   2.027  0.1000 -0.7504 -0.8649
 4049SOL    HW223781   4.522   0.966   2.134 -0.5551  3.2573 -1.4239
 4050SOL     OW23782   4.471   3.302   1.058 -0.3397 -0.5313 -0.0040
 4050SOL    HW123783   4.501   3.275   0.971 -0.8541  1.9004 -0.9126
 4050SOL    HW223784   4.380   3.323   1.037 -0.7219 -1.6096  0.5235
 4051SOL     OW23785   2.077   0.828   8.783 -0.4795  0.8630  0.0260
 4051SOL    HW123786   2.031   0.899   8.829 -0.6147  1.8670 -1.6758
 4051SOL    HW223787   2.088   0.866   8.696 -2.2635 -0.6643 -0.8832
 4052SOL     OW23788   2.390   2.762   2.825 -0.1994 -0.2399  0.2181
 4052SOL    HW123789   2.481   2.743   2.847  0.5238  1.9936 -0.8779
 4052SOL    HW223790   2.392   2.806   2.740 -3.4015 -2.3789 -0.9757
 4053SOL     OW23791   2.791   2.304  11.470  0.0199  0.3985 -0.2331
 4053SOL    HW123792   2.715   2.325  11.416 -0.3311 -1.6108 -0.5156
 4053SOL    HW223793   2.788   2.210  11.452  2.3074 -0.2688  2.9017
 4054SOL     OW23794   3.926   2.089  13.998 -0.5413  0.2150 -0.1074
 4054SOL    HW123795   3.953   2.179  13.980  0.7813 -0.2683 -0.5329
 4054SOL    HW223796   3.917   2.050  13.911 -0.2946 -0.4459  0.1649
 4055SOL     OW23797   0.299   0.021   9.609  0.6322  0.3757 -0.0012
 4055SOL    HW123798   0.352   4.687   9.649  0.2950 -1.6684 -3.1109
 4055SOL    HW223799   0.341   0.096   9.651 -0.4121  0.6217  0.5942
 4056SOL     OW23800   0.601   1.353  12.137 -0.4322 -0.3133 -0.4103
 4056SOL    HW123801   0.670   1.287  12.145 -1.1328 -0.9238  0.5575
 4056SOL    HW223802   0.529   1.291  12.150 -2.2816  1.5389 -1.8335
 4057SOL     OW23803   3.700   0.895  17.679  0.3820 -0.1309  0.8927
 4057SOL    HW123804   3.692   0.807  17.718  0.4502 -0.6403 -0.2273
 4057SOL    HW223805   3.617   0.921  17.639  0.5983 -0.0567  0.4870
 4058SOL     OW23806   0.643   1.498  11.305  0.3113 -0.2208  0.7297
 4058SOL    HW123807   0.706   1.530  11.369 -0.5568 -0.6421  1.7975
 4058SOL    HW223808   0.674   1.410  11.285 -1.4376 -0.9392  1.1969
 4059SOL     OW23809   2.250   2.317   5.255  0.2785  0.3731  0.4306
 4059SOL    HW123810   2.197   2.352   5.183  1.1926  2.8631  0.9758
 4059SOL    HW223811   2.333   2.329   5.209  0.2420  0.2123  0.3236
 4060SOL     OW23812   0.882   2.269   5.513 -0.1154  0.3501 -0.1401
 4060SOL    HW123813   0.857   2.228   5.431  1.6121  0.3881 -0.6791
 4060SOL    HW223814   0.974   2.247   5.504  0.2073  1.0634  1.3506
 4061SOL     OW23815   2.537   0.485  17.339  0.5624 -0.4879 -0.3217
 4061SOL    HW123816   2.445   0.483  17.363  0.7416  0.8977  0.4640
 4061SOL    HW223817   2.544   0.558  17.278  1.1761 -0.3633 -0.1004
 4062SOL     OW23818   0.702   3.382   7.121  0.1844  0.1774  0.3134
 4062SOL    HW123819   0.610   3.390   7.097  1.0020  0.8453 -2.5364
 4062SOL    HW223820   0.715   3.289   7.106  0.5124  0.0800  1.2154
 4063SOL     OW23821   2.442   1.924   1.969 -0.3859 -0.1889 -0.4493
 4063SOL    HW123822   2.495   1.987   2.017 -1.6528 -0.6986  1.6188
 4063SOL    HW223823   2.497   1.893   1.898 -0.5052  0.4169 -0.8087
 4064SOL     OW23824   4.050   2.157   4.840  0.0976 -0.2676  0.8146
 4064SOL    HW123825   4.124   2.183   4.895  1.2118  0.3534 -0.9604
 4064SOL    HW223826   4.047   2.064   4.865  0.9571  0.0769  2.1996
 4065SOL     OW23827   2.241   1.504   5.039  0.1911  0.0013 -0.8605
 4065SOL    HW123828   2.316   1.548   4.999  0.1479 -0.5860 -1.5956
 4065SOL    HW223829   2.289   1.433   5.082 -1.8346 -1.4717 -1.0751
 4066SOL     OW23830   4.014   2.322  13.855  0.4327  0.0979 -0.0343
 4066SOL    HW123831   3.999   2.394  13.793  2.9874 -0.6005 -1.4454
 4066SOL    HW223832   4.097   2.290  13.821  0.2623 -0.6813  0.2952
 4067SOL     OW23833   3.396   2.150   5.992  0.3862  0.0041 -0.1612
 4067SOL    HW123834   3.364   2.226   6.040 -0.6818 -0.9653  0.6406
 4067SOL    HW223835   3.486   2.151   6.026  0.7931 -3.1053 -1.1464
 4068SOL     OW23836   1.740   1.536   9.225 -0.0391 -0.2583  0.6006
 4068SOL    HW123837   1.713   1.546   9.317 -0.3042  0.0617  0.4887
 4068SOL    HW223838   1.822   1.585   9.236  1.1011 -1.9095 -0.6907
 4069SOL     OW23839   0.295   1.822  12.449 -1.0263  0.1466 -0.2174
 4069SOL    HW123840   0.270   1.836  12.541  0.0253  1.5179 -0.1427
 4069SOL    HW223841   0.335   1.908  12.436 -1.1024  0.3126  0.6449
 4070SOL     OW23842   2.916   2.836  11.314 -0.0803  0.5105  0.2999
 4070SOL    HW123843   2.979   2.829  11.242 -2.0348  2.3240 -1.5908
 4070SOL    HW223844   2.977   2.880  11.373 -2.0843 -1.5536  3.9013
 4071SOL     OW23845   1.865   2.982   7.080  0.4561  0.5247  0.0701
 4071SOL    HW123846   1.800   3.049   7.059  0.6642  0.0757 -2.0009
 4071SOL    HW223847   1.905   3.012   7.162  0.3950  0.0505  0.2713
 4072SOL     OW23848   3.517   3.301   8.260 -0.0248  0.0991 -0.1208
 4072SOL    HW123849   3.535   3.268   8.348  2.1403 -2.3767 -1.5000
 4072SOL    HW223850   3.491   3.390   8.282 -1.1391 -0.4120  0.6377
 4073SOL     OW23851   2.404   3.373   4.242 -0.5111  0.2188 -0.4262
 4073SOL    HW123852   2.411   3.449   4.184 -0.0326  0.7458  0.3132
 4073SOL    HW223853   2.332   3.324   4.205 -0.6553  0.2527 -0.1897
 4074SOL     OW23854   4.374   1.132   6.616  0.1167  0.2336 -0.1994
 4074SOL    HW123855   4.333   1.068   6.674  0.3323  0.3860  0.1211
 4074SOL    HW223856   4.324   1.133   6.535  2.0245  1.8710 -1.3547
 4075SOL     OW23857   0.440   0.037   3.918 -0.0144 -0.0126 -0.3866
 4075SOL    HW123858   0.359   0.002   3.882 -0.7417  0.2085  1.0368
 4075SOL    HW223859   0.501   4.702   3.893 -1.5473 -0.6545 -2.3954
 4076SOL     OW23860   2.052   4.470   8.293  0.0684 -0.3064  0.3433
 4076SOL    HW123861   2.020   4.417   8.365  0.9490 -0.7329  0.4176
 4076SOL    HW223862   2.103   4.540   8.334  0.0271  1.4804 -2.6657
 4077SOL     OW23863   0.168   4.068  15.405  0.2662  0.2190 -0.5213
 4077SOL    HW123864   0.248   4.085  15.354 -1.4584  1.6716 -2.7337
 4077SOL    HW223865   0.118   4.143  15.372  0.6311  0.8715  0.4127
 4078SOL     OW23866   3.874   4.713   3.677  0.5801  0.1738 -0.4949
 4078SOL    HW123867   3.793   4.664   3.669  1.2473 -0.8830 -0.6946
 4078SOL    HW223868   3.941   4.646   3.684 -0.7477 -1.0372  0.4794
 4079SOL     OW23869   2.472   2.224   3.009 -0.0798  0.2641  0.2412
 4079SOL    HW123870   2.517   2.188   2.932  2.8289  0.3623  1.8903
 4079SOL    HW223871   2.531   2.300   3.010  1.4989 -0.8901 -3.9178
 4080SOL     OW23872   0.803   0.354   2.828 -0.0958 -0.3054  0.0068
 4080SOL    HW123873   0.723   0.404   2.811  0.5404  0.7399  0.0536
 4080SOL    HW223874   0.804   0.362   2.923 -0.2659 -1.5344  0.1138
 4081SOL     OW23875   4.604   0.588   3.384  0.2180  0.1013 -0.2389
 4081SOL    HW123876   4.609   0.493   3.398 -2.4450 -0.0996 -0.7941
 4081SOL    HW223877   4.575   0.608   3.473  3.5018 -1.5430  1.2023
 4082SOL     OW23878   3.854   1.655   4.969 -0.2464 -0.5956 -0.6775
 4082SOL    HW123879   3.914   1.584   4.993  0.3998 -0.9995 -3.4671
 4082SOL    HW223880   3.775   1.630   5.016  1.6058 -1.7292  1.8334
 4083SOL     OW23881   2.400   3.508   6.701 -0.4633  0.0764  0.1720
 4083SOL    HW123882   2.370   3.503   6.791  1.6971  0.4177  0.9017
 4083SOL    HW223883   2.354   3.587   6.670 -0.2985 -0.5263 -1.6442
 4084SOL     OW23884   4.427   2.579   4.755 -0.4236 -0.6571 -0.1302
 4084SOL    HW123885   4.462   2.490   4.751  0.5023 -0.3309  0.7949
 4084SOL    HW223886   4.337   2.547   4.760 -0.2113 -1.4420 -1.1595
 4085SOL     OW23887   3.093   4.285  10.500  0.0593 -0.1716  0.3396
 4085SOL    HW123888   3.184   4.278  10.470  0.3565  0.4210  1.1196
 4085SOL    HW223889   3.046   4.263  10.419 -2.7162  1.7915  1.4287
 4086SOL     OW23890   0.888   3.593   3.621  0.7031  0.0624  0.2423
 4086SOL    HW123891   0.836   3.611   3.543  0.1731  2.9083  1.2678
 4086SOL    HW223892   0.877   3.676   3.667 -0.7328 -0.0711  0.1578
 4087SOL     OW23893   2.156   4.633  13.385 -1.0179  0.5034 -0.0833
 4087SOL    HW123894   2.185   4.589  13.305 -4.0399  0.3908 -1.1146
 4087SOL    HW223895   2.130   4.561  13.443  1.2944 -1.0176 -0.9512
 4088SOL     OW23896   1.169   2.160   2.480  0.6205  0.5517 -0.0489
 4088SOL    HW123897   1.088   2.210   2.483 -1.6595 -3.1628  1.0679
 4088SOL    HW223898   1.155   2.074   2.519  0.6677  1.9640  3.0132
 4089SOL     OW23899   3.585   3.615  10.978 -0.7777 -0.2762 -0.5219
 4089SOL    HW123900   3.552   3.528  11.002  3.1345 -0.4735  4.3042
 4089SOL    HW223901   3.670   3.585  10.946 -0.9088  0.6230 -1.7046
 4090SOL     OW23902   2.077   3.095   2.215 -0.2690  0.0033 -0.0423
 4090SOL    HW123903   2.015   3.023   2.226  0.4789 -0.5979  0.2326
 4090SOL    HW223904   2.062   3.122   2.124 -0.9442  1.1390  0.3967
 4091SOL     OW23905   2.458   0.101   2.668  0.2618 -0.7614 -0.6483
 4091SOL    HW123906   2.440   0.168   2.602 -1.7365  0.2519  0.9314
 4091SOL    HW223907   2.473   0.157   2.744  0.8506 -1.3773 -0.3019
 4092SOL     OW23908   2.591   4.275   3.174  0.4871 -0.5001  0.3878
 4092SOL    HW123909   2.544   4.349   3.210 -0.4538 -1.2163  0.6236
 4092SOL    HW223910   2.661   4.321   3.128  0.0244 -1.3771 -1.1934
 4093SOL     OW23911   3.906   3.805   2.964 -0.3825  0.2203  0.2313
 4093SOL    HW123912   3.907   3.789   2.870  2.1079 -1.4554  0.5622
 4093SOL    HW223913   3.900   3.901   2.967  0.3578  0.2003  2.3780
 4094SOL     OW23914   3.813   0.877   4.721  0.4542  0.5239  0.3802
 4094SOL    HW123915   3.893   0.829   4.699  0.1367 -0.4168  1.2678
 4094SOL    HW223916   3.759   0.804   4.750 -2.0560  0.8886 -3.3982
 4095SOL     OW23917   1.671   0.721   2.900  0.7344  0.2046  0.3820
 4095SOL    HW123918   1.709   0.756   2.980  1.5202 -0.5794  0.3530
 4095SOL    HW223919   1.579   0.738   2.921  1.0901  1.1811  1.1254
 4096SOL     OW23920   2.095   4.424   5.302  0.5726 -0.3366 -0.1433
 4096SOL    HW123921   2.138   4.450   5.221  0.9437 -1.2726 -0.2426
 4096SOL    HW223922   2.120   4.332   5.305  0.0713 -0.4605  0.3341
 4097SOL     OW23923   4.527   0.347  12.073  0.0990  0.3533  0.2535
 4097SOL    HW123924   4.543   0.302  11.990  0.9638 -2.2151  1.7982
 4097SOL    HW223925   4.528   0.439  12.045 -2.1010  0.6096  0.9671
 4098SOL     OW23926   4.099   0.225   6.606 -0.6688 -0.0606 -0.0452
 4098SOL    HW123927   4.036   0.282   6.562  0.0151  0.5607 -0.2211
 4098SOL    HW223928   4.110   0.263   6.693  1.4928 -0.3612 -0.1736
 4099SOL     OW23929   3.756   0.620   7.864 -0.0473 -0.5034 -0.0799
 4099SOL    HW123930   3.782   0.613   7.773  1.3697  1.4132  0.1717
 4099SOL    HW223931   3.669   0.659   7.860  0.2513  0.2464  0.6914
 4100SOL     OW23932   3.034   1.286   2.572  0.3527 -0.1216  0.6871
 4100SOL    HW123933   3.003   1.368   2.611 -0.9789  0.5985 -1.8805
 4100SOL    HW223934   3.114   1.329   2.542 -1.0964  1.9200 -0.2488
 4101SOL     OW23935   3.411   2.183   8.608  0.1396  0.4657  0.4050
 4101SOL    HW123936   3.341   2.119   8.594  0.1036  0.1655  1.9506
 4101SOL    HW223937   3.460   2.133   8.673  0.4217  0.7932  0.4408
 4102SOL     OW23938   0.319   4.571   2.745 -0.2972  0.2897  0.2242
 4102SOL    HW123939   0.224   4.560   2.750 -0.5113  1.0475 -2.1560
 4102SOL    HW223940   0.323   4.664   2.721  0.5427  0.2563  0.2297
 4103SOL     OW23941   2.637   4.617  16.786  0.5510  0.1367  0.0734
 4103SOL    HW123942   2.641   4.602  16.880 -0.9288  1.3450  0.3360
 4103SOL    HW223943   2.628   4.527  16.755 -1.3434  0.1519  0.5605
 4104SOL     OW23944   0.748   0.099   5.619 -0.4076 -0.0342 -0.1766
 4104SOL    HW123945   0.658   0.091   5.586  0.0058 -0.8083 -1.1309
 4104SOL    HW223946   0.774   0.175   5.566  2.4522 -0.6844  0.3067
 4105SOL     OW23947   2.068   1.255   2.370  0.0588 -0.0644  0.3286
 4105SOL    HW123948   2.064   1.162   2.391  1.2474 -0.4475 -1.1713
 4105SOL    HW223949   2.093   1.236   2.280  0.9696  0.9154  0.3713
 4106SOL     OW23950   3.980   0.009   0.895 -0.2562  1.0316 -0.3383
 4106SOL    HW123951   3.984   0.100   0.924 -3.5456  0.8178  0.8014
 4106SOL    HW223952   4.057   0.007   0.839 -0.3972  0.1249 -0.4932
 4107SOL     OW23953   4.712   0.793  15.431 -0.1854  0.2119 -0.5416
 4107SOL    HW123954   4.716   0.888  15.441 -1.0239  0.5495 -3.3149
 4107SOL    HW223955   0.037   0.791  15.356  1.2636 -0.1434  0.6375
 4108SOL     OW23956   4.515   0.284   5.880 -0.3379 -0.3314  0.2205
 4108SOL    HW123957   4.443   0.305   5.820  0.4555 -0.9765 -0.9486
 4108SOL    HW223958   4.531   0.193   5.858  0.5013 -0.0531 -0.3388
 4109SOL     OW23959   3.106   1.005   4.920  0.6702 -0.0779 -0.9796
 4109SOL    HW123960   3.147   1.003   4.834 -0.3835 -0.8569 -1.4688
 4109SOL    HW223961   3.174   1.019   4.985 -1.0273  3.2753  0.0373
 4110SOL     OW23962   0.330   4.321   2.401 -0.0696 -0.2155 -0.1468
 4110SOL    HW123963   0.382   4.266   2.342  1.0228 -0.8719  1.4105
 4110SOL    HW223964   0.387   4.398   2.401  0.9748 -0.9904 -1.4759
 4111SOL     OW23965   4.005   2.515   4.983 -0.1585  1.1405  0.9972
 4111SOL    HW123966   3.989   2.502   5.077 -1.9378  2.8904  0.9480
 4111SOL    HW223967   4.098   2.492   4.980 -1.4387 -4.1681  2.2663
 4112SOL     OW23968   0.398   4.574  11.901  0.4572  0.4703  0.0114
 4112SOL    HW123969   0.336   4.616  11.961 -0.4488 -0.2010 -0.4549
 4112SOL    HW223970   0.377   4.481  11.914 -1.9386  1.1823  1.2441
 4113SOL     OW23971   1.220   1.062   0.251 -0.2302  0.4771  0.1005
 4113SOL    HW123972   1.262   1.146   0.232 -1.0578  0.6537 -0.9616
 4113SOL    HW223973   1.291   1.028   0.306 -0.7632 -2.3489 -0.9700
 4114SOL     OW23974   2.671   4.483   9.275 -0.3739 -0.1325  0.0840
 4114SOL    HW123975   2.737   4.547   9.250 -0.3003 -0.5959 -0.9035
 4114SOL    HW223976   2.596   4.542   9.267 -0.2005 -0.2799 -2.3795
 4115SOL     OW23977   2.255   0.264   5.334  0.0732  0.0413 -0.3000
 4115SOL    HW123978   2.324   0.200   5.315  0.7165  0.3819  0.8875
 4115SOL    HW223979   2.266   0.279   5.428 -1.9038 -0.5652  0.0201
 4116SOL     OW23980   2.325   2.401   4.804 -0.5273 -0.5083 -0.1951
 4116SOL    HW123981   2.231   2.408   4.816 -0.8806 -2.7664 -1.7274
 4116SOL    HW223982   2.329   2.427   4.712  2.5288  1.3717  0.4654
 4117SOL     OW23983   0.114   3.568   5.537 -0.2083  0.3268  0.1946
 4117SOL    HW123984   0.149   3.490   5.493  0.3690  0.3596  0.5978
 4117SOL    HW223985   0.024   3.534   5.535  0.2492 -0.9558  1.6633
 4118SOL     OW23986   2.327   2.849   2.050  0.5717 -0.3481 -0.8204
 4118SOL    HW123987   2.372   2.807   1.976  1.9090  1.7304 -1.1950
 4118SOL    HW223988   2.307   2.764   2.090 -1.8425  0.3474 -0.6155
 4119SOL     OW23989   0.321   1.779  17.412  0.5312  0.0319 -0.4797
 4119SOL    HW123990   0.360   1.692  17.426 -0.8656 -0.1465  2.3452
 4119SOL    HW223991   0.258   1.753  17.345  1.4499 -0.1146 -1.2897
 4120SOL     OW23992   1.812   1.686   8.710 -0.2609  0.4683  0.0010
 4120SOL    HW123993   1.906   1.698   8.697 -0.0486  1.4941  2.6102
 4120SOL    HW223994   1.802   1.590   8.714  2.5765  0.1252 -1.1625
 4121SOL     OW23995   2.464   0.506   7.865  0.1979 -0.0441  0.3994
 4121SOL    HW123996   2.401   0.574   7.888 -3.5330 -2.7753 -1.4804
 4121SOL    HW223997   2.422   0.429   7.904  1.9438  0.3477  2.9959
 4122SOL     OW23998   2.739   2.382  14.943  0.1680  0.1385  0.0493
 4122SOL    HW123999   2.673   2.336  14.995  0.6658 -1.3948 -0.6764
 4122SOL    HW224000   2.742   2.317  14.873 -0.2267  1.5873 -1.2919
 4123SOL     OW24001   2.877   0.473   0.528  0.4482  0.1797  0.0360
 4123SOL    HW124002   2.910   0.546   0.580 -1.1844  1.2885 -0.4797
 4123SOL    HW224003   2.958   0.422   0.526  0.1330 -0.3552  0.8669
 4124SOL     OW24004   3.802   0.703  17.116 -0.1655 -0.1779  0.4989
 4124SOL    HW124005   3.849   0.763  17.059 -1.0689 -0.6900 -0.7804
 4124SOL    HW224006   3.715   0.720  17.080 -0.1258  0.9743  0.9451
 4125SOL     OW24007   3.578   0.409  15.504 -0.4593 -0.1234 -0.6784
 4125SOL    HW124008   3.484   0.397  15.497 -0.2405 -2.8136  0.9098
 4125SOL    HW224009   3.613   0.346  15.441 -2.2146 -3.2005  1.4644
 4126SOL     OW24010   0.654   2.883   0.393  0.0900 -0.2372  0.2287
 4126SOL    HW124011   0.711   2.959   0.399  0.7247 -0.5643 -1.8556
 4126SOL    HW224012   0.654   2.884   0.298  0.5379  2.6050  0.2617
 4127SOL     OW24013   0.936   3.738  13.860 -0.1099  1.0091 -0.0488
 4127SOL    HW124014   0.922   3.769  13.771  1.6560  1.8508 -0.0450
 4127SOL    HW224015   1.022   3.696  13.857  0.4641  2.4607 -3.4240
 4128SOL     OW24016   2.051   0.782   6.661 -0.2466  0.5217 -0.3993
 4128SOL    HW124017   2.000   0.774   6.742 -0.1812 -0.9213 -0.5136
 4128SOL    HW224018   2.129   0.739   6.696  1.1611  1.2248 -2.6852
 4129SOL     OW24019   3.043   0.819  15.299  0.0455 -0.3303  0.4488
 4129SOL    HW124020   3.099   0.897  15.304 -0.7977  0.3452 -0.6433
 4129SOL    HW224021   3.001   0.819  15.213 -0.6917 -0.7037  0.8074
 4130SOL     OW24022   1.335   1.811   1.089 -0.3416  0.1553  0.3177
 4130SOL    HW124023   1.266   1.848   1.145  1.4705  0.0368  2.5882
 4130SOL    HW224024   1.279   1.803   1.011 -0.3466  1.6782  0.1514
 4131SOL     OW24025   3.689   2.792   3.175 -0.8851 -0.2729 -0.1305
 4131SOL    HW124026   3.705   2.700   3.195  1.3286 -0.2895 -1.9574
 4131SOL    HW224027   3.610   2.803   3.228 -1.1118  2.4726 -1.0049
 4132SOL     OW24028   1.453   4.103  13.898  0.1057  0.2489 -0.6501
 4132SOL    HW124029   1.413   4.174  13.947  2.1638  0.2811  0.9654
 4132SOL    HW224030   1.403   4.102  13.816  1.3457 -0.9400 -1.4037
 4133SOL     OW24031   3.584   0.540   1.811 -0.0056 -0.2953 -0.4994
 4133SOL    HW124032   3.522   0.478   1.850  1.0586 -0.7675  0.4366
 4133SOL    HW224033   3.657   0.484   1.784  0.2411 -0.8153  1.2139
 4134SOL     OW24034   4.678   4.056   7.027  0.5878 -0.2042 -0.2174
 4134SOL    HW124035   4.679   4.150   7.008 -3.5556  0.0521  0.7276
 4134SOL    HW224036   4.667   4.061   7.122 -0.3187  0.8842 -0.3778
 4135SOL     OW24037   1.636   0.199   9.158 -0.0281  0.5699  0.0018
 4135SOL    HW124038   1.623   0.107   9.184 -1.2689  0.5035 -0.8755
 4135SOL    HW224039   1.637   0.197   9.063 -2.6756  0.3491 -0.0234
 4136SOL     OW24040   4.556   2.314   8.100  0.4532  0.1986  0.3874
 4136SOL    HW124041   4.476   2.270   8.127  1.1193  0.4913  2.7951
 4136SOL    HW224042   4.602   2.233   8.075 -0.6184 -1.1471  2.8007
 4137SOL     OW24043   1.719   0.313   9.595  0.4557 -0.4261 -0.4471
 4137SOL    HW124044   1.686   0.345   9.511 -0.9080  0.8043  0.5501
 4137SOL    HW224045   1.649   0.252   9.618  0.7399 -0.8976 -0.8287
 4138SOL     OW24046   1.772   4.267   6.824  0.2107 -0.2930 -0.1795
 4138SOL    HW124047   1.823   4.326   6.880 -2.1397  1.2670  0.3278
 4138SOL    HW224048   1.687   4.252   6.867  0.5224 -0.9456  0.2139
 4139SOL     OW24049   2.950   4.070   9.712 -0.0718  0.1561 -0.4352
 4139SOL    HW124050   2.954   4.161   9.684  0.6302  0.2674  0.0303
 4139SOL    HW224051   2.990   4.032   9.634 -0.2887  0.0324 -0.4881
 4140SOL     OW24052   1.327   3.240   5.093 -0.1465 -0.2769 -0.0790
 4140SOL    HW124053   1.297   3.236   5.184  2.4506 -1.0611  0.7308
 4140SOL    HW224054   1.382   3.163   5.104 -0.5409 -0.3168  1.7798
 4141SOL     OW24055   2.044   1.634   4.567  0.2754 -0.3012  0.4403
 4141SOL    HW124056   2.135   1.660   4.549 -0.0632  2.0381  2.0779
 4141SOL    HW224057   2.029   1.577   4.491  0.8434 -1.2557  1.0501
 4142SOL     OW24058   3.477   1.798   3.968  0.2827 -0.4746  0.0664
 4142SOL    HW124059   3.391   1.775   4.003  0.5337 -2.0956 -0.4065
 4142SOL    HW224060   3.542   1.756   4.024  1.2076  0.2378 -0.4718
 4143SOL     OW24061   1.287   3.415   4.123 -0.1135 -0.6017  0.1775
 4143SOL    HW124062   1.338   3.493   4.103 -2.0871  0.5806 -0.3231
 4143SOL    HW224063   1.213   3.432   4.065  0.6342 -0.4210 -0.7200
 4144SOL     OW24064   1.596   2.011  12.227  0.8243  0.0378  0.1264
 4144SOL    HW124065   1.551   1.935  12.191 -2.2171  2.1647 -0.5662
 4144SOL    HW224066   1.563   2.027  12.315  0.2906  1.0202 -0.2446
 4145SOL     OW24067   3.732   4.191   2.600 -0.0629  0.0975 -0.3733
 4145SOL    HW124068   3.653   4.206   2.548  0.0052  0.9496 -0.2253
 4145SOL    HW224069   3.692   4.201   2.686 -0.2065 -0.1116 -0.4161
 4146SOL     OW24070   1.424   4.289  12.317  0.1652 -0.1344 -0.2105
 4146SOL    HW124071   1.394   4.238  12.392 -0.6002 -0.3024 -0.6366
 4146SOL    HW224072   1.507   4.329  12.345 -1.7083  3.3044  0.3662
 4147SOL     OW24073   2.878   0.915   1.585  0.6298  0.0556 -0.1225
 4147SOL    HW124074   2.872   0.998   1.539 -0.6413 -0.3379 -0.6807
 4147SOL    HW224075   2.896   0.930   1.678 -4.1436 -0.0115  0.7871
 4148SOL     OW24076   3.061   4.035  10.071 -0.8980 -0.2713 -0.7399
 4148SOL    HW124077   3.124   4.104  10.049 -0.5911 -0.6837 -1.1531
 4148SOL    HW224078   3.058   4.041  10.167  1.6224  1.0663 -0.7414
 4149SOL     OW24079   2.048   3.744   8.801  0.5066  0.1573 -0.3498
 4149SOL    HW124080   2.015   3.736   8.712 -0.1488  0.5488 -0.1414
 4149SOL    HW224081   2.084   3.833   8.797 -0.3117  0.5271  0.4599
 4150SOL     OW24082   0.157   0.086   5.069  0.4634  0.6099  0.0519
 4150SOL    HW124083   0.170   4.731   5.041 -1.7352  0.5468 -0.7469
 4150SOL    HW224084   0.214   0.138   5.013  0.0960  0.6382 -0.2948
 4151SOL     OW24085   1.110   2.938   8.189  0.0834  0.1522 -0.7772
 4151SOL    HW124086   1.083   2.952   8.099  1.9583  0.3605 -1.3136
 4151SOL    HW224087   1.115   2.842   8.195  0.0336  0.1115 -1.4494
 4152SOL     OW24088   3.371   3.004  13.747  0.0110  0.5354  0.4797
 4152SOL    HW124089   3.397   2.928  13.695 -0.5811  1.7774 -1.6248
 4152SOL    HW224090   3.308   2.973  13.811 -0.1967  1.1321  0.5634
 4153SOL     OW24091   4.212   4.665   4.216 -0.0249 -0.1737  0.1451
 4153SOL    HW124092   4.271   4.623   4.154 -1.0533 -0.1860 -0.8325
 4153SOL    HW224093   4.249   0.017   4.232  2.1318 -0.6114 -2.5935
 4154SOL     OW24094   2.573   0.653   7.448  0.2383  0.2181  0.1325
 4154SOL    HW124095   2.667   0.635   7.454  0.4895  2.0717  1.7263
 4154SOL    HW224096   2.564   0.679   7.539  1.2104 -0.1152  0.3180
 4155SOL     OW24097   2.445   4.124   6.237  0.3121 -0.1278 -0.1196
 4155SOL    HW124098   2.445   4.220   6.242  2.2528 -0.1234 -0.3001
 4155SOL    HW224099   2.533   4.101   6.267  0.5792 -1.1457 -1.6918
 4156SOL     OW24100   3.747   1.512   8.734  0.1397 -0.2791  0.1582
 4156SOL    HW124101   3.712   1.441   8.787 -0.9168 -0.1914 -0.4165
 4156SOL    HW224102   3.825   1.466   8.704 -0.6904 -1.2310 -0.5236
 4157SOL     OW24103   2.928   3.051   4.541 -0.0899 -0.2232  0.4261
 4157SOL    HW124104   2.951   2.976   4.486 -2.0814 -0.0611 -0.6390
 4157SOL    HW224105   3.000   3.109   4.516 -0.6202  0.2323 -0.0489
 4158SOL     OW24106   2.527   3.262   4.789 -0.5073  0.7082 -0.1812
 4158SOL    HW124107   2.564   3.221   4.866  0.6435 -1.0516 -1.6876
 4158SOL    HW224108   2.596   3.258   4.723  2.2327 -1.0954  2.8642
 4159SOL     OW24109   0.919   3.855   7.910 -0.3869 -0.6215 -0.0432
 4159SOL    HW124110   0.867   3.909   7.851 -0.3888 -0.8886 -0.2827
 4159SOL    HW224111   0.849   3.849   7.975  1.0141 -2.3986  1.2935
 4160SOL     OW24112   2.379   1.506   6.993  0.4539  0.5259  0.1932
 4160SOL    HW124113   2.346   1.595   6.991  0.5219  0.5835  1.3556
 4160SOL    HW224114   2.413   1.502   6.904  0.4558  1.1226  0.1712
 4161SOL     OW24115   2.729   0.769   8.200  0.3305 -0.6816  0.4375
 4161SOL    HW124116   2.790   0.738   8.266  0.0882  1.5454  1.6989
 4161SOL    HW224117   2.748   0.863   8.209 -0.5013 -0.2753 -1.8580
 4162SOL     OW24118   2.978   4.536   4.454  0.2274 -0.0031 -0.0516
 4162SOL    HW124119   3.058   4.492   4.425 -0.1612  1.4692 -3.4003
 4162SOL    HW224120   2.954   4.572   4.368 -0.4724  2.1522  1.0501
 4163SOL     OW24121   0.147   3.390   4.664  0.1563  0.2095 -0.5959
 4163SOL    HW124122   0.228   3.340   4.652 -0.4090 -0.4314 -1.6922
 4163SOL    HW224123   0.178   3.471   4.625  0.9772  1.1376  1.9325
 4164SOL     OW24124   2.746   3.165  15.828  0.3283  0.0322 -0.1266
 4164SOL    HW124125   2.662   3.159  15.782  0.8020  0.8149 -1.0686
 4164SOL    HW224126   2.725   3.099  15.895  1.2217  0.0338  0.1477
 4165SOL     OW24127   4.145   2.124   4.436  0.7569 -1.0200  0.1934
 4165SOL    HW124128   4.207   2.177   4.387  1.2233 -0.9610  0.8539
 4165SOL    HW224129   4.078   2.185   4.468  0.0874 -2.4128  1.4909
 4166SOL     OW24130   4.704   0.767   8.145 -0.1376 -0.3723  0.0482
 4166SOL    HW124131   0.049   0.819   8.143 -0.1400 -0.4055 -0.7044
 4166SOL    HW224132   0.002   0.679   8.129  0.0690  0.1973 -2.5814
 4167SOL     OW24133   0.061   4.456   7.128  0.0297 -0.3162 -0.3889
 4167SOL    HW124134   0.042   4.523   7.194  0.6691  1.0304 -1.5821
 4167SOL    HW224135   0.095   4.386   7.183  1.0354  1.5885  1.3768
 4168SOL     OW24136   3.646   3.642   4.515  0.0261  0.0104 -0.4413
 4168SOL    HW124137   3.694   3.650   4.597 -2.4234  2.3601  0.7827
 4168SOL    HW224138   3.576   3.707   4.516 -1.1758 -1.2904  0.6356
 4169SOL     OW24139   2.210   2.084  13.648 -0.5201 -0.2496 -0.1251
 4169SOL    HW124140   2.193   2.177  13.663 -1.6504 -0.6717  1.2452
 4169SOL    HW224141   2.165   2.052  13.727  0.0608  1.0465  0.7237
 4170SOL     OW24142   1.157   0.683   1.199 -0.4144  0.1962 -0.1831
 4170SOL    HW124143   1.230   0.674   1.138 -0.5570  0.2524 -0.3601
 4170SOL    HW224144   1.118   0.762   1.162 -0.6819  0.1920  0.0922
 4171SOL     OW24145   3.630   2.151   0.970  0.2927 -0.1703  0.4277
 4171SOL    HW124146   3.562   2.162   1.037 -1.0895 -1.5716 -0.7397
 4171SOL    HW224147   3.709   2.184   1.013  0.0909 -0.0929  0.7386
 4172SOL     OW24148   3.763   3.195   4.470  0.1542  0.4260  0.2708
 4172SOL    HW124149   3.830   3.261   4.452  0.0649  0.9041  1.7602
 4172SOL    HW224150   3.705   3.209   4.395  1.4118 -1.7221 -1.1056
 4173SOL     OW24151   3.047   4.293   7.942  0.0766 -0.2793 -0.8489
 4173SOL    HW124152   3.027   4.200   7.929  0.9325 -0.6337  0.3892
 4173SOL    HW224153   2.962   4.336   7.954  0.9720  0.9390  1.0677
 4174SOL     OW24154   1.421   3.636   6.052  0.9823 -0.3194  0.4953
 4174SOL    HW124155   1.428   3.542   6.071  1.5822 -0.5550 -0.8835
 4174SOL    HW224156   1.496   3.680   6.091 -0.1787  2.4572 -0.4287
 4175SOL     OW24157   1.575   3.094  17.211 -0.1141  0.0933 -0.0290
 4175SOL    HW124158   1.551   3.130  17.296 -0.7912  2.9025 -1.4445
 4175SOL    HW224159   1.608   3.009  17.242  1.5846  0.6411 -0.3422
 4176SOL     OW24160   0.153   4.216  16.280  0.0694 -0.1086 -0.0156
 4176SOL    HW124161   0.109   4.138  16.245 -3.3900  2.0200 -0.3875
 4176SOL    HW224162   0.153   4.279  16.208  0.8321  1.4935  1.3770
 4177SOL     OW24163   1.715   1.664  14.436  0.3140 -0.7297 -0.5273
 4177SOL    HW124164   1.704   1.575  14.403 -0.0579 -0.2457 -1.7479
 4177SOL    HW224165   1.760   1.713  14.366 -0.8442  0.1326 -0.6703
 4178SOL     OW24166   1.149   0.435   3.821  0.2542 -0.4741  0.3354
 4178SOL    HW124167   1.106   0.421   3.905  0.1490 -1.2744  0.1443
 4178SOL    HW224168   1.235   0.471   3.845  0.6905 -1.1389 -0.2418
 4179SOL     OW24169   2.022   2.954   9.408 -0.1060  0.4545 -0.3649
 4179SOL    HW124170   2.007   2.943   9.314  0.2737 -0.0798 -0.3647
 4179SOL    HW224171   2.101   2.905   9.431 -0.1327  1.2703  1.4832
 4180SOL     OW24172   2.591   1.160  11.995  0.0810 -0.2747 -1.1190
 4180SOL    HW124173   2.604   1.193  11.906  2.7975 -0.3247 -0.7629
 4180SOL    HW224174   2.496   1.158  12.002  0.0904 -0.3736 -1.0078
 4181SOL     OW24175   1.183   1.535   7.300  0.4397 -0.3167  0.0228
 4181SOL    HW124176   1.127   1.461   7.320  0.7174 -0.7437 -0.7792
 4181SOL    HW224177   1.119   1.606   7.302 -0.3427 -1.0055 -0.7026
 4182SOL     OW24178   2.696   2.275   3.762  0.0251  0.3076 -0.5907
 4182SOL    HW124179   2.720   2.277   3.669  1.1966  0.8607 -0.2734
 4182SOL    HW224180   2.634   2.347   3.765  0.2662  0.5163 -0.6046
 4183SOL     OW24181   0.387   3.171   5.747 -0.4864 -0.6199 -0.3007
 4183SOL    HW124182   0.421   3.129   5.826 -1.1174 -1.8807 -0.6983
 4183SOL    HW224183   0.458   3.230   5.720 -0.0556 -1.9025 -2.0086
 4184SOL     OW24184   2.385   1.918   5.403 -0.5225 -0.0024  0.2098
 4184SOL    HW124185   2.456   1.875   5.356 -0.8735  0.8001 -1.0581
 4184SOL    HW224186   2.402   1.888   5.492  0.7469  1.8614  0.5968
 4185SOL     OW24187   0.857   1.383   4.806 -0.3660  0.4078 -0.5081
 4185SOL    HW124188   0.771   1.361   4.842 -0.1060 -0.6934 -0.5647
 4185SOL    HW224189   0.828   1.435   4.731  0.6406  1.1471 -0.3845
 4186SOL     OW24190   3.607   4.261   6.034  0.8850 -0.1648 -0.1908
 4186SOL    HW124191   3.623   4.355   6.024 -0.0873  0.1268  1.0353
 4186SOL    HW224192   3.620   4.255   6.129  0.4067 -0.3607 -0.1391
 4187SOL     OW24193   0.945   4.023  17.636 -0.3828  0.1337  0.1549
 4187SOL    HW124194   0.987   3.973  17.566  1.9100  0.8200  1.0447
 4187SOL    HW224195   0.918   3.955  17.698 -2.5946  1.0130  0.1650
 4188SOL     OW24196   3.111   0.704   6.856  0.2409  0.7529 -0.1735
 4188SOL    HW124197   3.081   0.791   6.832  0.8475  0.5300 -1.7112
 4188SOL    HW224198   3.205   0.716   6.867  0.2382 -0.8829  1.6959
 4189SOL     OW24199   0.696   4.432   7.923 -0.0702  0.2070  0.2715
 4189SOL    HW124200   0.709   4.343   7.957 -0.0370 -0.2071 -0.8461
 4189SOL    HW224201   0.648   4.409   7.844  2.6789  0.8257 -1.5714
 4190SOL     OW24202   3.242   3.020  13.329 -0.2821  0.0108  0.3108
 4190SOL    HW124203   3.280   2.960  13.393 -2.5330 -1.0263  0.6548
 4190SOL    HW224204   3.159   3.031  13.375 -1.1261 -1.0851 -0.9491
 4191SOL     OW24205   4.248   1.284  17.322 -0.2834 -0.1740 -0.1312
 4191SOL    HW124206   4.233   1.217  17.389 -0.4790  0.4909  0.5015
 4191SOL    HW224207   4.181   1.351  17.332  0.6424  0.5448  1.2677
 4192SOL     OW24208   1.945   0.261  10.122  0.7049 -0.6183 -0.1628
 4192SOL    HW124209   1.883   0.189  10.136  0.2861  0.2090  2.1383
 4192SOL    HW224210   1.894   0.329  10.080 -0.0439 -2.6353 -2.5339
 4193SOL     OW24211   1.389   0.498   1.657  0.2198  0.3843 -0.1238
 4193SOL    HW124212   1.356   0.554   1.727  1.2607 -0.6943  1.2404
 4193SOL    HW224213   1.417   0.424   1.711 -0.3020 -0.4185 -0.9372
 4194SOL     OW24214   2.456   4.213   9.272 -0.1441  0.1718 -0.3000
 4194SOL    HW124215   2.436   4.235   9.181  0.1511  1.5401 -0.0460
 4194SOL    HW224216   2.535   4.267   9.282 -0.3253  0.4725 -0.4897
 4195SOL     OW24217   3.272   4.239   4.608 -0.0087  0.1079 -0.5073
 4195SOL    HW124218   3.351   4.195   4.577  0.3274  0.5685 -0.3029
 4195SOL    HW224219   3.253   4.291   4.529  1.2947 -0.8380 -1.4509
 4196SOL     OW24220   1.921   0.031   3.724  0.2949  0.4139 -0.1008
 4196SOL    HW124221   1.942   4.674   3.741  0.5124  0.7889  1.6017
 4196SOL    HW224222   1.961   0.040   3.638 -0.2488  2.3980 -0.1329
 4197SOL     OW24223   2.705   0.224   0.182  0.4294  0.0146 -0.1159
 4197SOL    HW124224   2.743   0.307   0.211  3.2129 -0.2581 -3.0066
 4197SOL    HW224225   2.771   0.186   0.124  1.4763 -0.0841  1.1439
 4198SOL     OW24226   4.350   2.965   8.802 -0.2525  0.2780  0.3212
 4198SOL    HW124227   4.399   2.885   8.783 -1.1699 -0.3481  0.5405
 4198SOL    HW224228   4.274   2.937   8.853 -0.2331 -1.9608 -0.8730
 4199SOL     OW24229   0.808   2.501   3.796  0.0420 -0.0369 -0.4533
 4199SOL    HW124230   0.811   2.534   3.886 -1.8216  0.3811 -0.5527
 4199SOL    HW224231   0.884   2.545   3.757 -0.7551 -0.1649 -2.1495
 4200SOL     OW24232   0.708   4.391   0.873  0.0251 -0.6746  0.4742
 4200SOL    HW124233   0.692   4.479   0.907  1.8906  0.2450 -1.0139
 4200SOL    HW224234   0.651   4.396   0.797  2.4231 -0.8480 -1.3300
 4201SOL     OW24235   2.921   2.184   7.656  0.0428 -0.5589  0.4177
 4201SOL    HW124236   2.986   2.175   7.725 -0.2602  0.7068  0.8587
 4201SOL    HW224237   2.892   2.272   7.677 -1.9846 -1.2187  0.3565
 4202SOL     OW24238   1.701   0.693   0.214 -0.0715  0.0937  0.0205
 4202SOL    HW124239   1.641   0.698   0.139  0.9355  0.2701 -0.7718
 4202SOL    HW224240   1.754   0.771   0.200  2.2826 -1.6268 -0.6953
 4203SOL     OW24241   4.622   0.673  15.658 -0.4542  0.0422 -0.0379
 4203SOL    HW124242   4.670   0.592  15.639 -1.3931 -0.1719 -1.5073
 4203SOL    HW224243   4.647   0.724  15.581 -0.3339  1.0926  0.7016
 4204SOL     OW24244   0.796   4.256   7.635  0.0347 -0.3940 -0.5191
 4204SOL    HW124245   0.840   4.191   7.581  0.3623 -1.1676  0.6784
 4204SOL    HW224246   0.877   4.299   7.665  0.0411  0.0891 -1.2398
 4205SOL     OW24247   2.728   4.145   1.912  0.4839  0.3683 -0.6359
 4205SOL    HW124248   2.654   4.108   1.961  1.6476 -1.1352 -0.0008
 4205SOL    HW224249   2.734   4.221   1.969  2.4491  2.0175 -3.0309
 4206SOL     OW24250   3.608   4.346   5.194 -0.2561  0.0458 -0.3461
 4206SOL    HW124251   3.628   4.331   5.287  0.8652  1.4403 -0.3638
 4206SOL    HW224252   3.517   4.317   5.198  0.1261 -1.1451 -0.3155
 4207SOL     OW24253   1.005   1.724  17.326  0.0228  0.1139 -0.2913
 4207SOL    HW124254   0.943   1.793  17.348  0.1783  0.0128  0.4385
 4207SOL    HW224255   0.949   1.646  17.330 -1.3647  1.1659  0.6513
 4208SOL     OW24256   0.425   4.595   3.022  0.8231 -0.4966 -0.3056
 4208SOL    HW124257   0.384   4.678   2.999 -0.8729 -1.6715 -1.4898
 4208SOL    HW224258   0.449   4.564   2.934  0.2896 -1.4080 -0.1241
 4209SOL     OW24259   1.782   3.108   5.608  0.7333  0.2877 -0.3344
 4209SOL    HW124260   1.800   3.202   5.610 -1.9967  0.7392  3.1149
 4209SOL    HW224261   1.753   3.091   5.698 -1.4360  0.4110 -1.0135
 4210SOL     OW24262   3.058   0.314   3.498  0.3125  0.5548 -0.1258
 4210SOL    HW124263   3.128   0.302   3.562  0.1346  0.9052  0.1366
 4210SOL    HW224264   2.992   0.255   3.533 -2.1182  2.0181 -2.2819
 4211SOL     OW24265   4.146   2.294   8.371  0.4277  0.2820  0.3765
 4211SOL    HW124266   4.221   2.334   8.414 -0.3903 -0.3722  2.3842
 4211SOL    HW224267   4.080   2.345   8.417 -2.3906 -3.6966  0.7267
 4212SOL     OW24268   4.401   4.491   7.624 -0.2278 -0.0462 -0.0381
 4212SOL    HW124269   4.357   4.407   7.636 -0.4156 -0.1005 -1.0533
 4212SOL    HW224270   4.343   4.556   7.665 -1.7333 -2.6413  1.8777
 4213SOL     OW24271   4.458   0.567   5.973  0.3395 -0.1958  0.1752
 4213SOL    HW124272   4.536   0.607   6.011  0.3341 -0.2888  0.2837
 4213SOL    HW224273   4.466   0.474   5.994  2.4599 -0.7650 -3.1449
 4214SOL     OW24274   2.679   2.018   5.153 -0.9070 -0.0722  0.0546
 4214SOL    HW124275   2.762   2.024   5.106  1.2931 -3.1565  3.5026
 4214SOL    HW224276   2.707   1.968   5.230 -0.8450 -1.1267 -0.6556
 4215SOL     OW24277   4.190   1.770   2.024  0.1242 -1.0660 -0.1925
 4215SOL    HW124278   4.108   1.816   2.006  0.0436 -0.8593  0.6808
 4215SOL    HW224279   4.248   1.781   1.949  0.8373 -0.4580  0.4494
 4216SOL     OW24280   0.410   2.135   5.691 -0.6559 -0.2669  0.3924
 4216SOL    HW124281   0.446   2.087   5.766  2.1479 -0.0196 -0.7644
 4216SOL    HW224282   0.384   2.214   5.739  1.7849  1.1897 -0.6541
 4217SOL     OW24283   3.920   1.102   2.249  0.3483  0.3368 -0.4126
 4217SOL    HW124284   3.957   1.148   2.324 -1.3971  1.5230 -0.2830
 4217SOL    HW224285   3.831   1.082   2.279  0.9485 -0.8314  0.5706
 4218SOL     OW24286   3.367   2.149   7.903  0.0908 -0.1098 -0.5589
 4218SOL    HW124287   3.419   2.076   7.937 -0.8595  0.4221  2.0767
 4218SOL    HW224288   3.410   2.169   7.820 -1.2203 -1.9609 -1.6523
 4219SOL     OW24289   3.551   0.145   7.931 -0.2635  0.3112 -0.1696
 4219SOL    HW124290   3.461   0.173   7.917 -0.3115  0.7096  0.9199
 4219SOL    HW224291   3.578   0.161   7.841 -1.6587  0.7754 -0.5102
 4220SOL     OW24292   4.252   1.705   6.898  0.2241 -0.1387  0.9881
 4220SOL    HW124293   4.231   1.613   6.885 -0.7847  0.3004 -0.5565
 4220SOL    HW224294   4.204   1.738   6.974 -0.7871 -0.8362  0.6530
 4221SOL     OW24295   1.917   3.094   4.546 -0.1304 -0.6087  0.1781
 4221SOL    HW124296   1.919   3.029   4.476  1.2230 -0.6296  0.2382
 4221SOL    HW224297   2.003   3.134   4.537  0.5156 -1.3063  3.0951
 4222SOL     OW24298   2.695   3.605   1.395  0.4101 -0.3234  0.1769
 4222SOL    HW124299   2.636   3.675   1.368  2.4853  0.7109 -1.7254
 4222SOL    HW224300   2.772   3.615   1.339 -0.9281  1.8041 -1.2263
 4223SOL     OW24301   4.079   2.018   9.086 -0.6802 -0.0056  0.4189
 4223SOL    HW124302   4.089   2.107   9.052 -2.6608  0.0415 -0.0872
 4223SOL    HW224303   3.987   1.994   9.070  0.1835 -2.0765 -1.4897
 4224SOL     OW24304   3.464   1.909   7.472  0.3151 -0.2289 -0.2158
 4224SOL    HW124305   3.433   1.959   7.396 -1.5080 -0.1939  0.5547
 4224SOL    HW224306   3.384   1.885   7.518 -1.2511  0.5398 -2.5729
 4225SOL     OW24307   3.638   1.141   8.162  0.7932  0.0142  0.4441
 4225SOL    HW124308   3.720   1.093   8.174  0.2464 -0.4572  2.2397
 4225SOL    HW224309   3.656   1.167   8.072 -2.1895  0.6010  0.0311
 4226SOL     OW24310   1.374   4.474   9.432 -0.2813 -0.3084  0.0940
 4226SOL    HW124311   1.346   4.500   9.520 -0.4146  2.3949 -0.7325
 4226SOL    HW224312   1.366   4.380   9.447 -0.4194 -0.2171  0.6206
 4227SOL     OW24313   4.613   4.358   5.342  0.0285  0.1874  0.2570
 4227SOL    HW124314   4.537   4.412   5.320  0.1693  0.1349 -0.3699
 4227SOL    HW224315   4.592   4.276   5.297 -0.5268  1.9689 -2.7283
 4228SOL     OW24316   3.041   2.115   3.736  0.0533  0.1597 -0.4215
 4228SOL    HW124317   3.123   2.066   3.737 -0.9922 -1.6001  0.7329
 4228SOL    HW224318   2.980   2.051   3.697 -0.2862 -0.1139  0.5457
 4229SOL     OW24319   0.318   3.172   5.211 -0.0422 -0.4656 -0.8771
 4229SOL    HW124320   0.412   3.168   5.231 -0.7409 -3.1926  2.0460
 4229SOL    HW224321   0.294   3.081   5.193  0.4967 -0.9964  1.0065
 4230SOL     OW24322   1.922   1.168   7.108 -0.2492  0.3426  0.0139
 4230SOL    HW124323   1.963   1.252   7.086 -0.5522 -0.0720 -2.1065
 4230SOL    HW224324   1.991   1.118   7.065  1.2531 -0.7756  3.7193
 4231SOL     OW24325   3.957   0.543  15.356  0.3305  0.0342  0.0564
 4231SOL    HW124326   4.037   0.522  15.406 -1.1636 -0.4326  2.2428
 4231SOL    HW224327   3.950   0.462  15.306  0.2287  0.3432 -0.4307
 4232SOL     OW24328   1.561   3.913  15.587  0.4030 -0.5172  0.0699
 4232SOL    HW124329   1.648   3.900  15.548  1.0424  0.4319  1.1831
 4232SOL    HW224330   1.594   3.929  15.675 -0.4550  0.7940  0.1639
 4233SOL     OW24331   1.997   1.566   2.386 -0.3858  0.3182  0.7653
 4233SOL    HW124332   2.043   1.649   2.393  3.1149 -1.3929 -1.9800
 4233SOL    HW224333   2.058   1.513   2.437 -1.3670 -1.0526  0.5256
 4234SOL     OW24334   2.408   2.396  10.604 -0.5576  0.0438 -0.5035
 4234SOL    HW124335   2.353   2.359  10.535 -0.9857  0.3777 -0.3462
 4234SOL    HW224336   2.489   2.349  10.584  0.6635  1.0800  1.9911
 4235SOL     OW24337   2.144   2.475  14.202 -0.4890  0.0858 -0.6130
 4235SOL    HW124338   2.090   2.534  14.149 -0.6102  0.5664  0.0335
 4235SOL    HW224339   2.216   2.455  14.143 -0.9265 -0.0271 -1.1027
 4236SOL     OW24340   1.314   4.309   7.557  0.8125 -0.5123 -0.4492
 4236SOL    HW124341   1.232   4.344   7.591  0.1915 -1.1083 -1.3515
 4236SOL    HW224342   1.317   4.340   7.466 -0.4779  1.7702  0.2960
 4237SOL     OW24343   0.561   0.220  11.159  0.2972  0.1462  0.4421
 4237SOL    HW124344   0.564   0.249  11.068  0.8898 -2.3860 -0.3269
 4237SOL    HW224345   0.474   0.250  11.185 -1.0114 -2.3216 -1.0795
 4238SOL     OW24346   4.518   0.138  14.162 -0.4193 -0.3712 -0.2955
 4238SOL    HW124347   4.510   0.061  14.105 -1.0334 -0.2997 -0.3041
 4238SOL    HW224348   4.598   0.176  14.124 -1.0714 -1.0405 -2.3464
 4239SOL     OW24349   0.473   1.387   6.231  0.9704 -0.1442  0.0749
 4239SOL    HW124350   0.490   1.315   6.292 -2.8043 -1.3050 -0.2526
 4239SOL    HW224351   0.487   1.339   6.149 -0.3956 -5.3895  2.9322
 4240SOL     OW24352   2.651   4.232   8.528 -0.0322  0.8109  0.0549
 4240SOL    HW124353   2.692   4.297   8.586 -0.1316 -0.2914  1.3758
 4240SOL    HW224354   2.558   4.232   8.548  0.2304 -0.2291  1.3023
 4241SOL     OW24355   1.377   4.508   2.923  0.1479  0.7239 -0.3855
 4241SOL    HW124356   1.427   4.440   2.879 -0.5149  0.4642 -0.7388
 4241SOL    HW224357   1.374   4.477   3.013 -1.1973 -0.3048 -0.7918
 4242SOL     OW24358   2.173   0.009   1.493  0.0538 -0.0636  0.0363
 4242SOL    HW124359   2.265   0.026   1.510 -0.8325  2.4793  2.3287
 4242SOL    HW224360   2.185   4.723   1.401 -0.3279 -0.2404  0.0271
 4243SOL     OW24361   0.159   3.653   8.604 -0.5426  0.2612  0.1334
 4243SOL    HW124362   0.063   3.656   8.614 -0.5836  0.7546 -0.3864
 4243SOL    HW224363   0.181   3.591   8.673  0.8465  1.4219  0.7080
 4244SOL     OW24364   0.345   4.054   8.178  0.3715 -0.8220 -0.0679
 4244SOL    HW124365   0.318   4.131   8.229  0.0958 -0.8017 -0.2475
 4244SOL    HW224366   0.374   4.096   8.097  0.6726  2.0699  1.5468
 4245SOL     OW24367   3.692   1.307   0.854 -0.0251  0.5724 -0.3815
 4245SOL    HW124368   3.647   1.225   0.877 -0.9385  0.9725 -0.7438
 4245SOL    HW224369   3.747   1.264   0.789 -2.1367  0.5639 -2.1767
 4246SOL     OW24370   4.242   0.919   7.885 -0.5225  0.3757  0.0971
 4246SOL    HW124371   4.195   0.845   7.844 -0.5022 -0.8085  2.2275
 4246SOL    HW224372   4.332   0.887   7.890 -1.1161 -1.6280 -1.8632
 4247SOL     OW24373   2.995   0.769  13.959 -0.1210  0.2444  0.0066
 4247SOL    HW124374   2.993   0.686  13.912  0.7974  1.7509 -2.6890
 4247SOL    HW224375   3.089   0.776  13.974  0.0766 -2.4900  0.0714
 4248SOL     OW24376   2.910   4.070   6.463  0.1125  0.6775  0.1013
 4248SOL    HW124377   2.877   4.008   6.398  0.1997 -0.5599  1.2272
 4248SOL    HW224378   2.982   4.026   6.508 -1.7978 -0.7673  1.7587
 4249SOL     OW24379   3.670   1.394  13.858  0.6779 -0.5399 -0.6275
 4249SOL    HW124380   3.588   1.379  13.906 -0.1913  1.2123 -1.5408
 4249SOL    HW224381   3.621   1.431  13.783 -1.8141  0.2448  1.3854
 4250SOL     OW24382   0.637   0.518   3.289 -0.4755  0.0535  0.4253
 4250SOL    HW124383   0.643   0.425   3.310  0.1124  0.5991  2.7174
 4250SOL    HW224384   0.542   0.523   3.284 -0.4254 -0.3384 -0.9445
 4251SOL     OW24385   2.690   1.506  11.305  0.7395  0.0935 -0.2452
 4251SOL    HW124386   2.703   1.588  11.257  0.1968  1.1247  1.3772
 4251SOL    HW224387   2.703   1.440  11.237  2.1850  0.7016 -0.5456
 4252SOL     OW24388   4.516   1.944   4.490 -0.3067  0.1661  0.5851
 4252SOL    HW124389   4.566   1.905   4.418 -0.9160 -0.1185  0.3215
 4252SOL    HW224390   4.435   1.895   4.481  0.4916 -1.3117  1.3133
 4253SOL     OW24391   2.669   0.149  14.849 -0.5571 -0.1610 -0.1453
 4253SOL    HW124392   2.636   0.088  14.783  2.0955  0.8444 -2.4144
 4253SOL    HW224393   2.588   0.176  14.891  1.0155  3.5243  0.5406
 4254SOL     OW24394   2.457   2.805   6.923  0.3936 -0.4753 -0.2394
 4254SOL    HW124395   2.384   2.809   6.985  0.1929 -0.8363 -0.4522
 4254SOL    HW224396   2.463   2.712   6.901 -0.8385 -0.4528 -0.6270
 4255SOL     OW24397   2.001   1.952   4.613  0.1729 -0.1253 -0.0592
 4255SOL    HW124398   2.037   1.872   4.650  2.4217  0.3703 -1.1713
 4255SOL    HW224399   1.995   1.940   4.519  1.4254 -1.6615  0.0707
 4256SOL     OW24400   1.033   0.805   7.515 -0.7493 -0.4201  0.2650
 4256SOL    HW124401   1.095   0.733   7.518  3.8990  3.3844 -3.9643
 4256SOL    HW224402   0.962   0.745   7.494 -2.4992  1.9298 -0.5973
 4257SOL     OW24403   1.838   3.833   1.381 -0.3872 -0.7321 -0.0230
 4257SOL    HW124404   1.923   3.864   1.411 -0.8549  0.9933 -0.4979
 4257SOL    HW224405   1.863   3.769   1.315  0.8191  0.5668 -0.7943
 4258SOL     OW24406   1.113   1.343  17.524  1.0549 -0.2991 -0.3958
 4258SOL    HW124407   1.184   1.338  17.460  1.4148 -1.1324  0.0635
 4258SOL    HW224408   1.034   1.348  17.469  0.7204 -0.7978  0.0374
 4259SOL     OW24409   4.548   1.275   4.583  0.9767 -0.1846  0.3145
 4259SOL    HW124410   4.620   1.213   4.596 -0.4303 -1.6221  1.2731
 4259SOL    HW224411   4.498   1.271   4.664 -2.2519  0.9328 -1.6693
 4260SOL     OW24412   0.664   3.299   2.402 -0.0038 -0.4115 -0.3249
 4260SOL    HW124413   0.678   3.226   2.462  1.1589 -0.2815 -0.4514
 4260SOL    HW224414   0.723   3.274   2.331  1.0161 -0.5316  0.5721
 4261SOL     OW24415   1.063   3.634  10.624  0.3595  0.0162 -0.3150
 4261SOL    HW124416   1.107   3.633  10.709 -0.6576  2.6629  0.2627
 4261SOL    HW224417   1.131   3.588  10.576 -2.5004 -2.1473 -2.2084
 4262SOL     OW24418   2.611   1.441   9.632  0.6753  0.1970  0.7603
 4262SOL    HW124419   2.696   1.469   9.664  0.0900  2.0551  0.7036
 4262SOL    HW224420   2.554   1.516   9.650 -0.3370 -0.1014 -1.2502
 4263SOL     OW24421   0.104   1.025  11.891 -0.2412  0.1662  0.1208
 4263SOL    HW124422   0.069   1.108  11.924 -1.6388 -0.8774  1.2834
 4263SOL    HW224423   0.025   0.974  11.874 -0.1489  0.6323 -1.6905
 4264SOL     OW24424   1.619   1.265  11.862 -0.1986 -0.3184 -0.0387
 4264SOL    HW124425   1.573   1.299  11.939  0.6429  1.4269 -0.2981
 4264SOL    HW224426   1.616   1.172  11.881 -2.2625 -0.2584 -0.0308
 4265SOL     OW24427   2.219   0.499  10.638 -0.6038  0.4740 -0.0725
 4265SOL    HW124428   2.190   0.576  10.589  2.3801 -0.2450 -2.9235
 4265SOL    HW224429   2.295   0.474  10.586 -1.7897 -0.9768 -1.1355
 4266SOL     OW24430   4.416   0.794   0.116 -0.2849 -0.4679  0.7095
 4266SOL    HW124431   4.328   0.771   0.146 -0.3406 -0.7568  0.3354
 4266SOL    HW224432   4.433   0.719   0.059  1.2197 -0.1570  0.7726
 4267SOL     OW24433   1.551   3.963   5.379  0.7673  0.3377 -0.2261
 4267SOL    HW124434   1.543   4.053   5.347  1.2722  0.2498 -0.5996
 4267SOL    HW224435   1.467   3.929   5.346  0.8176  1.2911 -1.3214
 4268SOL     OW24436   3.359   2.137   0.750 -0.4164  0.2961  0.0948
 4268SOL    HW124437   3.401   2.067   0.800  1.0080  1.1455  0.0722
 4268SOL    HW224438   3.405   2.151   0.667 -0.5597 -2.2257 -0.4199
 4269SOL     OW24439   1.948   1.738   5.958 -0.0620  0.1297  0.2896
 4269SOL    HW124440   1.875   1.704   5.906 -0.9097  1.4685  0.5982
 4269SOL    HW224441   1.958   1.820   5.909 -2.8257 -0.1473 -0.7192
 4270SOL     OW24442   3.622   4.664  13.735 -0.5139 -0.7215 -0.2200
 4270SOL    HW124443   3.560   4.600  13.773 -0.5309 -1.9929 -2.4061
 4270SOL    HW224444   3.700   4.639  13.785 -0.5091 -1.3992 -0.5684
 4271SOL     OW24445   4.510   0.331   2.681  0.0537 -0.3415 -0.4496
 4271SOL    HW124446   4.573   0.264   2.707 -1.2178 -1.5752 -0.5263
 4271SOL    HW224447   4.515   0.324   2.586 -0.9973  0.8464 -0.5918
 4272SOL     OW24448   4.549   0.041   3.579 -0.0145  0.0253  0.3847
 4272SOL    HW124449   4.611   4.709   3.606 -0.5259 -1.1125 -1.3089
 4272SOL    HW224450   4.563   0.123   3.627 -3.2598  0.2348  0.9708
 4273SOL     OW24451   2.636   4.284   3.512 -0.1500  0.2978 -0.4163
 4273SOL    HW124452   2.702   4.241   3.457 -0.7493 -0.3785 -0.6016
 4273SOL    HW224453   2.602   4.218   3.572  0.3457 -0.2945 -0.7942
 4274SOL     OW24454   2.278   4.456   5.093 -0.2253  0.0168 -0.0085
 4274SOL    HW124455   2.333   4.446   5.171 -0.2330  0.3701  0.0461
 4274SOL    HW224456   2.333   4.511   5.036 -2.0253  2.6553  0.8115
 4275SOL     OW24457   4.543   0.888  12.115 -0.7159  0.2687  0.3974
 4275SOL    HW124458   4.624   0.838  12.104 -2.2639 -1.8645 -1.0808
 4275SOL    HW224459   4.581   0.976  12.125  1.6324 -0.8806  1.5401
 4276SOL     OW24460   0.850   0.089  15.992  0.4384  0.8295 -0.1341
 4276SOL    HW124461   0.926   0.035  15.970 -1.1550 -1.4200 -0.1372
 4276SOL    HW224462   0.787   0.070  15.922  0.7728 -1.1853  0.1177
 4277SOL     OW24463   2.063   0.470  12.347  0.0220  0.1343  0.6634
 4277SOL    HW124464   1.984   0.522  12.332 -0.4378 -0.0358  2.4782
 4277SOL    HW224465   2.017   0.391  12.376 -1.4328  1.1760  1.1822
 4278SOL     OW24466   2.620   0.471  13.955  0.0125 -0.6912  0.3447
 4278SOL    HW124467   2.687   0.479  13.887 -0.5893 -1.5597 -0.3474
 4278SOL    HW224468   2.607   0.376  13.964  4.1949 -1.1100  2.1634
 4279SOL     OW24469   4.605   4.148   3.396  0.5634  0.3682  0.2960
 4279SOL    HW124470   4.630   4.160   3.488  0.8132 -2.6231  0.6349
 4279SOL    HW224471   4.552   4.069   3.400 -0.7129  1.2562  0.8390
 4280SOL     OW24472   1.754   2.208  12.605 -0.0973 -0.0223 -0.5261
 4280SOL    HW124473   1.767   2.302  12.618 -1.2472  0.3706 -2.1582
 4280SOL    HW224474   1.785   2.189  12.516 -1.3078 -1.0183 -0.7380
 4281SOL     OW24475   4.314   3.358   9.407 -0.4938 -0.0668  0.0961
 4281SOL    HW124476   4.315   3.340   9.501 -0.6526 -1.6082 -0.1972
 4281SOL    HW224477   4.276   3.447   9.406  0.4556  0.3244 -0.6999
 4282SOL     OW24478   0.237   1.378  13.332  0.4685 -0.0962  0.2196
 4282SOL    HW124479   0.245   1.298  13.279  1.5281 -0.1784  0.4904
 4282SOL    HW224480   0.146   1.366  13.356 -0.4625  0.5104 -2.9687
 4283SOL     OW24481   4.366   3.250   2.852  0.3917  0.4890 -0.1830
 4283SOL    HW124482   4.370   3.155   2.838 -0.9022  0.4651 -0.3079
 4283SOL    HW224483   4.313   3.257   2.931 -0.4859 -0.1608 -0.7168
 4284SOL     OW24484   2.485   1.176   5.424 -0.1802 -0.3583  0.3178
 4284SOL    HW124485   2.490   1.085   5.395 -1.0696 -0.2407 -0.2215
 4284SOL    HW224486   2.411   1.174   5.485 -0.9753  3.1498 -0.5046
 4285SOL     OW24487   2.290   3.734   7.369 -0.2107  0.0373  0.4439
 4285SOL    HW124488   2.205   3.769   7.394 -1.5465 -3.4027  0.7481
 4285SOL    HW224489   2.274   3.682   7.290  1.1562 -0.7614  0.6892
 4286SOL     OW24490   1.909   1.398  17.478 -0.6076 -0.2868  0.1832
 4286SOL    HW124491   1.895   1.436  17.565 -0.4713 -2.2236  1.0391
 4286SOL    HW224492   1.887   1.471  17.420 -0.8140 -2.6447 -2.6977
 4287SOL     OW24493   4.709   2.898   6.952 -0.1173  0.1304 -0.1843
 4287SOL    HW124494   0.017   2.918   6.869  0.0228  0.0255 -0.1348
 4287SOL    HW224495   4.638   2.838   6.928  0.7860 -1.9875  2.4541
 4288SOL     OW24496   0.273   0.635   4.979  0.3232  0.0777 -0.4854
 4288SOL    HW124497   0.293   0.642   4.886  1.5911  0.3501 -0.1826
 4288SOL    HW224498   0.353   0.601   5.017  0.2109  1.4020  0.9576
 4289SOL     OW24499   1.758   1.457   3.272 -0.8676  0.2575 -0.5771
 4289SOL    HW124500   1.674   1.440   3.230 -0.4639 -1.6792 -0.6118
 4289SOL    HW224501   1.764   1.549   3.245  1.6147 -0.4557 -2.5289
 4290SOL     OW24502   1.891   0.989   2.009  0.4646 -0.5586 -0.1590
 4290SOL    HW124503   1.904   1.012   2.101 -0.3149  1.9417 -0.6569
 4290SOL    HW224504   1.860   1.073   1.975 -0.6919 -1.3287 -1.0372
 4291SOL     OW24505   3.643   1.328   2.622  0.3186 -0.6044  0.9247
 4291SOL    HW124506   3.575   1.325   2.554  1.7482 -0.3359 -0.5238
 4291SOL    HW224507   3.718   1.309   2.565  0.7263  0.9817  0.9328
 4292SOL     OW24508   1.006   1.894   7.491  0.4283  0.0445 -0.1802
 4292SOL    HW124509   1.097   1.871   7.512  1.0388 -0.6162 -3.6472
 4292SOL    HW224510   0.973   1.821   7.439 -0.4219  0.8220 -0.7195
 4293SOL     OW24511   3.390   2.744   7.433  0.1288  0.1676  0.3014
 4293SOL    HW124512   3.430   2.747   7.520  0.4807  1.4555  0.0962
 4293SOL    HW224513   3.447   2.678   7.392 -0.1278 -0.3017  0.6972
 4294SOL     OW24514   2.876   0.439  13.167  0.6954 -0.3562  0.5810
 4294SOL    HW124515   2.846   0.486  13.089 -0.0465  2.5148  2.6205
 4294SOL    HW224516   2.969   0.419  13.160  0.8482  0.6876 -0.2632
 4295SOL     OW24517   2.124   0.833   7.502 -0.5612  0.4940 -0.6437
 4295SOL    HW124518   2.086   0.749   7.528 -1.0772  1.1042  0.5580
 4295SOL    HW224519   2.198   0.840   7.561 -1.7767  0.5885  0.8568
 4296SOL     OW24520   2.812   0.215   0.732  0.0343 -0.0246 -0.9389
 4296SOL    HW124521   2.829   0.203   0.826  0.3429 -0.3737 -1.0397
 4296SOL    HW224522   2.899   0.231   0.694 -0.1487 -0.2073 -1.4285
 4297SOL     OW24523   3.450   3.207  11.112  0.2047 -0.0513  0.7165
 4297SOL    HW124524   3.365   3.178  11.145  0.2687  0.8020  1.6214
 4297SOL    HW224525   3.430   3.229  11.021  0.3043 -1.3397  0.3777
 4298SOL     OW24526   4.143   0.292  16.359  0.0588 -0.4744  0.0521
 4298SOL    HW124527   4.107   0.316  16.273  0.6973 -1.1995 -0.4151
 4298SOL    HW224528   4.103   0.205  16.361 -0.5358 -0.2618 -1.9771
 4299SOL     OW24529   2.180   4.337   0.477 -0.2065 -0.0067  0.0674
 4299SOL    HW124530   2.145   4.403   0.417  0.9915  0.6015  0.0489
 4299SOL    HW224531   2.117   4.268   0.454 -1.2917  1.5128 -1.5645
 4300SOL     OW24532   1.920   0.289  16.666 -0.2647 -0.3771  0.0942
 4300SOL    HW124533   1.872   0.332  16.595 -0.1978  2.3130  1.6641
 4300SOL    HW224534   1.854   0.267  16.732 -0.5395  1.4035  0.4125
 4301SOL     OW24535   4.604   1.174  10.646 -0.4905  0.8397  0.3087
 4301SOL    HW124536   4.650   1.235  10.588  2.7504 -2.1826 -0.3297
 4301SOL    HW224537   4.624   1.199  10.736 -0.8943 -0.3728  0.7459
 4302SOL     OW24538   1.985   3.551   6.147  0.4560 -0.0048 -0.1831
 4302SOL    HW124539   2.062   3.496   6.160 -0.5570 -1.8338 -1.8573
 4302SOL    HW224540   1.942   3.545   6.232 -3.6696 -1.2857 -2.3927
 4303SOL     OW24541   4.237   2.547   6.587 -0.2851 -0.6642 -0.2331
 4303SOL    HW124542   4.321   2.583   6.557 -0.9387  1.2769  0.2949
 4303SOL    HW224543   4.262   2.459   6.615  3.6261  0.5716  0.1496
 4304SOL     OW24544   0.662   2.260   7.785 -0.0985 -0.3800 -0.1482
 4304SOL    HW124545   0.745   2.237   7.743 -0.5816 -2.2514 -0.0721
 4304SOL    HW224546   0.682   2.290   7.873  0.0932 -1.9023  0.3111
 4305SOL     OW24547   1.586   3.622   2.524 -0.7780  0.0564  0.4301
 4305SOL    HW124548   1.545   3.543   2.558  0.5302 -0.1655  1.4944
 4305SOL    HW224549   1.524   3.657   2.461 -0.4156 -0.6545 -0.3265
 4306SOL     OW24550   1.823   1.212  16.026 -0.5619  0.1943 -0.1124
 4306SOL    HW124551   1.804   1.233  15.935  2.2385 -2.7827 -1.4221
 4306SOL    HW224552   1.745   1.172  16.064 -1.0426  0.3881 -0.8905
 4307SOL     OW24553   2.327   1.644   3.656  0.0436  0.2039  0.0856
 4307SOL    HW124554   2.283   1.561   3.636 -1.0208  0.8931 -0.4286
 4307SOL    HW224555   2.400   1.653   3.595 -1.4526 -1.2122 -1.9382
 4308SOL     OW24556   2.529   2.173   5.606 -0.0164  0.6227  0.7018
 4308SOL    HW124557   2.494   2.096   5.561 -0.3551  1.4716 -0.4807
 4308SOL    HW224558   2.465   2.187   5.676 -0.5445 -1.2324  0.6071
 4309SOL     OW24559   1.455   0.673   3.338  0.4979  0.5910 -0.5950
 4309SOL    HW124560   1.456   0.613   3.413 -1.0145  0.3396 -0.7741
 4309SOL    HW224561   1.438   0.613   3.265 -1.9998 -1.2123  1.4682
 4310SOL     OW24562   1.216   0.433   2.045  0.6176  0.3889  0.0243
 4310SOL    HW124563   1.176   0.484   2.115  0.0191  0.0499 -0.0647
 4310SOL    HW224564   1.181   0.467   1.962  2.8439  0.8385 -0.7277
 4311SOL     OW24565   4.021   1.521   5.393  0.0363 -0.4502 -0.0000
 4311SOL    HW124566   4.074   1.441   5.394  0.9989  0.1651 -1.7798
 4311SOL    HW224567   4.089   1.588   5.394  0.3839 -0.7215 -5.2064
 4312SOL     OW24568   0.012   2.404   8.759 -0.0342  0.4054 -0.0983
 4312SOL    HW124569   4.653   2.413   8.774 -0.6242 -1.4578 -2.6501
 4312SOL    HW224570   0.025   2.444   8.673  0.2322 -1.0281 -0.7373
 4313SOL     OW24571   3.021   2.613   3.996  0.1721 -0.1746  0.3443
 4313SOL    HW124572   3.066   2.690   4.031 -1.0874  1.3950 -1.5186
 4313SOL    HW224573   3.008   2.556   4.072  0.9950 -1.8544 -0.7693
 4314SOL     OW24574   1.259   3.737   6.658 -0.5122 -0.0969 -0.1135
 4314SOL    HW124575   1.180   3.788   6.676 -0.2139 -0.7231  3.0139
 4314SOL    HW224576   1.285   3.758   6.568 -0.7773 -0.5365 -0.2949
 4315SOL     OW24577   0.843   4.658   4.926 -0.0461  0.2702 -0.5208
 4315SOL    HW124578   0.748   4.654   4.936  0.0623  0.7643  0.7285
 4315SOL    HW224579   0.844   4.654   4.831 -0.1182  0.3490 -0.5251
 4316SOL     OW24580   2.655   2.976   8.187 -0.1867 -0.4034  0.2860
 4316SOL    HW124581   2.678   3.053   8.134 -1.6139 -0.3851 -0.3184
 4316SOL    HW224582   2.587   2.941   8.129  0.4560 -0.6814 -0.2945
 4317SOL     OW24583   3.825   1.480  11.110 -0.0842  0.0757 -0.2810
 4317SOL    HW124584   3.837   1.558  11.056 -1.4178  1.0488  0.8203
 4317SOL    HW224585   3.916   1.450  11.115 -1.2809 -3.2582  1.7330
 4318SOL     OW24586   0.122   3.727   7.199  0.3629  0.7413 -0.1695
 4318SOL    HW124587   0.057   3.718   7.129  0.1316 -1.2104  0.2950
 4318SOL    HW224588   0.091   3.804   7.246 -2.3081  1.3081 -2.8986
 4319SOL     OW24589   4.622   1.558   4.503 -0.6376  0.4601 -0.3823
 4319SOL    HW124590   4.586   1.476   4.536 -2.3937  1.2528 -0.3203
 4319SOL    HW224591   4.544   1.597   4.465 -0.1241  2.1598  0.2989
 4320SOL     OW24592   0.246   4.113   8.959 -0.6367  0.2989  0.2244
 4320SOL    HW124593   0.184   4.179   8.990 -1.1532 -0.0745 -0.0213
 4320SOL    HW224594   0.228   4.113   8.865  2.2784 -1.8032 -0.3415
 4321SOL     OW24595   0.919   0.124   5.854 -0.3209 -0.7464 -0.3370
 4321SOL    HW124596   0.847   0.065   5.832 -0.7707 -0.5867  0.6886
 4321SOL    HW224597   0.867   0.196   5.889  0.4190  0.5462 -1.9302
 4322SOL     OW24598   0.045   2.515   5.869  0.3307 -0.3010  0.2836
 4322SOL    HW124599   0.074   2.605   5.889  0.5535 -0.2133 -0.4259
 4322SOL    HW224600   0.019   2.522   5.777 -0.3611 -0.5984  0.4561
 4323SOL     OW24601   4.462   0.288  13.170 -0.0686 -0.2171  0.0523
 4323SOL    HW124602   4.535   0.267  13.227 -1.0336 -0.2746  1.2522
 4323SOL    HW224603   4.387   0.276  13.228  0.5653 -0.0185  0.9116
 4324SOL     OW24604   2.333   1.701   6.100 -0.0601  0.4428 -0.0892
 4324SOL    HW124605   2.320   1.764   6.171 -1.7606  1.0286 -0.9202
 4324SOL    HW224606   2.384   1.750   6.035  0.1626  0.0272 -0.2237
 4325SOL     OW24607   0.006   4.531   3.401  0.4249  0.1342  0.3675
 4325SOL    HW124608   0.033   4.470   3.469  0.8529 -1.4970 -1.2535
 4325SOL    HW224609   0.084   4.587   3.394 -1.0782  2.1451 -0.4430
 4326SOL     OW24610   3.571   4.419   2.906 -0.2773  0.0170  0.6860
 4326SOL    HW124611   3.506   4.472   2.952 -0.8391  0.3259 -0.4507
 4326SOL    HW224612   3.544   4.443   2.817 -1.5754 -0.4103  0.9547
 4327SOL     OW24613   2.373   2.414   6.627  0.1412 -0.0322  0.1157
 4327SOL    HW124614   2.426   2.456   6.695 -0.7247  0.6994  0.3293
 4327SOL    HW224615   2.411   2.327   6.642  3.7997  1.1910 -2.0304
 4328SOL     OW24616   4.446   1.265   3.724  0.1860  0.0638  0.3383
 4328SOL    HW124617   4.443   1.328   3.653 -0.9890  0.6384  0.9048
 4328SOL    HW224618   4.361   1.221   3.727  0.0897  0.2576  0.4182
 4329SOL     OW24619   0.306   2.181  10.698  1.1958 -0.1147 -0.2415
 4329SOL    HW124620   0.226   2.195  10.648 -0.1159  0.9335  2.1390
 4329SOL    HW224621   0.285   2.116  10.765 -4.9156  0.3536 -1.7345
 4330SOL     OW24622   2.774   0.535  15.268  0.1259 -0.2046 -0.1396
 4330SOL    HW124623   2.829   0.547  15.346  0.0077  1.1069 -0.2594
 4330SOL    HW224624   2.711   0.606  15.280 -0.6481 -0.9108 -0.0264
 4331SOL     OW24625   0.864   3.357   7.541  0.3330  0.4315 -0.5215
 4331SOL    HW124626   0.883   3.439   7.496 -0.7711  0.8295 -0.2526
 4331SOL    HW224627   0.895   3.294   7.476  1.5784  0.5284 -0.0204
 4332SOL     OW24628   4.299   4.215  13.246 -0.2550  0.7067  0.0876
 4332SOL    HW124629   4.338   4.264  13.173 -0.0460  1.3832  0.6586
 4332SOL    HW224630   4.223   4.182  13.198 -1.0491  1.7651  0.6092
 4333SOL     OW24631   0.064   1.591   2.264  0.3991 -0.1598  0.2091
 4333SOL    HW124632   0.035   1.579   2.354 -0.1801  0.0844  0.0569
 4333SOL    HW224633   0.033   1.680   2.250 -0.7845 -0.1385  3.1603
 4334SOL     OW24634   0.605   1.316  17.380 -0.1773 -0.1835 -0.1763
 4334SOL    HW124635   0.619   1.255  17.452  1.9916 -0.4082 -0.7814
 4334SOL    HW224636   0.692   1.349  17.358  0.4219 -2.2328 -0.8799
 4335SOL     OW24637   2.569   2.409   5.449 -0.0988  0.2158 -0.3996
 4335SOL    HW124638   2.536   2.340   5.506  0.0965 -1.0117 -1.7704
 4335SOL    HW224639   2.613   2.460   5.517 -1.3729 -1.5538  1.7548
 4336SOL     OW24640   1.600   4.252  15.206 -0.0735  0.1224 -0.0201
 4336SOL    HW124641   1.655   4.238  15.129 -0.3857 -1.4719  0.0275
 4336SOL    HW224642   1.573   4.161  15.224 -3.2229  1.0210 -0.1812
 4337SOL     OW24643   4.173   3.608   3.265 -0.1742  0.1094  0.4046
 4337SOL    HW124644   4.235   3.665   3.309  0.8603 -1.4662  0.9631
 4337SOL    HW224645   4.222   3.589   3.185 -0.5908 -0.2650  0.2386
 4338SOL     OW24646   3.312   0.377  15.490  0.4525  0.1265 -0.2552
 4338SOL    HW124647   3.229   0.409  15.454  0.4191  2.7161  2.1126
 4338SOL    HW224648   3.283   0.359  15.579 -0.3664  1.3217 -0.2915
 4339SOL     OW24649   2.734   3.324  11.284 -0.3208  0.0577  0.3122
 4339SOL    HW124650   2.724   3.268  11.360  0.6513  0.4398  0.7198
 4339SOL    HW224651   2.671   3.284  11.225  0.3575 -2.4198  1.3003
 4340SOL     OW24652   3.516   4.454  13.912 -0.1627  0.4122  0.1608
 4340SOL    HW124653   3.488   4.436  14.002  2.4753  2.1475  1.3317
 4340SOL    HW224654   3.557   4.369  13.895 -0.4450  0.0760  1.1772
 4341SOL     OW24655   0.862   3.462   7.865 -0.2277  0.2539  0.0792
 4341SOL    HW124656   0.875   3.418   7.781  0.6003 -1.0345  0.8802
 4341SOL    HW224657   0.955   3.472   7.885 -0.1797  0.1256 -0.0740
 4342SOL     OW24658   0.622   2.504   5.258  0.3108 -0.6428  0.4926
 4342SOL    HW124659   0.566   2.443   5.306  0.5830  0.3224  2.0589
 4342SOL    HW224660   0.563   2.543   5.194 -1.8073 -0.8506  2.3105
 4343SOL     OW24661   0.933   1.370  16.028  0.5237  1.1384 -0.2815
 4343SOL    HW124662   0.890   1.444  15.987 -0.8873  0.9055  0.7776
 4343SOL    HW224663   0.890   1.294  15.988  1.4133  1.5606 -2.0365
 4344SOL     OW24664   2.173   0.262  13.754  0.0407 -0.3343  0.5319
 4344SOL    HW124665   2.195   0.201  13.683  2.0151  1.3036 -0.2462
 4344SOL    HW224666   2.259   0.303  13.765  0.7886 -1.8318  0.2902
 4345SOL     OW24667   2.824   3.359   4.990  0.0535  0.0703  0.9758
 4345SOL    HW124668   2.821   3.353   5.085  0.9663 -2.2406  0.8561
 4345SOL    HW224669   2.885   3.290   4.963 -1.5651 -0.4275 -1.4749
 4346SOL     OW24670   0.215   2.995   3.797 -0.0914 -0.1135 -0.0458
 4346SOL    HW124671   0.285   2.937   3.827 -0.6707  0.3130  2.0982
 4346SOL    HW224672   0.227   3.072   3.853  2.2467  0.1353 -0.8908
 4347SOL     OW24673   0.167   2.925   7.145 -0.2023  0.1875  0.2955
 4347SOL    HW124674   0.119   2.899   7.067 -1.4331 -1.7455  1.7278
 4347SOL    HW224675   0.157   3.019   7.130 -1.4140  0.3826  2.2580
 4348SOL     OW24676   3.142   1.890   7.537 -0.0208  0.5173  0.7138
 4348SOL    HW124677   3.143   1.825   7.467  1.3456  0.4664  0.7939
 4348SOL    HW224678   3.133   1.826   7.608  1.3328  0.5400  0.9038
 4349SOL     OW24679   4.546   0.670   1.068 -0.1444 -0.0093 -0.5816
 4349SOL    HW124680   4.569   0.733   1.136  0.9986  0.4437 -1.3886
 4349SOL    HW224681   4.521   0.591   1.116  0.6432 -1.1636 -2.0392
 4350SOL     OW24682   3.055   2.921   5.512 -0.0682  0.3224  0.0360
 4350SOL    HW124683   3.011   2.994   5.554  4.3224  3.6050 -1.1035
 4350SOL    HW224684   3.122   2.954   5.452 -0.3747 -0.7517 -0.9166
 4351SOL     OW24685   1.038   3.457  13.493 -0.2273  0.6268  0.0804
 4351SOL    HW124686   1.100   3.417  13.433 -3.1229  1.4069 -3.4230
 4351SOL    HW224687   0.965   3.396  13.480 -0.0633  0.7184 -1.2509
 4352SOL     OW24688   4.443   1.427   6.101  0.4562  0.0584  0.0523
 4352SOL    HW124689   4.350   1.442   6.081  0.1404  0.5859  1.8404
 4352SOL    HW224690   4.452   1.334   6.083 -0.8359 -0.0120 -0.2516
 4353SOL     OW24691   3.262   1.743   8.198 -0.0802 -0.0223 -0.6256
 4353SOL    HW124692   3.344   1.695   8.188 -0.4872 -1.1931  1.5752
 4353SOL    HW224693   3.236   1.719   8.287 -0.6819 -1.5371 -1.2192
 4354SOL     OW24694   4.198   4.089   7.384 -0.2030  0.2069  0.2768
 4354SOL    HW124695   4.257   4.020   7.355  0.5792  0.6088  0.8986
 4354SOL    HW224696   4.253   4.158   7.345 -1.8635  0.7921 -1.0276
 4355SOL     OW24697   4.187   2.131   9.759 -0.6913 -0.1627 -0.2293
 4355SOL    HW124698   4.261   2.149   9.701 -0.6623 -1.2563 -0.5232
 4355SOL    HW224699   4.107   2.112   9.710 -2.4379  1.8287  1.8294
 4356SOL     OW24700   1.855   1.387   3.802  0.2660 -0.0426 -0.1239
 4356SOL    HW124701   1.765   1.371   3.830 -0.1317 -0.7328 -1.8081
 4356SOL    HW224702   1.889   1.301   3.829  0.1914  0.7731  2.5106
 4357SOL     OW24703   1.965   1.275   8.214  0.1277 -0.2548  0.6560
 4357SOL    HW124704   1.994   1.206   8.154  2.7407  2.7217 -1.5081
 4357SOL    HW224705   1.918   1.337   8.157 -0.7224 -1.7016 -0.2141
 4358SOL     OW24706   3.766   0.729   0.865  0.8900 -0.1219 -0.2657
 4358SOL    HW124707   3.825   0.657   0.844  1.4944 -0.1981  1.7593
 4358SOL    HW224708   3.806   0.803   0.819  2.8453 -1.1600 -0.2336
 4359SOL     OW24709   2.123   4.342   8.074  0.0654 -0.0267  0.1512
 4359SOL    HW124710   2.119   4.388   8.158 -0.1093  0.4174 -0.0980
 4359SOL    HW224711   2.135   4.252   8.104 -0.4034 -0.2432 -0.3150
 4360SOL     OW24712   1.653   1.920   8.925 -0.2429  0.6618  0.3116
 4360SOL    HW124713   1.626   1.839   8.968  3.0031 -0.4183  0.3152
 4360SOL    HW224714   1.740   1.895   8.894 -0.3048 -0.1791  0.8103
 4361SOL     OW24715   4.439   2.913   8.265  0.1330 -0.0295  0.1238
 4361SOL    HW124716   4.473   2.995   8.300 -0.2735  0.5884 -0.9194
 4361SOL    HW224717   4.405   2.950   8.184  1.0175 -0.5088 -0.4701
 4362SOL     OW24718   1.056   1.314   2.135 -0.4619 -0.0372 -0.3893
 4362SOL    HW124719   1.148   1.291   2.133 -0.9755 -1.9513 -1.3815
 4362SOL    HW224720   1.053   1.374   2.210  0.0029 -1.0651  0.4434
 4363SOL     OW24721   2.506   2.267  13.596 -0.6439  0.4719 -0.1490
 4363SOL    HW124722   2.591   2.233  13.569 -1.1422  0.0956 -1.2539
 4363SOL    HW224723   2.484   2.199  13.659  0.9412 -1.2694 -1.4702
 4364SOL     OW24724   4.009   0.324   1.003 -0.0312 -0.2881  0.3900
 4364SOL    HW124725   3.950   0.266   1.050 -1.2606  0.1709 -0.5675
 4364SOL    HW224726   4.062   0.351   1.078  0.6923 -1.7953  0.4112
 4365SOL     OW24727   3.012   0.719   8.051 -0.2459  0.8916 -0.5722
 4365SOL    HW124728   3.009   0.793   8.112  1.8577  0.4688  0.0363
 4365SOL    HW224729   3.094   0.744   8.007 -1.3904  1.5867 -2.3397
 4366SOL     OW24730   1.901   3.734  17.130  0.0847  0.5959  0.4378
 4366SOL    HW124731   1.975   3.793  17.141 -0.7177  1.8411 -0.9425
 4366SOL    HW224732   1.843   3.782  17.190 -0.4787 -0.5333  0.8086
 4367SOL     OW24733   1.690   2.498   1.959 -0.0291  0.2905 -0.5732
 4367SOL    HW124734   1.695   2.459   2.046 -3.1881  0.0902 -0.4878
 4367SOL    HW224735   1.670   2.592   1.967 -0.8562  0.0860 -0.3203
 4368SOL     OW24736   2.233   2.044   8.323  0.5017 -0.6813 -0.0293
 4368SOL    HW124737   2.184   1.963   8.331 -0.7303  0.0956  0.2940
 4368SOL    HW224738   2.266   2.033   8.234 -0.7321  0.0537 -0.5751
 4369SOL     OW24739   4.684   0.442   5.505 -0.6884 -0.5810  0.1092
 4369SOL    HW124740   4.616   0.382   5.537  0.5781 -2.2429 -0.3273
 4369SOL    HW224741   4.632   0.512   5.467  0.4627  0.3022  0.1802
 4370SOL     OW24742   3.997   2.058  15.105  0.3699 -0.3059 -0.0448
 4370SOL    HW124743   4.044   2.069  15.022  0.7988 -0.7275  0.1401
 4370SOL    HW224744   3.988   2.150  15.131 -1.5005 -0.5380  0.1258
 4371SOL     OW24745   4.096   0.848   3.304  0.2602 -0.3886  0.0101
 4371SOL    HW124746   4.007   0.860   3.271  0.2109  0.4535  0.4388
 4371SOL    HW224747   4.136   0.786   3.243 -1.8722 -1.1174 -0.6510
 4372SOL     OW24748   3.078   3.371   2.501  0.6147  0.4136 -0.3427
 4372SOL    HW124749   3.139   3.329   2.440  1.7745  1.1554  0.3047
 4372SOL    HW224750   3.006   3.391   2.441  0.2046  2.2625  0.7908
 4373SOL     OW24751   4.175   4.180  13.942  0.0806  0.1242  0.3475
 4373SOL    HW124752   4.239   4.250  13.927  0.8810 -0.5403  0.6840
 4373SOL    HW224753   4.147   4.188  14.034 -0.0892  1.3054  0.1928
 4374SOL     OW24754   1.787   1.785  12.180  0.1563  0.9545 -0.1639
 4374SOL    HW124755   1.880   1.807  12.176  0.2102  0.5581 -1.2312
 4374SOL    HW224756   1.748   1.843  12.245  0.4785 -0.7264  1.5234
 4375SOL     OW24757   0.951   2.853   4.640 -0.7474 -0.1770 -0.5065
 4375SOL    HW124758   0.976   2.761   4.630  0.6479  0.2437 -0.9098
 4375SOL    HW224759   0.896   2.857   4.718 -1.3476  0.4870 -0.9622
 4376SOL     OW24760   1.692   3.281   4.044  0.1677 -0.4806  0.5600
 4376SOL    HW124761   1.598   3.279   4.027  0.1254 -4.0794  1.0563
 4376SOL    HW224762   1.701   3.242   4.131 -2.6898  0.8909  1.4415
 4377SOL     OW24763   0.761   0.245   7.982 -0.1395 -0.3838  0.4059
 4377SOL    HW124764   0.833   0.308   7.982  1.2147 -1.9447  0.8396
 4377SOL    HW224765   0.760   0.208   8.070  2.2377 -1.5272 -0.0392
 4378SOL     OW24766   2.049   3.724   0.705  0.3042 -0.3490  0.0632
 4378SOL    HW124767   2.038   3.733   0.800 -0.0808  1.0217 -0.1109
 4378SOL    HW224768   2.110   3.650   0.708  2.8989  1.7504 -1.6357
 4379SOL     OW24769   4.385   0.938   2.417 -0.4790  0.1300  0.3272
 4379SOL    HW124770   4.447   1.005   2.448 -1.0656  0.7394  0.1904
 4379SOL    HW224771   4.411   0.853   2.453 -0.0224  0.0022 -0.3048
 4380SOL     OW24772   0.541   0.665  16.501  0.4931  0.0451 -0.3080
 4380SOL    HW124773   0.615   0.692  16.446 -0.1922 -0.0529 -1.2782
 4380SOL    HW224774   0.585   0.605  16.561  1.1170 -0.8460 -1.6309
 4381SOL     OW24775   2.006   1.193  11.525  0.6271  0.7910  0.1587
 4381SOL    HW124776   1.947   1.255  11.568 -0.2254  0.1027 -0.0059
 4381SOL    HW224777   2.079   1.198  11.586  2.1591  2.2167 -1.7599
 4382SOL     OW24778   0.348   0.249   8.814  0.6298  0.0754  0.3419
 4382SOL    HW124779   0.281   0.268   8.748  1.7757  0.3849 -0.7432
 4382SOL    HW224780   0.377   0.160   8.795 -1.5476 -0.9052  1.6381
 4383SOL     OW24781   1.786   0.465  10.016  0.5161 -0.2921 -0.3454
 4383SOL    HW124782   1.795   0.560  10.012  3.0710 -0.5975 -1.9905
 4383SOL    HW224783   1.691   0.456  10.003 -0.0794  3.6464  1.0736
 4384SOL     OW24784   0.792   0.206  12.282  0.2196 -0.4210  0.2883
 4384SOL    HW124785   0.862   0.268  12.261 -0.7628  0.8314  0.7216
 4384SOL    HW224786   0.831   0.122  12.306  0.5087 -0.1508  0.7556
 4385SOL     OW24787   3.921   1.005   1.510 -0.2518  0.2260  0.3093
 4385SOL    HW124788   3.989   0.938   1.510 -1.3316 -0.8690  0.9079
 4385SOL    HW224789   3.914   1.019   1.604 -1.5761 -1.0202  0.4012
 4386SOL     OW24790   0.542   2.131   8.134  0.5756 -0.0708 -0.6925
 4386SOL    HW124791   0.452   2.105   8.152  0.2700  1.3311 -0.1719
 4386SOL    HW224792   0.546   2.104   8.043 -1.3025  1.1005 -1.1324
 4387SOL     OW24793   2.810   0.946   6.876 -0.0903  0.1190 -0.1649
 4387SOL    HW124794   2.722   0.912   6.858 -0.4764  1.3930 -0.7222
 4387SOL    HW224795   2.838   0.943   6.784  0.6546 -1.0157  0.1057
 4388SOL     OW24796   0.782   3.661   8.517 -0.3695 -0.3942 -0.3472
 4388SOL    HW124797   0.714   3.608   8.558 -1.7790  1.9780  0.3761
 4388SOL    HW224798   0.756   3.640   8.428 -0.7566 -0.0667 -0.3107
 4389SOL     OW24799   3.451   0.153   3.991  0.0413  0.0334 -0.1738
 4389SOL    HW124800   3.413   0.070   3.962  2.5825 -1.9776  2.2968
 4389SOL    HW224801   3.507   0.165   3.913  3.1098 -0.1337  1.9931
 4390SOL     OW24802   2.006   2.068   9.143  0.1062 -0.2422 -0.0132
 4390SOL    HW124803   1.921   2.023   9.139 -0.5005  1.0284 -1.3640
 4390SOL    HW224804   1.972   2.157   9.158  0.0413 -0.1918 -0.4574
 4391SOL     OW24805   1.486   2.564   9.466 -0.2504  0.2491 -0.3993
 4391SOL    HW124806   1.397   2.562   9.431 -0.7604  1.0345  0.8428
 4391SOL    HW224807   1.478   2.624   9.541  0.0953 -0.8911  0.5433
 4392SOL     OW24808   0.903   0.878   5.519 -0.2555  0.1171 -0.4080
 4392SOL    HW124809   0.987   0.882   5.565  0.7250  0.1602 -2.1965
 4392SOL    HW224810   0.873   0.968   5.507 -3.1292 -0.7730  0.1955
 4393SOL     OW24811   2.592   1.433   4.913 -0.0808  0.1433 -0.2166
 4393SOL    HW124812   2.557   1.514   4.949  3.3145  1.4825  0.1299
 4393SOL    HW224813   2.523   1.405   4.854 -2.3411  1.4126  1.8497
 4394SOL     OW24814   0.921   1.532  12.378 -0.4943  0.5879  0.2406
 4394SOL    HW124815   0.937   1.524  12.472 -0.7770  1.1796  0.3410
 4394SOL    HW224816   0.981   1.470  12.336 -0.1767  1.0185  0.0673
 4395SOL     OW24817   3.743   0.694   1.131 -0.1360  0.1733 -0.3935
 4395SOL    HW124818   3.764   0.697   1.038  1.1748  2.7433 -0.0145
 4395SOL    HW224819   3.825   0.728   1.166 -1.0479 -0.2713  2.2130
 4396SOL     OW24820   2.095   0.712   1.551 -0.0960  0.2200 -0.1727
 4396SOL    HW124821   2.011   0.713   1.504 -0.4266 -1.4225  0.3858
 4396SOL    HW224822   2.157   0.744   1.486 -0.0129  4.2134  1.8640
 4397SOL     OW24823   4.257   2.016   6.388  0.3205  0.0467 -0.6286
 4397SOL    HW124824   4.350   2.015   6.407  0.3712 -1.0481 -0.9606
 4397SOL    HW224825   4.262   2.085   6.322  1.7264 -1.9073 -2.5712
 4398SOL     OW24826   4.329   3.688   8.589  0.0591 -0.7304 -0.1367
 4398SOL    HW124827   4.284   3.699   8.673  1.5154  1.4512  0.3962
 4398SOL    HW224828   4.266   3.719   8.524 -0.8211 -2.1008  0.0645
 4399SOL     OW24829   2.063   1.406   1.397 -0.3985 -0.1693 -0.0201
 4399SOL    HW124830   2.081   1.322   1.440  0.0353 -0.1171 -0.0999
 4399SOL    HW224831   2.114   1.461   1.457  0.7098  0.7829 -1.8156
 4400SOL     OW24832   2.453   3.393   8.177  0.2584  0.1250  0.2381
 4400SOL    HW124833   2.466   3.485   8.200  0.8841  0.0190  0.3053
 4400SOL    HW224834   2.547   3.374   8.177  0.3708  0.6587 -0.4489
 4401SOL     OW24835   0.910   0.031   9.330  0.0460 -0.2685  0.2503
 4401SOL    HW124836   0.871   0.077   9.404 -0.9034 -1.0373  0.2365
 4401SOL    HW224837   0.895   0.100   9.265  3.9896 -0.9653 -1.4199
 4402SOL     OW24838   0.556   1.122   1.058  0.2790  0.1631 -0.7842
 4402SOL    HW124839   0.551   1.140   1.152 -0.7027 -0.7732 -0.6609
 4402SOL    HW224840   0.645   1.090   1.047  0.4685  1.1178 -1.9835
 4403SOL     OW24841   1.817   1.206   1.702 -0.2801 -0.1430 -0.0250
 4403SOL    HW124842   1.790   1.282   1.651 -2.2761  0.3065  1.7140
 4403SOL    HW224843   1.802   1.136   1.639  1.2413 -0.1053 -0.4388
 4404SOL     OW24844   2.054   1.392  10.727  0.0186 -0.2051  0.5849
 4404SOL    HW124845   2.021   1.482  10.729  1.8626  0.4527  0.9939
 4404SOL    HW224846   1.974   1.343  10.704  0.3614  0.1430 -1.3360
 4405SOL     OW24847   1.620   1.422  14.310  0.0239  0.1783  0.0149
 4405SOL    HW124848   1.657   1.354  14.367  0.7854  0.3112 -0.3194
 4405SOL    HW224849   1.640   1.394  14.221 -1.7753  1.2770 -0.7142
 4406SOL     OW24850   3.120   4.517   1.768  0.1254 -0.2597 -0.5992
 4406SOL    HW124851   3.194   4.569   1.738  1.8880 -2.3617  0.1326
 4406SOL    HW224852   3.053   4.524   1.700  1.7165 -0.5679 -2.1920
 4407SOL     OW24853   4.245   3.812   5.490  0.5342  0.6103 -0.4101
 4407SOL    HW124854   4.151   3.830   5.495 -0.1772 -2.5850 -1.7471
 4407SOL    HW224855   4.280   3.854   5.568 -0.3593 -0.1552  0.4002
 4408SOL     OW24856   1.597   4.445   8.831 -0.0145  0.1551 -0.2864
 4408SOL    HW124857   1.638   4.363   8.803 -2.7286 -1.6458  1.0792
 4408SOL    HW224858   1.609   4.446   8.926 -0.3618 -2.0418 -0.2209
 4409SOL     OW24859   1.430   1.228   3.356 -0.2785 -0.1718  0.6322
 4409SOL    HW124860   1.513   1.229   3.308 -0.0608  2.5925  1.0737
 4409SOL    HW224861   1.370   1.179   3.300 -1.7653  2.6046 -0.2394
 4410SOL     OW24862   2.643   4.272   0.552  0.4525  0.1198 -0.0788
 4410SOL    HW124863   2.597   4.297   0.633  0.7401  0.1177  0.0861
 4410SOL    HW224864   2.575   4.291   0.488  2.2344  0.2878 -1.8912
 4411SOL     OW24865   2.927   3.265   6.959 -0.5372  0.4765  0.8377
 4411SOL    HW124866   2.899   3.174   6.959  3.4896 -0.7356  1.9595
 4411SOL    HW224867   3.021   3.253   6.945 -0.5839  0.0107  0.9489
 4412SOL     OW24868   1.461   0.471   5.752 -0.2506 -0.6566 -0.0874
 4412SOL    HW124869   1.525   0.487   5.821  2.2364 -0.2140 -2.4617
 4412SOL    HW224870   1.422   0.389   5.781  0.2775 -1.0065 -0.3574
 4413SOL     OW24871   0.337   0.444  16.778 -0.7100  0.3617  0.0537
 4413SOL    HW124872   0.286   0.464  16.857 -2.1728  1.4529 -1.1694
 4413SOL    HW224873   0.261   0.414  16.730 -2.0573  2.6562  0.7205
 4414SOL     OW24874   1.712   2.279   6.537 -0.1248 -0.2451  0.0084
 4414SOL    HW124875   1.759   2.344   6.483 -0.0623  0.9522  1.4907
 4414SOL    HW224876   1.767   2.276   6.616 -1.5186  1.6830  1.0695
 4415SOL     OW24877   2.762   1.778   9.169  0.3974  0.3665 -0.3983
 4415SOL    HW124878   2.697   1.751   9.234 -0.3227 -3.0713 -2.5172
 4415SOL    HW224879   2.840   1.725   9.185  1.0550  1.0855 -1.2068
 4416SOL     OW24880   1.491   0.563  14.151  0.5252 -0.4072  0.5830
 4416SOL    HW124881   1.525   0.474  14.136 -2.6763 -1.3019 -1.3474
 4416SOL    HW224882   1.478   0.587  14.060  0.1518  0.2188  0.8021
 4417SOL     OW24883   2.099   3.063  13.317 -0.0067 -0.3596 -0.0231
 4417SOL    HW124884   2.041   3.124  13.363  0.5714 -1.0805  1.6606
 4417SOL    HW224885   2.089   3.101  13.230  2.2543  2.9327  1.1664
 4418SOL     OW24886   1.570   1.550   5.124  0.5787  0.2552  0.2590
 4418SOL    HW124887   1.576   1.505   5.039 -4.1695 -1.4074  0.8060
 4418SOL    HW224888   1.588   1.637   5.090  3.5079  0.2539  1.8299
 4419SOL     OW24889   1.146   0.851   1.939 -0.4100  0.2912 -0.0258
 4419SOL    HW124890   1.073   0.912   1.927 -0.2336  0.4159 -0.5021
 4419SOL    HW224891   1.210   0.892   1.880  0.9354 -2.1478 -0.2499
 4420SOL     OW24892   1.537   2.712   5.803 -0.5383  0.8863 -0.0063
 4420SOL    HW124893   1.464   2.752   5.850 -0.5445 -1.6815  2.1966
 4420SOL    HW224894   1.604   2.749   5.860 -2.0253  1.0724  1.6316
 4421SOL     OW24895   4.425   0.734   8.507 -0.9184 -0.1161  0.2578
 4421SOL    HW124896   4.377   0.721   8.590 -0.7822 -0.8101  0.2285
 4421SOL    HW224897   4.370   0.795   8.458  2.6847  0.6856 -2.7586
 4422SOL     OW24898   0.485   0.810   0.973 -0.3381 -0.1050  0.3552
 4422SOL    HW124899   0.459   0.895   1.007  2.0397  0.8211 -0.1376
 4422SOL    HW224900   0.468   0.807   0.878  0.0049 -2.5885  0.3623
 4423SOL     OW24901   0.296   0.604  10.213  0.6853  0.0113  0.2868
 4423SOL    HW124902   0.280   0.680  10.157 -0.7027 -1.1652 -0.9112
 4423SOL    HW224903   0.365   0.557  10.167  0.6392 -0.4859  0.7238
 4424SOL     OW24904   1.680   2.402  14.835  0.6726  0.2106  0.3985
 4424SOL    HW124905   1.752   2.356  14.879 -0.0703 -1.2414  0.0746
 4424SOL    HW224906   1.718   2.404  14.747 -2.4670  0.9795 -0.9134
 4425SOL     OW24907   2.032   3.499  17.050 -0.0333 -0.3938 -0.1869
 4425SOL    HW124908   1.955   3.551  17.073 -0.2013 -0.3416 -0.8621
 4425SOL    HW224909   2.104   3.550  17.086  0.8053  0.2097 -2.7222
 4426SOL     OW24910   4.730   0.053   5.567  0.0889  0.1663  0.0911
 4426SOL    HW124911   0.078   0.077   5.607 -0.4120  1.0087  0.6234
 4426SOL    HW224912   4.668   0.058   5.640 -1.4708  1.6495 -1.3526
 4427SOL     OW24913   4.427   0.136   4.463 -0.1287 -0.0952 -0.2322
 4427SOL    HW124914   4.511   0.178   4.443  0.3196 -0.4732  0.8307
 4427SOL    HW224915   4.372   0.155   4.388 -3.4258 -0.0049  2.2078
 4428SOL     OW24916   2.209   2.538   3.259 -0.2820 -0.3786  0.0286
 4428SOL    HW124917   2.269   2.559   3.188 -1.3139  0.9663 -0.4353
 4428SOL    HW224918   2.236   2.611   3.316 -1.0830  0.6086 -0.8437
 4429SOL     OW24919   0.045   1.458  16.860  0.1640  0.2595 -0.1088
 4429SOL    HW124920   0.093   1.537  16.835  0.3487  0.2121  0.0968
 4429SOL    HW224921   4.718   1.455  16.787 -2.1437 -1.8537  1.9725
 4430SOL     OW24922   1.920   0.934   3.289  0.1457 -0.2843  0.4843
 4430SOL    HW124923   1.864   1.010   3.273  1.3752  0.2086 -1.6226
 4430SOL    HW224924   1.940   0.929   3.382 -0.5252  0.8579  0.6896
 4431SOL     OW24925   4.704   3.945   5.796  0.2318  0.7022  0.7713
 4431SOL    HW124926   4.710   3.872   5.858  0.3776  1.4001  1.5879
 4431SOL    HW224927   4.690   4.016   5.859 -1.3922  0.2995  0.8622
 4432SOL     OW24928   1.605   1.075   4.876  0.3360  0.3087 -0.0783
 4432SOL    HW124929   1.573   1.078   4.786  1.9310  2.2208 -0.6004
 4432SOL    HW224930   1.688   1.029   4.871  0.1076  0.0272 -1.2260
 4433SOL     OW24931   3.777   1.936   8.567  0.3767  0.1430  0.0496
 4433SOL    HW124932   3.823   1.897   8.492 -3.1494  1.2798 -2.7290
 4433SOL    HW224933   3.796   1.873   8.635 -1.9165 -0.8761 -0.2684
 4434SOL     OW24934   0.903   4.322  10.167 -0.2776  0.1033 -0.4260
 4434SOL    HW124935   0.921   4.228  10.172  1.4442  0.5818  2.3753
 4434SOL    HW224936   0.905   4.323  10.071 -0.1288 -4.7866 -0.4588
 4435SOL     OW24937   1.332   3.953   7.742  0.0119  0.2328 -0.1853
 4435SOL    HW124938   1.287   3.869   7.740 -0.5468  0.5489 -0.5294
 4435SOL    HW224939   1.271   4.011   7.697  1.1348  0.8276 -0.9636
 4436SOL     OW24940   3.070   1.456   5.098 -0.6605  0.0436  0.4085
 4436SOL    HW124941   3.150   1.468   5.148 -1.3587  1.6825  1.1158
 4436SOL    HW224942   3.098   1.410   5.019  0.6878  2.4169 -0.4870
 4437SOL     OW24943   0.259   3.099   6.481  0.2631  0.7335 -0.1740
 4437SOL    HW124944   0.311   3.019   6.491  1.2074  1.3054 -0.5717
 4437SOL    HW224945   0.210   3.069   6.405 -0.4193  0.0573  0.5313
 4438SOL     OW24946   0.528   0.486   7.411  0.0192  0.1137  0.8036
 4438SOL    HW124947   0.607   0.440   7.437 -1.1228 -1.5822  1.2779
 4438SOL    HW224948   0.488   0.427   7.347  2.3162 -1.4880  0.8434
 4439SOL     OW24949   4.237   4.098   5.047 -0.4714 -0.0969 -0.2843
 4439SOL    HW124950   4.325   4.117   5.014 -0.9220  2.0793 -0.2428
 4439SOL    HW224951   4.218   4.179   5.093 -0.9024 -0.3103 -0.0865
 4440SOL     OW24952   4.584   3.123  12.855 -0.4156 -0.7030  0.1461
 4440SOL    HW124953   4.636   3.051  12.820 -1.4709 -0.6184 -1.6223
 4440SOL    HW224954   4.517   3.134  12.787  0.1338 -1.4720 -0.5272
 4441SOL     OW24955   2.328   3.451   4.847  0.0673 -0.4823  0.0984
 4441SOL    HW124956   2.283   3.470   4.764  0.4853  1.6708  0.3647
 4441SOL    HW224957   2.366   3.367   4.821  0.1561 -0.4555  0.1425
 4442SOL     OW24958   0.307   3.814   3.563  0.5981  0.3537  0.3571
 4442SOL    HW124959   0.227   3.868   3.569  1.7491  2.2021 -1.0222
 4442SOL    HW224960   0.322   3.817   3.469  3.3237  0.3006  0.8111
 4443SOL     OW24961   1.439   2.025   2.128 -0.0593 -0.0193  0.0953
 4443SOL    HW124962   1.511   2.084   2.149  1.1770 -1.4464 -0.0792
 4443SOL    HW224963   1.477   1.977   2.054  1.4241 -0.0755  0.8829
 4444SOL     OW24964   3.561   4.580   3.162  0.3375  0.0733  0.2093
 4444SOL    HW124965   3.493   4.646   3.149  0.9505  0.5884 -0.2974
 4444SOL    HW224966   3.634   4.640   3.159  1.5178 -1.2815  1.4665
 4445SOL     OW24967   2.470   4.324   7.423  0.7083  0.2775  0.0791
 4445SOL    HW124968   2.559   4.290   7.433  0.8868 -0.4446 -4.0903
 4445SOL    HW224969   2.488   4.400   7.368  1.1965 -0.2061 -0.4367
 4446SOL     OW24970   0.178   0.863   5.111 -0.0193  0.5715 -0.5505
 4446SOL    HW124971   0.196   0.781   5.064  4.1690  1.0262  0.2698
 4446SOL    HW224972   0.229   0.852   5.191  1.0745 -0.3987 -1.3869
 4447SOL     OW24973   1.122   1.508   3.698  0.4422 -0.6273 -0.3585
 4447SOL    HW124974   1.200   1.477   3.744 -0.7656 -2.7023  0.2816
 4447SOL    HW224975   1.157   1.484   3.612 -0.2599 -0.6524 -0.6365
 4448SOL     OW24976   2.830   1.901   7.690  0.1430  0.3683  0.1823
 4448SOL    HW124977   2.893   1.968   7.663 -0.3140  1.2444  1.2706
 4448SOL    HW224978   2.880   1.825   7.719 -5.3238 -2.3904  2.4795
 4449SOL     OW24979   3.234   3.062  11.178  0.2209 -0.4840  0.4954
 4449SOL    HW124980   3.139   3.060  11.176  0.2303  0.2599 -0.5517
 4449SOL    HW224981   3.246   2.974  11.215 -1.1602 -0.3638  1.2011
 4450SOL     OW24982   0.379   0.054   9.901  0.3002  0.5922 -0.1950
 4450SOL    HW124983   0.400   0.056   9.994 -0.6305  0.7649  0.0113
 4450SOL    HW224984   0.316   4.718   9.900  1.0286 -0.0652  0.4974
 4451SOL     OW24985   0.266   3.007   4.910 -0.4572  0.3331  0.1751
 4451SOL    HW124986   0.250   2.916   4.885 -0.4667  0.9272 -1.9238
 4451SOL    HW224987   0.354   3.000   4.947 -1.1604 -3.3927  1.1257
 4452SOL     OW24988   1.464   3.490   9.818  0.2602  0.0840  0.3395
 4452SOL    HW124989   1.484   3.584   9.822 -3.8567  1.1012 -2.6172
 4452SOL    HW224990   1.507   3.473   9.734 -0.1629 -2.4255  0.6523
 4453SOL     OW24991   2.603   1.151   8.820 -0.2203 -0.5465  0.3736
 4453SOL    HW124992   2.520   1.102   8.819 -1.2673  1.2299 -1.1950
 4453SOL    HW224993   2.580   1.231   8.868  0.6067 -0.0584 -0.0388
 4454SOL     OW24994   4.366   1.770   4.068 -0.3403 -0.3350 -0.3483
 4454SOL    HW124995   4.296   1.721   4.112 -0.8608  0.3672 -0.4024
 4454SOL    HW224996   4.384   1.711   3.995 -3.4893 -0.7340 -0.8130
 4455SOL     OW24997   4.367   0.500   5.507 -0.0706 -0.3045 -0.7245
 4455SOL    HW124998   4.361   0.566   5.577  0.2973 -0.8921 -0.1456
 4455SOL    HW224999   4.338   0.422   5.555  0.6197 -0.9712 -1.4094
 4456SOL     OW25000   1.516   2.979   6.407  0.2627  0.4607 -0.3701
 4456SOL    HW125001   1.606   2.949   6.396 -0.1509 -1.5346  1.7023
 4456SOL    HW225002   1.508   3.035   6.330 -0.6796 -1.6538 -1.8377
 4457SOL     OW25003   3.339   1.357   5.704  0.0795  0.2355  0.1239
 4457SOL    HW125004   3.357   1.437   5.656 -2.9430  0.1084 -1.2138
 4457SOL    HW225005   3.423   1.324   5.736  0.3870  0.1251 -0.8295
 4458SOL     OW25006   4.442   3.286   5.590 -0.5511 -0.2534 -0.3588
 4458SOL    HW125007   4.501   3.348   5.548 -0.5720 -0.3400 -0.5159
 4458SOL    HW225008   4.491   3.206   5.570 -0.7164 -1.0383  2.3607
 4459SOL     OW25009   2.481   1.763   8.018  0.5576 -0.3036 -0.0241
 4459SOL    HW125010   2.545   1.744   7.949 -0.5073  0.5654 -1.2434
 4459SOL    HW225011   2.533   1.818   8.076  0.5340  1.7660 -1.9830
 4460SOL     OW25012   1.852   4.427   5.746 -0.3756 -0.3845 -0.5760
 4460SOL    HW125013   1.773   4.396   5.791 -1.3377  0.7948 -1.4561
 4460SOL    HW225014   1.916   4.358   5.766 -1.1319 -1.0864 -0.5698
 4461SOL     OW25015   2.837   0.552  17.715 -0.6879  0.0309  0.1095
 4461SOL    HW125016   2.859   0.460  17.699  2.0151  0.6889 -0.0176
 4461SOL    HW225017   2.829   0.549   0.071 -2.2942 -0.1628 -0.0376
 4462SOL     OW25018   4.262   1.696  12.192 -0.4012 -0.6635  0.5525
 4462SOL    HW125019   4.335   1.648  12.231 -0.4720 -1.7652 -0.6551
 4462SOL    HW225020   4.207   1.617  12.185  0.6514 -1.1800 -1.8737
 4463SOL     OW25021   1.732   2.593   8.673  0.0244  0.3925 -0.2594
 4463SOL    HW125022   1.709   2.623   8.585  0.6839 -0.7651 -0.8286
 4463SOL    HW225023   1.821   2.629   8.672  0.9176 -1.8294  0.8964
 4464SOL     OW25024   3.745   2.019   4.652 -0.2117  0.1518  0.0958
 4464SOL    HW125025   3.675   2.015   4.717 -0.0555 -1.8600  0.1628
 4464SOL    HW225026   3.689   2.028   4.574  0.1488 -1.3364 -0.3336
 4465SOL     OW25027   0.897   2.217   8.690 -0.2845  0.3976 -0.5070
 4465SOL    HW125028   0.964   2.259   8.635  1.1362 -0.0479  0.8557
 4465SOL    HW225029   0.859   2.289   8.740 -0.9668 -0.5296  0.2991
 4466SOL     OW25030   2.146   1.454  11.986  0.8572 -0.0288  0.7954
 4466SOL    HW125031   2.103   1.375  12.018  0.7976 -0.1102  0.5080
 4466SOL    HW225032   2.078   1.484  11.926  3.6538  2.2135 -1.2773
 4467SOL     OW25033   2.373   3.852  13.202  0.2742  0.0136 -0.4197
 4467SOL    HW125034   2.329   3.787  13.258 -2.8224  1.4093 -1.2269
 4467SOL    HW225035   2.378   3.926  13.262 -1.9780  0.2322 -0.4810
 4468SOL     OW25036   4.325   1.014   5.751 -0.0955  0.0854  0.0562
 4468SOL    HW125037   4.250   1.046   5.701  0.6091 -1.8178 -2.2278
 4468SOL    HW225038   4.358   0.946   5.693  1.4454  1.9013 -1.1812
 4469SOL     OW25039   1.269   1.735  11.894  1.2663  0.0546  0.5568
 4469SOL    HW125040   1.326   1.794  11.844 -0.6442  0.7775 -0.7476
 4469SOL    HW225041   1.185   1.748  11.851  2.1815  0.1449 -1.1822
 4470SOL     OW25042   1.874   2.649  15.288  0.3206 -0.4144 -0.1299
 4470SOL    HW125043   1.788   2.660  15.247  1.3898  1.9373 -1.7227
 4470SOL    HW225044   1.925   2.663  15.208  0.6938 -0.3550  0.1154
 4471SOL     OW25045   1.569   2.965   2.268 -0.3447  0.1203 -0.3919
 4471SOL    HW125046   1.568   3.028   2.340 -1.2071  0.0947 -0.3800
 4471SOL    HW225047   1.504   2.902   2.298 -1.9113  0.5391 -2.9224
 4472SOL     OW25048   1.392   1.662   2.278 -0.3276 -0.4393  0.5486
 4472SOL    HW125049   1.403   1.700   2.191 -1.0924  1.7175  1.3939
 4472SOL    HW225050   1.456   1.591   2.276 -0.1877 -0.2836 -0.4996
 4473SOL     OW25051   1.538   3.731  12.326  0.1024  0.2331 -0.3748
 4473SOL    HW125052   1.492   3.814  12.320  0.1917  0.4953  2.5583
 4473SOL    HW225053   1.586   3.712  12.245 -0.1831 -1.5991 -0.1311
 4474SOL     OW25054   0.072   2.585   4.332  0.6795 -0.3127  0.1437
 4474SOL    HW125055   0.073   2.547   4.419 -2.3692 -0.6967  0.0142
 4474SOL    HW225056   0.019   2.664   4.345 -1.1514 -1.5749  0.3642
 4475SOL     OW25057   0.794   4.439   4.091 -0.0907  0.0010  0.3723
 4475SOL    HW125058   0.741   4.366   4.122 -2.9216  0.7187 -2.7156
 4475SOL    HW225059   0.724   4.505   4.098 -0.1342 -0.2943  2.6192
 4476SOL     OW25060   1.933   2.835  12.748  0.2498 -0.0171  0.3586
 4476SOL    HW125061   2.001   2.822  12.813 -0.0064 -1.3122  0.3579
 4476SOL    HW225062   1.873   2.886  12.803  0.4602 -1.4901  1.9414
 4477SOL     OW25063   4.666   1.775  10.747 -0.1051  0.1421 -0.2164
 4477SOL    HW125064   4.669   1.870  10.739 -0.4091  0.1681 -0.0269
 4477SOL    HW225065   0.020   1.751  10.723 -0.5155 -1.4219 -0.1614
 4478SOL     OW25066   3.540   4.008   6.479 -0.1479 -0.0998  0.1620
 4478SOL    HW125067   3.506   3.944   6.415  0.1973 -3.1984  3.0759
 4478SOL    HW225068   3.633   3.987   6.478  0.0588  0.7388  3.2672
 4479SOL     OW25069   0.768   3.928   8.576  0.0236 -0.2121  0.1044
 4479SOL    HW125070   0.777   3.835   8.555 -0.7218 -0.5245  1.2000
 4479SOL    HW225071   0.823   3.973   8.511 -2.5161  0.1790 -1.7901
 4480SOL     OW25072   0.836   1.209   6.355 -0.2951 -0.4812 -0.4980
 4480SOL    HW125073   0.905   1.212   6.421 -0.1777 -0.3692 -0.6272
 4480SOL    HW225074   0.761   1.241   6.406  0.0152 -0.3225 -0.1384
 4481SOL     OW25075   3.105   0.825   2.503 -0.2701 -0.1949 -0.1599
 4481SOL    HW125076   3.036   0.865   2.451  0.1261 -1.6999 -1.8456
 4481SOL    HW225077   3.134   0.904   2.547 -0.5179  1.0495 -2.2517
 4482SOL     OW25078   4.135   1.618  17.520  0.1365  0.0786  0.0774
 4482SOL    HW125079   4.040   1.626  17.527  0.1134 -0.6689  0.6366
 4482SOL    HW225080   4.145   1.676  17.445  0.0831  1.4564  1.1337
 4483SOL     OW25081   3.992   2.155  15.790 -0.0522 -0.2233 -0.1529
 4483SOL    HW125082   3.994   2.143  15.885  0.8745 -0.6520 -0.2296
 4483SOL    HW225083   3.959   2.245  15.785 -1.2631 -0.6193  0.5661
 4484SOL     OW25084   4.082   4.201  11.596  0.0962  1.0113 -0.4978
 4484SOL    HW125085   3.993   4.218  11.629  0.4898  1.7854  0.1722
 4484SOL    HW225086   4.129   4.205  11.679 -1.2727 -1.5566  0.3928
 4485SOL     OW25087   3.406   1.752   2.040 -0.3349  0.2865 -0.4347
 4485SOL    HW125088   3.369   1.787   2.121  1.2147 -0.3996  0.5815
 4485SOL    HW225089   3.339   1.694   2.005 -0.1250  0.0665 -0.4779
 4486SOL     OW25090   1.296   3.086  17.619  0.5629 -0.2285 -0.1776
 4486SOL    HW125091   1.327   3.099  17.708 -4.1394  2.1885  1.1196
 4486SOL    HW225092   1.383   3.065  17.585  0.8223 -0.5675  0.6962
 4487SOL     OW25093   2.102   0.008   9.117 -0.8136 -1.0308  0.2722
 4487SOL    HW125094   2.063   0.057   9.189 -2.4628  0.5139 -1.6634
 4487SOL    HW225095   2.155   4.678   9.162  1.6547  1.8500  1.5039
 4488SOL     OW25096   0.775   3.468   8.862  0.4444 -0.1279 -0.7551
 4488SOL    HW125097   0.776   3.479   8.957 -2.4248 -1.9303 -0.5261
 4488SOL    HW225098   0.688   3.508   8.852 -0.0074 -0.6737  1.1166
 4489SOL     OW25099   0.363   0.949   6.544 -0.0714  0.2340 -0.2786
 4489SOL    HW125100   0.280   0.975   6.586  0.0362  1.3910 -0.7964
 4489SOL    HW225101   0.403   0.899   6.615  1.9194  0.2054 -1.4450
 4490SOL     OW25102   3.184   0.730   2.255 -0.6313 -0.7041 -0.5539
 4490SOL    HW125103   3.176   0.765   2.344  0.8903 -0.8352 -0.3737
 4490SOL    HW225104   3.268   0.768   2.232 -0.3371 -0.4072  1.0781
 4491SOL     OW25105   0.845   2.182  13.532 -0.0406  0.1439  0.4105
 4491SOL    HW125106   0.830   2.173  13.627 -1.8138 -0.9366  0.0184
 4491SOL    HW225107   0.842   2.094  13.495  0.5838 -0.2522  1.2827
 4492SOL     OW25108   1.439   1.115  15.825  0.0601 -0.4118  0.1688
 4492SOL    HW125109   1.484   1.197  15.807  0.3528 -0.3620  1.1376
 4492SOL    HW225110   1.404   1.132  15.913  1.0228 -0.1152  0.4943
 4493SOL     OW25111   0.725   2.956   5.203 -0.1959  0.3069 -0.1911
 4493SOL    HW125112   0.801   2.963   5.146  0.5176 -0.3614  0.6673
 4493SOL    HW225113   0.742   2.864   5.225 -1.8963  0.2376  0.8048
 4494SOL     OW25114   2.953   1.642   3.819  0.1248 -0.4347  0.3969
 4494SOL    HW125115   2.986   1.633   3.729  0.8224 -0.1540  0.6245
 4494SOL    HW225116   2.876   1.698   3.809 -0.2621 -1.9001 -4.9403
 4495SOL     OW25117   0.099   4.172   4.965  0.2606  0.1469  0.2796
 4495SOL    HW125118   0.066   4.259   4.987 -1.9549  0.0700 -2.7369
 4495SOL    HW225119   0.176   4.172   5.022  1.3565 -0.2130 -1.1835
 4496SOL     OW25120   1.319   4.333   2.087  0.0802  0.3339 -0.4204
 4496SOL    HW125121   1.236   4.291   2.064 -1.1087  2.2354  0.4230
 4496SOL    HW225122   1.370   4.310   2.009  1.6136 -2.1223  1.3003
 4497SOL     OW25123   0.187   3.533   3.231  0.3403 -0.3244 -0.1936
 4497SOL    HW125124   0.205   3.461   3.291  0.7449 -0.8134 -0.9011
 4497SOL    HW225125   0.274   3.572   3.224  0.1321  0.0045 -0.9126
 4498SOL     OW25126   3.081   4.270   9.312 -0.4747 -0.3805 -0.8306
 4498SOL    HW125127   3.006   4.287   9.369  0.0981  2.1001 -0.7867
 4498SOL    HW225128   3.038   4.214   9.248  1.2377 -0.2692 -2.0553
 4499SOL     OW25129   0.145   0.505   5.697 -0.5021  0.0868  0.2016
 4499SOL    HW125130   0.149   0.600   5.690  0.1390  0.0156 -0.4959
 4499SOL    HW225131   0.070   0.492   5.639 -1.1763  0.6455  0.9506
 4500SOL     OW25132   2.860   0.083   1.903  0.4055  0.5301  0.1008
 4500SOL    HW125133   2.804   0.020   1.857 -1.5651  1.8655  0.6990
 4500SOL    HW225134   2.949   0.050   1.888 -0.2867 -1.4546  0.3368
 4501SOL     OW25135   2.648   2.313   4.106  0.3539  0.4105  0.2340
 4501SOL    HW125136   2.633   2.226   4.143  0.2537  0.6212  0.6999
 4501SOL    HW225137   2.555   2.337   4.102  0.3666  0.1232 -1.6498
 4502SOL     OW25138   0.805   3.444   9.150 -0.0048  0.0457 -0.1039
 4502SOL    HW125139   0.779   3.354   9.165  0.0479 -0.0442 -0.5635
 4502SOL    HW225140   0.755   3.486   9.220  0.0583  2.3187 -1.4172
 4503SOL     OW25141   2.695   2.843  14.848  0.1810  0.3418  0.3237
 4503SOL    HW125142   2.740   2.867  14.928  1.5078 -2.3367  0.4083
 4503SOL    HW225143   2.638   2.769  14.871  0.1064  0.5415  0.7730
 4504SOL     OW25144   4.084   4.567   7.548 -0.1615 -0.0010  0.1642
 4504SOL    HW125145   4.083   4.472   7.540 -1.0554 -0.0479  0.7707
 4504SOL    HW225146   4.116   4.580   7.637 -1.5512 -1.6351  0.9187
 4505SOL     OW25147   2.501   4.002   7.329 -0.5050  0.1920 -0.0759
 4505SOL    HW125148   2.574   4.044   7.375  0.3469  0.8878 -2.0595
 4505SOL    HW225149   2.512   3.908   7.346  0.7605  0.2228 -0.6867
 4506SOL     OW25150   0.690   2.372   8.049 -0.2426  0.2203 -0.0130
 4506SOL    HW125151   0.663   2.463   8.060  0.7325  0.1417  3.0191
 4506SOL    HW225152   0.627   2.333   8.109 -2.9590  2.8985 -1.1473
 4507SOL     OW25153   0.975   2.058   2.073  0.0294  0.0532 -0.3012
 4507SOL    HW125154   0.975   2.135   2.015 -0.6144  1.4598  1.5688
 4507SOL    HW225155   1.066   2.056   2.101 -0.4687 -1.2049  1.2129
 4508SOL     OW25156   2.479   0.843   1.207 -0.3522 -0.3847 -0.1858
 4508SOL    HW125157   2.525   0.825   1.289  1.0958 -0.1108 -0.9326
 4508SOL    HW225158   2.536   0.802   1.141 -1.7570  0.9992 -2.2640
 4509SOL     OW25159   3.295   0.916  17.249 -0.2305  1.0426  0.8273
 4509SOL    HW125160   3.221   0.906  17.189  1.5563  1.5610 -1.4479
 4509SOL    HW225161   3.302   1.012  17.251  2.1470  0.8828  0.3874
 4510SOL     OW25162   3.021   2.294   4.796 -0.8378  0.0219  0.1800
 4510SOL    HW125163   3.059   2.375   4.761 -1.7869  0.8137  0.9792
 4510SOL    HW225164   3.038   2.315   4.888 -1.0208  0.1052  0.1944
 4511SOL     OW25165   1.077   2.494  15.705  0.2937  0.2696 -0.4402
 4511SOL    HW125166   1.153   2.436  15.703 -1.1972 -1.6577 -1.4267
 4511SOL    HW225167   1.070   2.512  15.798  1.9907 -2.5000  0.2418
 4512SOL     OW25168   4.198   3.756   8.847  0.2567 -0.3596  0.2187
 4512SOL    HW125169   4.220   3.666   8.871 -1.4293 -1.2090 -1.3727
 4512SOL    HW225170   4.263   3.803   8.898  0.0018  0.5220 -0.2582
 4513SOL     OW25171   1.103   4.353   2.548  0.2828  0.7441 -0.1222
 4513SOL    HW125172   1.028   4.375   2.492 -2.1507 -1.2554  2.3517
 4513SOL    HW225173   1.067   4.395   2.626  2.5270 -0.2572  1.4546
 4514SOL     OW25174   1.265   0.165   9.489 -0.4707  0.0467  0.1616
 4514SOL    HW125175   1.278   0.073   9.465  1.4160 -0.3379  2.5679
 4514SOL    HW225176   1.276   0.216   9.409  0.8371  1.3013  1.1179
 4515SOL     OW25177   0.707   3.077   8.160 -0.3347  0.0217  0.2222
 4515SOL    HW125178   0.734   3.113   8.245 -0.7564 -1.6625  1.0698
 4515SOL    HW225179   0.718   3.150   8.100  0.0073 -0.1857  0.0330
 4516SOL     OW25180   4.708   3.879   3.170  0.0653 -0.4036  0.6098
 4516SOL    HW125181   4.709   3.973   3.153 -0.1096 -0.5081  0.0179
 4516SOL    HW225182   4.643   3.859   3.102 -2.1324 -0.6462  2.7653
 4517SOL     OW25183   3.934   3.047   8.527  0.0682 -0.2888 -0.1884
 4517SOL    HW125184   4.026   3.060   8.501 -0.2217  0.4220 -0.8598
 4517SOL    HW225185   3.955   3.058   8.620 -0.4591  0.5094 -0.1600
 4518SOL     OW25186   3.815   2.039   7.641  0.1478 -0.0261  0.8076
 4518SOL    HW125187   3.763   2.119   7.648 -1.0266 -0.7693  0.6649
 4518SOL    HW225188   3.897   2.064   7.684  0.8645 -2.1935  0.7188
 4519SOL     OW25189   2.778   4.626   0.809  0.7193  0.2991 -0.0610
 4519SOL    HW125190   2.779   4.687   0.735 -0.4107  0.4242  0.0329
 4519SOL    HW225191   2.697   4.636   0.858  0.0940  2.4536 -1.4960
 4520SOL     OW25192   0.039   0.067   9.647 -0.4905  0.5196 -0.2953
 4520SOL    HW125193   0.003   4.733   9.592 -0.5912  1.3459 -1.2576
 4520SOL    HW225194   0.127   0.033   9.666 -0.2362  0.5199 -1.4807
 4521SOL     OW25195   0.856   3.630  16.720 -0.0189  0.2238  0.0411
 4521SOL    HW125196   0.784   3.573  16.746 -0.5698  1.4873  1.2582
 4521SOL    HW225197   0.897   3.578  16.651  1.0953 -1.1615  1.7515
 4522SOL     OW25198   0.357   0.872  10.271 -0.1492  0.0732 -0.0478
 4522SOL    HW125199   0.417   0.909  10.206  1.5315  0.0889  1.5180
 4522SOL    HW225200   0.391   0.785  10.288  0.5002  0.5567  1.0881
 4523SOL     OW25201   3.272   4.146   0.170 -0.3069 -0.4112  0.2570
 4523SOL    HW125202   3.284   4.162   0.077 -0.9009  1.1428  0.4456
 4523SOL    HW225203   3.352   4.095   0.183 -0.9275 -1.5547 -0.4001
 4524SOL     OW25204   1.238   0.576  14.254  0.5738 -0.4442 -1.2981
 4524SOL    HW125205   1.218   0.549  14.164 -3.0746  0.0469 -0.6154
 4524SOL    HW225206   1.331   0.557  14.240  1.0495  1.9350 -1.3561
 4525SOL     OW25207   2.088   3.035   8.809 -0.6922  0.3391  0.2163
 4525SOL    HW125208   2.163   3.018   8.865  0.6637  2.2031 -1.0321
 4525SOL    HW225209   2.016   2.979   8.837  0.2609 -0.0294  1.8748
 4526SOL     OW25210   1.410   0.820  15.498 -0.1334  0.7277  0.2558
 4526SOL    HW125211   1.451   0.900  15.463  0.3156  0.5707  0.4196
 4526SOL    HW225212   1.343   0.812  15.430 -0.4899  4.1237  0.2111
 4527SOL     OW25213   1.925   1.909   6.594 -0.1273 -0.0863 -0.2702
 4527SOL    HW125214   2.010   1.953   6.591  0.1299 -0.3473  3.1395
 4527SOL    HW225215   1.953   1.822   6.621 -2.1367 -1.3491 -2.2697
 4528SOL     OW25216   4.107   3.467   9.171 -0.0795 -0.1658 -0.2837
 4528SOL    HW125217   4.135   3.390   9.122  0.3743 -0.6392  0.7308
 4528SOL    HW225218   4.177   3.472   9.236 -0.6009 -1.5492  0.3720
 4529SOL     OW25219   2.086   2.273   6.623 -0.2038  0.2822  0.3509
 4529SOL    HW125220   2.120   2.302   6.538 -0.7643  2.5505  0.9078
 4529SOL    HW225221   2.110   2.181   6.615  0.4116  0.5566 -1.0827
 4530SOL     OW25222   1.620   3.578  10.165  0.0679 -1.0055 -0.1369
 4530SOL    HW125223   1.613   3.484  10.146  0.0948 -0.8047 -1.1455
 4530SOL    HW225224   1.541   3.611  10.121  0.0558 -1.9583 -0.8431
 4531SOL     OW25225   0.065   4.498  14.802 -0.2137 -0.4494  0.1829
 4531SOL    HW125226   0.014   4.424  14.835 -0.9667 -0.2797 -0.6066
 4531SOL    HW225227   0.149   4.486  14.846 -0.4447 -0.1623  0.7020
 4532SOL     OW25228   4.017   3.794   9.065  0.1946 -0.0301 -0.2031
 4532SOL    HW125229   4.045   3.836   8.985 -0.6519 -0.1491 -0.5659
 4532SOL    HW225230   3.981   3.712   9.030 -0.8747 -0.2742  1.4413
 4533SOL     OW25231   3.460   3.574   2.262  0.1066 -0.0938  0.8183
 4533SOL    HW125232   3.456   3.660   2.221 -0.2137 -0.5989 -0.1989
 4533SOL    HW225233   3.521   3.537   2.199  0.6143  1.6390  0.2951
 4534SOL     OW25234   2.047   2.571   7.497 -0.0618  0.0224 -0.0721
 4534SOL    HW125235   2.103   2.570   7.420 -1.9204  0.6537 -1.4428
 4534SOL    HW225236   1.985   2.510   7.457 -1.2792  1.1169  0.1245
 4535SOL     OW25237   3.143   3.015  10.593  0.1243  0.0928  0.6363
 4535SOL    HW125238   3.187   3.089  10.550  0.9516 -1.8076 -1.7616
 4535SOL    HW225239   3.157   3.032  10.686  0.7260  1.2915  0.3209
 4536SOL     OW25240   0.059   2.790   6.478  0.5140 -0.8023  0.0074
 4536SOL    HW125241   0.088   2.852   6.412  1.1607  0.3856  1.3958
 4536SOL    HW225242   4.711   2.769   6.436 -0.1811  1.0049  0.4821
 4537SOL     OW25243   1.223   4.185   3.658 -0.0108 -0.0576 -0.2894
 4537SOL    HW125244   1.261   4.102   3.628 -1.0918 -0.0767 -1.5951
 4537SOL    HW225245   1.235   4.240   3.581  0.4149 -1.2132 -1.0514
 4538SOL     OW25246   0.510   0.577   3.683  0.1263 -0.0132  0.0521
 4538SOL    HW125247   0.439   0.635   3.708  0.4259  0.2477  0.2922
 4538SOL    HW225248   0.552   0.628   3.613  0.2942 -0.9662 -0.5483
 4539SOL     OW25249   3.877   0.614  17.616 -0.2286  0.2189 -0.2688
 4539SOL    HW125250   3.847   0.669  17.543 -1.6570 -1.7813 -1.1952
 4539SOL    HW225251   3.862   0.678  17.686  3.6582  0.2765  0.5079
 4540SOL     OW25252   4.022   1.835   7.425 -0.6568  0.0503  0.1616
 4540SOL    HW125253   4.106   1.882   7.420 -1.8039  1.8578 -2.2505
 4540SOL    HW225254   3.959   1.897   7.388 -0.8352  0.0559  0.4722
 4541SOL     OW25255   4.200   0.318   5.194  0.0479  0.9368 -0.8803
 4541SOL    HW125256   4.252   0.241   5.172 -0.4979  0.2371  0.3229
 4541SOL    HW225257   4.114   0.281   5.213  0.1957  0.4685 -1.1340
 4542SOL     OW25258   3.860   4.608   2.575  0.2429  0.6923 -0.2820
 4542SOL    HW125259   3.932   4.546   2.587 -1.9084 -1.9862 -1.3087
 4542SOL    HW225260   3.913   4.687   2.575  1.0284  0.1632  1.3788
 4543SOL     OW25261   4.216   1.693  11.600  0.0802 -0.6595 -0.4271
 4543SOL    HW125262   4.123   1.713  11.610  0.4592  1.3605 -1.0057
 4543SOL    HW225263   4.224   1.619  11.661  0.0959  0.5635  1.0466
 4544SOL     OW25264   2.900   2.907   5.220  0.4256  0.2442  0.0516
 4544SOL    HW125265   2.872   2.816   5.220  0.3823  0.2585 -1.6398
 4544SOL    HW225266   2.848   2.938   5.294 -2.1289 -1.5505 -1.0202
 4545SOL     OW25267   1.656   0.879   3.815  0.2519  0.0461  0.5529
 4545SOL    HW125268   1.603   0.884   3.895 -0.3034  1.3917  0.0972
 4545SOL    HW225269   1.616   0.947   3.760 -1.6638 -0.9028  0.7469
 4546SOL     OW25270   1.504   0.622   0.024  0.0526  0.1287 -0.0959
 4546SOL    HW125271   1.454   0.543   0.003  0.8822 -0.2339 -0.7284
 4546SOL    HW225272   1.532   0.656  17.678  0.4414 -2.5608 -1.0651
 4547SOL     OW25273   1.665   2.995   4.854 -0.0587 -0.6053  0.0329
 4547SOL    HW125274   1.681   2.901   4.846  0.7254 -0.6844  2.5357
 4547SOL    HW225275   1.670   3.021   4.762  1.5940 -1.0679 -0.0061
 4548SOL     OW25276   3.568   1.960   7.770  0.5438 -0.2272 -0.1988
 4548SOL    HW125277   3.653   1.938   7.732  0.8004  0.2066  0.1261
 4548SOL    HW225278   3.595   1.966   7.862  1.1636 -1.0806 -0.3255
 4549SOL     OW25279   1.914   3.391  11.640  0.2004  0.4763 -0.0308
 4549SOL    HW125280   1.853   3.383  11.566  0.9070  1.3607 -0.7016
 4549SOL    HW225281   1.858   3.353  11.709  0.2346  1.1389  0.3583
 4550SOL     OW25282   3.253   3.558   4.239 -0.0078 -0.6011  0.6635
 4550SOL    HW125283   3.229   3.466   4.253 -0.2023 -0.5187  0.8608
 4550SOL    HW225284   3.307   3.582   4.314  0.5021 -1.8202  0.6978
 4551SOL     OW25285   1.086   3.403   9.127  0.2764  0.4553  0.9009
 4551SOL    HW125286   1.004   3.451   9.133  0.7985  1.5768 -1.0447
 4551SOL    HW225287   1.068   3.362   9.043 -0.3334 -0.4736  1.4766
 4552SOL     OW25288   0.469   2.703  17.571 -0.0903 -0.0707  0.0940
 4552SOL    HW125289   0.544   2.647  17.593  1.2383  2.1136  1.0568
 4552SOL    HW225290   0.507   2.790  17.582  0.9426 -0.3944 -0.9937
 4553SOL     OW25291   1.497   0.212  12.289 -0.0257  0.0455 -0.0016
 4553SOL    HW125292   1.581   0.244  12.257  0.2041 -1.3887 -0.8088
 4553SOL    HW225293   1.519   0.163  12.367 -0.0462  0.9910  0.5998
 4554SOL     OW25294   3.826   4.622   8.948 -0.1262  0.1334 -1.0136
 4554SOL    HW125295   3.914   4.640   8.982 -0.0458  1.7068 -2.0220
 4554SOL    HW225296   3.795   4.712   8.938  0.5919  0.2763 -1.9663
 4555SOL     OW25297   3.148   0.824   4.081  0.5111  0.0239 -0.1303
 4555SOL    HW125298   3.103   0.848   4.000  0.2477  3.4678  1.0302
 4555SOL    HW225299   3.170   0.911   4.116  2.4261  0.0224 -1.3306
 4556SOL     OW25300   3.481   0.164   0.095 -0.6915 -0.1429 -1.0141
 4556SOL    HW125301   3.485   0.242   0.151  1.0281 -0.0555 -1.2569
 4556SOL    HW225302   3.518   0.096   0.152 -1.3850 -1.2562 -1.8996
 4557SOL     OW25303   1.794   1.940  13.517  0.1603  0.2528 -0.3037
 4557SOL    HW125304   1.791   2.011  13.453  2.5784  0.8885  0.2848
 4557SOL    HW225305   1.818   1.870  13.457  0.9257 -0.1808  0.5163
 4558SOL     OW25306   0.265   2.663  14.503 -1.0011 -0.5012 -0.4290
 4558SOL    HW125307   0.306   2.687  14.420 -0.8812  1.4698  0.1907
 4558SOL    HW225308   0.230   2.575  14.493 -0.9134 -0.2536 -3.0488
 4559SOL     OW25309   0.625   3.079  10.820 -0.2107  0.2653 -0.6584
 4559SOL    HW125310   0.571   3.073  10.898  2.3968 -1.7350  1.0054
 4559SOL    HW225311   0.669   2.993  10.825 -0.1374  0.2964 -0.7653
 4560SOL     OW25312   2.941   1.082   5.964  0.0535 -0.2252 -0.3837
 4560SOL    HW125313   2.919   0.990   5.949 -1.0596  0.3104 -2.0137
 4560SOL    HW225314   2.981   1.087   6.051  2.3049 -2.1249 -1.3067
 4561SOL     OW25315   3.910   0.480   8.972 -0.2275 -0.6157 -0.9285
 4561SOL    HW125316   3.929   0.439   9.057  0.5071  2.8715  0.5755
 4561SOL    HW225317   3.864   0.556   9.006  0.9352 -1.1020  1.7049
 4562SOL     OW25318   1.701   2.112   7.276 -0.3118  0.6518  0.5726
 4562SOL    HW125319   1.792   2.129   7.252  0.3475 -1.5789  1.4937
 4562SOL    HW225320   1.705   2.024   7.240  0.8035  0.8259  0.2827
 4563SOL     OW25321   2.959   1.550  17.650  0.0778  0.3377  0.2208
 4563SOL    HW125322   3.004   1.526  17.731  0.2893  0.0561  0.0175
 4563SOL    HW225323   3.015   1.495  17.595 -0.4508 -0.1346  0.1456
 4564SOL     OW25324   0.211   2.699  17.704 -0.0947 -0.4977 -0.6306
 4564SOL    HW125325   0.165   2.625  17.664  0.2589 -0.5564 -0.9277
 4564SOL    HW225326   0.284   2.708  17.643  1.2655 -0.8193  0.9496
 4565SOL     OW25327   1.759   4.587   7.186 -0.5586  0.1934  0.4732
 4565SOL    HW125328   1.786   4.674   7.155  2.8232 -0.9728  0.1916
 4565SOL    HW225329   1.814   4.579   7.264  0.5629  1.3663 -0.2016
 4566SOL     OW25330   1.631   0.534  12.538  0.6375  0.0072  0.0126
 4566SOL    HW125331   1.600   0.624  12.526  0.6367  0.1799  1.3037
 4566SOL    HW225332   1.713   0.541  12.587  0.8878  0.5204 -0.4895
 4567SOL     OW25333   0.142   3.999   0.351 -0.6865 -0.1160 -0.3068
 4567SOL    HW125334   0.170   4.061   0.285 -0.6875  0.4799  0.2524
 4567SOL    HW225335   0.108   3.925   0.301  0.1994  0.5983 -1.9494
 4568SOL     OW25336   4.373   3.288  14.413 -0.5320 -0.0790  0.2540
 4568SOL    HW125337   4.413   3.229  14.476  0.1982  0.9859  0.7957
 4568SOL    HW225338   4.452   3.334  14.383 -0.4930 -0.7833 -0.7153
 4569SOL     OW25339   3.936   3.272   5.878  0.1293  0.9587  0.7592
 4569SOL    HW125340   3.897   3.248   5.961 -1.8905  0.8113 -0.2470
 4569SOL    HW225341   3.991   3.196   5.860 -1.9908 -0.0038 -1.6151
 4570SOL     OW25342   4.659   4.514   1.705 -0.1453 -0.1808 -0.2227
 4570SOL    HW125343   4.648   4.609   1.713 -0.9964 -0.4851  2.2582
 4570SOL    HW225344   4.610   4.483   1.782  1.6500 -1.0250  0.6042
 4571SOL     OW25345   3.933   2.173   6.096  0.1916  0.3854 -0.3862
 4571SOL    HW125346   4.004   2.177   6.032 -0.3212  1.7254 -0.8803
 4571SOL    HW225347   3.983   2.198   6.174  0.1088 -0.5251 -0.0410
 4572SOL     OW25348   2.898   0.562   6.970  0.1505 -0.2262 -0.0100
 4572SOL    HW125349   2.828   0.583   6.908  0.4939 -0.6799 -0.5576
 4572SOL    HW225350   2.969   0.614   6.933 -1.1758  1.5704 -0.0421
 4573SOL     OW25351   1.821   1.676   3.980 -0.0494 -0.8961  0.2434
 4573SOL    HW125352   1.808   1.620   4.056 -1.2125 -0.9965 -0.0408
 4573SOL    HW225353   1.908   1.649   3.952  0.6700  2.6103 -0.9614
 4574SOL     OW25354   1.967   1.217   4.269  0.3348  0.0322  0.2997
 4574SOL    HW125355   1.969   1.150   4.338  0.3814 -1.9166 -1.6143
 4574SOL    HW225356   1.972   1.162   4.192  0.6628  0.5662 -0.0624
 4575SOL     OW25357   0.263   1.194   5.932  0.2320 -0.2979 -0.4402
 4575SOL    HW125358   0.355   1.218   5.945  0.9941 -1.8280 -3.0857
 4575SOL    HW225359   0.254   1.125   5.997  0.3629 -0.0581 -0.1691
 4576SOL     OW25360   2.468   0.738   8.316 -0.5031  0.2924 -0.0203
 4576SOL    HW125361   2.443   0.647   8.299  0.7565 -0.8544  4.2117
 4576SOL    HW225362   2.546   0.742   8.260 -0.6547  0.4739 -0.2149
 4577SOL     OW25363   3.468   3.408   2.503 -0.2816  0.2295  0.0010
 4577SOL    HW125364   3.414   3.450   2.571  0.3321 -0.6340  1.0237
 4577SOL    HW225365   3.473   3.476   2.436 -2.6353 -1.3503 -1.7689
 4578SOL     OW25366   0.690   1.408   5.437 -0.6993 -0.0578  0.0252
 4578SOL    HW125367   0.732   1.485   5.400  0.3093 -0.0311  1.2131
 4578SOL    HW225368   0.603   1.423   5.402  0.1613 -0.1192 -2.1228
 4579SOL     OW25369   0.999   1.499   6.720  1.1312 -0.1532 -0.5810
 4579SOL    HW125370   0.943   1.555   6.667  1.0734  1.4628  1.2033
 4579SOL    HW225371   1.083   1.524   6.682  1.0098 -2.0060 -2.0686
 4580SOL     OW25372   1.864   1.221   3.373  0.2529  0.0623 -0.2906
 4580SOL    HW125373   1.830   1.304   3.338  0.0458  1.4559  3.1744
 4580SOL    HW225374   1.959   1.233   3.371  0.4130 -1.5582 -1.7155
 4581SOL     OW25375   1.862   3.377   8.477  0.4074  0.1197 -0.0286
 4581SOL    HW125376   1.914   3.357   8.554 -0.4554 -0.1935  0.4696
 4581SOL    HW225377   1.772   3.373   8.509  0.3086 -0.4983 -0.3869
 4582SOL     OW25378   1.646   1.157   7.035  0.2468  0.1694  0.6428
 4582SOL    HW125379   1.642   1.077   7.088 -2.3782 -0.4289 -0.4899
 4582SOL    HW225380   1.738   1.183   7.048  0.2490  1.6132 -2.3661
 4583SOL     OW25381   4.239   3.597   1.991 -0.0452 -0.0287 -0.3427
 4583SOL    HW125382   4.268   3.666   1.931 -0.8269  1.4595  0.9949
 4583SOL    HW225383   4.322   3.559   2.022  0.0563  1.6503  1.4121
 4584SOL     OW25384   0.335   0.776   5.317  0.1188 -0.0147  0.2617
 4584SOL    HW125385   0.251   0.801   5.355 -0.2306 -0.4261 -0.2482
 4584SOL    HW225386   0.348   0.686   5.347 -0.1541 -0.0430  0.2912
 4585SOL     OW25387   1.959   3.544  13.486 -0.1483  0.4414  0.2324
 4585SOL    HW125388   2.018   3.613  13.514  0.6880 -0.8959  1.7841
 4585SOL    HW225389   1.876   3.590  13.474 -0.1522  0.3392 -0.1415
 4586SOL     OW25390   4.031   1.112   7.170  0.4806  0.1753 -0.3499
 4586SOL    HW125391   4.008   1.183   7.230 -2.5655 -0.5475 -0.6454
 4586SOL    HW225392   4.052   1.036   7.225  3.0141 -0.0315 -1.5770
 4587SOL     OW25393   2.178   0.408   7.894 -0.1233  0.1928 -0.1043
 4587SOL    HW125394   2.109   0.458   7.852  1.2975  1.1664 -1.2757
 4587SOL    HW225395   2.175   0.460   7.975 -1.1104  0.9108 -0.5996
 4588SOL     OW25396   3.345   1.685   0.761  0.4282 -0.5886  0.2812
 4588SOL    HW125397   3.396   1.765   0.772  0.8125 -0.7359 -0.4250
 4588SOL    HW225398   3.414   1.620   0.773  0.4576 -0.4199  1.0166
 4589SOL     OW25399   0.713   1.674   3.100  0.0816 -0.0112  0.0696
 4589SOL    HW125400   0.664   1.742   3.054 -1.8872  0.1305  2.4112
 4589SOL    HW225401   0.767   1.720   3.164 -0.5242 -0.0297  0.5786
 4590SOL     OW25402   2.191   2.029   7.241 -0.5942 -0.4226  0.0791
 4590SOL    HW125403   2.276   2.003   7.277  0.4500 -0.2203 -2.2289
 4590SOL    HW225404   2.189   2.124   7.253  1.0071 -0.4166  0.3557
 4591SOL     OW25405   3.882   2.087   9.312  0.0121 -0.0094 -0.0318
 4591SOL    HW125406   3.974   2.095   9.335 -0.0750  0.2758  0.2111
 4591SOL    HW225407   3.861   2.180   9.302  0.8054  0.0537 -1.1322
 4592SOL     OW25408   4.473   2.701   6.530 -0.5103  0.0590  0.2960
 4592SOL    HW125409   4.412   2.775   6.542  1.3298  1.7579 -0.8286
 4592SOL    HW225410   4.498   2.703   6.438 -0.9269 -2.8587  0.1249
 4593SOL     OW25411   0.241   4.081   5.675  0.0015 -0.0699  0.2599
 4593SOL    HW125412   0.190   4.003   5.654  0.6905 -0.9589  1.8441
 4593SOL    HW225413   0.316   4.039   5.719  1.4365  1.7842 -0.4024
 4594SOL     OW25414   2.857   3.215   3.635 -0.5933  0.0490 -0.1253
 4594SOL    HW125415   2.846   3.310   3.628  0.9969  0.3071  0.8901
 4594SOL    HW225416   2.930   3.208   3.573 -1.4004 -3.6210 -0.6462
 4595SOL     OW25417   4.525   0.490   5.159 -0.0690 -0.8140 -0.0818
 4595SOL    HW125418   4.436   0.526   5.165 -0.1611 -0.8994 -0.8818
 4595SOL    HW225419   4.519   0.459   5.069  1.0998  1.4074 -0.9365
 4596SOL     OW25420   0.482   1.441   3.968  0.6613  0.5270 -1.0808
 4596SOL    HW125421   0.519   1.372   4.022 -0.2808  0.1435 -0.9390
 4596SOL    HW225422   0.396   1.453   4.007  0.7594 -1.3520 -0.2921
 4597SOL     OW25423   2.785   1.557   8.111 -0.5569 -0.3282  0.0455
 4597SOL    HW125424   2.815   1.642   8.079 -2.7116  0.4272 -0.0031
 4597SOL    HW225425   2.860   1.534   8.166  1.9552  2.5137 -2.2028
 4598SOL     OW25426   2.016   4.503   3.715 -0.3089 -0.0301 -0.0131
 4598SOL    HW125427   2.026   4.419   3.671 -2.3250 -0.3427  0.1732
 4598SOL    HW225428   2.108   4.520   3.736 -0.3586  1.2688 -0.8129
 4599SOL     OW25429   2.172   0.707  12.645 -0.2140  0.2032  0.0776
 4599SOL    HW125430   2.201   0.755  12.567 -0.7892 -0.0230 -0.2804
 4599SOL    HW225431   2.106   0.760  12.690 -0.7168 -1.7067  1.5880
 4600SOL     OW25432   4.222   1.096   3.642 -0.1911  0.0985 -0.3282
 4600SOL    HW125433   4.248   1.072   3.554 -1.1348 -1.4893 -0.1800
 4600SOL    HW225434   4.144   1.151   3.628  1.5662  2.5882 -0.2842
 4601SOL     OW25435   0.662   1.880   8.914  0.4149 -0.2029  0.2493
 4601SOL    HW125436   0.689   1.966   8.882 -0.4202 -0.1952 -0.4250
 4601SOL    HW225437   0.592   1.837   8.863 -0.1962  2.9806 -1.6105
 4602SOL     OW25438   4.656   1.081   6.519 -0.0458  0.1122  0.0083
 4602SOL    HW125439   4.585   1.138   6.547  1.2689  1.5877  0.3798
 4602SOL    HW225440   4.632   0.998   6.560 -0.3715  0.9741  1.5838
 4603SOL     OW25441   0.468   1.577   3.268  0.6322 -0.1323 -0.2630
 4603SOL    HW125442   0.451   1.658   3.220 -1.0063  0.9087  2.0512
 4603SOL    HW225443   0.517   1.608   3.344  0.6297  2.0602 -1.1598
 4604SOL     OW25444   2.882   0.027   6.483  0.2910 -0.1863 -0.0107
 4604SOL    HW125445   2.887   4.669   6.460  0.4168 -0.5928  1.7105
 4604SOL    HW225446   2.889   0.031   6.578 -2.5058  0.3180  0.1594
 4605SOL     OW25447   3.744   3.910   8.336 -0.1960  0.1476  0.5735
 4605SOL    HW125448   3.747   3.822   8.298  2.0841 -0.1937  1.5701
 4605SOL    HW225449   3.733   3.891   8.430 -2.4186 -2.0545 -0.1329
 4606SOL     OW25450   1.749   2.718   6.561 -0.1932  0.3842 -0.6492
 4606SOL    HW125451   1.655   2.706   6.552 -0.4378  1.6390  0.2896
 4606SOL    HW225452   1.762   2.778   6.488 -0.2156  2.4468  1.0537
 4607SOL     OW25453   4.066   2.816   7.425 -0.1583  0.1379  0.0377
 4607SOL    HW125454   4.087   2.739   7.479 -2.7283  0.4220  1.4224
 4607SOL    HW225455   4.140   2.808   7.365  0.3052  2.1034  0.3618
 4608SOL     OW25456   0.229   4.143   0.153  0.1518 -0.0911 -0.2931
 4608SOL    HW125457   0.234   4.075   0.087 -0.7306 -0.9672  0.5445
 4608SOL    HW225458   0.221   4.224   0.103  0.0334  0.0819  0.0045
 4609SOL     OW25459   3.485   4.160   5.567 -0.0159 -0.0093  0.1060
 4609SOL    HW125460   3.545   4.135   5.637  0.7268  1.7479  0.0996
 4609SOL    HW225461   3.405   4.125   5.606 -0.1358  1.4088  1.1155
 4610SOL     OW25462   0.843   4.651  11.024  0.0150 -0.2116  0.1438
 4610SOL    HW125463   0.845   4.682  10.933  0.8688  2.2276  1.0053
 4610SOL    HW225464   0.888   4.568  11.005 -0.5615 -0.5021  0.0353
 4611SOL     OW25465   2.850   2.910   7.673 -0.3335  0.7654  0.3615
 4611SOL    HW125466   2.879   2.838   7.618  1.1099  0.4050  1.6004
 4611SOL    HW225467   2.798   2.865   7.740  0.0403 -0.8605 -0.4433
 4612SOL     OW25468   4.288   3.430  12.942  0.1208 -0.4109  0.3924
 4612SOL    HW125469   4.214   3.479  12.905 -0.5434 -1.6392  0.1120
 4612SOL    HW225470   4.259   3.406  13.030  0.5235 -1.1937  0.3112
 4613SOL     OW25471   1.531   2.832   2.618  0.0111  0.4985 -0.6162
 4613SOL    HW125472   1.536   2.745   2.657  0.8394  0.6527 -0.3650
 4613SOL    HW225473   1.515   2.875   2.702  1.5888  0.7206 -0.4244
 4614SOL     OW25474   2.769   4.380   5.052 -0.3601  0.4490  0.0582
 4614SOL    HW125475   2.714   4.303   5.038  0.7890 -0.3213 -0.2338
 4614SOL    HW225476   2.750   4.431   4.973  1.9342  1.0273 -0.1283
 4615SOL     OW25477   1.996   2.540   4.340 -0.1341  0.0176  0.2345
 4615SOL    HW125478   1.962   2.579   4.260  0.8844  1.3186  0.4350
 4615SOL    HW225479   1.916   2.509   4.382 -0.7652 -1.7637 -2.2734
 4616SOL     OW25480   0.581   0.536   6.286  0.3766 -0.1729 -0.3138
 4616SOL    HW125481   0.567   0.463   6.347  0.8408  1.1053  1.3128
 4616SOL    HW225482   0.550   0.607   6.341  1.4577 -0.6270  0.8909
 4617SOL     OW25483   1.399   4.682   6.680 -0.0706 -0.1683  0.5985
 4617SOL    HW125484   1.468   4.617   6.672  1.1752  1.7000 -3.5810
 4617SOL    HW225485   1.385   4.701   6.588 -1.0930 -1.3282  0.5124
 4618SOL     OW25486   0.830   1.108   1.113  0.1869 -0.9848  0.0526
 4618SOL    HW125487   0.884   1.179   1.149 -0.7312  0.9176 -2.2850
 4618SOL    HW225488   0.849   1.036   1.173  1.5480 -0.5776  0.1097
 4619SOL     OW25489   2.151   3.856   8.491  0.0696  0.8280 -0.4338
 4619SOL    HW125490   2.090   3.910   8.441  0.7441 -0.3996 -2.6024
 4619SOL    HW225491   2.083   3.795   8.520  0.9311  0.2542  0.3764
 4620SOL     OW25492   0.056   4.409  14.530  0.2054 -0.4375 -0.1359
 4620SOL    HW125493   4.708   4.456  14.537  1.3208  1.4318  0.3137
 4620SOL    HW225494   0.097   4.435  14.613 -1.2054  1.5929 -0.1043
 4621SOL     OW25495   3.787   0.210   2.233 -0.0346  0.4529  0.0716
 4621SOL    HW125496   3.795   0.237   2.142 -0.9390  0.6120  0.0431
 4621SOL    HW225497   3.771   0.118   2.211 -1.6218  0.1416  2.4704
 4622SOL     OW25498   1.749   0.911  15.260  0.2703  0.2052  0.6444
 4622SOL    HW125499   1.836   0.876  15.242 -0.0681 -1.2804  1.8736
 4622SOL    HW225500   1.701   0.866  15.190  2.9303  0.7086 -1.5207
 4623SOL     OW25501   1.593   0.533   4.449  0.1372  0.2881  0.1841
 4623SOL    HW125502   1.642   0.542   4.531 -0.9666  0.6960  0.7865
 4623SOL    HW225503   1.505   0.516   4.482  0.5719 -0.2874  1.0566
 4624SOL     OW25504   1.374   1.826   7.229 -0.4065 -0.2703  0.4450
 4624SOL    HW125505   1.369   1.769   7.306 -0.0956 -1.3040 -0.3135
 4624SOL    HW225506   1.406   1.760   7.168 -0.7674  0.6654 -0.7526
 4625SOL     OW25507   2.906   2.601  14.038  0.0172 -0.0213  0.8994
 4625SOL    HW125508   2.998   2.624  14.043 -0.2187  1.3714 -1.2508
 4625SOL    HW225509   2.903   2.511  14.070 -1.4396 -0.4868 -0.5628
 4626SOL     OW25510   3.474   0.725   9.354 -0.0440 -0.3259  0.1585
 4626SOL    HW125511   3.400   0.769   9.395  1.3621  3.4013 -1.2687
 4626SOL    HW225512   3.521   0.688   9.429  2.5064 -0.4594 -1.4946
 4627SOL     OW25513   0.860   0.571   5.574 -0.1995 -0.0331 -0.2766
 4627SOL    HW125514   0.950   0.556   5.604 -0.0548  0.0934 -0.6455
 4627SOL    HW225515   0.862   0.666   5.570 -1.3159  0.1117  2.4230
 4628SOL     OW25516   3.764   0.721   1.531 -0.3812  0.2005  0.4793
 4628SOL    HW125517   3.759   0.785   1.602  0.5593  0.8194 -0.0058
 4628SOL    HW225518   3.832   0.765   1.481 -0.3606  0.8973  1.1200
 4629SOL     OW25519   0.456   3.322   9.471 -0.5847 -0.0480  0.2169
 4629SOL    HW125520   0.387   3.384   9.495 -0.2031  0.4327  0.0760
 4629SOL    HW225521   0.537   3.372   9.474 -0.3737 -0.2828 -1.2457
 4630SOL     OW25522   3.088   4.274  11.141 -0.2144  0.1789 -0.2214
 4630SOL    HW125523   3.122   4.219  11.211 -0.7606  0.9446  0.6434
 4630SOL    HW225524   3.074   4.361  11.178 -0.6823 -0.3090  0.7536
 4631SOL     OW25525   1.428   0.941   5.485  0.3864 -0.3336  0.3891
 4631SOL    HW125526   1.415   0.900   5.571  0.8989 -0.7851  0.2467
 4631SOL    HW225527   1.502   0.892   5.453  0.5671  0.2935 -0.1517
 4632SOL     OW25528   0.459   2.077   4.230  0.1478  0.3221 -0.1699
 4632SOL    HW125529   0.554   2.065   4.234  0.1861 -0.1277 -2.4367
 4632SOL    HW225530   0.452   2.116   4.143  0.2344  1.1059  0.1714
 4633SOL     OW25531   1.373   1.282   4.841 -0.4636  0.2066  0.0180
 4633SOL    HW125532   1.352   1.204   4.891  0.5860  0.9757  1.6553
 4633SOL    HW225533   1.424   1.240   4.772 -0.6278 -1.6456  1.0463
 4634SOL     OW25534   1.921   3.360   0.570 -0.2022  0.7628 -0.1790
 4634SOL    HW125535   1.948   3.396   0.486  0.0980  1.6558  0.3067
 4634SOL    HW225536   2.002   3.314   0.589 -0.9869 -0.1841  0.8836
 4635SOL     OW25537   0.929   0.346   9.272 -0.2447 -0.5719  0.4279
 4635SOL    HW125538   0.970   0.431   9.289 -3.1157  1.2617 -1.7012
 4635SOL    HW225539   0.842   0.370   9.305  0.4498 -0.3461  2.1106
 4636SOL     OW25540   3.190   1.299   5.948  0.2568  0.1223 -0.7467
 4636SOL    HW125541   3.248   1.227   5.974  0.4374  0.8058  0.7485
 4636SOL    HW225542   3.244   1.339   5.880  0.9046  1.0504  0.3205
 4637SOL     OW25543   4.450   1.405  17.150  0.2710 -0.0980  0.1526
 4637SOL    HW125544   4.380   1.467  17.135 -0.2522 -0.3515  1.5571
 4637SOL    HW225545   4.410   1.348  17.216  1.0126 -0.9505 -0.1280
 4638SOL     OW25546   2.745   3.447   4.109 -0.8412 -0.1195 -0.4274
 4638SOL    HW125547   2.721   3.368   4.060  2.7975 -1.0913 -0.6525
 4638SOL    HW225548   2.839   3.453   4.091 -0.8927  0.6596 -0.4206
 4639SOL     OW25549   4.143   0.417   4.317 -0.0632 -0.1431  0.2777
 4639SOL    HW125550   4.114   0.436   4.228 -2.2149 -2.5480  0.4689
 4639SOL    HW225551   4.063   0.386   4.360  1.2874 -2.0469  1.4243
 4640SOL     OW25552   1.098   3.837  14.964  0.1386 -0.2361 -0.2152
 4640SOL    HW125553   1.073   3.878  15.047 -2.6332 -1.2161 -0.5469
 4640SOL    HW225554   1.059   3.749  14.968  0.2936 -0.3152 -0.4627
 4641SOL     OW25555   1.062   3.184   8.287 -0.1155  0.0068  0.2801
 4641SOL    HW125556   1.118   3.229   8.223  0.2310  0.1546  0.6840
 4641SOL    HW225557   1.071   3.095   8.253  0.7192 -0.2685  1.2108
 4642SOL     OW25558   3.296   4.603   4.641 -0.1440 -0.5762 -0.0127
 4642SOL    HW125559   3.270   4.512   4.627 -0.8934 -0.2579 -0.7235
 4642SOL    HW225560   3.381   4.576   4.675  0.1418  1.1353  0.6273
 4643SOL     OW25561   1.725   4.419   4.127  0.5636  0.1102 -0.1920
 4643SOL    HW125562   1.717   4.472   4.206  1.3364  0.0408 -0.0746
 4643SOL    HW225563   1.820   4.416   4.121  0.5758 -0.1614  0.1678
 4644SOL     OW25564   3.586   0.261   8.408 -0.5276 -0.3272  0.3299
 4644SOL    HW125565   3.613   0.345   8.445  0.4057 -0.2760 -0.4598
 4644SOL    HW225566   3.607   0.278   8.316 -2.9922 -0.2741 -0.2142
 4645SOL     OW25567   1.786   3.456   5.044 -0.1040 -0.0195 -0.1347
 4645SOL    HW125568   1.727   3.400   4.995 -0.1327 -0.1221  0.0154
 4645SOL    HW225569   1.847   3.488   4.978  1.2025 -0.2555  0.9549
 4646SOL     OW25570   0.718   3.338   1.776 -0.0023 -0.0637  0.7576
 4646SOL    HW125571   0.697   3.428   1.798 -0.2002 -0.2524  1.3354
 4646SOL    HW225572   0.673   3.330   1.692  1.4549 -0.2268 -0.0040
 4647SOL     OW25573   3.937   4.384  13.961  0.1986  0.2611 -0.1163
 4647SOL    HW125574   3.877   4.421  14.026 -1.2275 -0.6154 -0.9209
 4647SOL    HW225575   3.992   4.325  14.012  0.0917  0.6073  0.4028
 4648SOL     OW25576   3.599   4.316  14.410  0.1014 -0.2954  0.1150
 4648SOL    HW125577   3.517   4.340  14.454  0.3304 -1.0477  0.9657
 4648SOL    HW225578   3.659   4.367  14.465  0.5532  1.3782 -1.9349
 4649SOL     OW25579   3.178   1.944   8.850  0.1296 -0.3810 -0.4608
 4649SOL    HW125580   3.144   2.023   8.892  1.3279 -0.0945 -0.0223
 4649SOL    HW225581   3.258   1.930   8.900 -1.2395 -0.3822  1.7211
 4650SOL     OW25582   3.146   4.631  10.632 -0.1014 -0.2852  0.4097
 4650SOL    HW125583   3.228   4.666  10.596 -0.3732 -0.2695 -0.2012
 4650SOL    HW225584   3.168   4.623  10.724  0.9354 -1.5688  0.0573
 4651SOL     OW25585   0.269   3.766  11.138 -0.1997 -0.1255 -0.5267
 4651SOL    HW125586   0.248   3.775  11.231  2.5110  0.0188  0.0658
 4651SOL    HW225587   0.354   3.808  11.123  0.0594 -0.7970 -0.9238
 4652SOL     OW25588   0.536   4.564   5.355 -0.2418 -0.3448  0.0611
 4652SOL    HW125589   0.570   4.564   5.266  0.1002 -0.2973  0.1908
 4652SOL    HW225590   0.563   4.650   5.388 -0.1020 -1.3137  2.4834
 4653SOL     OW25591   0.712   0.933   7.116 -0.4018 -0.1280  0.3670
 4653SOL    HW125592   0.734   1.005   7.175  0.8929  0.8301 -1.2984
 4653SOL    HW225593   0.672   0.862   7.167 -0.9882  0.3253  0.5305
 4654SOL     OW25594   0.022   2.074   5.684  0.0314 -0.1280  0.1805
 4654SOL    HW125595   0.098   2.050   5.738 -1.8374  0.5822  3.1046
 4654SOL    HW225596   0.059   2.149   5.638  1.1664 -0.3349  0.7612
 4655SOL     OW25597   3.023   1.533  11.189 -0.9586  0.5498 -0.1776
 4655SOL    HW125598   3.117   1.553  11.177 -0.7751 -0.2759 -0.0678
 4655SOL    HW225599   2.972   1.612  11.205 -0.0119  0.7799  1.7085
 4656SOL     OW25600   3.548   0.628   0.631  0.3833  0.3534 -0.0378
 4656SOL    HW125601   3.531   0.704   0.575 -0.2237  0.0919 -0.2059
 4656SOL    HW225602   3.640   0.614   0.612  0.7570  1.7000  0.7577
 4657SOL     OW25603   3.009   3.360   8.223  0.0201 -0.2076 -0.1087
 4657SOL    HW125604   3.055   3.424   8.277 -0.5152  0.6244 -0.6372
 4657SOL    HW225605   3.061   3.345   8.144 -0.4948 -2.1051 -0.1032
 4658SOL     OW25606   2.509   2.267   1.586 -0.1465  0.4030 -0.0047
 4658SOL    HW125607   2.584   2.312   1.547  0.8950 -1.6839 -0.4437
 4658SOL    HW225608   2.498   2.188   1.533 -0.2690 -1.2184  2.4131
 4659SOL     OW25609   2.713   0.804   8.584  0.0952  0.0254 -0.4398
 4659SOL    HW125610   2.724   0.739   8.652 -1.5730 -0.8146 -0.9695
 4659SOL    HW225611   2.736   0.749   8.509 -0.5884  1.8105 -1.9729
 4660SOL     OW25612   3.595   2.468   3.081 -0.2085  0.3435 -0.3285
 4660SOL    HW125613   3.671   2.511   3.120 -0.7975  0.1591  1.0384
 4660SOL    HW225614   3.592   2.381   3.120  0.5674  0.0834 -0.8550
 4661SOL     OW25615   3.293   3.100  16.886 -0.1414  0.3654  0.0664
 4661SOL    HW125616   3.242   3.122  16.964 -1.3658 -0.6351 -0.4508
 4661SOL    HW225617   3.358   3.169  16.883 -0.4409  0.6867  0.9187
 4662SOL     OW25618   3.161   4.503   8.908  0.4058  0.5243 -0.0847
 4662SOL    HW125619   3.101   4.534   8.976  0.3324  1.8432 -0.7657
 4662SOL    HW225620   3.179   4.559   8.833  0.2626  3.3891  2.0215
 4663SOL     OW25621   3.164   3.124   5.260  0.1215  0.1699  0.1379
 4663SOL    HW125622   3.179   3.199   5.203  1.1957 -0.0200  0.1773
 4663SOL    HW225623   3.137   3.061   5.193  0.3605 -0.6405  0.7992
 4664SOL     OW25624   1.008   3.829   7.283  0.2944 -0.5060  0.1090
 4664SOL    HW125625   1.103   3.836   7.272  0.6057 -2.1437  1.7012
 4664SOL    HW225626   0.981   3.817   7.192  1.2129  0.2134 -0.2619
 4665SOL     OW25627   2.156   0.156  11.776  0.2647  0.3119 -0.1380
 4665SOL    HW125628   2.132   0.063  11.779  0.4140  0.2319 -1.3136
 4665SOL    HW225629   2.075   0.206  11.776  0.3257  0.4123 -0.2830
 4666SOL     OW25630   1.140   1.702   5.385  0.5994  0.0771 -0.1032
 4666SOL    HW125631   1.142   1.792   5.353 -0.2393  0.6061  1.3047
 4666SOL    HW225632   1.186   1.656   5.315 -1.6202 -0.9419 -0.8819
 4667SOL     OW25633   3.484   3.400   4.513  0.4671 -0.1445  0.2450
 4667SOL    HW125634   3.552   3.460   4.483 -0.5119  0.0473 -1.6251
 4667SOL    HW225635   3.410   3.460   4.525 -0.8477 -1.3510 -1.6708
 4668SOL     OW25636   2.774   1.895   7.210 -0.3590  0.3932  0.2088
 4668SOL    HW125637   2.788   1.949   7.132 -0.6697 -0.5677 -0.5136
 4668SOL    HW225638   2.795   1.960   7.277 -0.9191 -0.7777  1.5225
 4669SOL     OW25639   4.428   0.174   7.580  0.0303  0.5604  0.4492
 4669SOL    HW125640   4.352   0.185   7.523 -0.7276 -0.4899  1.2671
 4669SOL    HW225641   4.498   0.184   7.515 -2.0151  0.0893 -1.8055
 4670SOL     OW25642   0.614   0.767   1.250  0.1408 -0.4164  0.3658
 4670SOL    HW125643   0.673   0.742   1.180  0.4812 -0.4574  0.6690
 4670SOL    HW225644   0.539   0.709   1.234  0.3804 -0.2700 -1.2925
 4671SOL     OW25645   1.829   4.257   2.923 -0.0326 -0.3983 -0.1488
 4671SOL    HW125646   1.750   4.267   2.977  0.2087 -2.9812  0.6453
 4671SOL    HW225647   1.880   4.337   2.935 -0.8542  0.0936  0.0860
 4672SOL     OW25648   0.742   3.528   6.482 -0.2024 -0.1560  0.0049
 4672SOL    HW125649   0.710   3.550   6.570 -0.6762  1.5308 -0.6054
 4672SOL    HW225650   0.718   3.610   6.439  0.6889  1.0515  1.8357
 4673SOL     OW25651   0.789   3.537   6.920 -0.5897  0.0767  0.3496
 4673SOL    HW125652   0.881   3.531   6.893 -0.7108  0.4136 -0.1396
 4673SOL    HW225653   0.775   3.474   6.990  1.0891 -0.5569  0.1176
 4674SOL     OW25654   0.530   2.056   4.774 -0.2530  0.1575 -0.1187
 4674SOL    HW125655   0.580   1.990   4.821 -0.5390 -0.3495 -0.5182
 4674SOL    HW225656   0.528   2.009   4.690  0.9926  0.7484 -0.4879
 4675SOL     OW25657   3.598   4.518   4.194  0.6708 -0.3763  0.1110
 4675SOL    HW125658   3.616   4.589   4.132  1.5070  1.2263  2.1755
 4675SOL    HW225659   3.628   4.551   4.279  0.3737  0.3293 -0.0557
 4676SOL     OW25660   0.846   4.071   7.433 -0.3161  0.4362 -0.5060
 4676SOL    HW125661   0.906   4.021   7.378 -1.3033  1.0571 -2.1303
 4676SOL    HW225662   0.765   4.060   7.384  1.0514 -2.7056 -2.0519
 4677SOL     OW25663   3.015   0.913   1.130  0.4083 -0.5595  0.3078
 4677SOL    HW125664   3.013   0.826   1.170  0.4179 -1.3264 -1.3661
 4677SOL    HW225665   3.044   0.894   1.041  0.0584 -1.9788  0.5048
 4678SOL     OW25666   4.088   4.063   4.146  0.2930 -0.2101 -0.5849
 4678SOL    HW125667   4.121   4.153   4.139  0.4770 -0.1198  1.4411
 4678SOL    HW225668   4.160   4.010   4.111 -1.5597 -1.6433 -2.1570
 4679SOL     OW25669   2.503   0.571   2.810  0.1467  0.2521  0.1212
 4679SOL    HW125670   2.456   0.601   2.888 -1.2449  0.1231 -0.6818
 4679SOL    HW225671   2.430   0.556   2.750  0.5604 -0.1310 -0.2830
 4680SOL     OW25672   2.740   0.599   4.408  0.4512 -0.7831  0.0333
 4680SOL    HW125673   2.818   0.621   4.356 -0.4632 -0.9922 -1.4158
 4680SOL    HW225674   2.755   0.648   4.489  0.5471 -0.3533 -0.2456
 4681SOL     OW25675   2.699   2.530  15.540 -0.1419  0.8115 -0.5226
 4681SOL    HW125676   2.750   2.499  15.466  0.6742  0.7268  0.0804
 4681SOL    HW225677   2.612   2.497  15.517  0.0550  0.8009 -1.2624
 4682SOL     OW25678   0.273   2.209   6.108  0.4948 -0.3808  0.3655
 4682SOL    HW125679   0.316   2.193   6.192  0.0788 -0.0856  0.6373
 4682SOL    HW225680   0.193   2.166   6.137  1.1913 -1.5222  0.5825
 4683SOL     OW25681   2.128   2.436   9.218 -0.3127 -0.4885 -0.6803
 4683SOL    HW125682   2.165   2.506   9.165  1.3907 -0.3438  0.7001
 4683SOL    HW225683   2.187   2.364   9.196 -2.3405 -1.7894 -1.8009
 4684SOL     OW25684   2.788   2.895  12.306  0.2973 -0.1738 -0.4585
 4684SOL    HW125685   2.822   2.983  12.322  0.5085 -0.0492 -1.5658
 4684SOL    HW225686   2.696   2.912  12.322  0.0948 -0.9029 -0.8132
 4685SOL     OW25687   2.320   2.277  12.392 -0.3820 -0.1685 -0.2014
 4685SOL    HW125688   2.365   2.293  12.309  0.2262 -2.1239 -0.2515
 4685SOL    HW225689   2.267   2.355  12.411  0.7031  0.9390 -1.7703
 4686SOL     OW25690   1.764   4.133   1.383 -0.2005 -0.2501  0.2264
 4686SOL    HW125691   1.722   4.110   1.466  0.3416 -2.3566 -0.0751
 4686SOL    HW225692   1.851   4.093   1.384  0.2528  0.8537  3.2471
 4687SOL     OW25693   0.524   1.991   3.406  0.4234  0.2884 -0.6285
 4687SOL    HW125694   0.453   1.927   3.405 -0.3886  1.1845 -0.3470
 4687SOL    HW225695   0.480   2.064   3.450  0.4073 -1.0101  1.4625
 4688SOL     OW25696   2.029   1.480  13.480 -0.2412 -0.1917  0.2495
 4688SOL    HW125697   2.046   1.416  13.550 -0.2898  0.9610  1.3066
 4688SOL    HW225698   2.104   1.454  13.426  1.5920 -0.4541  2.9036
 4689SOL     OW25699   2.356   0.898   3.510  0.2029 -0.8432  0.0236
 4689SOL    HW125700   2.337   0.981   3.553 -2.7782 -1.0040 -1.0420
 4689SOL    HW225701   2.416   0.848   3.566  0.3634  0.2209  0.7981
 4690SOL     OW25702   1.938   1.882  10.898 -0.0000 -0.4739 -0.1993
 4690SOL    HW125703   1.856   1.910  10.938  0.8512  0.9230  0.5788
 4690SOL    HW225704   1.993   1.959  10.911  0.5130 -1.2604  2.3996
 4691SOL     OW25705   1.607   3.030   9.972  0.1809  0.0990  0.0701
 4691SOL    HW125706   1.530   3.057   9.922  0.4543  0.0669 -0.3678
 4691SOL    HW225707   1.662   3.030   9.894  1.4200 -1.0380  0.9523
 4692SOL     OW25708   1.740   4.591   2.627  0.0243  0.8321 -0.4867
 4692SOL    HW125709   1.676   4.569   2.559 -0.2880 -2.0577  0.7496
 4692SOL    HW225710   1.685   4.637   2.690 -1.8134 -1.1353 -0.6646
 4693SOL     OW25711   2.315   2.839   4.165 -0.1282 -0.2807  0.0007
 4693SOL    HW125712   2.243   2.808   4.110  0.2998 -0.7668 -0.2734
 4693SOL    HW225713   2.334   2.766   4.223 -0.3453  0.3327  0.8566
 4694SOL     OW25714   0.537   1.832   9.301  0.0422  0.2816  0.4785
 4694SOL    HW125715   0.555   1.859   9.211 -3.4543  0.6752 -0.0900
 4694SOL    HW225716   0.587   1.904   9.340  1.4875 -0.6491  0.3245
 4695SOL     OW25717   2.707   1.666   8.936 -0.0929 -0.6585  0.0014
 4695SOL    HW125718   2.792   1.707   8.920 -0.5136  0.7558  1.4219
 4695SOL    HW225719   2.681   1.709   9.017  0.8718  2.0275 -1.1126
 4696SOL     OW25720   3.630   1.596   5.820  0.0867  0.7161  0.4687
 4696SOL    HW125721   3.722   1.569   5.828 -0.3469 -0.0659  2.9195
 4696SOL    HW225722   3.599   1.528   5.760  2.1628  0.0574  0.1309
 4697SOL     OW25723   4.004   3.811   4.761  0.3605  0.3235 -0.4128
 4697SOL    HW125724   4.069   3.833   4.695  0.0179  1.7515 -0.2737
 4697SOL    HW225725   3.972   3.899   4.782 -0.6636  0.0026 -0.6284
 4698SOL     OW25726   3.180   3.689   7.822 -0.0341  0.0205 -0.3169
 4698SOL    HW125727   3.263   3.650   7.796 -0.6038 -0.7348 -0.9883
 4698SOL    HW225728   3.121   3.637   7.768 -0.3443 -0.0639  0.1082
 4699SOL     OW25729   1.505   2.234   7.130 -0.1602 -0.1556 -0.6242
 4699SOL    HW125730   1.469   2.152   7.097  1.3384 -0.5670 -1.2227
 4699SOL    HW225731   1.577   2.199   7.183  0.6957  0.0676 -1.6422
 4700SOL     OW25732   2.748   0.412   3.183  0.1265 -0.0204  0.3832
 4700SOL    HW125733   2.704   0.332   3.155 -1.3415  1.1609 -0.6882
 4700SOL    HW225734   2.692   0.483   3.153  1.1552  0.6921  0.1338
 4701SOL     OW25735   2.776   3.525   8.876  0.0342 -0.1682 -0.5908
 4701SOL    HW125736   2.857   3.478   8.895  0.1854 -0.3898 -1.8026
 4701SOL    HW225737   2.725   3.444   8.870 -1.4066  0.9054 -2.7803
 4702SOL     OW25738   2.616   3.450   8.484 -0.1978  0.1211 -0.0394
 4702SOL    HW125739   2.635   3.428   8.576  1.3947 -0.3447 -0.4782
 4702SOL    HW225740   2.535   3.402   8.470  1.7473 -3.2225  0.1722
 4703SOL     OW25741   2.986   1.807   6.087 -0.0065 -0.2186  0.2002
 4703SOL    HW125742   3.061   1.862   6.110 -0.0658  0.3940 -1.1053
 4703SOL    HW225743   3.022   1.719   6.099  0.1197 -0.0329  1.1750
 4704SOL     OW25744   1.990   2.743  12.475  0.0265 -0.0988 -0.4274
 4704SOL    HW125745   1.994   2.830  12.434 -2.8170  0.0407 -0.4282
 4704SOL    HW225746   1.969   2.764  12.566 -0.8470 -0.1845 -0.6024
 4705SOL     OW25747   2.231   2.795  11.890 -0.4591  0.4703  0.0107
 4705SOL    HW125748   2.250   2.886  11.864 -1.2257  0.1620 -1.6521
 4705SOL    HW225749   2.256   2.753  11.808  1.6809  0.4082  0.7117
 4706SOL     OW25750   2.881   0.085   5.146  0.5630  0.6458  0.1165
 4706SOL    HW125751   2.889   0.137   5.226 -2.5872  0.3608  0.6016
 4706SOL    HW225752   2.954   0.024   5.160 -1.8676 -2.0561  1.0469
 4707SOL     OW25753   3.645   0.271   3.751  0.3363  0.2502 -0.1831
 4707SOL    HW125754   3.683   0.238   3.670  0.2537  2.2271 -1.0456
 4707SOL    HW225755   3.603   0.355   3.729  0.6636  0.1792 -1.0813
 4708SOL     OW25756   0.061   1.492   7.737  0.3006  0.1892 -0.0325
 4708SOL    HW125757   0.037   1.584   7.724 -0.3235  0.4168  2.7178
 4708SOL    HW225758   0.074   1.470   7.645 -1.3492 -2.3274  0.3504
 4709SOL     OW25759   3.028   1.685  17.105  0.1124 -0.5961  0.1964
 4709SOL    HW125760   2.997   1.632  17.030  1.8306 -0.1446 -0.8300
 4709SOL    HW225761   3.041   1.614  17.168  0.7143  0.4235  1.2173
 4710SOL     OW25762   1.714   0.353   4.282  0.0912 -0.4738 -0.0360
 4710SOL    HW125763   1.692   0.437   4.323 -1.5525 -0.8043 -0.2344
 4710SOL    HW225764   1.683   0.284   4.341 -0.5982  1.1878  1.5639
 4711SOL     OW25765   3.788   1.311  15.225 -0.0478 -0.0823 -0.1589
 4711SOL    HW125766   3.854   1.347  15.286  0.8193 -0.8734 -0.6302
 4711SOL    HW225767   3.831   1.227  15.211  2.9632  1.0486  2.0248
 4712SOL     OW25768   4.123   2.122   3.761 -0.0781  0.3343  0.1685
 4712SOL    HW125769   4.216   2.101   3.770 -0.3024 -0.9167 -0.4818
 4712SOL    HW225770   4.089   2.033   3.758 -0.4617  0.4574  0.9587
 4713SOL     OW25771   2.013   1.860   3.817  0.2132  0.0121 -0.5353
 4713SOL    HW125772   2.068   1.782   3.825 -0.5854 -0.5627 -0.6846
 4713SOL    HW225773   1.933   1.819   3.784  0.3011 -1.0399  0.5702
 4714SOL     OW25774   3.378   0.759  11.188  0.0779  0.1559 -0.2502
 4714SOL    HW125775   3.358   0.839  11.139 -3.3163 -0.5007  0.0341
 4714SOL    HW225776   3.301   0.703  11.174  1.7845 -2.7307  1.8832
 4715SOL     OW25777   2.245   1.478   2.810  0.4321  0.2076  0.0740
 4715SOL    HW125778   2.244   1.552   2.871  0.7909  0.2427  0.0363
 4715SOL    HW225779   2.318   1.432   2.851  0.0874  1.0148  1.6148
 4716SOL     OW25780   1.556   4.421   3.372 -0.0236  0.0662 -0.1614
 4716SOL    HW125781   1.650   4.428   3.388  0.1274 -1.4085 -0.4258
 4716SOL    HW225782   1.536   4.379   3.455  1.9157 -3.8475 -1.6295
 4717SOL     OW25783   0.804   4.258  17.724 -0.5864 -0.6623 -0.0407
 4717SOL    HW125784   0.858   4.186  17.693  0.7635  0.4285 -0.1981
 4717SOL    HW225785   0.820   4.333  17.667  1.5491 -2.9553 -2.4484
 4718SOL     OW25786   0.821   1.497   6.280 -0.2143  0.9128  0.1763
 4718SOL    HW125787   0.822   1.403   6.302  0.2441  0.3850 -2.0798
 4718SOL    HW225788   0.900   1.499   6.226  0.3538 -2.6639  0.8812
 4719SOL     OW25789   3.861   3.299   8.120  0.4835 -0.1998  0.0970
 4719SOL    HW125790   3.954   3.309   8.141  0.9523 -4.5580  0.0744
 4719SOL    HW225791   3.811   3.308   8.201  0.5384 -0.4176  0.1523
 4720SOL     OW25792   2.948   0.288  17.672 -0.8311 -0.2907  0.1327
 4720SOL    HW125793   3.041   0.303  17.659 -0.5334 -3.1841 -1.2380
 4720SOL    HW225794   2.953   0.215  17.734  1.5215 -0.6391 -0.4910
 4721SOL     OW25795   4.234   1.248   7.520 -0.0169  0.3689 -0.2900
 4721SOL    HW125796   4.232   1.153   7.532  0.8108  0.2719 -0.8787
 4721SOL    HW225797   4.227   1.276   7.611  0.4872  0.8832 -0.4107
 4722SOL     OW25798   1.775   3.217   2.732  0.1823 -0.0627  0.1123
 4722SOL    HW125799   1.690   3.212   2.776 -0.7758  1.5723 -1.5849
 4722SOL    HW225800   1.807   3.296   2.774 -1.8189  1.0354 -0.4284
 4723SOL     OW25801   3.301   0.799   2.895  0.0039  0.2278  0.3421
 4723SOL    HW125802   3.331   0.854   2.823 -0.0386 -1.1816 -0.7495
 4723SOL    HW225803   3.285   0.719   2.846  0.5799 -0.4356  1.2237
 4724SOL     OW25804   2.598   2.848   8.605  0.6431 -0.9735 -0.1952
 4724SOL    HW125805   2.672   2.820   8.658 -0.3027 -2.9079  0.1114
 4724SOL    HW225806   2.607   2.943   8.603 -2.5383 -0.6969 -1.3991
 4725SOL     OW25807   4.443   3.155   4.003 -0.4766  0.0704 -0.1520
 4725SOL    HW125808   4.420   3.151   4.096  1.2783 -0.5744  0.2596
 4725SOL    HW225809   4.478   3.069   3.978  1.0079  1.2145 -2.0424
 4726SOL     OW25810   2.054   0.334   3.695 -0.0736 -0.3565 -0.7180
 4726SOL    HW125811   2.107   0.299   3.767 -0.8253  1.6593  0.8135
 4726SOL    HW225812   1.992   0.390   3.742  2.6248 -0.2721  2.7837
 4727SOL     OW25813   1.720   1.441   5.424 -0.0540 -0.1504  0.0340
 4727SOL    HW125814   1.784   1.442   5.494 -0.1992 -1.1860  0.1821
 4727SOL    HW225815   1.701   1.347   5.419  1.5609 -0.4527 -0.5221
 4728SOL     OW25816   1.347   4.243   6.136  0.6910 -0.1996 -0.3625
 4728SOL    HW125817   1.402   4.319   6.118  0.6410 -0.0706  0.0343
 4728SOL    HW225818   1.281   4.250   6.067  0.1444  0.8217  0.2567
 4729SOL     OW25819   2.017   2.415   7.966  0.5000  0.3830  0.0325
 4729SOL    HW125820   1.967   2.354   8.020  0.2446  1.2627  0.7951
 4729SOL    HW225821   2.048   2.359   7.895 -0.5011  2.3981 -1.9925
 4730SOL     OW25822   2.474   1.611   6.479  0.0715  0.1793 -0.2661
 4730SOL    HW125823   2.499   1.627   6.388  0.4303 -0.3066 -0.2564
 4730SOL    HW225824   2.378   1.607   6.485  0.3113 -1.3020  2.5994
 4731SOL     OW25825   2.529   0.063  13.397 -0.2265 -0.1868  0.3887
 4731SOL    HW125826   2.621   0.090  13.390  0.0072 -1.5638 -1.7695
 4731SOL    HW225827   2.508   0.056  13.304 -2.6422 -1.4567  1.0502
 4732SOL     OW25828   4.671   0.198   5.189 -0.2896 -0.1173 -0.1335
 4732SOL    HW125829   4.640   0.264   5.127 -0.7929 -1.0382 -0.8560
 4732SOL    HW225830   0.011   0.166   5.139  0.4753  0.4509  0.6388
 4733SOL     OW25831   1.762   0.736   3.174  0.0308 -0.4065  0.0637
 4733SOL    HW125832   1.692   0.790   3.211 -1.3881 -0.8233 -1.9868
 4733SOL    HW225833   1.831   0.795   3.205  0.4556 -1.3354  0.8850
 4734SOL     OW25834   4.212   1.511   0.182 -0.0417  0.1617 -0.3160
 4734SOL    HW125835   4.221   1.416   0.183 -2.4730 -0.0540  0.3592
 4734SOL    HW225836   4.190   1.549   0.267 -2.1663 -1.0811 -0.3123
 4735SOL     OW25837   0.706   1.077   8.047  0.2633 -0.3107  0.0591
 4735SOL    HW125838   0.635   1.027   8.087  0.4443 -0.8884 -0.3469
 4735SOL    HW225839   0.783   1.049   8.096  0.3252  1.7778  1.1602
 4736SOL     OW25840   1.147   4.590   6.077 -0.1013 -0.3577 -0.7143
 4736SOL    HW125841   1.161   4.575   6.170  0.8934  0.3059 -0.7603
 4736SOL    HW225842   1.084   4.521   6.055  0.3183 -1.0907  0.3914
 4737SOL     OW25843   4.364   0.393   6.184 -0.2416  1.0776  0.1885
 4737SOL    HW125844   4.393   0.404   6.275  0.2634  2.2113 -0.1096
 4737SOL    HW225845   4.423   0.320   6.166  0.2713  1.9031 -1.4642
 4738SOL     OW25846   2.580   1.702   1.774 -0.3334  0.3404  0.0808
 4738SOL    HW125847   2.571   1.692   1.680  0.4423  0.7435 -0.0382
 4738SOL    HW225848   2.651   1.766   1.777  3.8165 -4.2163 -2.3749
 4739SOL     OW25849   4.462   4.346   2.407 -0.1455  0.0378 -0.0645
 4739SOL    HW125850   4.534   4.314   2.352  0.8413  2.2275 -0.0115
 4739SOL    HW225851   4.473   4.440   2.394  2.1478  0.2978  3.8012
 4740SOL     OW25852   0.543   2.539  11.530  0.4532  0.6601  0.1358
 4740SOL    HW125853   0.625   2.566  11.489  0.6100 -0.1457 -0.0766
 4740SOL    HW225854   0.481   2.581  11.470 -1.8183 -0.1859  1.9110
 4741SOL     OW25855   3.548   2.688   2.267  0.5540 -0.2000  0.2603
 4741SOL    HW125856   3.600   2.759   2.229  2.5737 -0.4898  2.4996
 4741SOL    HW225857   3.489   2.740   2.322  1.4289 -0.0070  1.0013
 4742SOL     OW25858   4.606   0.111   3.313 -0.0042  0.5220  0.2684
 4742SOL    HW125859   4.605   0.087   3.406  0.5826  1.5290  0.5334
 4742SOL    HW225860   4.537   0.055   3.277  1.2291  1.2966 -3.2983
 4743SOL     OW25861   0.834   1.630   5.674  0.3614  0.1577 -0.0379
 4743SOL    HW125862   0.874   1.559   5.625 -2.8725 -1.8401  0.2027
 4743SOL    HW225863   0.896   1.650   5.744  0.7218  0.8866 -0.5687
 4744SOL     OW25864   0.587   3.887   1.880  0.3278  0.4807  0.2062
 4744SOL    HW125865   0.641   3.816   1.915  0.1897  0.3607  0.1750
 4744SOL    HW225866   0.522   3.833   1.835  1.4517 -0.4180 -0.3480
 4745SOL     OW25867   0.701   4.620   5.820 -0.5608  0.1060 -0.3496
 4745SOL    HW125868   0.690   4.683   5.749 -1.9593 -0.8985 -1.0005
 4745SOL    HW225869   0.610   4.608   5.847 -0.8973  1.7803 -0.7251
 4746SOL     OW25870   1.423   0.439  15.647  0.1987  0.0095 -0.4479
 4746SOL    HW125871   1.383   0.455  15.733  0.5339 -0.4468 -0.2072
 4746SOL    HW225872   1.463   0.352  15.659 -2.0818 -0.8323  1.0573
 4747SOL     OW25873   4.636   4.665   4.098  0.6499  0.0270  0.2705
 4747SOL    HW125874   4.675   4.725   4.162  0.4001  1.4087 -0.8737
 4747SOL    HW225875   4.658   4.717   4.021  2.5621  0.1818  0.9002
 4748SOL     OW25876   1.875   1.151  16.477  0.1726  0.0527  0.0628
 4748SOL    HW125877   1.957   1.161  16.428  1.2374 -0.1506  1.8025
 4748SOL    HW225878   1.910   1.146  16.566 -1.0272 -0.3865  0.5127
 4749SOL     OW25879   2.117   3.861  17.108 -0.2278 -0.0798 -0.4527
 4749SOL    HW125880   2.155   3.773  17.105 -0.9915 -0.4351  0.3358
 4749SOL    HW225881   2.125   3.890  17.017 -1.3094  0.2420 -0.4360
 4750SOL     OW25882   2.497   4.488  15.189 -0.2942  0.2311  0.0493
 4750SOL    HW125883   2.552   4.410  15.184 -0.9246 -0.2923  0.9993
 4750SOL    HW225884   2.551   4.561  15.218  0.1483 -0.2032  0.3277
 4751SOL     OW25885   3.203   1.988  17.575 -0.7029  0.3746 -0.7093
 4751SOL    HW125886   3.150   1.925  17.526 -1.7719  0.3183  0.5170
 4751SOL    HW225887   3.275   2.007  17.515 -1.0117 -1.3433 -1.6097
 4752SOL     OW25888   3.492   4.229  16.067  0.3089 -0.1466  0.2016
 4752SOL    HW125889   3.496   4.153  16.008 -0.6755 -0.1121  0.0840
 4752SOL    HW225890   3.419   4.268  16.019 -1.8773 -1.7727  2.2194
 4753SOL     OW25891   1.661   3.498   8.904 -0.3110  0.8390 -0.2464
 4753SOL    HW125892   1.739   3.548   8.927 -0.6110  0.7476  0.9535
 4753SOL    HW225893   1.652   3.514   8.810  1.0740 -0.2339 -0.5647
 4754SOL     OW25894   0.333   4.518   8.343  0.0988  0.7303 -0.0377
 4754SOL    HW125895   0.363   4.605   8.317 -0.2635  0.5827 -0.9478
 4754SOL    HW225896   0.395   4.460   8.300 -0.2233 -1.3157  2.2742
 4755SOL     OW25897   2.021   2.087   3.255 -0.4288 -0.5881 -0.0483
 4755SOL    HW125898   1.994   2.155   3.193 -0.5313  1.6297  2.4050
 4755SOL    HW225899   1.961   2.016   3.234 -0.0799 -1.7340  2.8529
 4756SOL     OW25900   4.257   3.595   2.570 -0.2521 -0.1202  0.0520
 4756SOL    HW125901   4.268   3.500   2.570 -0.8351 -0.1950  1.3647
 4756SOL    HW225902   4.291   3.612   2.658 -2.3991  2.5203  0.3646
 4757SOL     OW25903   0.459   3.803   8.636 -0.5509 -0.1107 -0.2180
 4757SOL    HW125904   0.508   3.881   8.661 -2.5543  1.1659 -0.3121
 4757SOL    HW225905   0.477   3.817   8.544 -0.8391 -1.2385 -0.4493
 4758SOL     OW25906   2.321   4.221   6.494 -0.4472 -0.1069  0.3174
 4758SOL    HW125907   2.230   4.236   6.468 -0.0165  0.0019 -1.1558
 4758SOL    HW225908   2.364   4.295   6.450  2.7010 -0.0965  3.4812
 4759SOL     OW25909   3.808   4.029   0.184 -0.0010  0.2479  0.3443
 4759SOL    HW125910   3.814   4.118   0.150 -1.7249  0.4047  0.4537
 4759SOL    HW225911   3.810   3.975   0.105 -0.6635  1.6404 -0.6185
 4760SOL     OW25912   3.814   0.450   7.369 -0.0925 -0.5120 -0.0546
 4760SOL    HW125913   3.721   0.440   7.349  0.1507 -0.3695 -1.2875
 4760SOL    HW225914   3.853   0.448   7.281  1.4586 -2.6309  0.6742
 4761SOL     OW25915   3.443   0.879   8.957  0.5573  0.2871  0.0495
 4761SOL    HW125916   3.521   0.844   9.002  0.5061  0.1844  0.0591
 4761SOL    HW225917   3.469   0.876   8.865 -2.4164 -1.8361 -0.7083
 4762SOL     OW25918   0.904   0.103   5.131 -0.0773  0.1226  0.0623
 4762SOL    HW125919   0.927   0.101   5.224  0.9506 -1.3640 -0.2274
 4762SOL    HW225920   0.923   0.017   5.094 -0.3880 -0.2573  0.7776
 4763SOL     OW25921   2.219   1.419   3.527 -0.5807 -0.1142 -0.5195
 4763SOL    HW125922   2.223   1.360   3.451 -0.0147 -1.1541  0.3218
 4763SOL    HW225923   2.190   1.356   3.592  0.0812 -0.0869 -0.1999
 4764SOL     OW25924   1.155   2.588  15.462 -0.2823 -0.4948 -0.0744
 4764SOL    HW125925   1.135   2.548  15.547  2.1806 -0.7164  0.3900
 4764SOL    HW225926   1.250   2.597  15.465 -0.2209 -0.7777 -1.0464
 4765SOL     OW25927   1.947   4.437   4.568 -0.2005  0.1704  0.5453
 4765SOL    HW125928   2.025   4.489   4.546 -1.3728  1.3040 -0.9577
 4765SOL    HW225929   1.896   4.506   4.610 -0.6869  0.3233 -0.2977
 4766SOL     OW25930   3.887   0.565   4.440  0.0399  0.4505  0.2821
 4766SOL    HW125931   3.845   0.481   4.460  2.1994 -0.9106 -0.9306
 4766SOL    HW225932   3.842   0.575   4.356 -1.5685  2.0699  1.3345
 4767SOL     OW25933   0.554   3.535   8.047  0.0207  0.0204  0.6164
 4767SOL    HW125934   0.481   3.562   8.103 -0.7609 -0.2880 -0.2422
 4767SOL    HW225935   0.519   3.573   7.966  0.3501 -0.9903 -0.0045
 4768SOL     OW25936   0.828   3.518  13.990 -0.0579  0.3947 -0.0282
 4768SOL    HW125937   0.834   3.532  14.085 -0.0747 -2.3540  0.4033
 4768SOL    HW225938   0.840   3.609  13.966 -1.1066  1.2435  2.6050
 4769SOL     OW25939   1.603   1.368   9.038 -0.5379 -0.3040  0.1690
 4769SOL    HW125940   1.536   1.334   9.097 -2.9237  0.0682 -2.3011
 4769SOL    HW225941   1.654   1.428   9.092 -0.2598  1.4500 -2.0408
 4770SOL     OW25942   4.675   0.252   2.207 -0.5186 -0.6041 -0.3451
 4770SOL    HW125943   4.663   0.180   2.145  1.2647 -0.3103 -1.0135
 4770SOL    HW225944   4.733   0.307   2.155  0.0761 -1.3896 -0.5227
 4771SOL     OW25945   0.302   2.343   8.615 -0.5112 -0.1809 -0.2844
 4771SOL    HW125946   0.393   2.318   8.632  0.0399  1.8255 -0.2653
 4771SOL    HW225947   0.297   2.360   8.521 -3.8631 -0.5251 -0.1793
 4772SOL     OW25948   1.925   3.939   2.351 -0.1313  0.5206 -0.3256
 4772SOL    HW125949   1.841   3.985   2.351 -0.9638 -1.0605 -2.4734
 4772SOL    HW225950   1.902   3.854   2.389 -1.6993  0.8486 -0.5525
 4773SOL     OW25951   3.992   2.352  10.380 -0.5309  0.2372  0.0148
 4773SOL    HW125952   3.944   2.284  10.428 -2.3370  1.8948  0.5331
 4773SOL    HW225953   3.929   2.375  10.312 -0.0710  0.2671 -0.4008
 4774SOL     OW25954   4.064   0.526   4.088 -0.2601  0.5118 -0.1661
 4774SOL    HW125955   4.089   0.615   4.112  0.0299 -0.2215  2.2315
 4774SOL    HW225956   3.973   0.545   4.068 -0.3351  1.6469  1.3112
 4775SOL     OW25957   3.485   0.860   0.442 -0.0406  0.4740 -0.4147
 4775SOL    HW125958   3.466   0.819   0.357 -0.6835 -1.4590  0.6599
 4775SOL    HW225959   3.526   0.944   0.422 -1.7053  1.4753  0.4136
 4776SOL     OW25960   2.617   1.277   1.886 -0.7092  0.1212  0.0398
 4776SOL    HW125961   2.692   1.301   1.832 -0.5808  1.0703  0.6488
 4776SOL    HW225962   2.625   1.357   1.938 -1.0734  1.1256 -1.4721
 4777SOL     OW25963   3.230   2.265   5.771 -0.2858 -0.1064 -0.0220
 4777SOL    HW125964   3.304   2.310   5.730 -1.2667  1.2627 -0.2764
 4777SOL    HW225965   3.273   2.228   5.849  2.6156  1.5134 -0.8444
 4778SOL     OW25966   1.513   2.386   6.913  0.2338  0.6332  0.2047
 4778SOL    HW125967   1.461   2.461   6.940  1.0254  0.5725  1.9077
 4778SOL    HW225968   1.500   2.334   6.992 -1.5918 -0.6812 -0.9438
 4779SOL     OW25969   2.205   0.673   4.870  0.0533 -0.0988 -0.1272
 4779SOL    HW125970   2.164   0.591   4.899 -0.0525  0.1394  0.4066
 4779SOL    HW225971   2.210   0.713   4.957  1.4889  0.7471 -0.6047
 4780SOL     OW25972   0.711   4.195   8.069  0.3504 -0.0982 -0.1177
 4780SOL    HW125973   0.806   4.206   8.080  0.8067 -1.4465 -2.5517
 4780SOL    HW225974   0.696   4.127   8.135 -0.5353  0.2367  0.0114
 4781SOL     OW25975   2.273   3.243   7.459 -0.2527 -0.5171  0.2460
 4781SOL    HW125976   2.240   3.224   7.547 -2.7647 -0.7692 -0.7637
 4781SOL    HW225977   2.365   3.220   7.474 -0.5871 -2.3577 -0.6290
 4782SOL     OW25978   1.811   2.367   0.446 -0.9426 -0.1487  0.5920
 4782SOL    HW125979   1.821   2.385   0.540 -2.1228 -0.1946  0.7202
 4782SOL    HW225980   1.849   2.280   0.431 -0.4337  0.5093 -1.8744
 4783SOL     OW25981   2.146   1.127  14.188  0.7572 -0.0237 -0.0639
 4783SOL    HW125982   2.098   1.100  14.109  0.1295 -0.3875  0.4393
 4783SOL    HW225983   2.135   1.055  14.250  0.9651 -0.4134 -0.4788
 4784SOL     OW25984   3.983   1.680  16.943  0.0804  0.0412 -0.5536
 4784SOL    HW125985   4.054   1.745  16.937  0.6315 -0.8439 -3.5410
 4784SOL    HW225986   3.987   1.646  16.854  2.5573  1.2439 -0.8919
 4785SOL     OW25987   2.974   2.967   6.073  0.2097  0.1856 -0.4271
 4785SOL    HW125988   3.012   2.906   6.136 -1.8869 -0.5497  0.1235
 4785SOL    HW225989   3.029   2.938   6.001 -1.6172 -1.2365 -1.2538
 4786SOL     OW25990   3.720   3.687  11.737  0.3165  0.1705 -0.2202
 4786SOL    HW125991   3.776   3.757  11.703  2.5932 -0.8062  1.5052
 4786SOL    HW225992   3.768   3.605  11.722  0.2441 -0.0610  0.8562
 4787SOL     OW25993   4.277   2.031   7.784 -1.2916  0.3665 -0.6769
 4787SOL    HW125994   4.257   2.035   7.691  0.9893 -0.1324 -1.1949
 4787SOL    HW225995   4.202   2.070   7.830 -0.2813  0.1029  1.2119
 4788SOL     OW25996   2.068   1.079  16.105 -0.1975 -0.2883 -0.7673
 4788SOL    HW125997   1.997   1.118  16.056 -1.4441 -1.2250  0.2811
 4788SOL    HW225998   2.138   1.070  16.041 -1.2790 -2.1641 -1.7094
 4789SOL     OW25999   1.543   3.642   5.573 -0.1459 -0.2865 -0.5294
 4789SOL    HW126000   1.579   3.730   5.576 -2.4515  0.6163  0.7325
 4789SOL    HW226001   1.483   3.641   5.498 -1.4234 -0.0811  0.5046
 4790SOL     OW26002   3.205   3.519   2.166 -0.3252 -0.0803 -0.0525
 4790SOL    HW126003   3.279   3.541   2.223  1.0500 -1.3492 -1.3396
 4790SOL    HW226004   3.165   3.605   2.159 -0.4144 -0.2775 -1.8264
 4791SOL     OW26005   2.055   1.757  13.600  0.1535  0.5936  0.2862
 4791SOL    HW126006   2.046   1.669  13.563 -1.0587 -0.4319  2.9762
 4791SOL    HW226007   1.971   1.798  13.581 -0.1684 -0.6365 -0.9847
 4792SOL     OW26008   0.018   3.296   3.751 -0.0488  0.3040  0.3235
 4792SOL    HW126009   0.006   3.201   3.752  0.2453  0.2783  1.2209
 4792SOL    HW226010   4.721   3.322   3.664 -0.4753 -0.0591  0.3765
 4793SOL     OW26011   0.957   4.142   4.029 -0.5571 -0.1873  0.1083
 4793SOL    HW126012   0.880   4.174   4.075 -2.0539  0.1200 -2.5811
 4793SOL    HW226013   0.934   4.050   4.012 -2.3781 -0.3529  3.4283
 4794SOL     OW26014   4.024   4.359  13.693 -0.5883  0.1519  0.4182
 4794SOL    HW126015   3.966   4.378  13.768 -0.8962 -2.2356  0.8105
 4794SOL    HW226016   4.046   4.270  13.721 -0.3592  0.2151  0.4390
 4795SOL     OW26017   0.615   3.377   2.743  0.5782  0.1886  0.2190
 4795SOL    HW126018   0.543   3.358   2.682  2.0884 -1.0514 -1.1734
 4795SOL    HW226019   0.590   3.308   2.806  4.1669 -0.9756  0.3493
 4796SOL     OW26020   2.698   1.460  13.442  0.4453 -0.2615 -0.0145
 4796SOL    HW126021   2.790   1.435  13.439  0.1518 -1.5228  1.0447
 4796SOL    HW226022   2.658   1.376  13.468 -1.6181  0.9290  0.6546
 4797SOL     OW26023   2.655   1.830   0.716  0.0566 -0.6879 -0.5395
 4797SOL    HW126024   2.639   1.766   0.646 -0.5312 -0.3482 -0.7081
 4797SOL    HW226025   2.750   1.842   0.711 -0.1685  1.1624 -0.3533
 4798SOL     OW26026   1.320   0.256  16.123 -0.6693 -0.3926  0.5497
 4798SOL    HW126027   1.313   0.318  16.196 -1.5574  0.0187  0.1095
 4798SOL    HW226028   1.405   0.220  16.150 -0.3081 -1.2328 -1.7393
 4799SOL     OW26029   1.215   4.256   4.125  0.6051 -0.2968 -0.1784
 4799SOL    HW126030   1.170   4.340   4.126 -0.6632 -0.9649 -1.9192
 4799SOL    HW226031   1.141   4.196   4.135 -0.0045  0.8054  1.8178
 4800SOL     OW26032   0.244   1.889   3.399  0.4040 -0.4252  0.2338
 4800SOL    HW126033   0.213   1.817   3.345 -2.3647 -0.0993  1.4190
 4800SOL    HW226034   0.225   1.963   3.342  0.7762  1.3810  2.4384
 4801SOL     OW26035   3.436   2.288   7.046  0.3950 -0.4692 -0.3620
 4801SOL    HW126036   3.513   2.344   7.053 -1.1190  1.1462  3.3867
 4801SOL    HW226037   3.383   2.351   6.997  1.2656  0.5251 -0.0321
 4802SOL     OW26038   3.161   3.629   9.275 -0.3755  0.0015 -0.5443
 4802SOL    HW126039   3.123   3.659   9.358 -0.6288  0.7014 -0.9162
 4802SOL    HW226040   3.165   3.537   9.301  1.4647 -0.1595 -1.4111
 4803SOL     OW26041   3.808   2.671   4.050 -0.0105 -0.4840  0.1245
 4803SOL    HW126042   3.809   2.706   4.139 -0.3008  2.3911 -0.9986
 4803SOL    HW226043   3.901   2.675   4.029 -0.1436  1.8204 -0.0419
 4804SOL     OW26044   3.982   2.430  15.383  0.0440 -0.0553 -0.0307
 4804SOL    HW126045   3.914   2.485  15.423 -0.5894 -0.3797 -0.6704
 4804SOL    HW226046   3.986   2.352  15.438 -0.2698  0.0693  0.1724
 4805SOL     OW26047   2.111   1.503  15.163  0.0517 -0.1186  0.0565
 4805SOL    HW126048   2.177   1.552  15.114 -0.4280  1.8308  1.3725
 4805SOL    HW226049   2.152   1.416  15.156 -0.0286  0.0851 -3.1341
 4806SOL     OW26050   1.480   3.105   0.100  0.1815  0.5904  0.3455
 4806SOL    HW126051   1.529   3.028   0.127 -2.1188 -0.4218  1.6247
 4806SOL    HW226052   1.493   3.157   0.180  1.0964 -0.3715  0.8229
 4807SOL     OW26053   1.270   1.864  12.340  0.5795  0.0351 -0.0096
 4807SOL    HW126054   1.188   1.907  12.364 -0.0676 -0.9310 -0.4867
 4807SOL    HW226055   1.320   1.859  12.421 -0.4730  0.7103  0.6826
 4808SOL     OW26056   2.941   1.076   7.265 -0.1646  0.1720 -0.2722
 4808SOL    HW126057   2.897   1.158   7.287  1.7548  0.6330  1.9148
 4808SOL    HW226058   2.981   1.085   7.179 -1.8231 -1.6705 -1.2290
 4809SOL     OW26059   3.396   0.710  10.864 -0.0737 -0.5251 -0.6525
 4809SOL    HW126060   3.393   0.736  10.956 -2.4995 -1.4932 -0.4405
 4809SOL    HW226061   3.466   0.765  10.831  0.1867 -1.3216 -1.4265
 4810SOL     OW26062   0.656   2.349  11.788 -0.3378  0.3598 -0.2176
 4810SOL    HW126063   0.705   2.305  11.719 -0.7930  0.2428 -0.4656
 4810SOL    HW226064   0.639   2.437  11.754  0.6535 -0.0279 -1.7325
 4811SOL     OW26065   1.834   4.478   9.932 -0.0153  0.3677 -0.0535
 4811SOL    HW126066   1.897   4.550   9.925 -0.1764  0.5426  0.3019
 4811SOL    HW226067   1.873   4.428   9.861 -2.7479  0.7144 -1.7720
 4812SOL     OW26068   1.647   3.047   8.357 -0.1115  0.2908  0.3782
 4812SOL    HW126069   1.585   3.120   8.361  0.5585  1.0562 -2.8089
 4812SOL    HW226070   1.701   3.058   8.435  0.5370  2.0068 -0.3040
 4813SOL     OW26071   2.226   2.210   9.085  0.1908 -0.3973 -0.0339
 4813SOL    HW126072   2.159   2.148   9.115  1.2363 -0.2421  2.5694
 4813SOL    HW226073   2.284   2.215   9.160  0.0986 -0.6208  0.0510
 4814SOL     OW26074   3.248   2.749  10.685  0.8036  0.4174 -1.1891
 4814SOL    HW126075   3.216   2.833  10.653 -0.4852 -0.8977 -3.4001
 4814SOL    HW226076   3.193   2.719  10.758  1.5276 -1.1844 -1.2837
 4815SOL     OW26077   1.303   1.248  17.346  0.1080 -0.5515  0.4669
 4815SOL    HW126078   1.311   1.154  17.365 -0.9708 -0.8442 -0.4919
 4815SOL    HW226079   1.384   1.248  17.296  0.5097  0.7110  1.1141
 4816SOL     OW26080   4.634   1.417  16.265  0.3915  0.5225 -0.6255
 4816SOL    HW126081   4.660   1.393  16.177 -1.6277  0.3091 -1.1706
 4816SOL    HW226082   4.690   1.365  16.323  1.1945  0.3758 -1.5334
 4817SOL     OW26083   0.994   1.837   7.756 -0.2042  0.2591  0.4634
 4817SOL    HW126084   0.993   1.874   7.668 -1.0426  1.9404  1.1866
 4817SOL    HW226085   0.902   1.826   7.780  0.3105 -1.1905  1.7539
 4818SOL     OW26086   2.839   0.249   8.771  0.7512 -0.0917 -0.4148
 4818SOL    HW126087   2.907   0.243   8.703  0.2433  1.1272 -1.0161
 4818SOL    HW226088   2.755   0.251   8.724 -1.1867 -0.9353  3.0732
 4819SOL     OW26089   0.762   0.674   3.911  0.0044  0.0270  0.2303
 4819SOL    HW126090   0.752   0.618   3.834 -2.3417 -1.0388  1.2820
 4819SOL    HW226091   0.740   0.607   3.976  0.1100  0.8463  1.1106
 4820SOL     OW26092   2.813   4.617   1.128 -0.1027 -0.2596 -0.7665
 4820SOL    HW126093   2.895   4.602   1.081 -0.2955 -1.4007 -0.7474
 4820SOL    HW226094   2.760   4.537   1.125 -1.9193  0.9666 -1.2553
 4821SOL     OW26095   4.492   2.441   8.796  0.2001  0.0236 -0.0394
 4821SOL    HW126096   4.470   2.370   8.736  0.7100  0.5001 -0.7839
 4821SOL    HW226097   4.436   2.420   8.871 -2.7434  0.2372 -2.2176
 4822SOL     OW26098   0.132   0.943   2.511 -0.0968  0.3469 -0.0596
 4822SOL    HW126099   0.201   0.942   2.578  1.3354 -0.3213 -1.5462
 4822SOL    HW226100   0.083   0.882   2.566  0.4767  1.1082  1.3183
 4823SOL     OW26101   2.756   2.906   4.799 -0.0346 -0.0059 -0.5853
 4823SOL    HW126102   2.821   2.971   4.827 -0.1564  0.8310 -2.2860
 4823SOL    HW226103   2.773   2.834   4.860 -1.2530 -1.1880 -1.6320
 4824SOL     OW26104   1.756   0.502   8.722 -0.3334  0.1006  0.5908
 4824SOL    HW126105   1.777   0.409   8.725  0.5026  0.2727  0.0794
 4824SOL    HW226106   1.804   0.520   8.803  1.5924 -1.8319 -0.1396
 4825SOL     OW26107   2.862   2.481   2.545 -0.2180 -0.0522  0.1463
 4825SOL    HW126108   2.793   2.508   2.605 -1.5764 -5.0066  0.8460
 4825SOL    HW226109   2.865   2.554   2.484  2.3863 -0.8017 -0.6164
 4826SOL     OW26110   3.340   1.221   4.340 -0.6305 -0.5294 -0.5495
 4826SOL    HW126111   3.409   1.278   4.306 -0.8748 -0.1471 -0.4056
 4826SOL    HW226112   3.273   1.289   4.356 -0.8119 -1.0567  0.9150
 4827SOL     OW26113   4.663   0.770  10.212  0.5158 -0.1610  0.6028
 4827SOL    HW126114   4.719   0.792  10.286 -1.2059  2.9530  0.9567
 4827SOL    HW226115   4.698   0.686  10.180 -1.7212  0.3267 -3.2136
 4828SOL     OW26116   0.260   0.314  17.409  0.4231  0.2768  0.7512
 4828SOL    HW126117   0.222   0.270  17.333  1.9430  0.2504  0.0137
 4828SOL    HW226118   0.254   0.407  17.385  0.4517  0.7720  2.6601
 4829SOL     OW26119   0.368   4.725  11.114 -0.3251 -0.6382  0.6758
 4829SOL    HW126120   0.384   0.043  11.037 -1.5494  0.8561  1.4724
 4829SOL    HW226121   0.455   4.703  11.149  0.2174  2.4537  1.2368
 4830SOL     OW26122   4.641   2.826   7.282  0.4047  0.3164 -0.2645
 4830SOL    HW126123   0.001   2.832   7.274  0.5752 -1.7834  0.2340
 4830SOL    HW226124   4.633   2.737   7.316  0.8711  0.4469  0.2005
 4831SOL     OW26125   2.463   0.474  12.020 -0.0809 -0.4078  0.5510
 4831SOL    HW126126   2.387   0.473  12.078  0.4928  1.1072  1.3448
 4831SOL    HW226127   2.463   0.386  11.983 -0.2392  0.7139 -2.1122
 4832SOL     OW26128   4.316   0.078   2.235 -0.2075  0.6227  0.4609
 4832SOL    HW126129   4.246   0.028   2.194  0.6465  0.3659 -0.6638
 4832SOL    HW226130   4.337   0.135   2.161 -0.8261 -1.2832 -1.1478
 4833SOL     OW26131   4.305   2.896   3.116  1.2762  0.2168  0.8091
 4833SOL    HW126132   4.216   2.911   3.148  1.1222  1.0681 -0.0122
 4833SOL    HW226133   4.355   2.883   3.196  2.1651  1.3649  0.4380
 4834SOL     OW26134   4.677   2.987  13.692  0.0680  0.2839  0.5902
 4834SOL    HW126135   4.585   3.010  13.706  0.3320  1.4821  0.3357
 4834SOL    HW226136   4.673   2.963  13.599  0.8748  0.4057  0.5169
 4835SOL     OW26137   4.433   2.622  10.387  0.0242 -0.3443 -0.4719
 4835SOL    HW126138   4.518   2.639  10.429 -0.7328  1.3302  0.3851
 4835SOL    HW226139   4.387   2.564  10.447  0.2046  0.0010 -0.0003
 4836SOL     OW26140   1.887   1.162   5.735  0.1452 -0.3314  0.0970
 4836SOL    HW126141   1.822   1.232   5.728 -0.4264 -0.7723  0.8441
 4836SOL    HW226142   1.933   1.166   5.652  0.6476  0.4413  0.4204
 4837SOL     OW26143   1.382   0.007   1.372 -0.1608 -0.0289 -0.1009
 4837SOL    HW126144   1.323   0.080   1.352  0.2032  0.4068  0.4434
 4837SOL    HW226145   1.452   0.058   1.410  2.0199 -0.6469 -3.2418
 4838SOL     OW26146   1.169   2.492   1.257 -0.4329  0.0805 -0.3410
 4838SOL    HW126147   1.081   2.492   1.220 -0.2289 -4.4560 -0.8321
 4838SOL    HW226148   1.156   2.463   1.347  0.6218  1.4491  0.2491
 4839SOL     OW26149   3.169   1.700   6.335 -0.1023 -1.2845  0.0185
 4839SOL    HW126150   3.193   1.793   6.332 -1.1437 -1.0523 -1.2409
 4839SOL    HW226151   3.200   1.670   6.420  1.1180 -0.3153 -0.0808
 4840SOL     OW26152   0.882   3.488   0.907  0.1423 -0.6777  0.7927
 4840SOL    HW126153   0.906   3.424   0.840  4.8864  0.8140  1.0294
 4840SOL    HW226154   0.891   3.569   0.856 -1.5527 -0.9109  0.1570
 4841SOL     OW26155   2.713   2.045   3.902  0.0859  0.5241 -0.1692
 4841SOL    HW126156   2.709   2.136   3.873 -1.6687  0.5337  0.1218
 4841SOL    HW226157   2.672   2.048   3.989 -0.6748 -0.1947 -0.5133
 4842SOL     OW26158   3.062   1.975   5.402 -0.3148 -0.5392  0.7666
 4842SOL    HW126159   3.125   2.031   5.445  0.5897  1.3586 -2.9826
 4842SOL    HW226160   3.091   1.986   5.311 -1.6347  1.4644  0.5905
 4843SOL     OW26161   1.512   0.051   9.707 -0.2817  0.2043  0.2125
 4843SOL    HW126162   1.469   0.024   9.787  0.9052 -0.3969  0.6518
 4843SOL    HW226163   1.432   0.074   9.659 -0.1233  0.9696  0.3112
 4844SOL     OW26164   2.908   0.809   5.882  0.3853 -0.4962 -0.4904
 4844SOL    HW126165   2.921   0.716   5.900  0.5561  0.3333  3.6589
 4844SOL    HW226166   2.819   0.805   5.847  0.6488 -0.5303 -1.1582
 4845SOL     OW26167   0.981   3.565  15.004  0.5799  0.0245 -0.1233
 4845SOL    HW126168   1.029   3.546  15.084  0.8188  2.5770  0.3337
 4845SOL    HW226169   0.896   3.593  15.037  0.4590 -0.7469  0.2132
 4846SOL     OW26170   3.050   0.413   3.199  0.3255 -0.0730  0.8172
 4846SOL    HW126171   3.079   0.499   3.168  0.3562 -0.8759 -1.3937
 4846SOL    HW226172   2.955   0.421   3.199  0.3720  0.4784 -0.8751
 4847SOL     OW26173   4.083   4.267   3.263  0.1687  0.3360 -0.4106
 4847SOL    HW126174   4.014   4.254   3.328  0.0716  2.5145 -0.0805
 4847SOL    HW226175   4.033   4.314   3.197 -0.9081 -1.7166 -1.0417
 4848SOL     OW26176   3.831   2.207   6.907 -0.4579 -0.4732  0.1270
 4848SOL    HW126177   3.788   2.127   6.877 -0.1934 -0.5723  0.0056
 4848SOL    HW226178   3.814   2.265   6.833 -0.2343 -2.3190 -1.3623
 4849SOL     OW26179   2.683   2.065   9.045  0.2048  0.5129  0.6875
 4849SOL    HW126180   2.750   1.997   9.041 -0.7456 -0.1904 -3.4979
 4849SOL    HW226181   2.731   2.146   9.061  0.0050  0.9255 -0.7938
 4850SOL     OW26182   0.465   2.975   4.483  0.5319 -0.3600 -0.5907
 4850SOL    HW126183   0.516   3.014   4.412  2.1393 -0.3927  0.5599
 4850SOL    HW226184   0.506   3.020   4.557  1.0651 -0.0128 -1.1008
 4851SOL     OW26185   0.335   0.256   3.801 -0.2335 -0.1401 -0.2974
 4851SOL    HW126186   0.308   0.212   3.721 -3.4263  1.4920 -0.1232
 4851SOL    HW226187   0.413   0.207   3.826  0.0026  0.3439 -0.0684
 4852SOL     OW26188   0.247   1.217   3.218 -0.0945 -0.1021  0.3168
 4852SOL    HW126189   0.289   1.132   3.231 -1.4916 -0.8659 -0.2322
 4852SOL    HW226190   0.298   1.266   3.153 -2.3319  0.8635 -0.7136
 4853SOL     OW26191   2.938   3.288  13.633  0.3757 -0.2604 -0.0355
 4853SOL    HW126192   3.011   3.349  13.629 -0.7100  1.2190  2.8969
 4853SOL    HW226193   2.931   3.271  13.727 -0.4093 -2.1080 -0.4290
 4854SOL     OW26194   3.327   3.852   2.223 -0.6105  0.1698  0.5467
 4854SOL    HW126195   3.323   3.893   2.136 -0.5444 -1.0974 -0.0591
 4854SOL    HW226196   3.236   3.841   2.252 -0.0071 -1.5301  1.7374
 4855SOL     OW26197   3.389   0.494   3.490 -0.9478 -0.0948 -0.1584
 4855SOL    HW126198   3.483   0.487   3.477 -1.3779 -1.9092 -2.2701
 4855SOL    HW226199   3.359   0.436   3.421  3.2123  0.9500 -2.8457
 4856SOL     OW26200   0.013   0.298   9.479  0.0240 -0.2452 -0.1174
 4856SOL    HW126201   4.675   0.359   9.470  0.5398  0.4744  0.5716
 4856SOL    HW226202   4.719   0.246   9.554  0.1433 -0.3202 -0.1230
 4857SOL     OW26203   0.399   2.501   8.324 -0.0662  0.0511 -0.9145
 4857SOL    HW126204   0.429   2.574   8.271 -0.3544  0.9159  0.1104
 4857SOL    HW226205   0.475   2.471   8.374 -1.1549  1.8199  1.8543
 4858SOL     OW26206   0.357   4.694  16.864  0.1455 -0.3992 -0.1339
 4858SOL    HW126207   0.357   0.010  16.783  2.4568  0.0994  0.1810
 4858SOL    HW226208   0.372   0.022  16.934  2.1602 -1.7917  0.6984
 4859SOL     OW26209   0.673   0.525   4.104 -0.1700  0.0194  0.2995
 4859SOL    HW126210   0.596   0.493   4.057  3.2933 -1.3523 -4.3871
 4859SOL    HW226211   0.643   0.581   4.176 -0.5905 -0.0364  0.1639
 4860SOL     OW26212   1.960   2.062   5.158 -0.5107  0.1304 -0.2156
 4860SOL    HW126213   2.021   2.049   5.231 -0.1873 -0.3322 -0.5714
 4860SOL    HW226214   1.947   1.977   5.116 -0.7887 -0.1391  0.4075
 4861SOL     OW26215   4.638   0.720   3.008 -0.3960 -0.8242  0.1495
 4861SOL    HW126216   4.613   0.664   2.935 -0.5456  0.0928 -0.5068
 4861SOL    HW226217   4.600   0.803   2.978 -1.1267 -1.1425  0.1915
 4862SOL     OW26218   0.059   4.672   3.680  0.7696 -0.1089 -0.5196
 4862SOL    HW126219   0.114   0.008   3.647  0.2089  0.7265  0.3221
 4862SOL    HW226220   0.123   4.610   3.715 -0.0552 -1.4228 -1.3665
 4863SOL     OW26221   2.912   1.408   9.410 -0.2581 -0.3933  0.4732
 4863SOL    HW126222   2.943   1.327   9.449 -0.2555 -1.1342 -1.0528
 4863SOL    HW226223   2.910   1.463   9.488 -3.0479  1.2235 -0.7054
 4864SOL     OW26224   2.330   4.554   0.989  0.5795 -0.0670  0.5602
 4864SOL    HW126225   2.369   4.486   0.934  0.6996  1.2943 -1.0430
 4864SOL    HW226226   2.333   4.516   1.077  0.9061  1.2848  1.1348
 4865SOL     OW26227   1.212   3.074   4.777  0.2839 -0.1752  0.0868
 4865SOL    HW126228   1.200   3.074   4.682  0.7306 -1.2933  0.0289
 4865SOL    HW226229   1.191   3.165   4.800 -1.2772 -0.0008 -1.9742
 4866SOL     OW26230   3.244   1.968   7.079 -0.1371 -0.2052  0.0179
 4866SOL    HW126231   3.168   1.911   7.067  0.9431 -1.5830 -0.2917
 4866SOL    HW226232   3.317   1.909   7.062  2.2066  2.6312  0.3988
 4867SOL     OW26233   0.086   3.837   8.085 -0.2313  0.4811  0.0693
 4867SOL    HW126234   0.105   3.897   8.013 -0.4122  0.1608 -0.2431
 4867SOL    HW226235   4.727   3.825   8.074 -0.1756  0.7900 -0.7583
 4868SOL     OW26236   4.392   0.964   5.000  0.2456 -0.8403  0.5442
 4868SOL    HW126237   4.459   0.918   5.050  0.2995 -1.9824 -0.5902
 4868SOL    HW226238   4.398   0.920   4.915 -0.2831  3.0561 -1.5052
 4869SOL     OW26239   3.126   0.850  10.787  0.3640  0.2242 -0.0704
 4869SOL    HW126240   3.108   0.806  10.871  1.2934  0.5125  0.2715
 4869SOL    HW226241   3.061   0.920  10.794  1.5013  1.2047  0.4807
 4870SOL     OW26242   4.605   0.046   7.058  0.3726  0.4696 -0.1625
 4870SOL    HW126243   4.543   0.016   6.991 -0.9718 -1.2425  1.8509
 4870SOL    HW226244   4.628   4.700   7.103  0.7580  0.1357 -0.9401
 4871SOL     OW26245   3.888   3.867  16.932 -0.5025  0.6860  0.6880
 4871SOL    HW126246   3.972   3.906  16.910 -1.2411  2.5800  1.1821
 4871SOL    HW226247   3.897   3.776  16.903 -1.3141  0.6326  0.6069
 4872SOL     OW26248   2.202   0.571   3.187 -0.3037  0.2230 -0.0508
 4872SOL    HW126249   2.142   0.613   3.249  0.5983  0.0867  0.9193
 4872SOL    HW226250   2.154   0.491   3.164 -2.0180  0.9547  0.9701
 4873SOL     OW26251   2.443   0.252   6.109  0.3686  0.1221 -0.2772
 4873SOL    HW126252   2.456   0.157   6.113 -0.6165 -0.1176 -2.5874
 4873SOL    HW226253   2.413   0.252   6.018 -0.6669  1.4940  0.0578
 4874SOL     OW26254   3.341   1.965   2.527  0.4018 -0.1178 -0.5268
 4874SOL    HW126255   3.352   1.894   2.590  1.2605  2.1108  1.8563
 4874SOL    HW226256   3.332   2.042   2.583 -1.9578  0.7629 -2.1379
 4875SOL     OW26257   3.505   1.152   1.019  0.3146 -0.3612 -0.2710
 4875SOL    HW126258   3.538   1.067   1.046 -0.8437  0.0445  2.4077
 4875SOL    HW226259   3.413   1.137   0.997  0.1186 -0.3466  0.5346
 4876SOL     OW26260   0.685   3.769   2.925 -0.4553  0.8205 -0.4433
 4876SOL    HW126261   0.628   3.846   2.920  0.1640  1.3881  1.0173
 4876SOL    HW226262   0.770   3.804   2.949 -0.9487  0.1113  2.3474
 4877SOL     OW26263   3.018   4.619   4.865  0.3754 -0.0050 -0.8343
 4877SOL    HW126264   3.089   4.559   4.845  1.8180  1.3890  0.1638
 4877SOL    HW226265   3.028   4.634   4.959  0.4484  2.9404 -1.3156
 4878SOL     OW26266   2.819   1.658  16.087 -0.3858  0.0296  0.1489
 4878SOL    HW126267   2.846   1.705  16.007  1.8123 -2.4543 -0.5724
 4878SOL    HW226268   2.905   1.661  16.128 -1.5071  2.0673  2.3067
 4879SOL     OW26269   0.042   3.206  14.870 -0.6148 -0.2195 -0.5397
 4879SOL    HW126270   0.136   3.201  14.852 -0.1601  2.3232  1.1683
 4879SOL    HW226271   0.021   3.260  14.794  0.9044  1.3005  0.1277
 4880SOL     OW26272   0.261   2.978  11.348  0.1277  0.1171 -0.3019
 4880SOL    HW126273   0.225   2.974  11.259  0.6614 -0.1905 -0.5039
 4880SOL    HW226274   0.189   2.953  11.405 -0.3615  1.5612 -0.2853
 4881SOL     OW26275   1.264   0.461  12.075 -0.0468 -0.2191  0.0056
 4881SOL    HW126276   1.241   0.498  11.990  0.4639 -0.9445 -0.4486
 4881SOL    HW226277   1.313   0.535  12.110 -0.3320  0.2525 -0.5876
 4882SOL     OW26278   0.554   1.397  14.201 -0.4530 -0.1502  0.1677
 4882SOL    HW126279   0.578   1.455  14.274  0.0448  0.3769 -0.4223
 4882SOL    HW226280   0.546   1.462  14.132 -0.6604  0.4295  0.7345
 4883SOL     OW26281   0.074   1.256   7.898  0.4743  0.0249 -0.0798
 4883SOL    HW126282   0.090   1.339   7.854  2.0125 -0.7825 -1.0726
 4883SOL    HW226283   0.018   1.219   7.830  1.9895  0.4963 -1.6064
 4884SOL     OW26284   4.274   3.782   1.762  0.1167  0.2806 -0.1411
 4884SOL    HW126285   4.329   3.830   1.824 -2.2311  1.0068  1.3539
 4884SOL    HW226286   4.230   3.852   1.713  0.0544  0.0641 -0.3969
 4885SOL     OW26287   3.487   4.437  17.234  0.5095 -0.2947 -0.4155
 4885SOL    HW126288   3.413   4.498  17.228 -0.6519 -1.6610  0.1121
 4885SOL    HW226289   3.560   4.498  17.251 -0.6456  1.0095 -0.0955
 4886SOL     OW26290   1.700   0.284   1.858 -0.1953  0.1771  0.2857
 4886SOL    HW126291   1.788   0.294   1.892  0.6143 -0.3322 -1.6641
 4886SOL    HW226292   1.650   0.305   1.937 -0.4120 -2.2342  0.7901
 4887SOL     OW26293   1.808   2.293   9.931 -0.0953 -0.8944 -0.6114
 4887SOL    HW126294   1.720   2.294   9.894 -0.4705 -0.0278  0.2754
 4887SOL    HW226295   1.788   2.330  10.018  1.7236 -1.4084  0.0317
 4888SOL     OW26296   1.143   0.457   3.065 -0.2923  0.1321 -0.6088
 4888SOL    HW126297   1.134   0.544   3.103  0.4938  1.2351 -2.9586
 4888SOL    HW226298   1.051   0.433   3.058 -0.3908 -0.3912  2.3126
 4889SOL     OW26299   3.209   4.489   9.185  0.6378  0.3666 -0.2346
 4889SOL    HW126300   3.173   4.413   9.231  1.3162  0.4872  0.5059
 4889SOL    HW226301   3.141   4.552   9.206  0.2773  0.2765 -1.1502
 4890SOL     OW26302   0.715   2.999  16.757 -0.5363 -0.5328 -0.4630
 4890SOL    HW126303   0.720   2.925  16.696 -2.1875 -1.8005  0.9429
 4890SOL    HW226304   0.799   3.038  16.734  0.0162  0.3370  2.9456
 4891SOL     OW26305   2.202   3.083   8.362 -0.3928 -0.0063 -0.3623
 4891SOL    HW126306   2.191   3.078   8.267 -1.7014 -2.3805 -0.1037
 4891SOL    HW226307   2.138   3.153   8.373  0.1388  0.3175  0.6214
 4892SOL     OW26308   3.644   2.016   6.835 -0.5439 -0.2932  0.3486
 4892SOL    HW126309   3.620   2.015   6.742 -0.8945 -0.0430  0.4361
 4892SOL    HW226310   3.554   2.030   6.864 -1.3241  3.4939 -3.8797
 4893SOL     OW26311   3.739   3.894   7.798  0.4703 -0.2083  0.3096
 4893SOL    HW126312   3.716   3.805   7.770 -1.5427 -0.3275  2.4033
 4893SOL    HW226313   3.715   3.900   7.890  1.5694  1.0737  0.5045
 4894SOL     OW26314   1.770   1.661   7.965  0.1626 -0.1288  0.5079
 4894SOL    HW126315   1.814   1.619   7.891  1.4743  1.4432  0.3899
 4894SOL    HW226316   1.684   1.686   7.930  1.0015  2.6973  0.4010
 4895SOL     OW26317   4.202   3.949  11.469  0.9497 -0.0732  0.0881
 4895SOL    HW126318   4.243   3.996  11.396 -0.4848 -0.4510 -0.9634
 4895SOL    HW226319   4.147   4.015  11.508  0.2907 -1.3491  1.3025
 4896SOL     OW26320   3.315   1.787  17.201  0.4384 -0.6608 -0.1881
 4896SOL    HW126321   3.289   1.821  17.115 -1.3611  1.7202  1.2962
 4896SOL    HW226322   3.358   1.706  17.175  0.6976 -0.6126  0.0974
 4897SOL     OW26323   2.310   3.947   3.985  0.1009 -0.0406 -0.2170
 4897SOL    HW126324   2.340   3.869   3.938  0.3548  0.9918 -1.7386
 4897SOL    HW226325   2.329   3.921   4.075 -3.1090  1.2617  0.8589
 4898SOL     OW26326   2.530   1.774  11.060 -0.1778 -0.0570  0.1109
 4898SOL    HW126327   2.492   1.809  10.979 -4.1075 -1.8022  1.2088
 4898SOL    HW226328   2.451   1.731  11.094  0.5986 -1.5098  0.0656
 4899SOL     OW26329   0.374   3.095   9.618 -0.6081  0.6367  0.1668
 4899SOL    HW126330   0.415   3.175   9.585 -2.8310  1.6972 -0.0344
 4899SOL    HW226331   0.452   3.040   9.622  0.0834  1.5000 -1.1812
 4900SOL     OW26332   3.342   4.625   5.159 -0.0819  0.1561 -0.0180
 4900SOL    HW126333   3.317   4.642   5.068  0.0323 -0.1322 -0.1040
 4900SOL    HW226334   3.427   4.665   5.175  0.4420 -0.6722 -0.7282
 4901SOL     OW26335   0.270   0.936   4.314  0.0948 -0.2468  0.0107
 4901SOL    HW126336   0.244   0.977   4.231 -0.7831 -0.9498 -0.0673
 4901SOL    HW226337   0.267   1.011   4.373  0.7467  1.0839 -1.6387
 4902SOL     OW26338   4.058   0.785   8.541 -0.1016 -0.1052  0.2286
 4902SOL    HW126339   4.127   0.835   8.584  0.6573 -0.1421 -0.9283
 4902SOL    HW226340   4.046   0.823   8.454  2.5440  1.2661  0.4579
 4903SOL     OW26341   0.734   3.880  17.053 -0.0169 -0.0316 -0.1709
 4903SOL    HW126342   0.741   3.969  17.020  0.4026  1.1545  3.2222
 4903SOL    HW226343   0.777   3.895  17.137 -2.3980  0.3907  0.9631
 4904SOL     OW26344   0.448   0.466   3.976  0.1986 -0.1474  0.0011
 4904SOL    HW126345   0.361   0.505   3.978 -1.4207 -3.7804  0.5782
 4904SOL    HW226346   0.448   0.442   3.883 -1.5050  0.7667 -0.2384
 4905SOL     OW26347   0.876   3.814   1.754 -0.1832 -0.2174  0.0793
 4905SOL    HW126348   0.904   3.772   1.672 -2.3280  0.8186 -1.2002
 4905SOL    HW226349   0.781   3.806   1.744 -0.1174  1.4446 -1.9679
 4906SOL     OW26350   4.090   4.709  15.436 -0.2401  0.2344  0.5183
 4906SOL    HW126351   4.053   4.623  15.418 -0.1274  0.1375  0.7472
 4906SOL    HW226352   4.027   0.030  15.393 -0.5248 -1.0406 -0.7195
 4907SOL     OW26353   4.665   1.752   7.333  0.0491  0.2266  0.3009
 4907SOL    HW126354   4.710   1.765   7.417  1.8128 -0.1105 -0.5791
 4907SOL    HW226355   4.694   1.665   7.308 -0.6596 -0.1585  0.8432
 4908SOL     OW26356   0.302   4.580   4.430  0.0096  0.1872  0.6034
 4908SOL    HW126357   0.213   4.614   4.419  0.2698  0.6105 -0.1684
 4908SOL    HW226358   0.290   4.497   4.385  0.4463 -0.1616  1.1320
 4909SOL     OW26359   4.348   1.939   3.396  0.2769  0.1790 -0.3351
 4909SOL    HW126360   4.381   1.898   3.317  0.9592 -0.4735  0.2927
 4909SOL    HW226361   4.256   1.960   3.377  0.3619 -0.9491 -1.8992
 4910SOL     OW26362   4.499   3.265   6.934 -0.4768  0.0482  0.5509
 4910SOL    HW126363   4.499   3.347   6.886  1.1633 -0.0729  0.3390
 4910SOL    HW226364   4.590   3.263   6.963 -0.4264  0.8518  0.4320
 4911SOL     OW26365   3.901   0.266   7.617 -0.1576  0.0032  0.0902
 4911SOL    HW126366   3.817   0.292   7.655  0.6296  2.4760  0.1507
 4911SOL    HW226367   3.878   0.275   7.524  1.6513  2.5419 -0.0911
 4912SOL     OW26368   3.780   1.415   7.165  0.1415 -0.0161  0.1992
 4912SOL    HW126369   3.734   1.467   7.231  1.1452 -0.1338  0.9958
 4912SOL    HW226370   3.705   1.361   7.140 -1.6892  2.9982 -0.7686
 4913SOL     OW26371   2.239   1.444  10.438 -0.0231  0.3744  0.1207
 4913SOL    HW126372   2.259   1.451  10.531  3.5016  0.8288 -0.6877
 4913SOL    HW226373   2.325   1.445  10.396  0.3221  1.3915  0.8469
 4914SOL     OW26374   2.928   1.774  15.052  0.0424  0.0471 -0.0523
 4914SOL    HW126375   2.924   1.865  15.082  1.1456  0.1540 -0.2490
 4914SOL    HW226376   2.999   1.747  15.110  1.1136  0.6779 -1.0750
 4915SOL     OW26377   3.924   4.086   2.936 -0.1479  0.1677 -0.2635
 4915SOL    HW126378   3.882   4.170   2.914  0.3698  0.1138 -1.4676
 4915SOL    HW226379   3.998   4.110   2.992  1.9266 -1.6694 -2.2195
 4916SOL     OW26380   1.532   2.008   1.572  0.0213  0.3394  0.0015
 4916SOL    HW126381   1.626   2.016   1.554 -0.0150  2.3603  0.6899
 4916SOL    HW226382   1.550   2.008   1.666 -0.7540 -0.8146  0.1379
 4917SOL     OW26383   2.993   3.041  13.445 -0.0583 -0.5153 -0.0678
 4917SOL    HW126384   2.924   2.976  13.458 -1.1655  0.2568 -2.1156
 4917SOL    HW226385   2.993   3.089  13.527  1.2207 -1.8617  0.7210
 4918SOL     OW26386   3.628   4.601   3.589 -0.2531  0.1633  0.2277
 4918SOL    HW126387   3.635   4.548   3.510  2.4487  0.5074  0.2418
 4918SOL    HW226388   3.566   4.544   3.635  0.4045 -1.6360 -1.1011
 4919SOL     OW26389   2.580   3.548  15.867 -0.2291  0.0967  0.3946
 4919SOL    HW126390   2.520   3.586  15.802  1.4695 -0.7669 -1.6919
 4919SOL    HW226391   2.586   3.622  15.927 -3.5162  1.5312 -1.0432
 4920SOL     OW26392   1.101   0.701   4.703 -0.3661  0.0719 -0.7797
 4920SOL    HW126393   1.044   0.715   4.779 -1.0475  1.8171 -1.5932
 4920SOL    HW226394   1.083   0.775   4.644 -2.8123  0.6231  0.6362
 4921SOL     OW26395   1.341   4.351   0.840  0.0677 -0.0357  0.0624
 4921SOL    HW126396   1.367   4.436   0.803 -2.0030  0.5151 -0.1366
 4921SOL    HW226397   1.293   4.322   0.762  1.1089  2.2649 -1.4441
 4922SOL     OW26398   1.555   3.676  10.481  0.5051  0.2604 -0.0408
 4922SOL    HW126399   1.601   3.691  10.398 -1.4598  2.5574 -0.7123
 4922SOL    HW226400   1.603   3.610  10.530  0.8368 -0.2737 -1.0704
 4923SOL     OW26401   2.401   1.820  16.502 -0.6785 -0.2214  0.1954
 4923SOL    HW126402   2.426   1.829  16.594 -0.1024  1.2579 -0.1006
 4923SOL    HW226403   2.314   1.859  16.511 -1.5798 -2.5823  1.6994
 4924SOL     OW26404   2.656   3.093   8.453  0.1552  0.2866 -0.3523
 4924SOL    HW126405   2.591   3.162   8.434 -0.7364 -0.3841  0.2805
 4924SOL    HW226406   2.675   3.059   8.365 -3.4088 -0.1432 -0.9585
 4925SOL     OW26407   4.312   4.202   6.383  0.6526  0.0673  0.5302
 4925SOL    HW126408   4.275   4.129   6.432 -0.1881  0.9017  1.1499
 4925SOL    HW226409   4.305   4.179   6.291  0.5454 -0.9400  0.7950
 4926SOL     OW26410   2.879   2.995   9.897  0.1301 -0.2421 -0.5792
 4926SOL    HW126411   2.807   2.944   9.932 -0.9757  0.8074 -1.3425
 4926SOL    HW226412   2.935   3.016   9.972 -0.9258  0.7421 -0.0813
 4927SOL     OW26413   4.646   1.103   7.741  0.3478 -0.3795  0.0312
 4927SOL    HW126414   4.607   1.033   7.793  1.8806 -2.8502 -2.1528
 4927SOL    HW226415   4.708   1.046   7.695  0.5424 -0.3701  0.2853
 4928SOL     OW26416   0.663   2.155   8.913 -0.4327 -0.4672  0.2520
 4928SOL    HW126417   0.757   2.146   8.929 -0.0343  2.0716 -0.6235
 4928SOL    HW226418   0.634   2.202   8.991  0.8684  0.3029  0.2738
 4929SOL     OW26419   4.492   4.645   6.048  0.4119  0.0394  0.1641
 4929SOL    HW126420   4.469   4.593   6.125 -0.4812  0.2833  0.0562
 4929SOL    HW226421   4.457   4.730   6.074  1.7781 -0.0283  2.2071
 4930SOL     OW26422   4.007   4.165   1.551  0.2229  0.3372  0.4987
 4930SOL    HW126423   3.970   4.160   1.639 -0.1277  1.5878  0.4104
 4930SOL    HW226424   4.079   4.103   1.563 -0.3774 -0.4931 -0.1640
 4931SOL     OW26425   1.884   3.611   9.001  0.1687 -0.1105  0.1501
 4931SOL    HW126426   1.912   3.701   8.982  0.9414 -0.3159  0.3213
 4931SOL    HW226427   1.963   3.563   8.977 -0.8641 -1.0565 -1.3340
 4932SOL     OW26428   1.763   1.246   2.454 -0.6781  0.1376 -0.8596
 4932SOL    HW126429   1.838   1.303   2.438  0.4186 -0.6715  1.3358
 4932SOL    HW226430   1.708   1.300   2.509  0.3646  0.2100  0.1185
 4933SOL     OW26431   2.121   0.482   8.660 -0.5772  0.2683  0.2797
 4933SOL    HW126432   2.171   0.405   8.633 -1.7865  0.2947 -2.0246
 4933SOL    HW226433   2.178   0.557   8.674 -2.0858  1.6924 -1.1270
 4934SOL     OW26434   3.893   0.642   0.296  0.7519  0.3773  0.5909
 4934SOL    HW126435   3.852   0.667   0.379 -0.9865 -0.9449  0.1354
 4934SOL    HW226436   3.834   0.687   0.234  0.2027 -1.3024 -0.0986
 4935SOL     OW26437   3.100   3.064  16.690 -0.2739  0.0066 -0.3704
 4935SOL    HW126438   3.184   3.101  16.718  0.4849 -1.6406 -0.4681
 4935SOL    HW226439   3.134   2.980  16.660  0.5135  0.6676 -1.3348
 4936SOL     OW26440   0.897   2.156   9.506  0.1667  0.7292 -0.9702
 4936SOL    HW126441   0.964   2.207   9.550 -1.9589  2.9295 -0.2767
 4936SOL    HW226442   0.921   2.167   9.414  0.3788  0.7887 -0.9068
 4937SOL     OW26443   2.012   0.584   5.269  0.5311  0.0206 -0.1225
 4937SOL    HW126444   1.980   0.513   5.325 -2.5125  0.4901 -1.2850
 4937SOL    HW226445   1.976   0.656   5.320 -0.8266 -1.2685  0.7269
 4938SOL     OW26446   1.342   4.094   4.317  0.6069 -0.5527  0.3443
 4938SOL    HW126447   1.304   4.156   4.255  1.3558  0.8070  1.2390
 4938SOL    HW226448   1.338   4.151   4.394 -1.4954 -0.8851  0.4725
 4939SOL     OW26449   3.006   2.378   8.594 -0.3360 -0.3507  0.2489
 4939SOL    HW126450   3.083   2.406   8.545 -0.1027 -0.8280  0.3487
 4939SOL    HW226451   2.977   2.306   8.538 -1.6952  2.9884 -3.4002
 4940SOL     OW26452   0.859   3.439   2.656 -0.1043  0.1056 -0.1025
 4940SOL    HW126453   0.854   3.534   2.664 -1.5221 -0.0736  1.1909
 4940SOL    HW226454   0.769   3.416   2.680  0.7296 -2.2278  0.7197
 4941SOL     OW26455   2.507   3.750  13.777  0.5288  0.0932  0.1370
 4941SOL    HW126456   2.562   3.785  13.848  1.4320 -0.0600 -0.4888
 4941SOL    HW226457   2.514   3.655  13.790  1.8714  0.2358  0.5213
 4942SOL     OW26458   2.265   1.039   1.182 -0.6610 -0.2395  0.0631
 4942SOL    HW126459   2.327   0.984   1.135  1.3037  1.8491  0.2094
 4942SOL    HW226460   2.326   1.103   1.219 -0.2642 -0.2121 -0.6432
 4943SOL     OW26461   2.636   3.833   3.721  0.4679 -0.1812 -0.0521
 4943SOL    HW126462   2.577   3.763   3.748 -0.4931  0.9640  0.8418
 4943SOL    HW226463   2.655   3.862   3.810  0.9555 -0.9783  0.0973
 4944SOL     OW26464   4.387   1.320  12.020 -0.2239  0.2740 -0.3482
 4944SOL    HW126465   4.309   1.265  12.029 -0.7768  0.8280 -1.7483
 4944SOL    HW226466   4.355   1.402  11.982 -0.4226 -1.1852 -3.3588
 4945SOL     OW26467   3.921   4.396  10.740 -0.1904  0.5768  0.1615
 4945SOL    HW126468   3.907   4.402  10.646 -3.2400 -1.3856  0.4902
 4945SOL    HW226469   3.838   4.439  10.764 -1.4672 -1.8898  0.1584
 4946SOL     OW26470   3.236   4.090   5.702  0.7372  0.6657  0.4432
 4946SOL    HW126471   3.233   4.146   5.780 -0.4426  0.4588  0.5549
 4946SOL    HW226472   3.140   4.086   5.697  0.8840 -2.1524 -0.2596
 4947SOL     OW26473   2.973   4.094   1.811 -0.3894 -0.0963 -0.4110
 4947SOL    HW126474   3.023   4.137   1.881 -1.1130 -0.4594  0.3237
 4947SOL    HW226475   2.883   4.104   1.841 -0.3042 -0.9541  0.1260
 4948SOL     OW26476   2.421   1.362   5.205 -0.2088 -0.0756  0.0053
 4948SOL    HW126477   2.390   1.438   5.254  0.2917 -1.6560  2.7696
 4948SOL    HW226478   2.443   1.303   5.277 -1.1305 -0.4062  0.0171
 4949SOL     OW26479   0.351   2.369   4.357  0.4646 -0.1252  0.1870
 4949SOL    HW126480   0.352   2.410   4.271 -0.2867  0.1166  0.2899
 4949SOL    HW226481   0.302   2.289   4.337  0.3977 -0.1058  0.2701
 4950SOL     OW26482   3.758   2.156   6.368 -0.4866  0.3687  0.0275
 4950SOL    HW126483   3.795   2.237   6.404  1.2879  0.1477 -1.2829
 4950SOL    HW226484   3.781   2.089   6.432  0.3074  1.2256  0.6415
 4951SOL     OW26485   3.411   1.247   7.075  0.3065  0.1409 -0.8046
 4951SOL    HW126486   3.399   1.336   7.043 -1.4404 -0.1451 -0.9490
 4951SOL    HW226487   3.499   1.229   7.040 -0.3643 -0.2498 -2.3094
 4952SOL     OW26488   2.478   3.965   6.939 -0.3273  0.4511  0.0877
 4952SOL    HW126489   2.551   4.021   6.969  0.2015  0.6438 -1.5884
 4952SOL    HW226490   2.409   4.004   6.993  1.5156  0.4122  2.4851
 4953SOL     OW26491   1.599   3.341   4.427 -0.0746 -0.0315  0.4911
 4953SOL    HW126492   1.609   3.430   4.395 -1.0998  0.6131  1.9243
 4953SOL    HW226493   1.503   3.333   4.430 -0.1484  0.5045 -0.4393
 4954SOL     OW26494   2.526   1.686  13.353  0.1374  0.1183 -0.2236
 4954SOL    HW126495   2.513   1.765  13.406 -2.0898 -1.3074  1.3913
 4954SOL    HW226496   2.621   1.677  13.343  0.2017  1.1113 -0.5306
 4955SOL     OW26497   0.098   4.245   3.895  0.5373 -0.2163  0.0031
 4955SOL    HW126498   0.073   4.332   3.925  0.9663 -0.4109  0.9203
 4955SOL    HW226499   0.057   4.193   3.964 -0.9297 -1.0437 -1.4847
 4956SOL     OW26500   2.888   4.640   4.206 -0.4014  0.1729  0.4331
 4956SOL    HW126501   2.822   4.591   4.159  1.7632 -1.1325 -1.2461
 4956SOL    HW226502   2.902   4.709   4.141  2.0005  1.5477  2.3407
 4957SOL     OW26503   1.043   3.377   3.119  0.6602  0.3129  0.3277
 4957SOL    HW126504   0.965   3.322   3.111  2.3762 -2.4097  1.9489
 4957SOL    HW226505   1.079   3.340   3.200  0.9762 -0.5479 -0.2055
 4958SOL     OW26506   3.630   2.619   3.542  0.0315 -0.6802 -0.2854
 4958SOL    HW126507   3.566   2.564   3.496 -1.6393 -0.1530  1.4177
 4958SOL    HW226508   3.687   2.551   3.578  3.7827  2.9809  0.5861
 4959SOL     OW26509   4.096   2.048  17.177 -0.5402  0.0581  0.0979
 4959SOL    HW126510   4.026   2.040  17.243 -3.9404 -1.3872 -3.6963
 4959SOL    HW226511   4.138   2.128  17.209 -0.0424 -0.5542  0.9736
 4960SOL     OW26512   0.491   3.631   4.899 -0.5794 -0.4786 -0.1833
 4960SOL    HW126513   0.587   3.633   4.898 -0.6011 -0.9425 -2.4095
 4960SOL    HW226514   0.456   3.630   4.988  0.1101  1.8981  0.0925
 4961SOL     OW26515   2.846   3.853   1.634 -0.0786 -0.6542  0.5129
 4961SOL    HW126516   2.880   3.765   1.618 -0.1749 -0.5000 -0.5163
 4961SOL    HW226517   2.848   3.866   1.729  2.0455  1.2714  0.1836
 4962SOL     OW26518   3.028   0.056  13.023 -0.5022 -0.9736 -0.0903
 4962SOL    HW126519   3.073   0.105  12.953  0.3544 -3.4292 -1.2414
 4962SOL    HW226520   3.009   4.709  12.977  1.1124 -0.1752 -2.2030
 4963SOL     OW26521   2.022   0.699  13.004  0.4956 -0.2444 -0.3708
 4963SOL    HW126522   2.044   0.782  12.963 -2.1443  0.6118 -0.0386
 4963SOL    HW226523   1.938   0.674  12.965  1.5866 -1.8680 -1.7049
 4964SOL     OW26524   1.456   1.825  15.355  0.2610  0.4452 -0.0741
 4964SOL    HW126525   1.540   1.793  15.387  0.4179 -0.3321 -1.2568
 4964SOL    HW226526   1.409   1.814  15.438 -0.8119  1.9073 -0.4946
 4965SOL     OW26527   0.058   3.224  15.133 -0.4638  0.0033  0.1276
 4965SOL    HW126528   0.008   3.304  15.144  1.3083  0.9445  1.3919
 4965SOL    HW226529   0.049   3.208  15.039 -0.7117 -0.3036  0.2024
 4966SOL     OW26530   1.683   0.396   0.875  0.8794 -0.0411 -0.1277
 4966SOL    HW126531   1.650   0.416   0.788 -0.8988 -3.6859 -0.2847
 4966SOL    HW226532   1.742   0.467   0.900 -1.2187  1.7710 -0.3823
 4967SOL     OW26533   4.047   4.376  10.352  0.1629  1.1503 -0.2181
 4967SOL    HW126534   3.961   4.369  10.394  0.6196 -0.2191  0.4742
 4967SOL    HW226535   4.044   4.318  10.276 -0.5450  0.3880  0.3822
 4968SOL     OW26536   1.127   1.794   4.851 -0.0821  0.6864 -0.2574
 4968SOL    HW126537   1.164   1.707   4.832  0.6444  1.1425 -0.9277
 4968SOL    HW226538   1.040   1.763   4.874  0.4267 -0.8620 -0.3720
 4969SOL     OW26539   1.236   3.111  16.144 -0.3912  0.0675 -0.4676
 4969SOL    HW126540   1.272   3.194  16.178 -1.3842  0.0151  0.7288
 4969SOL    HW226541   1.177   3.142  16.075 -1.3095  2.2454  1.2696
 4970SOL     OW26542   3.087   4.242   7.072  0.2523  0.1576  0.3607
 4970SOL    HW126543   3.031   4.305   7.118 -0.9605  1.1952 -2.5392
 4970SOL    HW226544   3.168   4.264   7.117  0.2521 -0.9468  0.8949
 4971SOL     OW26545   2.209   0.150   6.984  0.3701 -0.0460 -0.1849
 4971SOL    HW126546   2.149   0.214   6.946  0.2214 -0.5996 -0.8651
 4971SOL    HW226547   2.287   0.166   6.931  1.2027 -0.0934  1.0231
 4972SOL     OW26548   1.925   1.254   1.930  0.1474  0.4377  0.2726
 4972SOL    HW126549   1.977   1.322   1.887 -0.5414 -0.3427 -1.7685
 4972SOL    HW226550   1.875   1.232   1.852 -1.3608  3.4323  0.3917
 4973SOL     OW26551   3.076   4.252  14.580  0.1777 -0.2687 -0.4589
 4973SOL    HW126552   3.029   4.211  14.652  0.2838 -0.5389 -0.5433
 4973SOL    HW226553   3.131   4.310  14.634  0.8294 -1.3601  0.0631
 4974SOL     OW26554   4.501   3.832  16.776  0.5138  0.5450  0.8790
 4974SOL    HW126555   4.447   3.808  16.701  2.5884  2.4278 -1.2211
 4974SOL    HW226556   4.481   3.767  16.843 -0.0214  0.4589  0.6286
 4975SOL     OW26557   1.114   3.088   5.592 -0.0164  0.2811  0.4126
 4975SOL    HW126558   1.070   3.104   5.676 -0.0431  1.3119  0.2000
 4975SOL    HW226559   1.167   3.014   5.620  2.1234  1.4861 -0.4910
 4976SOL     OW26560   0.190   1.254  17.018  0.0599 -0.4286 -0.1848
 4976SOL    HW126561   0.134   1.332  17.022 -0.0581 -0.4705 -1.0809
 4976SOL    HW226562   0.200   1.214  17.105  0.5632 -2.8333 -1.3472
 4977SOL     OW26563   0.249   1.517   3.444  0.0547  0.5847  0.5920
 4977SOL    HW126564   0.303   1.568   3.505  1.0804  0.6871 -0.4133
 4977SOL    HW226565   0.302   1.523   3.365  0.9228 -0.1749  1.1137
 4978SOL     OW26566   1.372   3.836  12.577 -0.3438 -0.0287  0.3870
 4978SOL    HW126567   1.293   3.810  12.530  0.2069 -0.5041 -0.2657
 4978SOL    HW226568   1.352   3.798  12.662 -0.4102  1.2695  0.9564
 4979SOL     OW26569   1.297   3.202   5.915 -0.3205 -0.2390  0.4035
 4979SOL    HW126570   1.261   3.144   5.983 -0.1317 -2.0635 -1.0351
 4979SOL    HW226571   1.221   3.217   5.859 -0.4943 -3.5276 -0.2747
 4980SOL     OW26572   3.762   1.241   8.950  0.1063 -0.5852  0.4421
 4980SOL    HW126573   3.793   1.274   9.034  0.0456 -1.1242  0.6789
 4980SOL    HW226574   3.670   1.261   8.965  0.7096  1.8468  0.8433
 4981SOL     OW26575   0.630   2.788   3.690 -0.3235  0.2145 -0.2470
 4981SOL    HW126576   0.603   2.718   3.630 -0.7298 -0.6023  0.8811
 4981SOL    HW226577   0.720   2.764   3.708 -0.2910  0.8835  0.5153
 4982SOL     OW26578   1.494   3.558  14.573  0.2809 -0.5076 -0.1895
 4982SOL    HW126579   1.476   3.556  14.667  2.2187 -1.9405  0.1600
 4982SOL    HW226580   1.547   3.479  14.565  0.0510 -0.6429 -0.3712
 4983SOL     OW26581   3.471   2.232   2.267 -0.5256  0.1417  0.3867
 4983SOL    HW126582   3.423   2.248   2.348 -0.8022  0.5637  0.1368
 4983SOL    HW226583   3.529   2.307   2.275 -2.5045  1.9862 -2.3751
 4984SOL     OW26584   1.232   1.691  17.459 -0.3974  0.3020  0.2580
 4984SOL    HW126585   1.151   1.692  17.408 -0.2199 -1.6949 -0.0607
 4984SOL    HW226586   1.261   1.782  17.451  1.1139 -0.2116 -0.1000
 4985SOL     OW26587   1.198   4.631   0.561  0.2077 -0.0928 -0.5207
 4985SOL    HW126588   1.265   4.626   0.629  0.3796 -2.8145 -0.8703
 4985SOL    HW226589   1.159   4.546   0.580 -0.9809 -0.2883 -3.8503
 4986SOL     OW26590   1.310   4.715   5.254 -0.1877 -0.1404 -0.1205
 4986SOL    HW126591   1.335   4.714   5.161 -0.1860  0.7003 -0.1321
 4986SOL    HW226592   1.376   0.039   5.290 -3.3161  1.5385  2.7944
 4987SOL     OW26593   1.636   1.054  16.395 -0.9143 -0.6166  0.3522
 4987SOL    HW126594   1.713   1.094  16.435  0.3062 -0.7863 -1.7989
 4987SOL    HW226595   1.675   0.966  16.397  0.1300 -0.1691 -0.1100
 4988SOL     OW26596   4.066   1.585   4.113  0.1362 -0.0548 -0.3116
 4988SOL    HW126597   4.008   1.525   4.065  0.2470 -0.2876 -0.1564
 4988SOL    HW226598   4.127   1.516   4.140 -1.1550 -0.3297  1.8534
 4989SOL     OW26599   1.223   1.704  11.037  0.2156 -0.0876  0.2304
 4989SOL    HW126600   1.194   1.620  11.072  1.0375 -0.6306 -0.4054
 4989SOL    HW226601   1.240   1.681  10.946 -0.4839  0.7827 -0.1290
 4990SOL     OW26602   2.218   0.597   9.357  0.0515  0.1991  0.2900
 4990SOL    HW126603   2.165   0.606   9.437 -0.3151  0.3288  0.0322
 4990SOL    HW226604   2.206   0.504   9.339  0.2766  0.6436 -2.0973
 4991SOL     OW26605   4.090   0.150  13.079 -0.1481 -0.0029  0.3708
 4991SOL    HW126606   4.146   0.207  13.131  1.6246 -2.3947  1.0216
 4991SOL    HW226607   4.047   0.108  13.153  0.1337 -2.4738 -0.8738
 4992SOL     OW26608   1.001   4.550   6.537 -0.4752  0.2377  0.2895
 4992SOL    HW126609   0.930   4.501   6.578  0.3021 -0.9763  0.1976
 4992SOL    HW226610   0.999   4.627   6.593 -1.6130  0.5612 -0.1867
 4993SOL     OW26611   0.402   3.713   1.419 -0.3698  0.3250 -0.1262
 4993SOL    HW126612   0.426   3.805   1.412 -1.4251  0.6104  0.0845
 4993SOL    HW226613   0.475   3.669   1.375 -1.1875 -1.0341 -0.1278
 4994SOL     OW26614   3.976   3.376   4.453  0.0977 -0.1566  0.6227
 4994SOL    HW126615   4.042   3.316   4.418  1.1360  1.3178  0.0694
 4994SOL    HW226616   4.020   3.460   4.456 -1.3581  0.6649 -0.4128
 4995SOL     OW26617   0.791   1.724  17.588  0.1215  0.7340 -0.1962
 4995SOL    HW126618   0.742   1.801  17.557 -1.6166 -0.2174  0.1745
 4995SOL    HW226619   0.740   1.692  17.663 -0.6826 -0.7755 -1.3782
 4996SOL     OW26620   1.644   3.711  15.916 -0.3470 -0.0160  0.0564
 4996SOL    HW126621   1.583   3.690  15.987  0.1398  0.4080  0.5919
 4996SOL    HW226622   1.625   3.800  15.886 -1.1916 -1.1198 -2.7855
 4997SOL     OW26623   1.869   0.069  12.674  0.0962 -0.1686  0.4212
 4997SOL    HW126624   1.945   0.014  12.696  0.1926  0.4622  1.7391
 4997SOL    HW226625   1.812   0.033  12.742  1.2239 -3.0197 -0.1551
 4998SOL     OW26626   2.891   1.456   9.856  0.0482  0.1279  0.1341
 4998SOL    HW126627   2.915   1.518   9.926 -0.0148  1.8594 -1.3887
 4998SOL    HW226628   2.799   1.478   9.868 -0.1317 -0.3067 -0.5007
 4999SOL     OW26629   3.134   0.672  10.603  0.1713 -0.0200 -0.3233
 4999SOL    HW126630   3.217   0.684  10.557  1.0473  0.0403  1.2749
 4999SOL    HW226631   3.140   0.744  10.665  0.5945 -1.3010  1.1322
 5000SOL     OW26632   4.306   0.022  12.668 -0.1917 -0.1046  0.5604
 5000SOL    HW126633   4.228   0.050  12.717  0.0078  1.4952 -0.0322
 5000SOL    HW226634   4.375   0.045  12.731  1.1699 -2.8617  0.0620
 5001SOL     OW26635   2.151   0.874  12.418 -0.3443 -0.1703 -0.1156
 5001SOL    HW126636   2.242   0.901  12.434 -0.3388 -1.2427  1.6338
 5001SOL    HW226637   2.100   0.946  12.453  0.0647 -0.3924  0.9303
 5002SOL     OW26638   4.433   0.389   1.122  0.0209 -0.7195  0.2026
 5002SOL    HW126639   4.404   0.334   1.049  1.0179 -0.8686 -0.0723
 5002SOL    HW226640   4.347   0.420   1.151 -0.2956 -1.3241 -0.0785
 5003SOL     OW26641   3.459   3.838   4.531 -0.2368  0.6792  0.1816
 5003SOL    HW126642   3.514   3.915   4.547 -0.0028  0.6749 -0.6047
 5003SOL    HW226643   3.371   3.870   4.513  0.0290  1.5892  0.4907
 5004SOL     OW26644   1.788   2.283   5.214  0.3238  0.7478 -0.5970
 5004SOL    HW126645   1.825   2.197   5.232 -0.5996  0.1587 -1.4792
 5004SOL    HW226646   1.693   2.268   5.222  0.4426 -0.6808 -1.9844
 5005SOL     OW26647   2.874   3.704   3.356  0.0181 -0.5025  0.5584
 5005SOL    HW126648   2.799   3.712   3.414 -0.6214 -0.5275 -0.2671
 5005SOL    HW226649   2.820   3.715   3.278  1.4476  0.5731 -0.2895
 5006SOL     OW26650   1.205   3.285   8.081 -0.1502  0.0805 -0.2532
 5006SOL    HW126651   1.261   3.217   8.044 -0.5191 -1.5564  2.1886
 5006SOL    HW226652   1.200   3.351   8.012  0.1897  0.6762  0.2861
 5007SOL     OW26653   0.962   0.292   1.680  0.5263 -0.1938  0.0220
 5007SOL    HW126654   0.943   0.386   1.687  0.4748 -0.2119  0.1235
 5007SOL    HW226655   0.915   0.257   1.756  1.2432 -2.8143 -0.7707
 5008SOL     OW26656   1.029   4.233   6.595  0.4522 -0.1849 -0.1659
 5008SOL    HW126657   1.047   4.242   6.501 -2.4198  2.2560 -0.4569
 5008SOL    HW226658   1.110   4.271   6.631  0.6116  0.2003 -0.9340
 5009SOL     OW26659   4.628   3.529   8.805  0.4968 -0.1727 -0.3659
 5009SOL    HW126660   4.553   3.555   8.860  2.1570  2.3709  0.6862
 5009SOL    HW226661   4.704   3.526   8.863  1.2562 -2.9762 -1.4928
 5010SOL     OW26662   2.656   4.305   7.203 -0.3010 -0.2262  0.6973
 5010SOL    HW126663   2.675   4.214   7.224 -3.0068 -0.4843  2.0304
 5010SOL    HW226664   2.726   4.365   7.230 -1.2195  0.4136  1.6305
 5011SOL     OW26665   0.616   1.469  16.279 -0.4162 -0.2613  0.5870
 5011SOL    HW126666   0.623   1.378  16.250  0.0929 -0.8440  2.5637
 5011SOL    HW226667   0.619   1.516  16.195 -2.4342  0.9173  1.1742
 5012SOL     OW26668   1.569   1.710   9.051 -0.2159 -1.0666 -0.2257
 5012SOL    HW126669   1.482   1.707   9.091 -0.9484  1.9739 -1.6024
 5012SOL    HW226670   1.616   1.648   9.106 -0.0684 -0.3505  0.4605
 5013SOL     OW26671   0.678   3.598   3.456  0.5690 -0.3143  0.0579
 5013SOL    HW126672   0.643   3.560   3.537 -2.6602 -0.5539 -1.4532
 5013SOL    HW226673   0.687   3.520   3.401  1.5118  0.4696 -0.9214
 5014SOL     OW26674   2.725   2.154   4.416 -0.1737  0.3723 -0.5329
 5014SOL    HW126675   2.749   2.247   4.417  1.2689 -0.0115  0.2128
 5014SOL    HW226676   2.806   2.115   4.449  0.5077 -0.6832 -3.4483
 5015SOL     OW26677   0.584   3.094   1.096  0.4813  0.2279  0.1234
 5015SOL    HW126678   0.652   3.090   1.029  2.1239  1.2898  1.7500
 5015SOL    HW226679   0.509   3.065   1.043 -0.8412  0.6218  1.7780
 5016SOL     OW26680   0.848   3.232   9.566 -0.1003 -0.6396 -0.0153
 5016SOL    HW126681   0.811   3.316   9.540  1.4220 -0.3299 -1.1955
 5016SOL    HW226682   0.809   3.173   9.502 -0.8626  2.3659 -2.3373
 5017SOL     OW26683   2.228   1.645   6.422 -0.1562 -0.3237 -0.0518
 5017SOL    HW126684   2.200   1.622   6.333  0.7229  1.1217 -0.7125
 5017SOL    HW226685   2.187   1.729   6.443 -1.5610 -1.5327  2.0021
 5018SOL     OW26686   4.021   4.214  14.178 -0.4501  0.3189  0.2386
 5018SOL    HW126687   4.052   4.205  14.268  0.1374  3.1223  0.3041
 5018SOL    HW226688   3.930   4.191  14.197 -0.9610  0.4999 -2.0070
 5019SOL     OW26689   1.523   1.720   8.260 -0.2200 -0.6280 -0.0463
 5019SOL    HW126690   1.479   1.678   8.334  1.5489  0.9401  1.9299
 5019SOL    HW226691   1.604   1.746   8.306 -0.0983 -1.1774  0.0434
 5020SOL     OW26692   3.885   2.037   7.277  0.3669 -0.1381 -0.4608
 5020SOL    HW126693   3.801   2.066   7.311 -0.9615 -1.2301 -2.8667
 5020SOL    HW226694   3.941   2.115   7.275 -0.2716  0.3040 -0.7859
 5021SOL     OW26695   0.014   1.196   3.684 -0.2684 -0.0658 -0.4675
 5021SOL    HW126696   0.030   1.233   3.597 -0.4157 -1.5084 -1.1042
 5021SOL    HW226697   4.658   1.168   3.673  0.1023 -0.8263 -1.5795
 5022SOL     OW26698   1.965   4.226   4.405 -0.0056  0.0135  0.0997
 5022SOL    HW126699   1.882   4.201   4.365  0.0607  1.4201 -0.9009
 5022SOL    HW226700   1.944   4.302   4.459 -1.0044 -0.4515  0.3744
 5023SOL     OW26701   4.090   4.723   1.141  0.1345 -0.1934 -0.0061
 5023SOL    HW126702   4.042   4.649   1.178  0.7239 -0.1873  0.7577
 5023SOL    HW226703   4.043   0.006   1.060  1.7072 -0.7197 -1.0250
 5024SOL     OW26704   3.199   2.222  15.167  0.1652  0.1233 -0.1981
 5024SOL    HW126705   3.168   2.276  15.094 -1.7653  2.1115  2.0418
 5024SOL    HW226706   3.288   2.256  15.167 -0.7981  2.7201 -0.3380
 5025SOL     OW26707   1.323   0.966   8.585  0.0241  0.1828  0.1578
 5025SOL    HW126708   1.250   0.956   8.524 -0.8615  0.3729  1.1846
 5025SOL    HW226709   1.364   0.881   8.570  0.2092  0.2557  0.2494
 5026SOL     OW26710   0.432   0.421   4.807 -0.0208  0.4878 -0.2893
 5026SOL    HW126711   0.516   0.461   4.832  0.4895 -1.5108  1.1709
 5026SOL    HW226712   0.394   0.500   4.769 -1.0435 -0.5383 -1.3958
 5027SOL     OW26713   1.215   2.034   6.720 -0.2349 -0.1250 -0.9523
 5027SOL    HW126714   1.188   2.111   6.669 -0.0902 -0.8092 -2.0664
 5027SOL    HW226715   1.291   2.001   6.672 -0.5769 -2.7746  0.3309
 5028SOL     OW26716   3.782   0.220   6.584 -0.6946  0.3154  0.0484
 5028SOL    HW126717   3.763   0.202   6.677 -0.8714  0.9218  0.1279
 5028SOL    HW226718   3.756   0.132   6.557 -0.7508  0.3176  0.0965
 5029SOL     OW26719   3.071   3.499  12.609  0.0437  0.4363 -0.0296
 5029SOL    HW126720   3.097   3.577  12.561 -0.0599 -0.4159 -1.4697
 5029SOL    HW226721   3.071   3.525  12.701  0.1424  1.4025 -0.3063
 5030SOL     OW26722   3.827   3.542  10.930 -0.4616  0.1838  0.0752
 5030SOL    HW126723   3.889   3.607  10.963  0.5615 -0.3235 -0.8195
 5030SOL    HW226724   3.872   3.514  10.850  0.9660  0.9928  0.5795
 5031SOL     OW26725   2.951   2.350   5.927  0.2590  0.7341  0.2471
 5031SOL    HW126726   3.040   2.315   5.920 -0.6269 -1.6156  0.4370
 5031SOL    HW226727   2.922   2.338   5.836 -1.5485  0.7307  0.8133
 5032SOL     OW26728   0.332   0.943   8.411  0.0309  0.4906 -0.5512
 5032SOL    HW126729   0.308   0.946   8.504 -0.0559  1.4825 -0.6150
 5032SOL    HW226730   0.416   0.897   8.412 -0.9401 -1.3056 -1.0667
 5033SOL     OW26731   1.582   0.208   4.490  0.2764 -0.8021 -0.3474
 5033SOL    HW126732   1.507   0.267   4.477  0.2646 -0.9085 -0.7557
 5033SOL    HW226733   1.578   0.203   4.586 -2.2396 -0.1615 -0.4204
 5034SOL     OW26734   3.162   1.631   1.591  0.0833 -0.1805  0.3899
 5034SOL    HW126735   3.202   1.684   1.522  1.0026  1.2333  2.0007
 5034SOL    HW226736   3.098   1.696   1.620 -1.0778 -1.4877  0.7613
 5035SOL     OW26737   3.636   4.020   7.352  0.3889  0.4084 -0.2297
 5035SOL    HW126738   3.610   4.018   7.260 -0.6700  1.6346  0.0543
 5035SOL    HW226739   3.584   4.090   7.389 -0.4760 -1.1176  1.4379
 5036SOL     OW26740   3.402   3.013   8.263 -0.6366 -0.0214 -0.0552
 5036SOL    HW126741   3.327   3.043   8.212  0.7824  0.8561 -1.6184
 5036SOL    HW226742   3.470   3.056   8.211 -0.2337 -2.7257 -1.7373
 5037SOL     OW26743   0.410   2.188   3.977  0.4600 -0.2422  0.4043
 5037SOL    HW126744   0.323   2.184   3.936  1.0674  0.6941 -1.0003
 5037SOL    HW226745   0.473   2.209   3.908  0.4876  0.5083  0.6517
 5038SOL     OW26746   0.937   0.027   9.803  0.4807  0.1067  0.1495
 5038SOL    HW126747   1.021   4.717   9.814 -0.6005 -1.5877  1.4607
 5038SOL    HW226748   0.968   0.115   9.781  1.7425  0.0855  1.7916
 5039SOL     OW26749   4.066   1.051   8.825  0.4329 -0.1691  0.1733
 5039SOL    HW126750   4.095   0.965   8.855 -0.0604 -0.5179 -0.3436
 5039SOL    HW226751   4.005   1.078   8.894  0.3475  0.4743 -0.1555
 5040SOL     OW26752   2.211   0.800  14.934  0.0293 -0.3453 -0.3033
 5040SOL    HW126753   2.304   0.798  14.913  0.2589  2.0547  0.5083
 5040SOL    HW226754   2.182   0.741  14.865  0.1519  0.5597 -1.1339
 5041SOL     OW26755   2.477   1.902   7.013  0.0237 -0.1748  0.1697
 5041SOL    HW126756   2.390   1.864   7.030 -0.7808  2.5156  2.1518
 5041SOL    HW226757   2.456   1.994   7.026 -0.1889 -0.1999  0.0028
 5042SOL     OW26758   2.269   3.284  15.303 -0.0502 -0.1898 -0.0147
 5042SOL    HW126759   2.178   3.275  15.273 -0.0944 -0.1760  0.1119
 5042SOL    HW226760   2.255   3.262  15.395  0.0369  1.0102  0.2777
 5043SOL     OW26761   3.064   3.730  15.740  0.5203  0.1740 -0.0212
 5043SOL    HW126762   3.061   3.646  15.694 -0.0326  1.3934 -2.2066
 5043SOL    HW226763   3.099   3.792  15.676  0.5990 -0.7762 -0.8974
 5044SOL     OW26764   3.799   3.495   9.421  0.7247 -0.7364  0.5842
 5044SOL    HW126765   3.864   3.462   9.483 -0.2058 -3.0769  0.3339
 5044SOL    HW226766   3.844   3.572   9.387 -0.5822 -0.9567 -1.6302
 5045SOL     OW26767   3.195   0.165  17.712 -0.3194 -0.1795  0.2353
 5045SOL    HW126768   3.207   0.119  17.629  0.9181  1.0002 -0.2512
 5045SOL    HW226769   3.269   0.225  17.703 -1.0080  0.2884 -2.2555
 5046SOL     OW26770   0.080   2.921   2.668 -0.1482  0.7487 -0.3929
 5046SOL    HW126771   4.734   2.871   2.675 -0.8679  1.9967  0.2023
 5046SOL    HW226772   0.135   2.845   2.647  0.5823  1.0183  0.5283
 5047SOL     OW26773   2.336   0.674   6.997 -0.0051 -0.2502  0.1456
 5047SOL    HW126774   2.355   0.740   7.063 -1.1817 -1.2616  1.5045
 5047SOL    HW226775   2.309   0.600   7.052  0.6455  0.2115  1.0969
 5048SOL     OW26776   3.462   3.340  17.154  0.0072 -0.0085 -0.1022
 5048SOL    HW126777   3.505   3.351  17.239  2.2964  0.2314 -1.2757
 5048SOL    HW226778   3.531   3.296  17.103 -0.1781 -0.9147  0.4335
 5049SOL     OW26779   0.541   3.332  14.165 -0.0077  0.9507  0.1795
 5049SOL    HW126780   0.447   3.350  14.175 -0.3816 -0.7986 -0.1600
 5049SOL    HW226781   0.570   3.416  14.129 -2.3970  1.3711 -0.8188
 5050SOL     OW26782   1.052   0.587   3.602  0.0626 -0.0960  0.6635
 5050SOL    HW126783   1.107   0.548   3.534 -0.3018  1.6890 -0.6586
 5050SOL    HW226784   1.080   0.537   3.679  0.4334  0.5567  0.9503
 5051SOL     OW26785   2.998   4.569  12.910 -0.0103 -0.1399  0.4240
 5051SOL    HW126786   3.029   4.589  12.821  1.3077 -1.4145  0.5939
 5051SOL    HW226787   3.002   4.474  12.905  0.3012 -0.0804 -0.4538
 5052SOL     OW26788   2.453   4.064   3.647 -0.0862 -0.4134  0.4060
 5052SOL    HW126789   2.380   4.024   3.599  1.4396 -2.9743  0.2104
 5052SOL    HW226790   2.484   3.993   3.703  1.5210  0.8141  1.0726
 5053SOL     OW26791   2.760   4.536  10.358  0.2424  0.3917 -0.1700
 5053SOL    HW126792   2.771   4.505  10.268 -0.8747  0.4373 -0.3216
 5053SOL    HW226793   2.820   4.611  10.362  0.1668  0.4118  0.5500
 5054SOL     OW26794   1.720   0.406   3.496 -0.3652 -0.4624  0.8140
 5054SOL    HW126795   1.698   0.314   3.508 -0.9600 -0.1188  2.2892
 5054SOL    HW226796   1.702   0.453   3.578 -2.1001 -1.3191  0.9180
 5055SOL     OW26797   0.777   4.118   8.945 -0.4485  0.0383  0.5248
 5055SOL    HW126798   0.753   4.121   9.037 -0.1873  0.4036  0.5852
 5055SOL    HW226799   0.709   4.172   8.905  0.6639  0.6475 -0.5896
 5056SOL     OW26800   2.008   0.737  12.248  0.1058  0.0201 -0.1381
 5056SOL    HW126801   1.967   0.777  12.324 -1.0669  2.4955 -2.0791
 5056SOL    HW226802   2.101   0.729  12.271 -0.0756 -0.7054  0.3624
 5057SOL     OW26803   2.484   2.241  12.165  0.6523  0.1479  0.2531
 5057SOL    HW126804   2.482   2.199  12.079 -3.3890  0.1593  0.3515
 5057SOL    HW226805   2.573   2.222  12.196  0.9000 -0.7835 -0.9880
 5058SOL     OW26806   0.123   0.000  14.601 -0.6942 -0.1263  0.0971
 5058SOL    HW126807   0.062   0.012  14.527  2.3189  2.0460 -2.0315
 5058SOL    HW226808   0.190   4.695  14.546  0.3028 -1.0126  1.9692
 5059SOL     OW26809   3.601   2.229   5.288  0.5371  0.3197  0.0287
 5059SOL    HW126810   3.663   2.299   5.270  2.6295 -1.4762  0.1644
 5059SOL    HW226811   3.534   2.264   5.347 -0.3817  0.9638 -1.4187
 5060SOL     OW26812   2.719   1.154  15.090 -0.1970  0.0312 -0.3214
 5060SOL    HW126813   2.705   1.233  15.143  0.8265 -1.3374  2.0165
 5060SOL    HW226814   2.808   1.132  15.118  0.2764 -0.4636 -2.2799
 5061SOL     OW26815   2.955   0.155   9.764 -0.0464  0.5532 -0.7095
 5061SOL    HW126816   2.914   0.182   9.846  1.5497 -0.0316  0.2971
 5061SOL    HW226817   2.899   0.190   9.695  1.3210  0.0303 -2.0683
 5062SOL     OW26818   4.724   3.788   2.851 -0.4381 -0.2247  0.5080
 5062SOL    HW126819   4.712   3.726   2.780  1.8246 -0.9672  0.7614
 5062SOL    HW226820   0.066   3.753   2.896 -0.4851  0.3824  1.0671
 5063SOL     OW26821   1.240   1.170   9.226 -0.0504 -0.2540 -0.0598
 5063SOL    HW126822   1.154   1.137   9.199  0.0671 -1.1801  0.7000
 5063SOL    HW226823   1.290   1.091   9.209 -0.5565 -0.7739  0.8638
 5064SOL     OW26824   2.952   1.244   4.633  0.3813 -0.2663  0.5311
 5064SOL    HW126825   2.961   1.150   4.618 -1.6649 -0.4222  0.2558
 5064SOL    HW226826   2.866   1.255   4.673  0.0386 -0.1939 -0.2226
 5065SOL     OW26827   2.979   2.048  16.883  0.5537  0.0368 -0.4117
 5065SOL    HW126828   2.933   2.060  16.966 -2.0777  0.2987 -1.8917
 5065SOL    HW226829   2.974   2.135  16.845 -1.1001  0.8337  1.6644
 5066SOL     OW26830   2.428   3.029   5.747  0.0281 -0.1737 -0.6529
 5066SOL    HW126831   2.494   2.960   5.736  0.0024 -0.4131  0.7027
 5066SOL    HW226832   2.454   3.088   5.677 -3.0217  2.2819  0.2967
 5067SOL     OW26833   0.694   2.676  11.328  1.1291 -0.1308  0.0514
 5067SOL    HW126834   0.680   2.628  11.247 -1.6235  1.4845 -0.4125
 5067SOL    HW226835   0.641   2.755  11.316  1.4026  0.1274  0.5258
 5068SOL     OW26836   1.720   0.975   8.564 -0.3099 -0.1000 -0.5886
 5068SOL    HW126837   1.802   0.929   8.585 -1.1718 -1.4510 -0.1941
 5068SOL    HW226838   1.752   1.043   8.504  0.0541 -0.8371 -1.2295
 5069SOL     OW26839   3.318   2.774   6.865 -0.3044 -0.1566 -0.0717
 5069SOL    HW126840   3.258   2.847   6.851 -1.4964 -0.7297  2.0095
 5069SOL    HW226841   3.401   2.821   6.876 -0.5158 -0.1424  1.4462
 5070SOL     OW26842   3.685   0.738   3.745 -0.5089  0.4343  0.5728
 5070SOL    HW126843   3.756   0.801   3.732  0.5405 -0.9670 -0.4399
 5070SOL    HW226844   3.642   0.736   3.660 -0.6914  0.3464  0.6680
 5071SOL     OW26845   0.771   0.175   7.203 -0.2471  0.1603 -0.0146
 5071SOL    HW126846   0.776   0.141   7.293  1.9529 -1.8863 -0.9214
 5071SOL    HW226847   0.711   0.114   7.161 -1.3445  0.0858  1.6791
 5072SOL     OW26848   1.667   2.430   8.903 -0.0878 -0.7448 -0.3704
 5072SOL    HW126849   1.737   2.431   8.969 -0.9576  0.9231  0.5146
 5072SOL    HW226850   1.704   2.486   8.834 -1.2424 -1.0876 -1.2591
 5073SOL     OW26851   3.652   2.381   4.522 -0.2567 -0.0647  0.8217
 5073SOL    HW126852   3.731   2.390   4.575 -0.1878 -1.6307  0.9839
 5073SOL    HW226853   3.583   2.406   4.583  0.8656 -0.2400  2.1821
 5074SOL     OW26854   2.360   2.349   2.761 -0.5701 -0.0688  0.2825
 5074SOL    HW126855   2.308   2.401   2.822  1.1090 -1.2130  2.7130
 5074SOL    HW226856   2.445   2.345   2.804 -0.2978 -2.8367 -0.4877
 5075SOL     OW26857   4.040   3.796  17.372 -0.6261 -0.8239  0.3392
 5075SOL    HW126858   4.110   3.732  17.372  0.4457  0.3416  0.6932
 5075SOL    HW226859   4.038   3.800  17.276 -1.4968 -0.7557  0.3563
 5076SOL     OW26860   3.294   3.414   8.575 -0.2324  0.3270 -0.7855
 5076SOL    HW126861   3.261   3.436   8.662 -1.8358 -2.1457 -0.7727
 5076SOL    HW226862   3.266   3.324   8.558  0.2540  0.2208 -1.0192
 5077SOL     OW26863   1.458   0.411   1.959  0.4237 -0.1050 -0.3753
 5077SOL    HW126864   1.367   0.414   1.987 -0.0463 -1.2175 -1.7897
 5077SOL    HW226865   1.504   0.363   2.028 -1.3951  0.0141  0.8936
 5078SOL     OW26866   3.068   3.482   6.655  0.0022 -0.1520  0.1646
 5078SOL    HW126867   2.993   3.423   6.657 -2.0258  2.4953  1.1022
 5078SOL    HW226868   3.038   3.568   6.629 -1.2268 -0.9494 -1.0408
 5079SOL     OW26869   4.653   2.533  15.637  0.1665 -0.0366  0.3573
 5079SOL    HW126870   4.601   2.582  15.573  1.0961 -1.7304 -1.7110
 5079SOL    HW226871   4.723   2.488  15.589 -1.0157  1.0175 -2.3884
 5080SOL     OW26872   3.244   4.678   6.522  0.1286 -0.0857 -0.4636
 5080SOL    HW126873   3.195   0.021   6.548 -0.6589 -0.6890 -0.1379
 5080SOL    HW226874   3.198   4.621   6.583  0.7647  0.5847  0.6545
 5081SOL     OW26875   2.385   1.302   9.070  0.0323  0.2477 -0.5008
 5081SOL    HW126876   2.309   1.337   9.117 -0.3278 -1.8430  0.4852
 5081SOL    HW226877   2.425   1.378   9.027 -0.3828 -1.6928 -4.2513
 5082SOL     OW26878   2.283   1.825   2.677 -0.2534  0.1322  0.0053
 5082SOL    HW126879   2.188   1.835   2.668 -0.2705 -1.4747 -1.5675
 5082SOL    HW226880   2.294   1.790   2.766 -1.8205 -1.9238 -0.5953
 5083SOL     OW26881   2.083   2.394  12.643  0.4663  0.9866  0.5638
 5083SOL    HW126882   2.139   2.329  12.687 -1.0809 -1.1786 -0.6582
 5083SOL    HW226883   2.074   2.464  12.707  0.8568  0.9661  0.6411
 5084SOL     OW26884   3.792   1.186   9.877 -0.0982  0.5371 -0.4408
 5084SOL    HW126885   3.863   1.216   9.935  0.8805  0.6727 -1.7080
 5084SOL    HW226886   3.794   1.095   9.907  1.0265  0.4816 -0.6755
 5085SOL     OW26887   2.236   0.398   3.500  0.3839 -0.4754 -0.1913
 5085SOL    HW126888   2.182   0.415   3.577  3.0143 -0.7478  1.6953
 5085SOL    HW226889   2.180   0.407   3.423 -1.3216 -0.7299  1.0186
 5086SOL     OW26890   0.086   2.858   8.098 -0.5331 -0.4005  0.0946
 5086SOL    HW126891   0.098   2.953   8.099 -0.5475 -0.4222  1.4561
 5086SOL    HW226892   0.113   2.853   8.006 -1.7379 -0.8812 -0.2235
 5087SOL     OW26893   3.995   2.575  13.696  0.2969  0.5670 -0.0791
 5087SOL    HW126894   3.970   2.610  13.781  0.0004  1.1346 -0.3999
 5087SOL    HW226895   4.089   2.572  13.675 -0.1709 -1.7982 -1.8832
 5088SOL     OW26896   2.592   4.676   3.556  0.1597  0.2633  0.0754
 5088SOL    HW126897   2.574   4.699   3.648 -1.1374  2.4727 -0.7124
 5088SOL    HW226898   2.525   4.724   3.507  0.5071 -1.6744 -2.2692
 5089SOL     OW26899   3.813   0.258   4.821 -0.5462 -0.4219 -0.5525
 5089SOL    HW126900   3.852   0.271   4.908 -0.2444  0.7919 -0.8743
 5089SOL    HW226901   3.720   0.240   4.831 -0.3664 -0.3731  1.2953
 5090SOL     OW26902   0.816   0.464   0.146 -0.9837  0.4230 -0.3689
 5090SOL    HW126903   0.810   0.455   0.051  3.1437  0.5610 -0.6166
 5090SOL    HW226904   0.906   0.438   0.164 -0.7540 -0.0240 -2.2560
 5091SOL     OW26905   3.872   3.003  13.765 -0.4215 -0.4792 -0.2716
 5091SOL    HW126906   3.787   3.048  13.765 -0.1490  0.0357  3.9025
 5091SOL    HW226907   3.858   2.939  13.696  1.6413  2.0491 -3.0547
 5092SOL     OW26908   3.381   3.453   9.120 -0.5294 -0.6894 -0.1994
 5092SOL    HW126909   3.319   3.513   9.161  1.7453  0.3545  1.7730
 5092SOL    HW226910   3.450   3.446   9.187  0.1906 -1.1294 -0.9876
 5093SOL     OW26911   4.144   1.638  11.907 -0.1201 -0.1240  0.0197
 5093SOL    HW126912   4.156   1.610  11.997 -1.8602  0.4737  0.4417
 5093SOL    HW226913   4.049   1.627  11.895 -0.2938 -0.4605  1.7529
 5094SOL     OW26914   4.608   2.426   6.084  0.1322 -0.0677  0.3877
 5094SOL    HW126915   4.633   2.463   5.998 -2.7437 -1.8663 -1.2067
 5094SOL    HW226916   4.513   2.437   6.086  0.2522  0.8412  1.1008
 5095SOL     OW26917   4.295   0.656  14.909  0.4160 -0.5524 -0.1272
 5095SOL    HW126918   4.263   0.601  14.981  0.0499  1.1815  1.0345
 5095SOL    HW226919   4.383   0.679  14.940  0.1739  1.3947 -0.8815
 5096SOL     OW26920   2.455   3.429  14.030 -0.6528 -0.3072 -0.2505
 5096SOL    HW126921   2.482   3.420  14.122  2.0057 -0.8163 -1.0972
 5096SOL    HW226922   2.436   3.523  14.025 -1.0919 -0.3388  0.6817
 5097SOL     OW26923   2.341   3.194   8.024 -0.0763 -0.6232 -0.6288
 5097SOL    HW126924   2.358   3.279   8.064  0.0233 -0.2168 -1.5150
 5097SOL    HW226925   2.428   3.155   8.030 -0.4591 -1.5226 -0.8706
 5098SOL     OW26926   3.045   3.123   3.437 -0.1712 -0.4225 -0.0485
 5098SOL    HW126927   3.080   3.211   3.425  1.0389 -1.3887 -3.4836
 5098SOL    HW226928   3.102   3.075   3.498 -0.6517  1.5694  1.9709
 5099SOL     OW26929   0.826   0.352  13.532  0.3652 -1.2999 -0.6284
 5099SOL    HW126930   0.782   0.269  13.549  2.0515 -2.0121  0.2171
 5099SOL    HW226931   0.752   0.409  13.509  0.4704 -1.3225 -1.0202
 5100SOL     OW26932   3.530   0.668   3.152  0.0357 -0.0088  0.2748
 5100SOL    HW126933   3.513   0.632   3.065  1.0039  0.6011 -0.1573
 5100SOL    HW226934   3.621   0.641   3.163  0.0093  0.3499  1.4439
 5101SOL     OW26935   2.112   4.649   4.727 -0.3861  0.1498 -0.7185
 5101SOL    HW126936   2.054   4.708   4.775  1.1195  0.7480  0.3642
 5101SOL    HW226937   2.100   4.576   4.787  1.8390 -1.2045 -1.9228
 5102SOL     OW26938   4.026   1.841   7.704  0.3321  0.1690 -1.3516
 5102SOL    HW126939   3.935   1.839   7.673  0.3470 -1.6795 -1.2800
 5102SOL    HW226940   4.065   1.825   7.618  2.0335 -1.5395 -0.2682
 5103SOL     OW26941   0.191   0.113   5.771  0.3927 -0.6045  0.2247
 5103SOL    HW126942   0.275   0.159   5.768  1.6924 -3.0803 -1.4555
 5103SOL    HW226943   0.136   0.177   5.817  2.3666 -0.7758  2.7497
 5104SOL     OW26944   1.897   3.126   2.996  0.2756 -0.6437 -0.3491
 5104SOL    HW126945   1.986   3.151   2.971  0.2807  1.8882  2.0838
 5104SOL    HW226946   1.864   3.111   2.908 -0.5395 -2.4397  0.2714
 5105SOL     OW26947   0.324   4.633  14.483  0.5951 -0.1422 -0.3841
 5105SOL    HW126948   0.405   4.612  14.529 -0.5054 -0.1468  1.5787
 5105SOL    HW226949   0.337   4.572  14.410  1.9233 -0.4711  0.1222
 5106SOL     OW26950   1.402   0.068   8.167  0.8455  0.6427  0.2814
 5106SOL    HW126951   1.357   0.134   8.113  2.1264  1.9835  0.8447
 5106SOL    HW226952   1.488   0.109   8.160 -0.0721  2.5983  0.4261
 5107SOL     OW26953   4.733   1.067  15.432 -0.0084 -0.3219 -0.2586
 5107SOL    HW126954   4.704   1.153  15.463  0.7543  0.0526 -0.5961
 5107SOL    HW226955   0.065   1.098  15.372 -0.4547  2.9491  0.9342
 5108SOL     OW26956   3.086   2.789  17.083  0.2138  0.4952  0.1558
 5108SOL    HW126957   3.175   2.808  17.114  0.2435  0.3260  0.1722
 5108SOL    HW226958   3.058   2.879  17.066 -0.0141  0.2582 -0.7164
 5109SOL     OW26959   1.325   4.093   6.475  0.1394  0.4107 -0.3481
 5109SOL    HW126960   1.405   4.061   6.434 -0.7380  0.0338 -1.7715
 5109SOL    HW226961   1.256   4.049   6.424 -1.1382  0.3311  1.4311
 5110SOL     OW26962   0.210   4.477  11.677  0.0637 -0.0002  0.2404
 5110SOL    HW126963   0.253   4.549  11.631 -0.7504 -1.6361 -3.0913
 5110SOL    HW226964   0.286   4.428  11.708 -0.7475 -0.9696  0.6826
 5111SOL     OW26965   3.433   0.807   0.162  0.3506  0.4421  0.0941
 5111SOL    HW126966   3.425   0.899   0.137  1.2226 -0.4632 -3.6378
 5111SOL    HW226967   3.346   0.767   0.171 -0.0241  1.1488 -0.4141
 5112SOL     OW26968   1.179   0.020   5.879  0.0917 -0.2856  0.1433
 5112SOL    HW126969   1.093   0.057   5.858  0.2134  0.1019  0.3170
 5112SOL    HW226970   1.166   4.699   5.955 -1.7622  0.1771  0.1747
 5113SOL     OW26971   4.555   4.719  15.307  0.3040 -0.2858 -0.1886
 5113SOL    HW126972   4.498   0.057  15.328  1.3862  0.5909 -0.2768
 5113SOL    HW226973   4.641   0.015  15.334  1.0017 -2.0334 -0.3950
 5114SOL     OW26974   2.455   4.154  16.817  0.7803 -0.1790  0.1715
 5114SOL    HW126975   2.440   4.167  16.910 -2.2209 -0.9614 -0.2064
 5114SOL    HW226976   2.419   4.235  16.782  0.4253  0.1878  1.4176
 5115SOL     OW26977   1.691   3.616   5.904 -0.2492  0.0341  0.7165
 5115SOL    HW126978   1.782   3.598   5.880 -0.1080 -0.2990  1.4991
 5115SOL    HW226979   1.631   3.562   5.854  1.3949 -1.7391  0.6830
 5116SOL     OW26980   0.766   0.228   6.383  0.5465  0.1121 -0.1517
 5116SOL    HW126981   0.822   0.304   6.395 -1.4173  1.7615 -1.3974
 5116SOL    HW226982   0.828   0.166   6.345  1.6280 -0.0700  1.9081
 5117SOL     OW26983   1.002   2.341   3.647 -0.0120  0.4083  0.0909
 5117SOL    HW126984   0.909   2.364   3.646 -0.1361 -0.1443 -0.4535
 5117SOL    HW226985   1.022   2.362   3.739  2.2873 -0.1732 -0.2888
 5118SOL     OW26986   0.479   3.421   6.678  0.5549 -0.6889  0.2599
 5118SOL    HW126987   0.496   3.400   6.586  1.6344  2.0110 -0.1585
 5118SOL    HW226988   0.531   3.501   6.689 -0.8783  0.2187  0.3494
 5119SOL     OW26989   2.047   0.088   2.324  0.5265  0.0370  0.0377
 5119SOL    HW126990   1.970   0.046   2.286 -0.1028 -0.0624  1.4115
 5119SOL    HW226991   2.019   0.088   2.416  2.2119  1.1772  0.5521
 5120SOL     OW26992   0.376   1.103  11.867  0.1248  0.2326  0.0136
 5120SOL    HW126993   0.282   1.093  11.852  0.7770  0.1777 -4.1011
 5120SOL    HW226994   0.376   1.149  11.951 -3.5620 -1.4154  0.9398
 5121SOL     OW26995   1.384   2.513   3.973  0.2105  0.1593  0.2327
 5121SOL    HW126996   1.386   2.582   4.040 -1.5476  0.9706 -0.5645
 5121SOL    HW226997   1.414   2.443   4.031  0.1997 -0.9207 -1.0575
 5122SOL     OW26998   2.131   4.181  12.872  0.2259  0.3993 -0.2030
 5122SOL    HW126999   2.174   4.171  12.787  0.6067 -2.8388  0.3705
 5122SOL    HW227000   2.083   4.263  12.863  0.2999  0.4539 -0.0884
 5123SOL     OW27001   3.652   0.894  10.356 -0.1499  0.1484 -0.2768
 5123SOL    HW127002   3.606   0.944  10.424 -0.4388  0.2655 -0.5600
 5123SOL    HW227003   3.586   0.894  10.287  0.2759 -1.4151 -0.6807
 5124SOL     OW27004   0.585   4.518   9.181 -0.2176  0.0334  0.4631
 5124SOL    HW127005   0.679   4.528   9.167 -0.3868  1.1786  0.1171
 5124SOL    HW227006   0.560   4.608   9.159 -0.1187 -0.6288 -2.4194
 5125SOL     OW27007   3.608   4.263   6.310 -0.1596 -0.2282  0.1279
 5125SOL    HW127008   3.586   4.183   6.359  0.5719 -0.0990  0.6687
 5125SOL    HW227009   3.561   4.327   6.363  0.2680  0.6862 -0.6056
 5126SOL     OW27010   2.489   0.274   2.864  0.4465  0.4456 -0.0670
 5126SOL    HW127011   2.581   0.251   2.876  0.5613  0.5398 -0.7484
 5126SOL    HW227012   2.487   0.367   2.842  0.4764  0.4467 -0.0651
 5127SOL     OW27013   0.889   1.683   4.932 -0.4329  0.5814  0.1175
 5127SOL    HW127014   0.831   1.633   4.988  0.5542 -1.9961 -1.1811
 5127SOL    HW227015   0.932   1.609   4.889 -1.3751  0.4385 -0.5772
 5128SOL     OW27016   2.222   3.503   7.777 -0.1714  0.1272 -0.0990
 5128SOL    HW127017   2.314   3.525   7.763  0.5535 -1.0861  2.7824
 5128SOL    HW227018   2.188   3.592   7.771 -2.0779 -0.7312 -2.2965
 5129SOL     OW27019   0.303   4.556   4.698  0.0221  0.0499  0.4155
 5129SOL    HW127020   0.301   4.559   4.602 -1.1106 -0.9477  0.4038
 5129SOL    HW227021   0.383   4.503   4.705 -0.2186 -0.6971 -2.1620
 5130SOL     OW27022   3.632   3.282   4.233 -0.3810 -0.1118  0.1168
 5130SOL    HW127023   3.622   3.377   4.230 -1.1444 -0.1852  0.3313
 5130SOL    HW227024   3.600   3.247   4.149  0.8942 -0.2873 -0.2866
 5131SOL     OW27025   2.968   1.449   5.661 -0.1047 -0.3258 -0.5036
 5131SOL    HW127026   2.920   1.500   5.596 -1.0019 -2.4073 -1.4777
 5131SOL    HW227027   3.021   1.400   5.597  0.1677  0.1314 -0.6286
 5132SOL     OW27028   1.764   2.266  10.949 -0.7689  0.4150 -0.3233
 5132SOL    HW127029   1.763   2.292  11.041  0.4141  1.8972 -0.7381
 5132SOL    HW227030   1.723   2.180  10.964  0.7140 -0.4673 -1.3873
 5133SOL     OW27031   1.896   4.585   8.097 -0.0167  0.6886 -0.5759
 5133SOL    HW127032   1.944   4.531   8.160 -1.7099 -0.5651 -0.3609
 5133SOL    HW227033   1.864   4.652   8.158  1.4817  0.2294  0.7323
 5134SOL     OW27034   4.172   0.407  15.441 -0.2012 -0.2602 -0.7659
 5134SOL    HW127035   4.153   0.336  15.379 -0.7611  0.8590 -1.8855
 5134SOL    HW227036   4.264   0.429  15.425  0.2677 -0.7493  1.3392
 5135SOL     OW27037   2.940   0.235  11.308  0.7435  0.0897 -0.1536
 5135SOL    HW127038   3.028   0.260  11.335 -0.2914  2.2409  1.2242
 5135SOL    HW227039   2.929   0.276  11.222  1.0411 -0.8697 -0.6406
 5136SOL     OW27040   0.957   3.706  13.554 -0.0249  0.1849 -0.2955
 5136SOL    HW127041   0.984   3.615  13.543 -0.2953  0.0142  0.4324
 5136SOL    HW227042   0.998   3.741  13.475  0.1428 -0.1494 -0.3535
 5137SOL     OW27043   2.406   1.558   2.249 -0.4275 -0.5679  0.2937
 5137SOL    HW127044   2.361   1.633   2.211  0.7151 -0.1390 -0.2216
 5137SOL    HW227045   2.440   1.582   2.335  0.1968 -2.9524  0.7203
 5138SOL     OW27046   0.708   0.267   8.767 -0.5122  0.4085 -0.1114
 5138SOL    HW127047   0.738   0.181   8.737 -0.7341  0.5468 -0.7253
 5138SOL    HW227048   0.781   0.275   8.828 -1.6071 -0.7384  1.3731
 5139SOL     OW27049   3.603   4.379   3.389 -0.2136  0.3056  0.3173
 5139SOL    HW127050   3.586   4.427   3.308  1.8956  1.7870  0.7529
 5139SOL    HW227051   3.536   4.313   3.371 -3.0677  2.4987  2.8068
 5140SOL     OW27052   3.577   0.694   9.115 -0.3878  0.0207 -0.0287
 5140SOL    HW127053   3.544   0.712   9.203  2.3102  2.5359  0.5015
 5140SOL    HW227054   3.545   0.608   9.089 -0.9260  0.3581 -0.4778
 5141SOL     OW27055   0.946   4.527  15.944 -0.3809  0.1686  0.5146
 5141SOL    HW127056   0.992   4.563  16.020 -2.9882  2.1925  1.0900
 5141SOL    HW227057   0.986   4.440  15.942 -0.9084 -0.0537 -0.1280
 5142SOL     OW27058   3.450   2.386   4.971 -0.1351 -0.4890 -0.4008
 5142SOL    HW127059   3.407   2.472   4.966 -1.5097 -1.0976  0.9702
 5142SOL    HW227060   3.538   2.414   4.996 -0.0538 -1.1221  0.0153
 5143SOL     OW27061   1.439   3.695   4.778  0.5440 -0.5803  0.5360
 5143SOL    HW127062   1.419   3.770   4.833 -2.6350 -0.5116 -0.7176
 5143SOL    HW227063   1.514   3.734   4.733  0.4696 -0.7607  0.2566
 5144SOL     OW27064   3.944   1.153  13.605  0.4732 -0.6231 -0.0955
 5144SOL    HW127065   3.945   1.249  13.605 -0.5948 -0.6116  1.4551
 5144SOL    HW227066   3.939   1.138  13.699  2.2896  1.8948  0.4111
 5145SOL     OW27067   3.150   2.665   1.890 -0.9749 -0.3350 -0.5451
 5145SOL    HW127068   3.066   2.623   1.906 -0.1692 -1.1018  1.7221
 5145SOL    HW227069   3.213   2.597   1.913 -1.3362 -0.0268  1.3723
 5146SOL     OW27070   1.725   4.192   5.398  0.3611 -0.1188  0.5786
 5146SOL    HW127071   1.809   4.172   5.439  0.7674  2.3991  1.0208
 5146SOL    HW227072   1.666   4.217   5.470  1.5635  0.8291  1.2470
 5147SOL     OW27073   2.606   1.812  11.529 -0.1046 -0.7147  0.7380
 5147SOL    HW127074   2.579   1.798  11.620 -1.9676 -2.3354 -0.0644
 5147SOL    HW227075   2.543   1.751  11.491  0.7742 -1.0626 -0.1421
 5148SOL     OW27076   2.625   4.353  16.734  0.0679  0.0896  0.0424
 5148SOL    HW127077   2.583   4.342  16.649 -0.3397 -0.4369  0.3122
 5148SOL    HW227078   2.638   4.266  16.773  0.9770  0.8656  1.5064
 5149SOL     OW27079   0.433   3.185  17.014  0.2257  0.1795 -0.2938
 5149SOL    HW127080   0.395   3.258  17.062 -0.2945  0.1577 -0.6728
 5149SOL    HW227081   0.361   3.135  16.976  0.6951 -1.8324  1.4305
 5150SOL     OW27082   3.195   2.220   2.532  0.3209  1.5009  0.7023
 5150SOL    HW127083   3.260   2.288   2.516  0.1814  1.6060  0.5947
 5150SOL    HW227084   3.211   2.163   2.457 -0.7831  0.9108  0.9027
 5151SOL     OW27085   2.532   2.140   3.360  0.3984 -0.2240 -0.4212
 5151SOL    HW127086   2.527   2.047   3.383 -0.6170  0.8559  3.6384
 5151SOL    HW227087   2.448   2.177   3.333  0.8781 -0.0716 -1.7205
 5152SOL     OW27088   3.224   2.728   1.639 -0.4373  0.3838 -0.2263
 5152SOL    HW127089   3.172   2.661   1.595  2.3467 -2.0106  0.1555
 5152SOL    HW227090   3.214   2.702   1.731 -0.0317  1.9816  0.2732
 5153SOL     OW27091   2.662   0.104   6.669 -0.1023 -0.1379  0.1963
 5153SOL    HW127092   2.747   0.084   6.710 -0.8169 -0.2212  1.6210
 5153SOL    HW227093   2.692   0.169   6.606  0.2958 -0.4747  0.0343
 5154SOL     OW27094   3.193   2.081   2.273 -0.2442 -0.6061  0.1636
 5154SOL    HW127095   3.204   2.172   2.247 -1.0712 -0.7069 -0.5208
 5154SOL    HW227096   3.195   2.038   2.187  1.1622 -0.8582  0.3111
 5155SOL     OW27097   4.263   2.341   6.938  0.1312  0.4783  0.3513
 5155SOL    HW127098   4.296   2.271   6.881  1.8921 -1.3835  3.6734
 5155SOL    HW227099   4.322   2.403   6.896 -1.1518  0.3874 -1.6273
 5156SOL     OW27100   4.564   0.285   3.695  0.3347 -0.5119 -0.9778
 5156SOL    HW127101   4.482   0.330   3.715  0.0536 -2.8372  3.0768
 5156SOL    HW227102   4.576   0.305   3.602 -0.9479 -1.0583 -1.2575
 5157SOL     OW27103   0.845   1.440   3.015 -0.0993  0.4998  0.1186
 5157SOL    HW127104   0.885   1.468   2.933 -0.7926 -0.0749 -0.4242
 5157SOL    HW227105   0.834   1.531   3.041 -0.7615  0.6155 -0.5416
 5158SOL     OW27106   3.579   2.796   6.992 -0.3024 -0.3223 -0.2693
 5158SOL    HW127107   3.567   2.879   7.037  3.0094 -0.4593  0.8722
 5158SOL    HW227108   3.672   2.791   7.015 -0.4458  0.5075  0.5064
 5159SOL     OW27109   1.565   1.822   7.908  0.1823 -1.0371 -0.2341
 5159SOL    HW127110   1.572   1.902   7.960  1.3857 -2.3644  1.6443
 5159SOL    HW227111   1.472   1.805   7.923  0.1907 -1.5837 -0.8379
 5160SOL     OW27112   1.166   3.738   6.989 -0.0602  0.4368  1.1635
 5160SOL    HW127113   1.114   3.679   6.934  0.1714  0.6230  0.7433
 5160SOL    HW227114   1.124   3.820   6.962 -1.9799 -1.4462 -1.5295
 5161SOL     OW27115   2.059   2.117   1.784  0.4282  0.1168  0.0672
 5161SOL    HW127116   2.115   2.042   1.806  0.9241  0.5251  0.2036
 5161SOL    HW227117   2.112   2.180   1.735 -0.3494  1.0973  0.4932
 5162SOL     OW27118   4.494   2.620   6.963  0.0177 -0.4926  0.0501
 5162SOL    HW127119   4.440   2.690   6.927  1.3047  0.0682 -0.8030
 5162SOL    HW227120   4.563   2.594   6.903  2.5876  2.3528  1.7718
 5163SOL     OW27121   0.360   1.266   3.686  0.4918 -0.2731  0.5579
 5163SOL    HW127122   0.390   1.204   3.753 -0.3813  0.8849  1.9935
 5163SOL    HW227123   0.270   1.272   3.717  0.2945 -1.6236  0.2660
 5164SOL     OW27124   2.526   1.645   4.290  0.8292  0.6182  0.8497
 5164SOL    HW127125   2.522   1.734   4.256 -2.6875 -0.7775 -2.3112
 5164SOL    HW227126   2.577   1.597   4.223 -0.3099 -0.4062  0.7249
 5165SOL     OW27127   3.323   1.346   8.466  0.3303 -0.3211 -0.3962
 5165SOL    HW127128   3.407   1.348   8.421  0.5246 -1.3533 -0.0851
 5165SOL    HW227129   3.267   1.316   8.395 -1.4161  0.7430  0.5317
 5166SOL     OW27130   4.126   1.467   6.868 -0.2160  0.2842  0.3881
 5166SOL    HW127131   4.096   1.492   6.956 -0.1750 -1.7452  0.9663
 5166SOL    HW227132   4.109   1.373   6.873 -3.9049  0.8541 -1.0231
 5167SOL     OW27133   0.656   3.623   1.630  0.6361 -0.3085 -0.4395
 5167SOL    HW127134   0.571   3.637   1.672  0.1896  2.2442 -2.1856
 5167SOL    HW227135   0.634   3.543   1.583  0.4483 -0.7005  0.3127
 5168SOL     OW27136   2.084   1.174   1.593  0.1168  0.4799  0.2417
 5168SOL    HW127137   2.100   1.098   1.649 -0.2628  0.2193 -0.0028
 5168SOL    HW227138   2.071   1.141   1.504  2.3767  0.0256  0.0758
 5169SOL     OW27139   1.525   4.118   8.627  0.1443 -0.1843  0.3077
 5169SOL    HW127140   1.467   4.120   8.703 -0.4455 -1.7804 -0.1045
 5169SOL    HW227141   1.521   4.024   8.608 -0.2910 -0.5969  2.4014
 5170SOL     OW27142   3.862   2.785  14.696 -0.1717  0.3862 -0.1113
 5170SOL    HW127143   3.849   2.723  14.768  4.6284  1.2838  1.5977
 5170SOL    HW227144   3.919   2.844  14.746  0.7997 -2.2175  1.8720
 5171SOL     OW27145   4.197   0.680  14.632 -0.2521 -0.1538 -0.2928
 5171SOL    HW127146   4.108   0.645  14.640 -0.0105 -0.9866 -1.2082
 5171SOL    HW227147   4.222   0.657  14.721  0.1369 -1.8921 -0.8493
 5172SOL     OW27148   4.123   0.083  17.597  0.4973 -0.2344  0.6540
 5172SOL    HW127149   4.076   0.131  17.528  0.4397 -0.8436  0.2617
 5172SOL    HW227150   4.070   0.005  17.613  0.0446  0.0173  0.3910
 5173SOL     OW27151   3.873   3.577   7.958 -0.5649  0.0740 -0.3685
 5173SOL    HW127152   3.924   3.655   7.938  2.5897 -1.9858 -0.4041
 5173SOL    HW227153   3.938   3.507   7.965 -2.2009 -1.2470  1.5847
 5174SOL     OW27154   0.364   3.275  16.456  0.0946  0.5528 -0.0539
 5174SOL    HW127155   0.454   3.295  16.483  0.3209 -1.3843  0.6240
 5174SOL    HW227156   0.364   3.181  16.469 -2.0956  0.8010  1.7489
 5175SOL     OW27157   2.895   3.059   1.745  0.1271 -0.3988  0.5156
 5175SOL    HW127158   2.964   3.123   1.763  0.4736 -0.6733  0.1830
 5175SOL    HW227159   2.814   3.107   1.763  0.3687  1.0249 -2.1732
 5176SOL     OW27160   1.332   3.792   9.012  0.0653 -0.2197 -0.5551
 5176SOL    HW127161   1.318   3.698   9.002 -0.2333 -0.2704  0.3730
 5176SOL    HW227162   1.278   3.803   9.090  0.7100  0.9832 -0.2868
 5177SOL     OW27163   4.365   2.159  10.358 -0.0004  0.0128  0.2970
 5177SOL    HW127164   4.435   2.095  10.371 -1.3845 -1.2002  1.7907
 5177SOL    HW227165   4.338   2.180  10.447 -2.2414 -0.7960 -0.1827
 5178SOL     OW27166   0.584   2.557  11.120  0.0659 -0.5626  0.2214
 5178SOL    HW127167   0.550   2.483  11.171 -2.4036  0.6469  0.3321
 5178SOL    HW227168   0.574   2.522  11.031 -0.0420  0.0620 -0.0082
 5179SOL     OW27169   3.865   4.672   2.944  0.3234 -0.6224 -0.1268
 5179SOL    HW127170   3.869   4.730   2.868  0.2746 -0.3802  0.0557
 5179SOL    HW227171   3.817   4.729   3.005 -2.4801 -2.5312 -0.5231
 5180SOL     OW27172   1.983   2.152   8.374 -0.8482  0.3270 -0.3348
 5180SOL    HW127173   2.048   2.095   8.334 -0.6259  1.1129 -1.0804
 5180SOL    HW227174   1.977   2.106   8.458 -0.1730 -2.2329 -1.7092
 5181SOL     OW27175   1.171   3.111   6.135 -0.0343 -0.2254  0.6650
 5181SOL    HW127176   1.079   3.087   6.147  0.3353 -1.1813  1.5697
 5181SOL    HW227177   1.210   3.031   6.170  1.2969 -0.4726 -1.3508
 5182SOL     OW27178   0.616   2.067   2.704 -0.5846 -0.1893  0.3332
 5182SOL    HW127179   0.530   2.109   2.698 -0.6981 -0.6383 -1.2329
 5182SOL    HW227180   0.635   2.084   2.797 -1.8576  0.8710  0.3988
 5183SOL     OW27181   3.557   3.504   7.344 -0.5298 -0.0695  0.0136
 5183SOL    HW127182   3.527   3.585   7.384 -1.9190  0.7227 -2.6371
 5183SOL    HW227183   3.596   3.534   7.261  0.0443 -0.7774  0.0212
 5184SOL     OW27184   3.015   3.403  16.632  0.0574 -0.4396 -0.2116
 5184SOL    HW127185   2.954   3.389  16.560  0.3882 -2.2735 -0.1187
 5184SOL    HW227186   2.961   3.448  16.697 -1.0986 -0.0622 -1.4223
 5185SOL     OW27187   3.299   3.216  10.461  0.1363  0.0505  0.1419
 5185SOL    HW127188   3.367   3.281  10.477 -2.1102  2.8892 -1.8880
 5185SOL    HW227189   3.275   3.240  10.372  1.2098  0.7195  0.0284
 5186SOL     OW27190   2.050   1.214  12.050  0.3877 -0.4926 -0.4087
 5186SOL    HW127191   2.007   1.201  11.966  1.6003 -0.2736 -1.0651
 5186SOL    HW227192   2.003   1.143  12.092  2.1174 -1.3145  0.1213
 5187SOL     OW27193   3.191   1.566   3.265 -0.2525  0.2114 -0.5525
 5187SOL    HW127194   3.157   1.521   3.187  0.4836  0.1083 -0.8187
 5187SOL    HW227195   3.125   1.633   3.280 -0.0883 -0.3785  2.8170
 5188SOL     OW27196   2.558   0.382   4.728  0.3230  0.1233 -0.5618
 5188SOL    HW127197   2.497   0.455   4.714  0.6079  0.5153  0.2596
 5188SOL    HW227198   2.596   0.374   4.641  1.4814 -1.2594  0.0615
 5189SOL     OW27199   4.617   0.324  16.497 -0.0576  0.1443  0.2186
 5189SOL    HW127200   4.551   0.370  16.445  0.8896  0.2878 -0.8762
 5189SOL    HW227201   4.687   0.388  16.486 -0.1796 -0.1471 -2.3615
 5190SOL     OW27202   4.431   0.885   3.758 -0.2136  0.2518  0.6984
 5190SOL    HW127203   4.374   0.953   3.722 -0.2602 -0.5013 -0.6165
 5190SOL    HW227204   4.481   0.940   3.819 -0.5683  0.7873  0.5045
 5191SOL     OW27205   3.027   4.326   5.731  0.1920  0.0763 -0.1149
 5191SOL    HW127206   2.978   4.246   5.717  0.7355  0.0048 -1.5612
 5191SOL    HW227207   3.011   4.349   5.823 -0.7572 -4.3989  0.8209
 5192SOL     OW27208   3.162   0.727  13.537 -0.2750  0.2038 -0.1051
 5192SOL    HW127209   3.130   0.647  13.579  2.6766 -0.1471  1.5068
 5192SOL    HW227210   3.091   0.788  13.557 -0.1138  0.9126 -1.6697
 5193SOL     OW27211   3.657   0.582   6.032 -0.4110  0.2379  0.3740
 5193SOL    HW127212   3.681   0.661   6.081 -0.6109  1.2885 -1.2174
 5193SOL    HW227213   3.728   0.527   6.065  1.0376  1.9679  0.1716
 5194SOL     OW27214   3.409   1.705   3.345 -0.6426 -0.1470  0.2746
 5194SOL    HW127215   3.339   1.646   3.316  0.2737 -0.1393 -1.9771
 5194SOL    HW227216   3.429   1.672   3.432 -1.5348 -2.1369 -0.2764
 5195SOL     OW27217   1.568   4.353   7.634  0.8446  0.0360  0.2073
 5195SOL    HW127218   1.575   4.281   7.696 -1.4968 -0.4218 -0.0869
 5195SOL    HW227219   1.473   4.354   7.628  1.0574  0.5796 -3.6160
 5196SOL     OW27220   1.581   4.000   4.387 -0.2376  0.4594 -0.5927
 5196SOL    HW127221   1.494   4.028   4.359 -0.2691  1.3444  0.4163
 5196SOL    HW227222   1.627   4.083   4.378  0.5004  0.3443  2.1552
 5197SOL     OW27223   1.849   3.444   6.951 -0.0960 -0.2876 -0.0025
 5197SOL    HW127224   1.848   3.486   6.865 -2.1010  2.0416  1.1409
 5197SOL    HW227225   1.881   3.514   7.007 -0.4576 -0.5005  0.4693
 5198SOL     OW27226   4.727   1.621   4.753 -0.7049 -0.0835 -0.5134
 5198SOL    HW127227   4.716   1.528   4.770 -0.9637  0.1792  0.7624
 5198SOL    HW227228   4.692   1.634   4.665  0.0045  1.5751 -0.5604
 5199SOL     OW27229   3.344   3.937   1.950  0.2405 -0.1424  0.2896
 5199SOL    HW127230   3.359   4.027   1.921  3.0265 -0.6641  0.2074
 5199SOL    HW227231   3.276   3.906   1.890 -0.4093  0.8214  0.5209
 5200SOL     OW27232   3.381   1.285   7.576  0.1956  0.1416 -0.0878
 5200SOL    HW127233   3.368   1.325   7.662  1.3236 -0.9442  0.5859
 5200SOL    HW227234   3.306   1.227   7.561  0.9055 -1.7473  3.7911
 5201SOL     OW27235   4.166   3.902  14.351  0.3786  0.5169  0.1128
 5201SOL    HW127236   4.139   3.982  14.396 -1.0938  0.1664 -0.1399
 5201SOL    HW227237   4.192   3.942  14.267  3.6244  1.1546  1.4072
 5202SOL     OW27238   0.303   2.721   4.836  0.3830 -0.1968  0.3106
 5202SOL    HW127239   0.224   2.680   4.803 -1.7601  3.1164  1.2909
 5202SOL    HW227240   0.362   2.719   4.761 -0.5828 -1.3482 -0.4163
 5203SOL     OW27241   2.892   3.680  16.783 -0.2981 -0.0178  0.1067
 5203SOL    HW127242   2.811   3.724  16.809 -0.6511  1.2629 -3.1700
 5203SOL    HW227243   2.863   3.589  16.788  0.9999 -0.4320  0.1782
 5204SOL     OW27244   1.993   4.722   7.093  0.1356 -0.3410  0.9647
 5204SOL    HW127245   1.991   0.014   7.185  0.2968  1.1855  0.5155
 5204SOL    HW227246   2.082   0.016   7.072  0.1427 -1.4443 -0.5127
 5205SOL     OW27247   4.681   3.617   6.974  0.0937 -0.3122  0.3645
 5205SOL    HW127248   4.629   3.581   6.902 -0.3332  2.0292 -0.5248
 5205SOL    HW227249   0.027   3.567   6.981  0.5360  0.6757  2.3270
 5206SOL     OW27250   4.687   2.536  13.571  0.4126 -0.5236  0.4152
 5206SOL    HW127251   4.637   2.613  13.545  0.5554 -0.5553  0.0541
 5206SOL    HW227252   4.664   2.517  13.662  0.5067 -2.4926  0.0274
 5207SOL     OW27253   1.861   2.531  10.884  0.1518  0.0030 -0.2700
 5207SOL    HW127254   1.860   2.435  10.883  0.1110 -0.0036  1.2400
 5207SOL    HW227255   1.915   2.543  10.963 -0.5332  3.6630 -0.3730
 5208SOL     OW27256   2.137   3.178  13.055  0.1430 -0.0525  0.2567
 5208SOL    HW127257   2.066   3.210  13.000  0.5723  0.1549 -0.1820
 5208SOL    HW227258   2.211   3.219  13.010 -0.8629  1.1821 -0.2840
 5209SOL     OW27259   0.919   3.145   5.082  0.3456 -0.4838 -0.3119
 5209SOL    HW127260   0.953   3.201   5.012  2.5907  0.0421  1.2003
 5209SOL    HW227261   0.935   3.202   5.157 -0.4747  0.6862 -1.0233
 5210SOL     OW27262   4.086   0.074   6.933  0.4875 -0.3616 -0.0043
 5210SOL    HW127263   4.140   4.732   6.952  0.9602 -0.2201 -0.7548
 5210SOL    HW227264   4.002   0.047   6.968  0.4814 -0.5222 -0.1443
 5211SOL     OW27265   0.054   2.796   5.885 -0.3873 -0.0839 -0.4388
 5211SOL    HW127266   0.049   2.885   5.920 -1.8647  0.5955 -2.4015
 5211SOL    HW227267   4.732   2.796   5.809  0.8340  2.9702 -1.3423
 5212SOL     OW27268   2.353   1.489   7.432 -0.4769 -0.5625 -0.0880
 5212SOL    HW127269   2.443   1.456   7.426  0.0302  0.1902  3.5011
 5212SOL    HW227270   2.363   1.535   7.515  1.8876  2.7337 -2.1912
 5213SOL     OW27271   2.614   2.466   3.031 -0.5139 -0.2807 -0.2438
 5213SOL    HW127272   2.649   2.476   2.943  0.2834  1.4068  0.2635
 5213SOL    HW227273   2.699   2.467   3.075  0.9127 -1.2722 -2.9763
 5214SOL     OW27274   3.169   0.064   2.352  0.3292 -0.0813  0.6628
 5214SOL    HW127275   3.135   0.098   2.434  1.5110 -0.3731  1.2771
 5214SOL    HW227276   3.212   0.139   2.311  2.2578 -0.7290  1.5255
 5215SOL     OW27277   0.156   1.461   8.994 -0.2726 -0.1974 -0.3521
 5215SOL    HW127278   0.182   1.414   8.915  0.5851 -0.0155 -0.1703
 5215SOL    HW227279   0.070   1.422   9.014 -0.0139 -0.6511 -0.1376
 5216SOL     OW27280   1.293   3.547   9.008  0.1204 -1.0554  0.1070
 5216SOL    HW127281   1.375   3.509   9.039 -1.1407 -1.0111  3.5491
 5216SOL    HW227282   1.226   3.499   9.057 -1.8028  1.3756 -0.1727
 5217SOL     OW27283   3.427   0.604  15.122 -0.2118  0.2327  0.5489
 5217SOL    HW127284   3.424   0.523  15.070  1.2116  0.5945 -0.0868
 5217SOL    HW227285   3.401   0.573  15.208 -3.3078 -0.6445 -0.6738
 5218SOL     OW27286   3.162   1.769   5.641 -0.6268 -0.3301  0.2285
 5218SOL    HW127287   3.205   1.852   5.621 -1.4370 -0.2739 -1.2387
 5218SOL    HW227288   3.173   1.763   5.736  2.1138  1.3657 -0.0025
 5219SOL     OW27289   4.668   2.173   3.292  0.2333  0.4515  0.3640
 5219SOL    HW127290   0.023   2.203   3.282  0.8553 -1.5935 -0.2287
 5219SOL    HW227291   4.667   2.145   3.383 -1.7036 -1.3092 -0.1986
 5220SOL     OW27292   2.918   0.059   6.767  0.2625  0.3386 -0.2235
 5220SOL    HW127293   2.921   4.709   6.810 -1.9616  1.2792  1.8076
 5220SOL    HW227294   2.921   0.112   6.847 -2.3256 -1.4844  1.0966
 5221SOL     OW27295   4.504   1.352   6.729 -0.1023  0.7194 -0.3703
 5221SOL    HW127296   4.451   1.344   6.808  0.3738 -0.9966 -0.2271
 5221SOL    HW227297   4.458   1.285   6.678  0.7413 -0.3066  0.2208
 5222SOL     OW27298   2.278   0.468  12.514  0.3210  0.1220 -0.4264
 5222SOL    HW127299   2.239   0.530  12.576  0.8693 -0.7240  0.7678
 5222SOL    HW227300   2.202   0.450  12.459  0.8607  0.4944 -1.2842
 5223SOL     OW27301   0.466   4.048   3.829  0.7754  0.6101 -0.0671
 5223SOL    HW127302   0.489   4.092   3.747  0.3433  0.5210 -0.2359
 5223SOL    HW227303   0.397   3.988   3.799 -0.3826  0.6936  2.4115
 5224SOL     OW27304   0.847   2.175   6.679  0.8618 -0.8024 -0.2031
 5224SOL    HW127305   0.779   2.223   6.633  0.7523  0.3897  1.2035
 5224SOL    HW227306   0.839   2.092   6.632 -0.3977 -0.4026 -0.7007
 5225SOL     OW27307   1.159   2.764  14.711  0.2448  0.2943  0.7016
 5225SOL    HW127308   1.161   2.716  14.628 -1.9710  0.4174  0.5752
 5225SOL    HW227309   1.176   2.706  14.785 -2.5223 -1.0089  0.3225
 5226SOL     OW27310   2.033   1.010   8.126 -0.1617 -0.0634  0.0278
 5226SOL    HW127311   2.123   1.003   8.094 -0.7432  2.2394 -2.1075
 5226SOL    HW227312   1.979   0.951   8.074 -0.3274  1.0857 -1.1039
 5227SOL     OW27313   3.698   0.721   8.484  0.2577  0.0121 -0.1338
 5227SOL    HW127314   3.707   0.816   8.477  0.7632 -0.0110  0.2348
 5227SOL    HW227315   3.781   0.693   8.445  0.7206  0.0655  0.8084
 5228SOL     OW27316   4.478   1.849   7.762 -0.4280  0.4253  0.0179
 5228SOL    HW127317   4.409   1.914   7.777  0.1728  0.9546  0.4943
 5228SOL    HW227318   4.548   1.911   7.783 -0.8854  0.9607 -0.0437
 5229SOL     OW27319   2.478   1.562  10.343 -0.2764 -0.4022 -0.1169
 5229SOL    HW127320   2.564   1.593  10.312 -0.0993 -1.6612 -0.8947
 5229SOL    HW227321   2.421   1.638  10.335  0.4556 -0.0433 -1.9817
 5230SOL     OW27322   0.505   1.540   9.844 -0.1222 -0.1717 -0.3065
 5230SOL    HW127323   0.413   1.538   9.816 -0.3432  1.8037  0.2621
 5230SOL    HW227324   0.563   1.538   9.768 -0.1060 -1.0236 -0.2676
 5231SOL     OW27325   4.618   4.655   3.005  0.0510  0.4776  0.0740
 5231SOL    HW127326   4.693   4.711   3.020  0.2145 -0.1765  1.6408
 5231SOL    HW227327   4.630   4.639   2.911  0.7186 -0.2635  0.2804
 5232SOL     OW27328   4.725   2.817  13.889 -0.2047  0.1705  0.3602
 5232SOL    HW127329   4.728   2.878  13.815 -3.9712 -2.0687 -1.6285
 5232SOL    HW227330   4.675   2.876  13.944 -0.7965  0.5271 -0.5503
 5233SOL     OW27331   3.813   0.207   3.523  0.1524 -0.0418 -0.0100
 5233SOL    HW127332   3.833   0.126   3.568 -0.3293  0.8037  1.7224
 5233SOL    HW227333   3.899   0.214   3.481 -0.5093 -1.5884 -1.5807
 5234SOL     OW27334   3.503   0.326   5.082 -0.1736 -0.1302 -0.4083
 5234SOL    HW127335   3.583   0.351   5.128  1.2101 -1.5392 -2.0582
 5234SOL    HW227336   3.453   0.407   5.079  0.5065  0.2818 -0.7069
 5235SOL     OW27337   3.837   2.461  11.889 -0.1920 -0.0707 -0.0332
 5235SOL    HW127338   3.765   2.424  11.838 -0.4033  0.0908  0.1503
 5235SOL    HW227339   3.839   2.402  11.964  0.4739 -0.7461 -0.5814
 5236SOL     OW27340   2.122   2.724   4.029  0.1028 -0.5534 -0.9921
 5236SOL    HW127341   2.035   2.708   4.066  1.2936  0.5704  2.3385
 5236SOL    HW227342   2.098   2.794   3.969 -1.6785 -0.7460 -0.5123
 5237SOL     OW27343   4.709   1.086   3.192  0.0790 -0.4436  0.0179
 5237SOL    HW127344   4.677   1.104   3.103 -0.6444  1.4345  0.6561
 5237SOL    HW227345   0.055   1.136   3.199 -0.7787  0.9685 -0.0071
 5238SOL     OW27346   0.291   3.492  12.460  0.1656 -0.5304  0.2265
 5238SOL    HW127347   0.298   3.403  12.493 -1.4241 -1.1670 -1.1151
 5238SOL    HW227348   0.231   3.532  12.523 -2.3613 -1.2279 -1.7031
 5239SOL     OW27349   2.873   0.115   3.206  0.8742 -0.1746 -0.5502
 5239SOL    HW127350   2.909   0.176   3.271  1.2255 -0.1270 -0.7899
 5239SOL    HW227351   2.827   0.053   3.263  1.4589 -0.1818 -0.0911
 5240SOL     OW27352   4.686   3.512  13.108  0.3177 -0.0239  0.2221
 5240SOL    HW127353   4.666   3.571  13.181 -1.3021  0.4223 -0.5798
 5240SOL    HW227354   4.644   3.433  13.141 -2.3014  0.8015 -1.1089
 5241SOL     OW27355   0.186   0.945   8.095 -0.0428  0.0026  0.2315
 5241SOL    HW127356   0.171   1.021   8.150  1.3443 -0.4348  1.1983
 5241SOL    HW227357   0.228   0.998   8.027  1.2397 -0.5290  0.6164
 5242SOL     OW27358   3.667   4.678   7.203 -0.8798  0.0772 -0.1671
 5242SOL    HW127359   3.590   4.689   7.146  0.9756  2.9863 -2.0715
 5242SOL    HW227360   3.644   4.591   7.238 -0.2939 -0.4753 -1.1637
 5243SOL     OW27361   0.930   3.863   3.065  0.3509 -0.5713  0.1062
 5243SOL    HW127362   0.933   3.912   3.147  1.1216  0.0109 -0.2663
 5243SOL    HW227363   1.012   3.813   3.070 -0.0905 -1.1712  1.6745
 5244SOL     OW27364   2.825   3.777   5.378 -0.6861  0.3017  0.3125
 5244SOL    HW127365   2.778   3.820   5.307 -0.6553  0.6626  0.5092
 5244SOL    HW227366   2.783   3.819   5.453 -0.6158  3.0014 -1.1673
 5245SOL     OW27367   1.460   2.629   5.544  0.0704  0.0584  0.4540
 5245SOL    HW127368   1.547   2.596   5.521  0.3680 -0.4185  2.2668
 5245SOL    HW227369   1.465   2.661   5.634  0.5222 -0.7885  0.7313
 5246SOL     OW27370   4.216   3.449   5.677  0.0531 -0.1305  0.4567
 5246SOL    HW127371   4.301   3.408   5.661 -1.2560 -2.7933  0.3211
 5246SOL    HW227372   4.220   3.476   5.769  1.0019 -1.1290  0.7130
 5247SOL     OW27373   3.101   4.259   2.554  0.0683  0.0814 -0.1215
 5247SOL    HW127374   3.051   4.181   2.530  1.3462 -0.6335 -0.4622
 5247SOL    HW227375   3.161   4.223   2.620  0.5335 -1.4844 -1.4008
 5248SOL     OW27376   3.071   3.884  15.978 -0.2862  0.0280 -0.0519
 5248SOL    HW127377   3.154   3.887  16.026  0.7744 -0.6172 -1.8312
 5248SOL    HW227378   3.083   3.828  15.901 -2.1817 -0.1571 -0.2016
 5249SOL     OW27379   4.362   3.258   9.680 -0.3628  0.2497  0.4370
 5249SOL    HW127380   4.279   3.279   9.723  0.0408  0.7967  0.9403
 5249SOL    HW227381   4.427   3.293   9.740  1.3174 -0.1615 -1.1215
 5250SOL     OW27382   3.000   1.767   8.058  0.2403  0.3448  0.6923
 5250SOL    HW127383   3.072   1.799   8.112 -0.2579 -0.8769  2.0810
 5250SOL    HW227384   2.945   1.846   8.063 -1.7602 -1.1959  2.8911
 5251SOL     OW27385   1.408   0.656   2.863 -0.6893 -0.6257 -0.0668
 5251SOL    HW127386   1.434   0.688   2.777 -0.7126 -2.0142 -0.5992
 5251SOL    HW227387   1.327   0.706   2.875  0.2120  0.2323  2.3971
 5252SOL     OW27388   3.340   2.059  11.111 -0.1806 -0.0621  0.0447
 5252SOL    HW127389   3.358   2.137  11.058 -1.1934  0.7356  0.8626
 5252SOL    HW227390   3.292   2.104  11.181  1.3484 -0.7171  1.5183
 5253SOL     OW27391   0.756   1.686  16.727 -0.3018 -0.3899 -0.8282
 5253SOL    HW127392   0.808   1.611  16.756 -2.2978 -0.6113  2.2005
 5253SOL    HW227393   0.716   1.658  16.645  3.3836 -0.0323 -2.7457
 5254SOL     OW27394   1.605   1.222  11.093  0.1620  0.0125  0.4303
 5254SOL    HW127395   1.638   1.234  11.183  1.8272 -0.9570 -0.0424
 5254SOL    HW227396   1.675   1.186  11.038 -2.6176 -2.2934 -1.5322
 5255SOL     OW27397   1.961   2.845  16.750  0.2045 -0.1287  0.2794
 5255SOL    HW127398   1.949   2.889  16.665  1.3867 -0.3847 -0.0195
 5255SOL    HW227399   1.880   2.794  16.757 -0.4859  0.8841 -0.1759
 5256SOL     OW27400   3.767   4.057   3.789  0.8397  0.4946 -0.4439
 5256SOL    HW127401   3.823   4.130   3.815  0.2355  0.1829  1.7273
 5256SOL    HW227402   3.682   4.099   3.778  0.1463 -0.9310 -0.5172
 5257SOL     OW27403   2.761   0.337   9.091 -0.3449  0.0942  0.0089
 5257SOL    HW127404   2.700   0.273   9.053 -1.7153  1.5137 -0.2046
 5257SOL    HW227405   2.692   0.397   9.120 -0.4826 -0.9011  1.7121
 5258SOL     OW27406   3.274   1.203   5.043 -0.5350 -0.0788  0.1750
 5258SOL    HW127407   3.240   1.214   5.132  0.0660  1.2449  0.2377
 5258SOL    HW227408   3.364   1.228   5.061 -0.1526 -0.0473 -1.7815
 5259SOL     OW27409   3.035   2.688   8.857  0.0203  0.0152 -0.3072
 5259SOL    HW127410   3.100   2.728   8.799  0.9831 -0.8716  0.1566
 5259SOL    HW227411   3.058   2.716   8.945  2.8633 -0.8590 -0.7431
 5260SOL     OW27412   0.515   0.619  17.405 -0.0656  0.3451  0.1016
 5260SOL    HW127413   0.464   0.676  17.346 -1.1652  0.9367  1.6205
 5260SOL    HW227414   0.462   0.605  17.483  0.9783 -0.9808  0.5566
 5261SOL     OW27415   3.285   2.026   8.237  0.3447  0.2364 -0.0126
 5261SOL    HW127416   3.298   1.937   8.205  2.3093  0.6122 -0.2615
 5261SOL    HW227417   3.210   2.011   8.294 -0.7000 -1.5077 -1.8312
 5262SOL     OW27418   1.538   0.238  16.258 -0.2458 -0.0395  0.5614
 5262SOL    HW127419   1.546   0.237  16.353  1.1142  0.3010  0.4631
 5262SOL    HW227420   1.632   0.235  16.238 -0.5502  0.3393 -0.9451
 5263SOL     OW27421   1.647   1.081  16.871 -0.8018 -0.2971 -0.7417
 5263SOL    HW127422   1.612   1.061  16.957  0.4627 -2.5889 -0.7531
 5263SOL    HW227423   1.600   1.159  16.841  0.3941  0.8917  0.4547
 5264SOL     OW27424   1.103   3.190  16.462  0.1101 -0.5029 -0.0695
 5264SOL    HW127425   1.182   3.149  16.497  0.0803 -0.8822 -0.4512
 5264SOL    HW227426   1.131   3.203  16.372 -0.2233  0.9792  0.0497
 5265SOL     OW27427   3.496   4.056   5.318 -0.0836 -0.8214  0.6339
 5265SOL    HW127428   3.512   4.086   5.408  0.1441  2.3964 -0.4818
 5265SOL    HW227429   3.419   4.108   5.293 -1.6084 -3.0866  0.5762
 5266SOL     OW27430   2.005   2.516  12.874 -0.4058  0.0751 -0.5218
 5266SOL    HW127431   2.040   2.584  12.931 -0.0687 -0.5096 -0.0246
 5266SOL    HW227432   1.996   2.447  12.940  0.3956  0.8970  0.4448
 5267SOL     OW27433   1.357   1.539   4.298  0.3165  0.4372  0.3948
 5267SOL    HW127434   1.334   1.612   4.355 -0.4769 -0.7249  1.5468
 5267SOL    HW227435   1.290   1.540   4.230 -0.8269  0.4360  1.5388
 5268SOL     OW27436   4.022   1.583  15.930 -0.1292  0.2787 -0.1875
 5268SOL    HW127437   4.004   1.672  15.960  0.6322  0.2351  0.3835
 5268SOL    HW227438   4.069   1.603  15.849 -2.1092  0.0739 -1.4010
 5269SOL     OW27439   3.104   1.394   6.570  0.2370  0.1593 -0.1561
 5269SOL    HW127440   3.147   1.350   6.643 -2.1522  0.3403  1.3755
 5269SOL    HW227441   3.151   1.477   6.557  1.0007 -0.5281 -1.6923
 5270SOL     OW27442   1.712   4.083   3.748 -0.8861 -0.1587 -0.3252
 5270SOL    HW127443   1.660   4.161   3.731  1.2022  1.6918  1.7494
 5270SOL    HW227444   1.643   4.018   3.747 -1.3859  0.3443  2.4980
 5271SOL     OW27445   3.538   1.398   4.769 -0.2197  0.1165 -0.3726
 5271SOL    HW127446   3.632   1.402   4.752 -0.3405  1.5695 -0.7268
 5271SOL    HW227447   3.525   1.334   4.839  1.1738  2.3188  1.9292
 5272SOL     OW27448   2.273   2.949   0.160 -0.1728 -0.1354 -0.3806
 5272SOL    HW127449   2.224   3.023   0.198  0.3260 -0.1045  0.2099
 5272SOL    HW227450   2.268   2.889   0.234  1.0886 -0.5271 -0.5989
 5273SOL     OW27451   3.581   1.955   2.298 -0.2458 -0.3985  0.7130
 5273SOL    HW127452   3.489   1.931   2.287 -0.1359 -0.6789  0.4317
 5273SOL    HW227453   3.574   2.051   2.298  0.2159 -0.3639 -1.5286
 5274SOL     OW27454   0.416   0.623   9.671  0.3481 -0.3641  0.3829
 5274SOL    HW127455   0.428   0.682   9.596 -1.7180  0.0581  0.3954
 5274SOL    HW227456   0.467   0.668   9.738 -3.1727  2.7948  0.8853
 5275SOL     OW27457   3.107   0.723   7.641  0.0833  0.6595  0.1811
 5275SOL    HW127458   3.136   0.804   7.599 -0.4666  0.5699 -0.3579
 5275SOL    HW227459   3.013   0.724   7.624  0.3967 -0.6831 -1.5774
 5276SOL     OW27460   4.267   2.551   3.015  0.2213  0.0530  0.0224
 5276SOL    HW127461   4.238   2.594   2.934  0.2051 -1.2624 -0.6699
 5276SOL    HW227462   4.284   2.460   2.991  1.8723 -0.5207  3.3624
 5277SOL     OW27463   1.524   0.768  13.939 -0.2146  0.0909 -0.3472
 5277SOL    HW127464   1.506   0.856  13.974 -0.2916 -0.7073  1.6260
 5277SOL    HW227465   1.474   0.761  13.858 -2.5964  0.4939  1.0880
 5278SOL     OW27466   0.040   4.168   8.066  0.1846  0.0533 -0.7478
 5278SOL    HW127467   0.040   4.200   8.156 -0.5687  1.5551 -1.2921
 5278SOL    HW227468   0.012   4.076   8.073  1.0753 -0.1807 -0.3046
 5279SOL     OW27469   2.837   4.627   1.462 -0.0374  0.5738  0.6426
 5279SOL    HW127470   2.866   4.572   1.390 -1.7699 -0.4500  0.7383
 5279SOL    HW227471   2.768   4.678   1.420 -0.7569 -0.2666  0.8165
 5280SOL     OW27472   0.725   4.592   9.687  0.5577  0.0634  0.7919
 5280SOL    HW127473   0.701   4.672   9.733 -0.9837  0.4660 -0.7066
 5280SOL    HW227474   0.793   4.628   9.630  0.5559  1.1725  1.4818
 5281SOL     OW27475   4.262   0.400   8.994  0.0073 -0.3869 -0.2682
 5281SOL    HW127476   4.183   0.374   9.042  0.6967  1.5613  1.9284
 5281SOL    HW227477   4.277   0.489   9.025 -0.3107 -0.0909 -0.9728
 5282SOL     OW27478   3.856   1.371   7.905  0.0220  0.0366 -0.6206
 5282SOL    HW127479   3.875   1.399   7.995 -1.0170 -1.3477  0.0360
 5282SOL    HW227480   3.944   1.375   7.869  0.6296  0.2595  0.8701
 5283SOL     OW27481   3.454   0.281   5.616 -0.1717 -0.0658  0.5604
 5283SOL    HW127482   3.376   0.335   5.629 -0.9848 -0.6781 -1.6665
 5283SOL    HW227483   3.487   0.282   5.705 -1.8662 -1.6855  1.1998
 5284SOL     OW27484   2.201   0.554   1.762 -0.3402 -0.1949 -0.2571
 5284SOL    HW127485   2.171   0.608   1.690  0.7149 -0.5689 -0.9716
 5284SOL    HW227486   2.201   0.612   1.838 -1.2632 -0.3629 -0.1291
 5285SOL     OW27487   4.143   4.459   5.824 -0.2926 -0.0947 -0.0962
 5285SOL    HW127488   4.169   4.507   5.903 -0.0981  0.3384 -0.4229
 5285SOL    HW227489   4.127   4.374   5.864  0.4562 -0.1834  0.0210
 5286SOL     OW27490   4.274   3.191   3.472  0.2109 -1.0825  0.1928
 5286SOL    HW127491   4.313   3.118   3.521  1.1332 -0.0674  0.9801
 5286SOL    HW227492   4.334   3.260   3.500  1.8052 -2.1394 -0.5812
 5287SOL     OW27493   0.170   0.551   9.825  0.1574  1.2334  0.0563
 5287SOL    HW127494   0.234   0.558   9.754  2.2227  0.0123  1.7724
 5287SOL    HW227495   0.179   0.459   9.850  1.4284  1.2383 -0.3736
 5288SOL     OW27496   4.601   0.575   2.742  0.2866 -0.2525 -0.3417
 5288SOL    HW127497   4.570   0.495   2.702 -1.5049  0.9269 -1.2979
 5288SOL    HW227498   4.531   0.629   2.705  2.1965  1.6998 -1.1199
 5289SOL     OW27499   2.021   3.589   0.954 -0.5423  0.2852  0.0333
 5289SOL    HW127500   1.998   3.592   1.047 -0.6152 -0.0218  0.0281
 5289SOL    HW227501   2.089   3.523   0.945  0.2493  1.2643 -0.9940
 5290SOL     OW27502   4.417   4.232   7.287 -0.3595 -0.1325 -0.3993
 5290SOL    HW127503   4.437   4.308   7.234 -0.1965 -0.5129 -0.8808
 5290SOL    HW227504   4.501   4.188   7.277  0.3404  1.5541 -1.8312
 5291SOL     OW27505   2.904   1.594   9.623 -0.3431 -0.2455 -0.3544
 5291SOL    HW127506   2.905   1.689   9.616 -1.2756 -0.2258 -0.1503
 5291SOL    HW227507   2.955   1.578   9.703 -0.5646  0.5487 -0.0573
 5292SOL     OW27508   0.510   1.835   9.828 -0.0338 -0.2142  0.1867
 5292SOL    HW127509   0.496   1.848   9.922  1.3342 -0.8529  0.4766
 5292SOL    HW227510   0.499   1.741   9.815 -1.5471 -0.2504  1.7600
 5293SOL     OW27511   0.450   4.531  15.654  0.5908  0.4497 -0.0485
 5293SOL    HW127512   0.451   4.542  15.559  0.2836 -0.4437 -0.1543
 5293SOL    HW227513   0.536   4.495  15.674  0.5698 -1.1040 -2.7382
 5294SOL     OW27514   2.868   1.309   4.331  0.2286 -0.3110 -0.0285
 5294SOL    HW127515   2.950   1.295   4.379  0.3302 -1.6089 -0.5853
 5294SOL    HW227516   2.801   1.303   4.398  2.2049 -1.3099  1.8585
 5295SOL     OW27517   3.186   1.428   3.014 -0.4339  0.1298 -0.1614
 5295SOL    HW127518   3.112   1.390   2.967  2.3578 -2.6577 -2.3363
 5295SOL    HW227519   3.217   1.354   3.067 -0.5327 -0.8506 -1.4752
 5296SOL     OW27520   4.279   4.480   4.421 -0.3623 -0.5502 -0.3623
 5296SOL    HW127521   4.244   4.401   4.380  1.6411 -1.2362 -0.7820
 5296SOL    HW227522   4.277   4.540   4.347 -1.0038 -0.1423 -0.0087
 5297SOL     OW27523   4.328   0.707   9.094 -0.5841 -0.2027 -0.5403
 5297SOL    HW127524   4.344   0.799   9.113  1.4015 -0.4780 -0.8470
 5297SOL    HW227525   4.375   0.681   9.174  2.1101  2.4931 -1.2542
 5298SOL     OW27526   1.168   2.933   5.243 -0.3027 -0.4833 -0.6763
 5298SOL    HW127527   1.169   3.007   5.304 -0.3908 -0.6857 -0.4293
 5298SOL    HW227528   1.108   2.966   5.176 -0.2023  0.4268 -0.3149
 5299SOL     OW27529   3.387   3.714   6.488  0.1177  0.2000 -0.4002
 5299SOL    HW127530   3.420   3.625   6.499 -0.9786 -0.0180  1.1490
 5299SOL    HW227531   3.336   3.700   6.408 -1.3253 -0.8170  0.6991
 5300SOL     OW27532   2.745   4.635   7.523 -0.2769  0.5486  0.5805
 5300SOL    HW127533   2.727   4.728   7.514 -0.9373  0.3889  0.2483
 5300SOL    HW227534   2.659   4.595   7.537 -1.6113  4.1295  2.4409
 5301SOL     OW27535   3.976   0.842   2.656 -0.0101 -0.1202 -0.5839
 5301SOL    HW127536   4.026   0.906   2.605  0.2854  1.1617  1.3294
 5301SOL    HW227537   4.035   0.769   2.671  0.9953  0.9888  0.8400
 5302SOL     OW27538   3.960   3.732   9.353 -0.1110  0.3040  0.3037
 5302SOL    HW127539   3.906   3.802   9.388 -1.2460 -0.9437  1.0478
 5302SOL    HW227540   3.990   3.770   9.270  0.6753 -2.5244 -0.7280
 5303SOL     OW27541   2.695   3.602   1.661 -0.6776  0.0793 -0.0633
 5303SOL    HW127542   2.777   3.558   1.684  0.3197  1.7613 -0.4198
 5303SOL    HW227543   2.704   3.594   1.566 -0.9172 -0.8835 -0.0053
 5304SOL     OW27544   1.760   3.216   9.092 -0.2655  0.4438  0.4659
 5304SOL    HW127545   1.707   3.138   9.077  1.7626 -0.8317 -0.0924
 5304SOL    HW227546   1.820   3.225   9.019 -0.9078 -0.9500 -0.2187
 5305SOL     OW27547   1.145   2.106   4.678 -1.3102 -0.4667  0.0842
 5305SOL    HW127548   1.062   2.109   4.726 -1.4206 -0.4968 -0.1018
 5305SOL    HW227549   1.208   2.132   4.745 -0.5364  1.2384 -1.3096
 5306SOL     OW27550   1.724   0.331   5.549  0.5291  0.6989 -0.1888
 5306SOL    HW127551   1.698   0.254   5.601  0.0872  1.6905  1.0494
 5306SOL    HW227552   1.815   0.335   5.579  0.8886  0.3622 -1.2191
 5307SOL     OW27553   1.584   0.663   2.017 -0.3538 -0.1707 -0.2235
 5307SOL    HW127554   1.535   0.709   2.085  1.1075  0.0891  0.6592
 5307SOL    HW227555   1.524   0.590   2.006  1.2068 -1.5396  0.3097
 5308SOL     OW27556   1.588   2.401   3.344 -0.2296  0.0230  0.1424
 5308SOL    HW127557   1.548   2.414   3.259 -0.0022 -1.3308 -0.1736
 5308SOL    HW227558   1.613   2.308   3.344  1.1366  0.4122 -2.0234
 5309SOL     OW27559   0.591   0.388   6.516  0.4000 -0.6423 -0.4316
 5309SOL    HW127560   0.515   0.332   6.530  0.3525 -0.7110 -0.9575
 5309SOL    HW227561   0.651   0.319   6.489  1.3246 -0.8092  2.0276
 5310SOL     OW27562   0.981   1.207  16.552  0.1018  0.1578  0.4280
 5310SOL    HW127563   0.899   1.162  16.531  0.5424 -0.5316  0.1753
 5310SOL    HW227564   1.033   1.174  16.479  0.4850  0.2989  0.6362
 5311SOL     OW27565   1.364   3.991   3.350 -0.0883  0.2455 -0.1563
 5311SOL    HW127566   1.368   3.966   3.442  0.1696  1.5412  0.1826
 5311SOL    HW227567   1.414   3.922   3.305 -2.9755 -1.7896 -0.2178
 5312SOL     OW27568   0.506   1.845   4.592  0.2752  0.2946 -0.3175
 5312SOL    HW127569   0.480   1.757   4.619  0.9106  1.3404  3.6845
 5312SOL    HW227570   0.597   1.835   4.566  0.0635 -0.0897 -0.9003
 5313SOL     OW27571   3.346   1.811   2.292  0.0815 -0.7500 -0.2731
 5313SOL    HW127572   3.380   1.736   2.341  0.8723 -0.5076 -0.4477
 5313SOL    HW227573   3.328   1.874   2.362  1.5435  0.6760 -1.1655
 5314SOL     OW27574   0.341   0.625   2.246 -0.3368  0.0076  0.6733
 5314SOL    HW127575   0.389   0.708   2.257  0.0064  0.2569 -2.5796
 5314SOL    HW227576   0.395   0.578   2.182  0.8046 -0.4005  1.9428
 5315SOL     OW27577   3.775   4.613  12.134 -0.5504  0.3769 -0.0021
 5315SOL    HW127578   3.807   4.595  12.222  1.0950  0.5220 -0.5706
 5315SOL    HW227579   3.806   4.529  12.099 -1.8713  0.3628 -1.1239
 5316SOL     OW27580   0.052   0.624   8.599 -0.5889  0.2475 -0.2598
 5316SOL    HW127581   0.034   0.708   8.558 -0.9695  0.2187 -0.1538
 5316SOL    HW227582   0.147   0.633   8.602 -0.4647 -1.0504 -0.1637
 5317SOL     OW27583   2.811   0.804  11.541 -0.0712 -0.2994 -0.4371
 5317SOL    HW127584   2.794   0.849  11.624  0.1704 -2.3233  0.7260
 5317SOL    HW227585   2.882   0.748  11.575  0.4867  0.5505 -0.1972
 5318SOL     OW27586   1.317   1.433   7.556  0.0207  0.2624  0.1665
 5318SOL    HW127587   1.289   1.494   7.488 -1.4464  1.2954  1.6956
 5318SOL    HW227588   1.387   1.391   7.506  0.6698  1.9291 -0.3594
 5319SOL     OW27589   2.747   1.860   6.284  0.1225 -0.1603  0.4399
 5319SOL    HW127590   2.819   1.866   6.347  0.8106 -0.2469 -0.3284
 5319SOL    HW227591   2.787   1.803   6.218  1.8655  0.8316  0.6273
 5320SOL     OW27592   1.038   0.294   7.066 -0.4394 -0.6505  0.3658
 5320SOL    HW127593   0.951   0.255   7.069 -0.6084 -0.3040  0.0589
 5320SOL    HW227594   1.096   0.225   7.095 -1.4986 -2.8007 -2.6569
 5321SOL     OW27595   4.347   3.586   7.826  0.0674  0.2368 -0.6755
 5321SOL    HW127596   4.421   3.549   7.778 -1.2947 -1.6846 -1.2696
 5321SOL    HW227597   4.302   3.639   7.760 -2.3386  0.2775  0.9964
 5322SOL     OW27598   4.730   2.067   6.607 -0.0078  0.4304 -0.0642
 5322SOL    HW127599   4.731   2.082   6.701 -0.8991  0.7523 -0.0997
 5322SOL    HW227600   0.081   2.027   6.597 -0.9525 -1.0104 -2.5553
 5323SOL     OW27601   3.756   3.828  17.164 -0.2885 -0.5396  0.4403
 5323SOL    HW127602   3.671   3.869  17.145 -0.1253 -0.7044 -0.6312
 5323SOL    HW227603   3.813   3.844  17.089 -0.2820  1.6454  0.9107
 5324SOL     OW27604   3.358   0.639  17.207 -0.1480 -0.1566  0.2066
 5324SOL    HW127605   3.434   0.659  17.262  0.3427 -0.9404 -0.1914
 5324SOL    HW227606   3.327   0.728  17.189  2.3128  0.5018 -0.8323
 5325SOL     OW27607   2.882   2.096   2.162 -0.1798 -0.3045 -0.0760
 5325SOL    HW127608   2.903   2.166   2.223 -0.8725  0.7262 -1.0226
 5325SOL    HW227609   2.948   2.030   2.185  0.7977  0.5770 -0.3293
 5326SOL     OW27610   2.344   0.166   8.299 -0.0761  0.1917 -0.1973
 5326SOL    HW127611   2.376   0.252   8.272 -0.2563 -0.0657 -1.2557
 5326SOL    HW227612   2.278   0.143   8.233  0.6032 -1.6217 -0.2530
 5327SOL     OW27613   4.456   1.440   5.535  0.0141  0.6974 -0.5397
 5327SOL    HW127614   4.532   1.423   5.591  0.0410  0.8375 -0.5328
 5327SOL    HW227615   4.490   1.521   5.497 -0.2706  0.5410 -1.1197
 5328SOL     OW27616   3.148   3.907   6.295 -0.3196  0.4507  0.1116
 5328SOL    HW127617   3.177   3.992   6.261  0.8367 -0.8825 -2.2245
 5328SOL    HW227618   3.142   3.856   6.214  0.3338 -0.3661  0.5830
 5329SOL     OW27619   3.987   4.423   3.021  0.2149 -0.2884 -0.3258
 5329SOL    HW127620   3.939   4.503   3.001 -1.4493 -1.1685  0.0944
 5329SOL    HW227621   4.073   4.455   2.993  0.7472 -1.2674  0.1944
 5330SOL     OW27622   1.098   2.450   7.417 -0.3207  0.2646  0.6040
 5330SOL    HW127623   1.174   2.410   7.375 -0.4575 -2.0520  2.5855
 5330SOL    HW227624   1.030   2.384   7.401 -1.0348  0.7757  1.5002
 5331SOL     OW27625   2.669   2.687  13.953 -0.3580 -0.4781  0.7712
 5331SOL    HW127626   2.677   2.782  13.938  0.1756 -0.7667 -0.7583
 5331SOL    HW227627   2.752   2.661  13.994 -1.3099 -1.4132  2.0548
 5332SOL     OW27628   1.504   0.401   2.672 -0.0733  0.4742  0.0608
 5332SOL    HW127629   1.482   0.487   2.707  0.6305 -0.4089  2.6396
 5332SOL    HW227630   1.584   0.373   2.715 -0.1406 -0.9562 -0.7163
 5333SOL     OW27631   4.447   4.182   3.016 -0.4758 -0.5097  0.2657
 5333SOL    HW127632   4.526   4.133   2.993 -0.1388 -0.5430  1.4728
 5333SOL    HW227633   4.470   4.248   3.082 -2.5427  0.3826  0.0840
 5334SOL     OW27634   1.615   1.848  17.489 -0.3954  0.1221  0.1860
 5334SOL    HW127635   1.527   1.879  17.468  0.0129  1.0530 -0.1586
 5334SOL    HW227636   1.656   1.881  17.409 -0.2978  0.4349  0.3651
 5335SOL     OW27637   1.099   4.016   4.527 -0.5070  0.0223 -0.4205
 5335SOL    HW127638   1.035   4.061   4.583 -0.5358  0.0411 -0.4678
 5335SOL    HW227639   1.175   4.012   4.584 -1.1119 -2.1696  0.2243
 5336SOL     OW27640   0.714   4.073   9.743 -0.1214 -1.2455 -0.2939
 5336SOL    HW127641   0.634   4.118   9.768  1.2043  1.0744 -0.2835
 5336SOL    HW227642   0.748   4.130   9.675 -2.0995 -1.4974 -1.4871
 5337SOL     OW27643   3.393   1.782  10.290 -0.2913 -0.1813 -0.1416
 5337SOL    HW127644   3.466   1.722  10.275 -1.0138 -0.3707 -2.9866
 5337SOL    HW227645   3.390   1.761  10.384 -1.0195  0.5637 -0.0029
 5338SOL     OW27646   4.610   3.765   6.025 -0.1091 -0.2762  0.6622
 5338SOL    HW127647   4.535   3.763   6.085  0.4681  1.3997  1.4497
 5338SOL    HW227648   4.687   3.778   6.080 -0.0686 -0.9975  0.7801
 5339SOL     OW27649   2.843   3.980   3.575  0.3922 -0.4668 -0.8785
 5339SOL    HW127650   2.791   3.992   3.496 -0.4112  1.8306 -0.0014
 5339SOL    HW227651   2.779   3.931   3.627  1.1210 -2.3966 -1.7845
 5340SOL     OW27652   3.742   2.890  15.339 -0.0465  0.1055 -0.3876
 5340SOL    HW127653   3.700   2.960  15.288  1.7107  1.3421 -0.1255
 5340SOL    HW227654   3.780   2.944  15.409 -0.4125 -0.3756  0.1794
 5341SOL     OW27655   0.249   3.499   9.612 -0.6028 -0.4282  0.1289
 5341SOL    HW127656   0.305   3.574   9.633 -0.0597 -0.5754 -0.8259
 5341SOL    HW227657   0.192   3.531   9.541 -3.5555 -2.6152  1.5190
 5342SOL     OW27658   1.347   0.656   1.036 -0.1243 -0.0335 -0.0920
 5342SOL    HW127659   1.414   0.615   1.092 -3.2064 -2.0732  2.0849
 5342SOL    HW227660   1.323   0.576   0.989 -1.0105 -0.7337  1.5499
 5343SOL     OW27661   4.140   1.551   0.938 -0.3216 -0.4878  0.6749
 5343SOL    HW127662   4.167   1.643   0.939 -0.5013 -0.4235 -1.3523
 5343SOL    HW227663   4.047   1.556   0.960 -1.1406  1.2817 -3.1400
 5344SOL     OW27664   1.050   1.313   7.302 -0.1293 -0.3738  0.0456
 5344SOL    HW127665   0.966   1.353   7.325 -0.2964 -1.4005  1.2007
 5344SOL    HW227666   1.055   1.234   7.355  2.7546  0.1974  0.6228
 5345SOL     OW27667   0.032   0.553   7.669 -0.3047 -0.3622  0.1505
 5345SOL    HW127668   0.103   0.561   7.605 -0.4598 -2.0789 -0.2323
 5345SOL    HW227669   0.053   0.479   7.726 -0.3716  1.0500  2.0060
 5346SOL     OW27670   2.551   3.091   7.497 -0.0415  0.3247 -0.2362
 5346SOL    HW127671   2.579   3.139   7.575  0.4842  2.2075 -1.5681
 5346SOL    HW227672   2.512   3.013   7.535 -0.4552  0.7628  0.2551
 5347SOL     OW27673   0.813   1.073   7.318 -0.1426 -0.3113 -0.3811
 5347SOL    HW127674   0.906   1.062   7.298 -0.0441  0.2701 -0.2632
 5347SOL    HW227675   0.807   1.035   7.405 -1.7887 -1.6536 -1.0750
 5348SOL     OW27676   1.968   4.044  12.248  0.1504 -0.1153 -0.1044
 5348SOL    HW127677   1.987   4.084  12.333  0.0812 -0.9662  0.3112
 5348SOL    HW227678   1.873   4.054  12.239  0.3380  1.7461 -0.0694
 5349SOL     OW27679   4.202   0.668   4.398  0.6739  0.0333  0.8514
 5349SOL    HW127680   4.178   0.696   4.309 -3.5664  0.7784  2.2359
 5349SOL    HW227681   4.177   0.576   4.395  0.0481  0.2219  0.2842
 5350SOL     OW27682   3.039   1.843   1.701 -0.0274 -0.4552  0.3557
 5350SOL    HW127683   3.101   1.860   1.772 -0.5901  1.6872  0.3616
 5350SOL    HW227684   3.066   1.914   1.642  0.4716  0.2699  1.4380
 5351SOL     OW27685   1.023   3.497  16.494  0.7051 -0.6496 -0.1883
 5351SOL    HW127686   1.032   3.541  16.410  0.8359  1.9388  1.1730
 5351SOL    HW227687   1.091   3.431  16.500  1.4896  0.1661 -0.0403
 5352SOL     OW27688   1.347   0.671  13.259 -0.0552 -0.1986 -0.1672
 5352SOL    HW127689   1.339   0.652  13.165 -0.9057 -2.9491  0.4486
 5352SOL    HW227690   1.439   0.652  13.276  0.0438  0.9107  0.5412
 5353SOL     OW27691   0.628   0.571   4.443  0.1024 -0.1406 -0.0845
 5353SOL    HW127692   0.586   0.646   4.401  0.9120  0.4050  0.0680
 5353SOL    HW227693   0.709   0.614   4.472 -0.2541  0.4438  0.0407
 5354SOL     OW27694   1.376   2.628   6.945  0.2322 -0.4011 -0.5524
 5354SOL    HW127695   1.422   2.707   6.972 -1.5180  0.5827 -0.4613
 5354SOL    HW227696   1.326   2.660   6.870  1.8198  0.9557 -1.0179
 5355SOL     OW27697   3.826   2.630  14.899  0.1113  0.5244  0.0930
 5355SOL    HW127698   3.829   2.657  14.991  0.7817 -0.2182  0.2846
 5355SOL    HW227699   3.796   2.539  14.902  3.0288 -0.4534 -0.5979
 5356SOL     OW27700   0.304   0.568   7.920  0.1155 -0.5995 -0.0228
 5356SOL    HW127701   0.307   0.637   7.854 -1.1273  1.5588  2.1618
 5356SOL    HW227702   0.381   0.591   7.973  0.1347 -0.4970 -0.0930
 5357SOL     OW27703   1.930   3.137   3.888  0.7536 -0.3342  0.3426
 5357SOL    HW127704   1.866   3.207   3.897 -0.2125 -1.2249  0.3097
 5357SOL    HW227705   1.922   3.107   3.979 -0.3741  0.4661  0.4988
 5358SOL     OW27706   0.760   4.577   2.166  0.1071  0.1625 -0.7224
 5358SOL    HW127707   0.802   4.662   2.176 -0.1503  0.2514 -0.3781
 5358SOL    HW227708   0.836   4.519   2.162 -0.8999 -1.4066  2.3948
 5359SOL     OW27709   3.772   3.670   8.214  0.0937 -0.2837  0.0031
 5359SOL    HW127710   3.771   3.635   8.125 -1.0283  1.7511 -0.8033
 5359SOL    HW227711   3.867   3.669   8.215  0.1000 -0.8096 -1.3875
 5360SOL     OW27712   1.245   0.228   1.686  0.3302 -0.5982  0.2777
 5360SOL    HW127713   1.233   0.179   1.767 -2.9122  1.5409  1.1205
 5360SOL    HW227714   1.183   0.301   1.696  2.3191  0.7890  2.4998
 5361SOL     OW27715   0.234   0.445   6.346 -0.2781  0.3436  0.2713
 5361SOL    HW127716   0.268   0.505   6.280  1.2400 -1.1899 -0.3336
 5361SOL    HW227717   0.289   0.367   6.349 -0.3293  0.2690 -0.7383
 5362SOL     OW27718   3.827   4.728  15.681  0.0945  0.0574  0.2606
 5362SOL    HW127719   3.867   0.080  15.674  0.2250 -0.1875 -2.0892
 5362SOL    HW227720   3.766   0.004  15.754 -0.3686 -1.9856  0.1855
 5363SOL     OW27721   2.057   0.587   7.562 -0.2159  0.0276  0.5683
 5363SOL    HW127722   2.037   0.615   7.651  1.0002  1.5154  0.3730
 5363SOL    HW227723   2.014   0.501   7.562 -1.2718  0.5601  0.7502
 5364SOL     OW27724   1.047   3.431   9.832  0.4152 -0.4755 -0.2692
 5364SOL    HW127725   1.128   3.438   9.881 -0.3839  0.6287  0.9066
 5364SOL    HW227726   1.059   3.337   9.822 -0.2821 -0.5830 -0.1120
 5365SOL     OW27727   3.857   1.520   0.375 -0.6819  0.3779  0.1386
 5365SOL    HW127728   3.893   1.433   0.357 -2.8730 -1.0304  2.5221
 5365SOL    HW227729   3.820   1.548   0.291  0.1253 -1.9905 -1.0004
 5366SOL     OW27730   1.091   2.781   7.106 -0.5057  0.1545 -0.0934
 5366SOL    HW127731   1.107   2.834   7.028 -0.1259  0.3285  0.1027
 5366SOL    HW227732   1.086   2.689   7.080  1.9042 -0.2301  0.8789
 5367SOL     OW27733   2.352   1.040   8.828 -0.5685  0.4317 -0.1808
 5367SOL    HW127734   2.292   1.041   8.902 -1.0959  1.7976 -0.6230
 5367SOL    HW227735   2.332   0.952   8.796 -1.2292  1.1188 -1.6457
 5368SOL     OW27736   4.089   1.507  13.850  0.0081  0.0038 -0.0940
 5368SOL    HW127737   4.126   1.587  13.813  0.7459 -0.2396  0.1263
 5368SOL    HW227738   3.996   1.515  13.827 -0.3874  1.5602  2.0275
 5369SOL     OW27739   0.336   1.631   8.145 -0.1735 -0.1395  0.5570
 5369SOL    HW127740   0.398   1.622   8.217 -1.2577  0.2019  1.5239
 5369SOL    HW227741   0.265   1.576   8.178  0.8134 -1.3480  0.6556
 5370SOL     OW27742   3.730   2.513   8.941  0.3859 -0.1102 -0.0933
 5370SOL    HW127743   3.784   2.575   8.891 -0.4359 -0.1331 -1.0103
 5370SOL    HW227744   3.650   2.561   8.961  0.8713  0.1074  1.3228
 5371SOL     OW27745   2.116   4.524   5.557  0.1335  0.2183  0.0596
 5371SOL    HW127746   2.103   4.501   5.465  2.1199 -1.0521  0.1023
 5371SOL    HW227747   2.105   4.437   5.595  2.4741 -0.7154 -1.3732
 5372SOL     OW27748   3.337   1.140   4.037  0.1555  0.0138 -0.0457
 5372SOL    HW127749   3.257   1.192   4.049  1.5382  2.2448 -0.6087
 5372SOL    HW227750   3.391   1.191   4.097 -2.0511  0.7137  1.3616
 5373SOL     OW27751   3.118   1.609   4.014 -0.3941 -0.0959  0.1262
 5373SOL    HW127752   3.055   1.601   3.943  0.6757 -1.2943 -0.6963
 5373SOL    HW227753   3.060   1.578   4.083 -0.4113  1.5407  0.8475
 5374SOL     OW27754   0.530   3.542   2.440 -0.1661  0.6063 -0.0526
 5374SOL    HW127755   0.539   3.448   2.430  0.9071  0.3489  3.2384
 5374SOL    HW227756   0.549   3.560   2.532  0.6315 -3.8965  0.6269
 5375SOL     OW27757   2.049   4.597   4.323 -0.1753 -0.3221  0.1225
 5375SOL    HW127758   2.070   4.609   4.230 -1.0656  0.4667  0.0167
 5375SOL    HW227759   2.087   4.679   4.357  1.5539 -1.0060 -0.1721
 5376SOL     OW27760   3.231   4.364   2.889 -0.3394  0.0312 -0.7608
 5376SOL    HW127761   3.317   4.364   2.849  1.2310 -1.1881  2.6007
 5376SOL    HW227762   3.237   4.271   2.911 -0.2871 -0.1501 -1.5688
 5377SOL     OW27763   3.860   1.827   5.940  0.5374 -0.0002  0.3240
 5377SOL    HW127764   3.822   1.847   6.025 -0.6980 -1.5346  0.1266
 5377SOL    HW227765   3.819   1.741   5.930  0.9734 -0.0736 -0.8024
 5378SOL     OW27766   0.787   0.318   3.922  0.2771 -0.0047  0.4728
 5378SOL    HW127767   0.784   0.227   3.892 -0.0410 -0.4612  1.8605
 5378SOL    HW227768   0.776   0.372   3.844 -2.0950 -0.8331  0.2511
 5379SOL     OW27769   2.850   3.838   4.837  0.0626  0.0333  0.2484
 5379SOL    HW127770   2.832   3.752   4.875 -1.7071  1.0486  1.6893
 5379SOL    HW227771   2.786   3.892   4.884  0.5578  1.4086 -0.6455
 5380SOL     OW27772   0.947   2.097   8.958 -0.0682  0.1232  0.3167
 5380SOL    HW127773   0.957   2.144   8.875  0.2574 -0.6488 -0.0862
 5380SOL    HW227774   1.038   2.091   8.986  0.6217 -1.1348 -2.1619
 5381SOL     OW27775   2.294   1.154  11.953 -0.4289  0.3301  0.1927
 5381SOL    HW127776   2.230   1.209  11.999 -0.4237  1.3262 -1.0059
 5381SOL    HW227777   2.268   1.063  11.967  1.0903 -0.2289 -0.6646
 5382SOL     OW27778   1.698   0.356   4.919  0.1518 -0.1395 -0.0982
 5382SOL    HW127779   1.745   0.372   5.001 -0.4697 -0.7443  0.3791
 5382SOL    HW227780   1.688   0.447   4.892  0.2258 -0.6849 -1.9763
 5383SOL     OW27781   1.792   3.654   7.293  0.0718  0.6670  0.4035
 5383SOL    HW127782   1.734   3.578   7.300  0.9480  0.0493  0.9782
 5383SOL    HW227783   1.733   3.723   7.323 -1.1376 -0.4227  0.5178
 5384SOL     OW27784   1.574   3.554  14.111  0.1208  0.3735  0.3176
 5384SOL    HW127785   1.579   3.617  14.039 -0.0588 -2.4967 -2.2064
 5384SOL    HW227786   1.640   3.585  14.172  0.1569  2.2468 -0.6834
 5385SOL     OW27787   2.742   3.103   7.309 -0.1746  0.0478 -0.0183
 5385SOL    HW127788   2.679   3.113   7.380  0.1118  0.2043  0.2131
 5385SOL    HW227789   2.830   3.089   7.344  0.5383  1.5731 -1.1679
 5386SOL     OW27790   3.032   3.163  11.853 -0.2218 -0.2805 -0.4150
 5386SOL    HW127791   3.038   3.157  11.949 -0.8144  1.2289 -0.2944
 5386SOL    HW227792   3.099   3.105  11.816  0.2296  0.3135 -0.5318
 5387SOL     OW27793   0.243   4.344   4.272  0.0379 -0.0573  0.5351
 5387SOL    HW127794   0.200   4.270   4.315  0.2566  0.2674  1.3175
 5387SOL    HW227795   0.167   4.368   4.220 -0.8510 -1.7257  1.0452
 5388SOL     OW27796   2.518   4.451   7.730 -0.2991  0.6624 -0.0930
 5388SOL    HW127797   2.498   4.512   7.802  0.8962 -0.4459  1.1740
 5388SOL    HW227798   2.471   4.483   7.653 -1.2557 -1.4551 -0.3917
 5389SOL     OW27799   3.373   2.769   0.760 -0.0495 -0.2162  0.2863
 5389SOL    HW127800   3.311   2.743   0.691 -0.2970  2.0816 -0.3466
 5389SOL    HW227801   3.414   2.846   0.721  1.1593 -0.8573  0.2873
 5390SOL     OW27802   2.318   0.344   5.582  0.4194 -0.1756 -0.4330
 5390SOL    HW127803   2.339   0.268   5.637  1.4607 -1.0590 -2.0343
 5390SOL    HW227804   2.364   0.411   5.633  1.0398 -1.4646  0.7025
 5391SOL     OW27805   4.377   4.498   5.637 -0.2056 -0.6565 -0.2405
 5391SOL    HW127806   4.306   4.472   5.695  0.1569 -0.7256  0.1691
 5391SOL    HW227807   4.385   4.592   5.653 -1.9379 -0.3446 -1.2026
 5392SOL     OW27808   0.052   4.134   4.550  0.0187  0.6814  0.0302
 5392SOL    HW127809   0.095   4.113   4.468  1.5533  1.7039  0.5783
 5392SOL    HW227810   0.005   4.051   4.560  0.9547  0.3272  1.4155
 5393SOL     OW27811   2.254   3.000   5.440  0.6673 -0.0593  0.1195
 5393SOL    HW127812   2.279   3.007   5.348  2.5599 -0.1876  0.6206
 5393SOL    HW227813   2.228   3.088   5.465 -1.4321 -1.6028  3.3555
 5394SOL     OW27814   0.680   2.298   6.512 -0.3561  0.1183  0.1102
 5394SOL    HW127815   0.662   2.246   6.433  1.1304 -0.0444 -0.1218
 5394SOL    HW227816   0.714   2.376   6.468  0.3447  1.7214  3.5038
 5395SOL     OW27817   4.002   3.056   8.800  0.4185 -0.0403  1.4307
 5395SOL    HW127818   4.065   3.020   8.863  0.5594 -1.5675  0.4144
 5395SOL    HW227819   3.972   3.135   8.846  2.6175  1.1175  0.8505
 5396SOL     OW27820   2.742   3.612   6.706 -0.2178 -0.3435 -0.0428
 5396SOL    HW127821   2.674   3.675   6.682 -0.0018  0.0330  0.3296
 5396SOL    HW227822   2.692   3.589   6.785  0.6026  0.0176  0.5849
 5397SOL     OW27823   1.111   0.952   6.155  0.1602 -0.3950 -0.0393
 5397SOL    HW127824   1.113   0.940   6.250 -3.6411 -0.5846  0.0139
 5397SOL    HW227825   1.195   0.998   6.148  0.1334 -0.2993  0.2730
 5398SOL     OW27826   1.544   4.678   3.249 -0.1871 -0.1993 -0.0682
 5398SOL    HW127827   1.558   4.597   3.298  2.7399  1.7685  2.3293
 5398SOL    HW227828   1.452   4.683   3.221 -0.6780 -0.2403  1.5509
 5399SOL     OW27829   1.020   1.118  12.067 -0.2845 -0.3758 -0.0639
 5399SOL    HW127830   0.993   1.129  11.976 -1.3157 -1.0103  0.1747
 5399SOL    HW227831   0.935   1.129  12.110 -1.2522  2.2195 -2.6276
 5400SOL     OW27832   4.062   1.332  14.043 -0.4139 -0.1637  0.6270
 5400SOL    HW127833   4.081   1.410  13.990 -0.2734  1.1322  2.6159
 5400SOL    HW227834   4.013   1.283  13.976 -0.9176  1.3419 -0.1043
 5401SOL     OW27835   0.332   0.526   3.332 -0.4404  0.0286 -0.0354
 5401SOL    HW127836   0.305   0.460   3.396 -1.1839  1.1056  0.7524
 5401SOL    HW227837   0.255   0.581   3.319  0.0062  0.7042  0.1950
 5402SOL     OW27838   2.934   3.474   2.297  0.1905  0.1683 -0.1004
 5402SOL    HW127839   2.906   3.565   2.299  2.2639  0.8058 -0.3948
 5402SOL    HW227840   2.990   3.469   2.220 -0.5649 -3.1314 -0.4346
 5403SOL     OW27841   2.206   0.063   5.019  0.0641  0.5823  0.4209
 5403SOL    HW127842   2.155   0.004   5.074 -1.8453  0.4434 -1.4955
 5403SOL    HW227843   2.295   0.046   5.048  0.0587  0.6204  0.4594
 5404SOL     OW27844   3.473   1.299   6.180 -0.2645  0.0899  0.4104
 5404SOL    HW127845   3.397   1.341   6.218 -0.7144 -0.5872  0.2655
 5404SOL    HW227846   3.444   1.209   6.164 -2.3573  0.4756  2.0477
 5405SOL     OW27847   4.235   0.140   8.575  1.2362 -0.2319 -0.0710
 5405SOL    HW127848   4.287   0.120   8.497  0.8400  1.5885 -0.8158
 5405SOL    HW227849   4.262   0.081   8.645  0.2398 -0.1242  0.4053
 5406SOL     OW27850   3.459   1.505   7.007  0.3296  0.5446  0.5879
 5406SOL    HW127851   3.477   1.575   6.946 -2.5078  1.4525  0.8078
 5406SOL    HW227852   3.463   1.559   7.086  0.9123 -0.9888  1.6196
 5407SOL     OW27853   0.696   1.352   7.656 -0.2606 -0.0111  0.4176
 5407SOL    HW127854   0.705   1.318   7.745  2.2700 -0.7144 -0.0919
 5407SOL    HW227855   0.609   1.319   7.633  0.2396  0.1677 -1.7959
 5408SOL     OW27856   2.080   1.559  12.310  0.1107 -0.1601 -0.2254
 5408SOL    HW127857   2.093   1.637  12.363  3.1639 -0.3610 -0.7135
 5408SOL    HW227858   2.171   1.534  12.297 -0.1407 -0.7844 -0.8183
 5409SOL     OW27859   0.596   4.307   7.410 -0.5546 -0.1121  0.3712
 5409SOL    HW127860   0.512   4.272   7.439 -0.6398  0.5199  0.8769
 5409SOL    HW227861   0.654   4.287   7.483 -0.8748 -1.6219  0.2122
 5410SOL     OW27862   4.434   1.670   1.191 -0.9348 -0.0608  0.2252
 5410SOL    HW127863   4.373   1.735   1.158 -1.7290 -0.5135  0.7963
 5410SOL    HW227864   4.515   1.719   1.179 -0.5780 -0.7856 -0.3356
 5411SOL     OW27865   3.705   2.422   4.106  0.6201 -0.6684  0.2033
 5411SOL    HW127866   3.767   2.492   4.087  0.4670 -1.2646 -2.4798
 5411SOL    HW227867   3.670   2.461   4.186  0.3033 -1.6256  0.5421
 5412SOL     OW27868   3.380   2.944   2.869  0.1825  0.2309 -0.0428
 5412SOL    HW127869   3.469   2.953   2.904 -0.3630 -2.0110  1.9637
 5412SOL    HW227870   3.358   3.035   2.849 -1.3473  0.9837  5.1266
 5413SOL     OW27871   0.981   1.426   1.467  0.5309  0.3736  0.3271
 5413SOL    HW127872   1.035   1.457   1.394  0.5203 -0.8170 -0.1814
 5413SOL    HW227873   0.899   1.470   1.443 -0.3424 -0.9896  0.8238
 5414SOL     OW27874   0.496   2.542   6.966  0.3834  0.2351 -0.1767
 5414SOL    HW127875   0.545   2.533   6.884 -1.6914 -0.2566 -1.3714
 5414SOL    HW227876   0.466   2.632   6.979 -1.2502 -0.2333 -0.6763
 5415SOL     OW27877   4.560   3.877   8.944  0.1993  0.4753  0.1689
 5415SOL    HW127878   4.588   3.954   8.894 -1.9935  1.6064  0.6945
 5415SOL    HW227879   4.643   3.830   8.949 -0.9183 -1.4966  0.1887
 5416SOL     OW27880   3.511   0.436   4.048 -0.3680 -0.0215  0.2142
 5416SOL    HW127881   3.470   0.517   4.019 -0.7540 -0.6548 -1.0096
 5416SOL    HW227882   3.436   0.377   4.039 -0.8562  0.3789  1.5217
 5417SOL     OW27883   0.864   4.140  15.454 -0.2122 -0.2984 -0.3346
 5417SOL    HW127884   0.934   4.137  15.519  1.1314 -0.2635 -1.7565
 5417SOL    HW227885   0.907   4.194  15.387  0.4074 -0.3834 -0.0028
 5418SOL     OW27886   3.908   0.533   7.648  0.6088  0.0747  0.1796
 5418SOL    HW127887   3.961   0.453   7.651  0.6009 -0.0388 -3.6076
 5418SOL    HW227888   3.872   0.523   7.560 -1.4279  0.2199  1.0053
 5419SOL     OW27889   1.500   4.263   2.859  0.4381 -0.0308  0.4392
 5419SOL    HW127890   1.569   4.206   2.823 -0.0042  0.0299 -0.5063
 5419SOL    HW227891   1.450   4.187   2.887 -0.0519  0.6791  1.4817
 5420SOL     OW27892   1.477   0.141  10.136  0.0903  0.6870  0.2330
 5420SOL    HW127893   1.448   0.078  10.070 -2.1637 -0.3900  2.2494
 5420SOL    HW227894   1.399   0.168  10.184 -0.0870  1.2012 -0.3387
 5421SOL     OW27895   4.319   3.652   2.823 -0.1069  0.7548  0.4278
 5421SOL    HW127896   4.246   3.696   2.867  0.4451  0.6742  1.4437
 5421SOL    HW227897   4.362   3.610   2.898 -0.8553 -0.7152  0.0233
 5422SOL     OW27898   2.589   1.958   6.470  0.7403 -0.3872 -0.2455
 5422SOL    HW127899   2.629   1.913   6.395 -0.3317 -1.1497 -0.3548
 5422SOL    HW227900   2.581   2.044   6.430 -1.2251  0.4339  1.8808
 5423SOL     OW27901   1.803   3.821   4.947 -0.2230 -0.0556 -0.5031
 5423SOL    HW127902   1.885   3.805   4.994  0.5304 -0.4976 -1.9477
 5423SOL    HW227903   1.728   3.815   5.005 -1.4184 -1.9890 -2.2591
 5424SOL     OW27904   0.237   2.296  11.692 -0.0978 -0.4629  0.2097
 5424SOL    HW127905   0.236   2.210  11.733 -1.7779 -0.3474  0.3884
 5424SOL    HW227906   0.217   2.343  11.773 -2.4054 -0.2098 -0.5077
 5425SOL     OW27907   4.281   3.557   7.269  0.0324 -0.0428  0.1508
 5425SOL    HW127908   4.249   3.594   7.351 -0.4091  1.3673 -0.6593
 5425SOL    HW227909   4.239   3.471   7.275 -2.1255  0.9550 -0.6443
 5426SOL     OW27910   4.105   4.430   0.781 -0.0568 -0.1728 -0.5928
 5426SOL    HW127911   4.153   4.385   0.710  2.4585 -1.6891  2.0688
 5426SOL    HW227912   4.170   4.493   0.813 -0.0197 -2.1782  3.2191
 5427SOL     OW27913   0.890   1.135   4.585 -0.3743  0.0570 -0.1144
 5427SOL    HW127914   0.983   1.157   4.587 -0.4084  0.1035  0.7291
 5427SOL    HW227915   0.849   1.221   4.590  0.6704  0.6135 -1.1854
 5428SOL     OW27916   4.315   4.186   2.056  0.7013 -0.3400  0.0289
 5428SOL    HW127917   4.298   4.260   2.114  0.9189  1.0831 -1.6951
 5428SOL    HW227918   4.404   4.180   2.089  1.1626 -2.1290 -1.5151
 5429SOL     OW27919   2.038   0.564   8.384 -0.1750  0.1840 -0.2946
 5429SOL    HW127920   2.030   0.650   8.425 -0.8123  0.5750 -1.2245
 5429SOL    HW227921   2.064   0.517   8.463  2.8909  1.0107 -0.7896
 5430SOL     OW27922   4.471   2.529   5.313 -0.4200  0.1516 -0.6354
 5430SOL    HW127923   4.493   2.575   5.232  0.1819  1.1022  0.0559
 5430SOL    HW227924   4.548   2.475   5.331 -0.1488  0.3501 -1.2086
 5431SOL     OW27925   1.463   0.287  14.775  0.3444 -0.2464  0.2485
 5431SOL    HW127926   1.489   0.348  14.706 -0.3151  2.3004  2.2484
 5431SOL    HW227927   1.380   0.251  14.746 -0.0388 -1.2245  2.5450
 5432SOL     OW27928   0.491   1.596   4.691  0.0694 -1.1855 -0.1897
 5432SOL    HW127929   0.422   1.530   4.690  0.9958 -2.1898  1.0927
 5432SOL    HW227930   0.567   1.551   4.653  2.0355  2.4741 -0.5377
 5433SOL     OW27931   4.434   3.767   7.555  0.1244  0.6045 -0.1956
 5433SOL    HW127932   4.517   3.724   7.535  0.3847  0.3288  1.4982
 5433SOL    HW227933   4.376   3.692   7.541  0.4328  0.6400 -1.6990
 5434SOL     OW27934   1.520   1.755   4.166 -0.3769  0.1222  0.1392
 5434SOL    HW127935   1.554   1.693   4.102 -1.5969  1.5302 -1.8361
 5434SOL    HW227936   1.479   1.693   4.227  1.7585  0.2660  1.7271
 5435SOL     OW27937   0.546   0.595   5.097 -0.2860 -0.3147  0.4309
 5435SOL    HW127938   0.584   0.613   5.182  0.8247 -0.5266 -0.0192
 5435SOL    HW227939   0.616   0.569   5.036  0.1305 -1.6061  1.4519
 5436SOL     OW27940   2.940   1.128  17.192 -0.5697  0.1787  0.0944
 5436SOL    HW127941   2.987   1.144  17.274  0.3329  3.4125 -1.0396
 5436SOL    HW227942   2.850   1.142  17.222 -0.4194 -1.2447  1.2014
 5437SOL     OW27943   0.768   2.201   6.230  0.2484 -0.1519 -0.3862
 5437SOL    HW127944   0.732   2.212   6.142  0.0039 -0.6520 -0.3493
 5437SOL    HW227945   0.790   2.109   6.228  1.0646  0.0195  1.0871
 5438SOL     OW27946   4.636   3.482   5.967 -0.1999  0.4794 -0.2062
 5438SOL    HW127947   4.662   3.441   6.050  1.0415  0.4684 -0.5923
 5438SOL    HW227948   4.616   3.574   5.985  1.2434  1.0191 -1.3696
 5439SOL     OW27949   4.353   1.761  14.659 -0.1120 -0.3025  0.2890
 5439SOL    HW127950   4.291   1.778  14.588 -0.7427 -2.5964  0.2960
 5439SOL    HW227951   4.294   1.754  14.734 -1.3778  3.3018 -0.3660
 5440SOL     OW27952   2.780   2.047  15.111 -0.1295 -0.5296 -0.1902
 5440SOL    HW127953   2.755   1.979  15.048 -0.3397 -0.4792 -0.1627
 5440SOL    HW227954   2.870   2.064  15.084 -0.1003 -1.0215 -0.3963
 5441SOL     OW27955   4.604   1.455   3.279  0.4423  0.1885  0.0121
 5441SOL    HW127956   4.549   1.383   3.246 -0.2789  1.1818 -0.9460
 5441SOL    HW227957   4.675   1.398   3.308 -0.7763 -0.0519  2.5366
 5442SOL     OW27958   4.029   4.346   9.189  0.1421  0.1141  0.5612
 5442SOL    HW127959   3.938   4.317   9.186  0.2139 -0.0622  0.0539
 5442SOL    HW227960   4.040   4.347   9.094  2.7413  0.3812  0.8713
 5443SOL     OW27961   3.700   1.524   2.064 -0.0815 -0.1150 -0.0795
 5443SOL    HW127962   3.715   1.613   2.097  0.7444 -0.4125  0.3414
 5443SOL    HW227963   3.638   1.550   1.997  1.5299  0.3155 -1.3999
 5444SOL     OW27964   1.764   3.816   5.393 -0.3837  0.1769 -0.2669
 5444SOL    HW127965   1.744   3.754   5.323 -0.1825  0.7333 -0.8172
 5444SOL    HW227966   1.688   3.871   5.375 -1.0546 -0.6091  0.1839
 5445SOL     OW27967   1.301   3.376   8.555 -0.2577  0.8318 -0.3029
 5445SOL    HW127968   1.238   3.314   8.592  0.7610  0.7886  1.3434
 5445SOL    HW227969   1.231   3.441   8.555 -0.7968  0.2573  0.0106
 5446SOL     OW27970   3.420   1.119   2.455 -0.0680  0.3451 -0.0901
 5446SOL    HW127971   3.368   1.046   2.423  0.2200 -0.0189  0.2742
 5446SOL    HW227972   3.367   1.187   2.413  1.5751 -0.7155 -3.8037
 5447SOL     OW27973   1.487   4.070   5.869 -0.0891 -0.2851 -0.4358
 5447SOL    HW127974   1.505   4.031   5.784  1.3927 -0.9258  0.1689
 5447SOL    HW227975   1.395   4.091   5.851  0.2068  0.7159 -0.8084
 5448SOL     OW27976   4.409   1.048   9.816 -0.4345 -0.0242  0.6643
 5448SOL    HW127977   4.364   0.964   9.821 -1.7977  0.4903 -2.4690
 5448SOL    HW227978   4.488   1.036   9.869 -0.7249  0.2512  1.1594
 5449SOL     OW27979   2.218   2.558   7.256 -0.3769 -0.1394 -0.1846
 5449SOL    HW127980   2.296   2.560   7.313  0.4829  2.1820 -1.4682
 5449SOL    HW227981   2.211   2.647   7.222  0.4907  0.3325  0.8552
 5450SOL     OW27982   2.986   3.305   8.954  0.2738  0.0783 -0.0788
 5450SOL    HW127983   2.907   3.277   9.000 -0.1762 -1.4262 -1.7607
 5450SOL    HW227984   3.046   3.323   9.026 -1.0129  0.1315  0.9680
 5451SOL     OW27985   2.529   1.446   8.910 -0.0340  1.3068  0.4995
 5451SOL    HW127986   2.554   1.521   8.857  0.2382  2.6398  2.4967
 5451SOL    HW227987   2.576   1.461   8.992  2.3070  0.2356 -0.6568
 5452SOL     OW27988   1.824   0.702   2.314  0.1330 -0.1501 -0.2949
 5452SOL    HW127989   1.746   0.758   2.320  0.2789 -0.0253  0.3950
 5452SOL    HW227990   1.860   0.720   2.401  0.5905 -1.2372 -0.2608
 5453SOL     OW27991   2.249   2.099  12.773  0.2602 -0.3153  0.7371
 5453SOL    HW127992   2.253   2.014  12.728  1.1652 -0.8322  1.7938
 5453SOL    HW227993   2.161   2.102  12.811  1.3240 -2.2402  3.3310
 5454SOL     OW27994   0.554   1.127   2.702 -0.2727  0.1431  0.2848
 5454SOL    HW127995   0.626   1.168   2.750  0.6993 -1.3006  0.0846
 5454SOL    HW227996   0.598   1.123   2.617 -1.0016 -0.3494 -0.0674
 5455SOL     OW27997   0.864   1.996   8.544 -0.5457  0.3122  0.0725
 5455SOL    HW127998   0.816   2.025   8.467 -0.3017 -1.6279 -0.8018
 5455SOL    HW227999   0.887   2.079   8.588  0.5218  0.5574 -0.9553
 5456SOL     OW28000   1.023   3.231   2.563  0.4671  0.1743  0.4645
 5456SOL    HW128001   0.955   3.221   2.496  1.0646  0.3085 -0.1698
 5456SOL    HW228002   0.974   3.289   2.620  0.2971 -0.8980  1.4033
 5457SOL     OW28003   2.065   1.026   9.019 -0.3797 -0.0750 -0.5364
 5457SOL    HW128004   2.027   0.953   9.068 -1.8326 -0.8575 -2.8447
 5457SOL    HW228005   1.988   1.083   9.008 -0.7677 -0.3883  0.5670
 5458SOL     OW28006   0.411   3.289   8.611 -0.4673  0.0110  0.3706
 5458SOL    HW128007   0.373   3.232   8.544  0.6780  0.3818 -0.6035
 5458SOL    HW228008   0.330   3.318   8.653 -0.4866 -0.6050  0.7561
 5459SOL     OW28009   4.398   2.630   2.763  0.0504 -0.6289 -0.2242
 5459SOL    HW128010   4.487   2.622   2.797  0.3281  1.4107 -0.4662
 5459SOL    HW228011   4.410   2.706   2.707 -0.5646 -0.4740 -0.1475
 5460SOL     OW28012   1.898   4.464   6.607  0.4201  0.0318  0.5005
 5460SOL    HW128013   1.945   4.461   6.524 -0.4142 -1.4600  0.0817
 5460SOL    HW228014   1.914   4.383   6.657 -2.8207 -0.4360  0.8012
 5461SOL     OW28015   4.534   0.710  14.974  0.5772  0.4110  0.0451
 5461SOL    HW128016   4.617   0.672  14.945  0.7248  0.0126  0.9837
 5461SOL    HW228017   4.566   0.800  14.986 -0.0870  0.7629 -0.8822
 5462SOL     OW28018   3.603   1.044   6.688 -0.1902 -0.2692 -0.0636
 5462SOL    HW128019   3.682   1.087   6.720 -0.9705  0.4388  0.9125
 5462SOL    HW228020   3.636   1.019   6.601  0.3338 -0.8988  0.3146
 5463SOL     OW28021   2.832   2.397   9.314  0.1359  0.6176  0.2766
 5463SOL    HW128022   2.928   2.402   9.308  0.2620  1.3272  3.0832
 5463SOL    HW228023   2.805   2.486   9.339 -1.3146 -0.0253  0.9451
 5464SOL     OW28024   3.126   0.083  15.442 -0.0483 -0.1217  0.0829
 5464SOL    HW128025   3.044   0.123  15.473 -0.0361  0.5915 -0.8241
 5464SOL    HW228026   3.127   0.117  15.353  0.7115 -1.0124 -0.2546
 5465SOL     OW28027   2.870   1.356   5.223 -0.0048 -0.2149 -0.2855
 5465SOL    HW128028   2.854   1.275   5.174  0.1553  0.6291 -1.7269
 5465SOL    HW228029   2.941   1.400   5.176  1.1386 -0.2808  1.3734
 5466SOL     OW28030   2.753   0.513   5.550 -0.4233 -0.5671  0.3262
 5466SOL    HW128031   2.831   0.563   5.573 -0.9702  0.0368  0.8995
 5466SOL    HW228032   2.721   0.552   5.469 -0.8013 -1.0919  0.2187
 5467SOL     OW28033   0.313   3.789  10.757 -0.3179 -0.0968 -1.1119
 5467SOL    HW128034   0.356   3.732  10.693  1.1139  0.4485 -0.6406
 5467SOL    HW228035   0.281   3.715  10.807  0.5378 -0.1550 -0.6420
 5468SOL     OW28036   0.051   3.428   2.568  0.7271  0.1607 -0.3920
 5468SOL    HW128037   0.125   3.458   2.620  0.5891 -1.0760  0.5244
 5468SOL    HW228038   0.084   3.433   2.478 -1.5408 -1.2715 -1.3249
 5469SOL     OW28039   1.057   3.946   3.530  0.5921 -0.3156 -0.4545
 5469SOL    HW128040   1.075   3.852   3.525 -1.1924 -0.6861  0.0919
 5469SOL    HW228041   1.143   3.982   3.552 -0.5694  0.7742  2.2223
 5470SOL     OW28042   3.989   3.109  15.335  0.2858 -0.7902  0.0149
 5470SOL    HW128043   4.059   3.135  15.275  0.6168 -0.1794  0.6732
 5470SOL    HW228044   3.910   3.113  15.282  0.9254 -1.7933 -1.0387
 5471SOL     OW28045   0.923   4.130   9.264 -0.2671 -0.4799 -0.2776
 5471SOL    HW128046   0.859   4.060   9.252  0.2982 -1.1548  0.6965
 5471SOL    HW228047   0.984   4.093   9.328 -2.3037 -2.5222  0.4689
 5472SOL     OW28048   3.202   0.966   3.320  0.2266 -0.4389 -0.2800
 5472SOL    HW128049   3.198   0.872   3.302  0.6935 -0.5796  0.3646
 5472SOL    HW228050   3.289   0.975   3.281 -0.1512  3.5182 -0.1079
 5473SOL     OW28051   3.998   1.553   2.167  0.6488  0.5969 -0.0275
 5473SOL    HW128052   3.934   1.541   2.096  0.1572 -1.8401  0.8222
 5473SOL    HW228053   4.035   1.639   2.146 -0.6188  1.0946 -0.2249
 5474SOL     OW28054   1.543   0.711   8.096 -0.2108 -0.7746 -0.4745
 5474SOL    HW128055   1.544   0.802   8.066 -2.4825 -0.1882  1.1780
 5474SOL    HW228056   1.632   0.701   8.129 -0.3695  0.8376  0.4452
 5475SOL     OW28057   2.002   3.113  10.112 -0.0103  0.7850  0.5065
 5475SOL    HW128058   2.012   3.091  10.019  0.1585  0.5598  0.5772
 5475SOL    HW228059   2.015   3.029  10.156 -0.1101  0.0900 -0.7766
 5476SOL     OW28060   3.528   0.633   2.608 -0.1015  0.2093 -0.0477
 5476SOL    HW128061   3.530   0.560   2.547  5.0663 -0.6886  1.1746
 5476SOL    HW228062   3.435   0.656   2.606  0.2385  1.4108 -1.9730
 5477SOL     OW28063   0.060   3.480  10.851  0.0792 -0.0401  0.0236
 5477SOL    HW128064   0.082   3.406  10.794 -2.1168 -2.4595  2.3235
 5477SOL    HW228065   0.143   3.524  10.870 -0.7330  1.2807  0.4837
 5478SOL     OW28066   4.235   4.551  13.172 -0.1656 -0.2086 -0.4579
 5478SOL    HW128067   4.256   4.601  13.251 -0.4558 -1.0516  0.1539
 5478SOL    HW228068   4.154   4.509  13.200  0.3934  1.3146  3.4845
 5479SOL     OW28069   2.025   1.146   3.833 -0.5024  0.0674  0.3776
 5479SOL    HW128070   2.084   1.075   3.808 -1.5057 -0.5679 -0.2004
 5479SOL    HW228071   1.972   1.101   3.899  0.2267  0.2508  1.0902
 5480SOL     OW28072   1.255   2.732   8.412 -0.2742 -0.0472 -0.4589
 5480SOL    HW128073   1.340   2.761   8.380 -0.0515  0.1727  0.3304
 5480SOL    HW228074   1.221   2.689   8.333 -1.0009 -0.4774  0.0937
 5481SOL     OW28075   2.814   2.459   6.204 -0.0802  0.0642 -0.0116
 5481SOL    HW128076   2.770   2.380   6.235 -1.0096  1.2675  1.7040
 5481SOL    HW228077   2.782   2.518   6.272 -0.1074  1.3362 -1.1396
 5482SOL     OW28078   3.288   1.693   2.990 -0.5516  0.9492 -0.1225
 5482SOL    HW128079   3.199   1.727   3.005 -1.4244 -0.7436 -1.4340
 5482SOL    HW228080   3.263   1.601   2.998  2.3214  0.0411 -1.8904
 5483SOL     OW28081   1.405   0.536   7.933  0.2631  0.0366 -0.2026
 5483SOL    HW128082   1.492   0.576   7.941  0.1724  0.6158 -2.0557
 5483SOL    HW228083   1.354   0.583   7.999  2.5598  1.6091  0.4899
 5484SOL     OW28084   2.836   2.853  15.115 -0.4471  0.2292  0.6045
 5484SOL    HW128085   2.870   2.765  15.099 -1.4155  0.0263 -0.3245
 5484SOL    HW228086   2.883   2.881  15.194  0.2284  0.4700  0.1198
 5485SOL     OW28087   1.735   4.344  13.906  0.1852  0.3431 -0.4339
 5485SOL    HW128088   1.821   4.365  13.870  0.1214 -0.0462 -0.8052
 5485SOL    HW228089   1.723   4.412  13.973 -2.7444 -2.3996  1.8406
 5486SOL     OW28090   2.734   0.993   5.416  0.0883 -0.2299  0.0856
 5486SOL    HW128091   2.680   1.072   5.422  0.5271  0.0738  0.0502
 5486SOL    HW228092   2.818   1.037   5.403  0.2543 -0.7139 -0.5089
 5487SOL     OW28093   0.894   1.444  10.517  0.5766 -0.1672  0.2453
 5487SOL    HW128094   0.872   1.415  10.605  1.3586  1.6553  1.0396
 5487SOL    HW228095   0.982   1.411  10.530  0.9836  1.5496  1.8108
 5488SOL     OW28096   1.016   4.733   8.207 -0.0835 -0.0323  0.5293
 5488SOL    HW128097   1.104   4.697   8.222  0.6494  1.7956  0.5961
 5488SOL    HW228098   0.991   4.664   8.145  1.4724 -0.5204  0.4355
 5489SOL     OW28099   1.600   0.131  12.548  0.5702 -0.0770 -0.0104
 5489SOL    HW128100   1.653   0.192  12.599  0.9312 -1.5829  1.4397
 5489SOL    HW228101   1.526   0.102  12.601  0.8963 -2.6165 -0.9389
 5490SOL     OW28102   2.100   0.196   1.659 -0.2217 -0.5306 -0.3548
 5490SOL    HW128103   2.006   0.183   1.667 -0.5489  2.0799  0.0493
 5490SOL    HW228104   2.124   0.130   1.594  0.6067  1.5978 -2.2218
 5491SOL     OW28105   2.734   4.456  10.637 -0.1194 -0.1816  0.5989
 5491SOL    HW128106   2.705   4.474  10.548  2.7085  2.4008  0.2002
 5491SOL    HW228107   2.752   4.362  10.629 -2.5395 -0.6708  1.0095
 5492SOL     OW28108   2.513   0.885  15.815 -0.2185 -0.2332 -0.2372
 5492SOL    HW128109   2.570   0.959  15.836  1.3981 -1.7171  0.6110
 5492SOL    HW228110   2.519   0.879  15.720 -2.7944 -1.3779 -0.3178
 5493SOL     OW28111   4.161   1.080   1.192 -0.0922  0.0522  0.0814
 5493SOL    HW128112   4.166   1.081   1.096 -1.4099 -2.5363 -0.0117
 5493SOL    HW228113   4.093   1.147   1.200 -1.0864 -0.8257 -0.9601
 5494SOL     OW28114   2.978   3.258   9.260 -0.4506  0.4602 -0.2849
 5494SOL    HW128115   3.071   3.239   9.249 -0.6887 -0.4284 -0.7311
 5494SOL    HW228116   2.960   3.236   9.352  0.7668 -0.8928 -0.3641
 5495SOL     OW28117   3.132   3.724   8.114  0.4577  0.1281 -0.4504
 5495SOL    HW128118   3.172   3.712   8.028  2.6110  1.1775  0.4044
 5495SOL    HW228119   3.043   3.747   8.088 -0.2871  0.3682  2.2769
 5496SOL     OW28120   1.038   2.003   5.659 -0.0969  0.5082  0.2591
 5496SOL    HW128121   1.086   1.984   5.579  0.0090 -0.5528  0.5700
 5496SOL    HW228122   1.103   1.992   5.729  0.8229 -0.6596 -0.7810
 5497SOL     OW28123   2.571   2.809   6.069  0.3818 -0.0900 -0.1947
 5497SOL    HW128124   2.646   2.811   6.128 -0.4156 -1.2052  0.8473
 5497SOL    HW228125   2.618   2.796   5.987  0.9234  0.0639  0.0945
 5498SOL     OW28126   3.885   2.880   4.926 -0.1183  0.2123  0.3090
 5498SOL    HW128127   3.867   2.972   4.907 -1.3148 -0.0998 -0.0959
 5498SOL    HW228128   3.968   2.892   4.971  0.0774 -1.7907  0.5116
 5499SOL     OW28129   3.640   2.145   4.415  0.1727  0.9344 -0.2337
 5499SOL    HW128130   3.610   2.159   4.325  0.3656  0.4922 -0.3626
 5499SOL    HW228131   3.691   2.224   4.436 -0.5694  1.2460  0.3912
 5500SOL     OW28132   0.258   0.841  12.041 -0.2750  0.1090 -0.6639
 5500SOL    HW128133   0.173   0.808  12.070 -1.0400  0.2439 -2.7166
 5500SOL    HW228134   0.224   0.917  11.994 -1.8464  0.1025  0.4763
 5501SOL     OW28135   1.539   3.928   6.400 -0.1209 -0.4961 -0.1126
 5501SOL    HW128136   1.624   3.947   6.440 -0.2914 -3.5653  1.6748
 5501SOL    HW228137   1.548   3.947   6.307  2.7124  1.8507  0.6286
 5502SOL     OW28138   0.843   0.565   7.669  0.1235  0.1982 -0.6868
 5502SOL    HW128139   0.939   0.565   7.662 -0.1389 -1.2528 -4.3200
 5502SOL    HW228140   0.821   0.519   7.588  1.1300 -0.6297 -0.4933
 5503SOL     OW28141   0.622   0.772  11.580 -0.6513  0.1346  0.6769
 5503SOL    HW128142   0.685   0.710  11.544 -2.1359 -0.0348 -1.5734
 5503SOL    HW228143   0.661   0.798  11.664 -0.3735 -0.1334  0.6309
 5504SOL     OW28144   4.271   1.327   1.665  0.0507  0.5896  0.0172
 5504SOL    HW128145   4.203   1.281   1.714  2.2083  0.5750  2.9963
 5504SOL    HW228146   4.279   1.259   1.598 -2.6546  0.5611 -0.2795
 5505SOL     OW28147   1.059   2.957   7.929 -0.0541  0.3817 -0.3383
 5505SOL    HW128148   1.040   3.014   7.854 -1.6934  3.0464  2.1303
 5505SOL    HW228149   1.085   2.875   7.887 -0.1797  0.7943 -1.2337
 5506SOL     OW28150   0.287   0.148   7.904 -0.3576 -0.4227  0.1421
 5506SOL    HW128151   0.375   0.172   7.873 -0.2276 -1.4893 -0.2908
 5506SOL    HW228152   0.292   0.053   7.898  0.7775 -0.2787 -1.2066
 5507SOL     OW28153   4.442   4.337  15.823  0.2475  0.0590  0.1054
 5507SOL    HW128154   4.514   4.398  15.807  0.0276  0.5355  0.9117
 5507SOL    HW228155   4.388   4.350  15.745 -2.4964 -1.1565  1.8035
 5508SOL     OW28156   3.973   1.899   6.903 -0.1413  0.3592 -0.0336
 5508SOL    HW128157   4.004   1.904   6.813 -0.2378 -0.8431 -0.1401
 5508SOL    HW228158   3.961   1.992   6.921  0.8581  0.6467 -0.8103
 5509SOL     OW28159   1.484   1.648   6.464 -0.1370  0.1456  0.4834
 5509SOL    HW128160   1.578   1.629   6.469 -0.1153  0.6392  2.0901
 5509SOL    HW228161   1.457   1.605   6.545 -1.3344 -1.4185 -0.7524
 5510SOL     OW28162   3.403   2.216   1.146 -0.4582 -0.2825 -0.4346
 5510SOL    HW128163   3.384   2.283   1.081  0.3789 -1.1448 -1.5800
 5510SOL    HW228164   3.364   2.260   1.221 -3.9248 -0.8817 -1.8771
 5511SOL     OW28165   0.815   2.959   9.013 -0.5824 -0.1992 -0.5927
 5511SOL    HW128166   0.768   2.917   8.941  0.0954  0.9385 -1.7019
 5511SOL    HW228167   0.774   3.046   9.012 -0.7292 -0.2030  2.9406
 5512SOL     OW28168   1.628   3.613   5.187  0.2202  0.0632 -0.4364
 5512SOL    HW128169   1.685   3.564   5.128 -0.5086 -0.5877 -0.5991
 5512SOL    HW228170   1.547   3.597   5.139 -0.2227 -0.3967  0.4702
 5513SOL     OW28171   0.628   2.166   2.973  0.2031  0.8064  0.2894
 5513SOL    HW128172   0.707   2.218   2.983  0.2575  0.6321  0.7767
 5513SOL    HW228173   0.561   2.222   3.013 -0.7182  0.2088 -0.4085
 5514SOL     OW28174   3.481   2.873   9.627  0.0936  0.0077 -0.1255
 5514SOL    HW128175   3.527   2.924   9.694  0.2299 -0.5760  0.2210
 5514SOL    HW228176   3.414   2.934   9.598  0.0122  0.0006  0.0521
 5515SOL     OW28177   3.106   0.655   3.059 -0.4961  0.3723 -0.3190
 5515SOL    HW128178   3.164   0.688   2.991 -0.9103  1.8933  0.0540
 5515SOL    HW228179   3.159   0.677   3.136  0.5238 -1.6532 -0.4442
 5516SOL     OW28180   3.277   1.436  17.108 -0.0459  0.2367 -0.2586
 5516SOL    HW128181   3.318   1.386  17.037  0.1858  0.1597 -0.0670
 5516SOL    HW228182   3.340   1.506  17.121 -0.2534  0.8212 -2.4382
 5517SOL     OW28183   0.523   1.681   3.502 -0.2729 -0.0158  0.4833
 5517SOL    HW128184   0.504   1.667   3.595  0.3820 -0.0227  0.6219
 5517SOL    HW228185   0.543   1.774   3.492  0.8509 -0.3106 -0.0446
 5518SOL     OW28186   4.298   1.341  14.895 -0.2944  0.1172 -0.0515
 5518SOL    HW128187   4.364   1.398  14.855  0.7411 -1.6406 -0.8594
 5518SOL    HW228188   4.344   1.257  14.897 -1.6666 -0.6218  0.2380
 5519SOL     OW28189   1.155   4.496   6.325 -0.2989 -0.4287  0.3478
 5519SOL    HW128190   1.126   4.405   6.327 -1.9057  0.0279 -2.3841
 5519SOL    HW228191   1.117   4.525   6.408 -1.1400  0.7845 -0.4695
 5520SOL     OW28192   1.158   3.634  10.865 -0.2462  0.1314  0.2424
 5520SOL    HW128193   1.164   3.695  10.938 -0.5356 -2.8090  2.7293
 5520SOL    HW228194   1.094   3.568  10.892  0.8177 -0.6127  0.9353
 5521SOL     OW28195   3.105   4.152   2.043 -0.3450 -0.2692  0.3232
 5521SOL    HW128196   3.048   4.145   2.120 -0.6328  0.0175  0.1382
 5521SOL    HW228197   3.192   4.144   2.082 -0.0832  1.6386  0.1309
 5522SOL     OW28198   0.433   1.560  16.708 -0.0106 -0.7689  0.4461
 5522SOL    HW128199   0.364   1.625  16.718 -0.7702 -1.4028 -0.7011
 5522SOL    HW228200   0.424   1.508  16.788 -1.7983  0.0344  0.7613
 5523SOL     OW28201   0.172   0.754   7.191 -0.2500  0.3039  0.0869
 5523SOL    HW128202   0.256   0.771   7.147 -0.3609  0.1958 -0.1691
 5523SOL    HW228203   0.173   0.661   7.210 -0.8011  0.6170  1.5873
 5524SOL     OW28204   3.211   3.228   6.947 -0.0327 -0.2992  0.2280
 5524SOL    HW128205   3.291   3.259   6.904  0.1672  1.3178  1.7489
 5524SOL    HW228206   3.236   3.226   7.039 -2.5864  0.4610  0.9420
 5525SOL     OW28207   3.328   2.655   8.519 -0.3742  0.0238 -0.0884
 5525SOL    HW128208   3.271   2.590   8.477  0.0635  0.4681 -1.3731
 5525SOL    HW228209   3.382   2.588   8.561 -1.2828 -1.6097 -1.4973
 5526SOL     OW28210   0.645   1.812  15.004 -0.0519 -0.5534  0.3512
 5526SOL    HW128211   0.562   1.768  15.019 -1.5813  2.4631  0.7851
 5526SOL    HW228212   0.651   1.800  14.909  1.6529 -2.4941  0.7150
 5527SOL     OW28213   0.336   2.671   8.084 -0.5033 -0.0393 -0.4018
 5527SOL    HW128214   0.254   2.693   8.127 -0.3095  0.3277 -0.2151
 5527SOL    HW228215   0.331   2.710   7.997  1.3621  0.7852 -0.1438
 5528SOL     OW28216   1.357   4.089   9.108  0.9184 -0.0268  0.1702
 5528SOL    HW128217   1.314   4.004   9.122  1.4644 -0.6278 -1.8877
 5528SOL    HW228218   1.411   4.089   9.188  0.0652 -1.6725  0.7472
 5529SOL     OW28219   1.898   3.221   8.860  0.1584  0.4357 -0.0087
 5529SOL    HW128220   1.880   3.255   8.772 -0.9837  1.3115  0.5495
 5529SOL    HW228221   1.971   3.160   8.855 -1.5665 -1.6834  0.2032
 5530SOL     OW28222   4.059   0.761  15.104 -0.2510  0.0560 -0.8467
 5530SOL    HW128223   4.035   0.668  15.100  2.0304 -0.5785  0.7382
 5530SOL    HW228224   4.074   0.781  15.197  2.0465  1.7256 -1.5990
 5531SOL     OW28225   2.221   1.192  11.705 -0.0221  0.3722 -0.1966
 5531SOL    HW128226   2.246   1.184  11.797  0.1526 -0.6921 -0.3305
 5531SOL    HW228227   2.226   1.100  11.679 -0.5620  0.6889 -1.4106
 5532SOL     OW28228   1.357   0.353   4.446 -0.0105  0.0635 -0.4361
 5532SOL    HW128229   1.351   0.365   4.351 -2.3706  1.3578 -0.1055
 5532SOL    HW228230   1.292   0.408   4.488  0.9991  0.3685  0.7225
 5533SOL     OW28231   1.756   1.865   6.271  0.3323  0.3515  0.6859
 5533SOL    HW128232   1.699   1.858   6.347 -0.4585 -1.2690 -0.0490
 5533SOL    HW228233   1.702   1.908   6.205  1.2759  1.5477  0.6826
 5534SOL     OW28234   0.452   3.925   5.825 -0.1669 -0.4757  0.0755
 5534SOL    HW128235   0.510   3.901   5.753  1.3496  0.0415  1.1144
 5534SOL    HW228236   0.518   3.950   5.890  1.3329 -3.2893 -0.4017
 5535SOL     OW28237   1.256   3.955   7.310 -0.4974  0.1880 -0.5888
 5535SOL    HW128238   1.215   3.983   7.392  0.8433  2.3219 -0.6588
 5535SOL    HW228239   1.279   4.026   7.250 -0.5473  1.2356  0.6363
 5536SOL     OW28240   4.085   1.132   6.052  0.0213 -0.0480 -0.1644
 5536SOL    HW128241   4.115   1.222   6.042  0.3761 -0.0422  0.9668
 5536SOL    HW228242   4.163   1.079   6.031 -1.1093 -1.5357 -0.6310
 5537SOL     OW28243   2.234   0.287   9.191  0.4522  0.0629  0.0741
 5537SOL    HW128244   2.162   0.228   9.214 -1.0427  2.0827  0.4563
 5537SOL    HW228245   2.218   0.290   9.097 -0.7878  1.0790  0.3282
 5538SOL     OW28246   1.908   0.678   6.464 -0.5892 -0.2366 -0.4951
 5538SOL    HW128247   1.974   0.627   6.418  0.5374  1.1628 -0.4185
 5538SOL    HW228248   1.959   0.725   6.530 -1.5830 -1.9986  1.5230
 5539SOL     OW28249   3.402   3.159   4.399  0.3463  0.4817 -0.1433
 5539SOL    HW128250   3.451   3.151   4.318  1.8028 -0.8042  0.8530
 5539SOL    HW228251   3.447   3.234   4.439 -0.9518  0.1423  1.9480
 5540SOL     OW28252   1.454   0.782  16.413  0.0621  0.1296  0.0874
 5540SOL    HW128253   1.413   0.748  16.492 -0.3956  1.0448  0.2415
 5540SOL    HW228254   1.538   0.798  16.457 -0.0022 -3.1342  1.3569
 5541SOL     OW28255   2.002   1.550  10.339  0.0464  0.4641  0.9608
 5541SOL    HW128256   1.940   1.477  10.331 -0.2749  0.8223  0.2657
 5541SOL    HW228257   2.078   1.504  10.377  1.1308 -0.7024 -2.6368
 5542SOL     OW28258   3.028   2.477   4.226  0.2864  0.7155  0.1062
 5542SOL    HW128259   3.105   2.476   4.283 -1.4355  0.3740  2.4349
 5542SOL    HW228260   2.961   2.492   4.293  0.2108 -0.8748  0.3895
 5543SOL     OW28261   2.961   4.470   7.142  0.4229  0.2278  1.0762
 5543SOL    HW128262   3.002   4.547   7.102 -2.1405  0.5677 -0.8883
 5543SOL    HW228263   2.870   4.496   7.156 -0.0383 -0.2758 -0.9103
 5544SOL     OW28264   3.656   2.433   2.301 -0.3577 -0.1701  0.2745
 5544SOL    HW128265   3.625   2.516   2.266 -1.5434  0.3428  2.5545
 5544SOL    HW228266   3.680   2.462   2.389  2.3147 -2.8376  0.4368
 5545SOL     OW28267   3.937   4.291   2.159  0.1601 -0.0031  0.3684
 5545SOL    HW128268   3.915   4.238   2.236 -0.7349 -1.0643 -0.6133
 5545SOL    HW228269   3.979   4.223   2.106 -0.0315 -1.0840  1.6028
 5546SOL     OW28270   1.562   3.575   6.688 -0.1951  0.6397 -0.6465
 5546SOL    HW128271   1.645   3.542   6.654  0.0712 -2.0040  2.4232
 5546SOL    HW228272   1.536   3.511   6.755  1.1881  0.5108 -0.2412
 5547SOL     OW28273   4.560   4.218   1.761  0.8438 -0.2794 -0.1587
 5547SOL    HW128274   4.469   4.190   1.751  0.8184 -0.3833  0.3850
 5547SOL    HW228275   4.569   4.226   1.855 -1.2619  0.8584 -0.0569
 5548SOL     OW28276   3.214   0.405   5.648  0.7493  0.5750 -0.4161
 5548SOL    HW128277   3.137   0.358   5.679  1.3866  0.3078  0.7536
 5548SOL    HW228278   3.201   0.497   5.669  1.4541  1.0144 -1.8757
 5549SOL     OW28279   4.284   2.237  16.618 -0.0646 -0.7624  0.2195
 5549SOL    HW128280   4.309   2.201  16.533 -0.8243 -2.7733  0.8408
 5549SOL    HW228281   4.284   2.327  16.588  0.1326 -0.8933 -0.1772
 5550SOL     OW28282   2.863   2.726  10.638  0.2683 -0.1045  0.6888
 5550SOL    HW128283   2.837   2.815  10.663 -1.5399 -0.6803  0.8345
 5550SOL    HW228284   2.839   2.680  10.719  1.6159 -1.2375  0.4498
 5551SOL     OW28285   0.285   1.919  11.392  0.2441  0.0142  0.0278
 5551SOL    HW128286   0.206   1.867  11.404  0.3964 -0.4550 -0.9303
 5551SOL    HW228287   0.248   2.002  11.364  0.1998  0.3535  1.0960
 5552SOL     OW28288   3.005   0.105   2.568 -0.2577 -0.3117 -0.5110
 5552SOL    HW128289   3.033   0.015   2.586  0.5539 -0.7067 -3.7825
 5552SOL    HW228290   2.910   0.093   2.576 -0.8574  3.8572 -1.3072
 5553SOL     OW28291   1.331   0.841   7.216  0.0333 -0.1147  0.3385
 5553SOL    HW128292   1.329   0.896   7.293  0.1926  0.2109  0.1082
 5553SOL    HW228293   1.316   0.909   7.150  0.6126 -2.4835 -2.2613
 5554SOL     OW28294   2.318   1.173   5.750 -0.2778  0.1833  0.0886
 5554SOL    HW128295   2.270   1.112   5.806 -1.2985  0.7259 -0.1972
 5554SOL    HW228296   2.402   1.189   5.792 -0.5465  0.2907  0.5821
 5555SOL     OW28297   3.711   3.619   7.680 -0.8893  0.5166  0.2694
 5555SOL    HW128298   3.748   3.673   7.611 -2.1929  1.7282  0.5213
 5555SOL    HW228299   3.731   3.532   7.644  3.1855  2.3339 -1.7786
 5556SOL     OW28300   3.420   4.128   4.161 -0.4064 -0.3670 -0.4229
 5556SOL    HW128301   3.437   4.181   4.239 -2.2675  0.3298 -0.4835
 5556SOL    HW228302   3.505   4.084   4.157  0.9936  2.1591  1.8007
 5557SOL     OW28303   1.124   3.200   8.647 -0.1744  0.0009  0.8825
 5557SOL    HW128304   1.164   3.128   8.598 -1.0922 -1.2906  2.0266
 5557SOL    HW228305   1.036   3.198   8.609 -0.9238 -4.0207  2.7979
 5558SOL     OW28306   0.011   1.820   5.548  0.2956 -0.3089  0.5442
 5558SOL    HW128307   4.720   1.908   5.573 -1.8993 -0.3500 -1.7042
 5558SOL    HW228308   0.079   1.801   5.613  0.4997 -2.2482 -0.2325
 5559SOL     OW28309   1.585   1.348   6.820 -0.2903  0.0542 -0.3476
 5559SOL    HW128310   1.583   1.296   6.901 -1.4739 -0.0633 -0.4394
 5559SOL    HW228311   1.670   1.391   6.824  1.0770 -2.6068 -1.1079
 5560SOL     OW28312   2.507   0.074   7.311 -0.1083  0.4251 -0.7520
 5560SOL    HW128313   2.562   0.103   7.239 -1.3823  1.6001 -1.2596
 5560SOL    HW228314   2.463   0.156   7.334  0.1269  0.1548  0.6905
 5561SOL     OW28315   0.091   4.552   6.514  0.8967 -0.0386 -0.2758
 5561SOL    HW128316   0.137   4.634   6.497 -0.7896  0.9778  0.0974
 5561SOL    HW228317   0.114   4.535   6.605 -2.6222  0.7520  0.7608
 5562SOL     OW28318   2.978   1.451  14.531 -0.8710 -0.2343 -0.6870
 5562SOL    HW128319   2.992   1.391  14.604 -0.5911 -0.1188 -0.6426
 5562SOL    HW228320   3.035   1.520  14.566 -2.3006  0.5816  0.0186
 5563SOL     OW28321   0.286   1.353   2.967 -0.2873  0.0660  0.1241
 5563SOL    HW128322   0.289   1.354   2.871 -0.4563  0.2957  0.1209
 5563SOL    HW228323   0.378   1.370   2.986 -0.3857 -0.8903  1.4691
 5564SOL     OW28324   3.252   4.672  12.676 -0.0230  0.4467 -0.3740
 5564SOL    HW128325   3.338   4.663  12.636 -1.0718 -2.2222 -2.0319
 5564SOL    HW228326   3.260   0.032  12.682  2.0598  0.1680  1.1606
 5565SOL     OW28327   4.624   0.436   9.852 -0.3516  0.5635 -0.5814
 5565SOL    HW128328   4.615   0.342   9.837  0.2060  0.4266 -0.0580
 5565SOL    HW228329   4.700   0.450   9.909 -1.4977  1.0064  0.8473
 5566SOL     OW28330   4.166   0.877   0.601  0.2101  0.0853 -0.2727
 5566SOL    HW128331   4.185   0.787   0.627 -2.4363  0.3294  2.5615
 5566SOL    HW228332   4.152   0.876   0.506 -1.0207 -0.5667 -0.0835
 5567SOL     OW28333   3.894   0.137   5.502  0.1609 -0.5880  0.5158
 5567SOL    HW128334   3.840   0.208   5.537 -0.3761 -0.1770 -1.1036
 5567SOL    HW228335   3.823   0.076   5.482  2.5028 -2.8641 -0.8584
 5568SOL     OW28336   4.395   1.186   8.436  0.0690  0.8836  0.1155
 5568SOL    HW128337   4.472   1.152   8.389 -0.5699 -0.7708  0.2801
 5568SOL    HW228338   4.424   1.277   8.447  2.6757 -0.1710  1.9607
 5569SOL     OW28339   2.139   0.412   9.620 -0.4930  0.4486 -0.2533
 5569SOL    HW128340   2.224   0.387   9.655  1.1032  3.5096 -1.9562
 5569SOL    HW228341   2.092   0.451   9.694  1.8699  1.3015  0.7890
 5570SOL     OW28342   0.098   0.527   8.101 -0.2793 -0.0494 -0.3562
 5570SOL    HW128343   0.176   0.557   8.055  0.3211 -0.8123  0.1695
 5570SOL    HW228344   0.139   0.461   8.156 -2.3685 -1.3335 -0.3549
 5571SOL     OW28345   2.065   1.019   8.590 -0.1170  0.0938  0.0435
 5571SOL    HW128346   2.145   1.052   8.551  0.8666 -1.6613  0.5901
 5571SOL    HW228347   2.010   1.092   8.562 -0.2798 -0.3079 -0.6911
 5572SOL     OW28348   0.882   3.395   5.862 -0.6433  0.0609  0.0970
 5572SOL    HW128349   0.879   3.402   5.957  2.5630 -2.6256  0.3730
 5572SOL    HW228350   0.875   3.489   5.845  2.4156  0.5596  1.7926
 5573SOL     OW28351   1.280   0.396  15.890 -0.0576  0.1723  0.5735
 5573SOL    HW128352   1.305   0.342  15.965  1.5809  2.5053  1.7159
 5573SOL    HW228353   1.322   0.477  15.918 -1.2629  0.6901  0.8750
 5574SOL     OW28354   1.784   2.473  12.701  0.3983  0.5692 -0.2558
 5574SOL    HW128355   1.872   2.481  12.738  0.1264 -2.5944  1.0369
 5574SOL    HW228356   1.734   2.453  12.780  0.2847 -0.8554 -0.6825
 5575SOL     OW28357   0.596   1.082   3.003  0.0815 -0.6979  0.5538
 5575SOL    HW128358   0.507   1.069   3.036 -0.0877  0.9665  0.7238
 5575SOL    HW228359   0.597   1.175   3.023 -0.7024 -0.9602  1.8618
 5576SOL     OW28360   3.327   3.813  10.957  0.1500 -0.3214  0.1660
 5576SOL    HW128361   3.382   3.740  10.929  1.6229  0.2295  1.6430
 5576SOL    HW228362   3.286   3.771  11.032 -0.9359 -1.1364 -0.8736
 5577SOL     OW28363   4.631   1.505  15.957  0.5836 -0.6437 -0.5281
 5577SOL    HW128364   4.683   1.583  15.976 -0.2838  0.1277 -1.3169
 5577SOL    HW228365   4.543   1.527  15.987  0.7347  0.7696 -1.1242
 5578SOL     OW28366   3.647   0.125   6.793  0.3925  0.2674  0.6803
 5578SOL    HW128367   3.611   0.039   6.775 -0.2287  1.1140 -2.1244
 5578SOL    HW228368   3.568   0.173   6.816 -0.1125  0.0747 -0.6304
 5579SOL     OW28369   2.980   0.676   3.743  0.0843 -0.2907  0.2338
 5579SOL    HW128370   3.062   0.706   3.705 -1.6864  0.4577 -3.0010
 5579SOL    HW228371   3.015   0.595   3.779  2.2628 -0.3872 -2.1276
 5580SOL     OW28372   3.806   1.783   5.387  0.0608  0.4262 -0.9977
 5580SOL    HW128373   3.886   1.767   5.336 -0.4159  0.4264 -1.7435
 5580SOL    HW228374   3.826   1.864   5.435  0.1543 -0.0218 -0.2873
 5581SOL     OW28375   1.300   4.626   3.960  0.0480 -0.3233 -0.3434
 5581SOL    HW128376   1.359   4.568   3.912  0.3218  0.4378 -0.9285
 5581SOL    HW228377   1.277   4.562   4.028  0.4352 -0.2631 -0.1523
 5582SOL     OW28378   2.120   1.637   8.119  0.4282 -0.3269 -0.2135
 5582SOL    HW128379   2.077   1.551   8.114 -0.4175  0.1081 -0.4738
 5582SOL    HW228380   2.190   1.621   8.055 -0.9372 -1.3761 -1.4545
 5583SOL     OW28381   1.078   4.176   4.901 -0.3756  0.0797  0.4265
 5583SOL    HW128382   1.044   4.251   4.949 -0.8213  1.1552 -1.5356
 5583SOL    HW228383   1.137   4.228   4.846  0.7552  0.2909  1.8487
 5584SOL     OW28384   1.456   4.008  11.543  0.4248 -0.1228  0.2167
 5584SOL    HW128385   1.447   4.091  11.589 -1.5744 -0.6259  0.6922
 5584SOL    HW228386   1.493   3.957  11.615  2.3566 -0.3163 -0.8981
 5585SOL     OW28387   0.534   0.747   8.367  0.7714  0.4313 -0.0581
 5585SOL    HW128388   0.482   0.673   8.338  1.6348 -0.6268  1.0871
 5585SOL    HW228389   0.591   0.703   8.430  3.0186 -0.1388 -2.5020
 5586SOL     OW28390   4.081   0.790   1.957  0.0695  0.0596  0.3666
 5586SOL    HW128391   3.989   0.812   1.974 -0.4294 -0.9049 -1.0715
 5586SOL    HW228392   4.115   0.815   2.043  0.1783  3.0067 -0.5246
 5587SOL     OW28393   2.830   3.816   7.089  0.7828 -0.0818  0.5319
 5587SOL    HW128394   2.911   3.804   7.138 -0.4999 -1.4339  2.3018
 5587SOL    HW228395   2.849   3.799   6.996  0.2496 -1.8248  0.7386
 5588SOL     OW28396   0.617   1.596  16.005  0.6846  0.2146  0.2968
 5588SOL    HW128397   0.586   1.510  15.978  0.4343  0.6087 -0.6713
 5588SOL    HW228398   0.537   1.642  16.028 -0.1207 -1.5303  0.9950
 5589SOL     OW28399   0.236   0.555  15.155 -0.7799 -0.3747  0.1029
 5589SOL    HW128400   0.239   0.505  15.073 -1.5993 -0.7907  0.3346
 5589SOL    HW228401   0.165   0.507  15.198 -2.2316  1.2670 -0.4683
 5590SOL     OW28402   3.330   2.905   6.236 -0.2861  0.2781  0.0867
 5590SOL    HW128403   3.384   2.861   6.171  1.4401 -1.8890  2.9685
 5590SOL    HW228404   3.334   2.996   6.207  2.9409  0.3751  0.8804
 5591SOL     OW28405   4.664   4.324   6.770  0.1979  0.0722  0.3703
 5591SOL    HW128406   4.584   4.321   6.822  0.3158  1.5725  0.6300
 5591SOL    HW228407   4.636   4.263   6.702 -1.8531 -0.8758  2.0645
 5592SOL     OW28408   0.709   0.729   8.807  0.0981 -0.0963 -0.0005
 5592SOL    HW128409   0.710   0.818   8.843 -2.2285 -0.2458  0.4617
 5592SOL    HW228410   0.669   0.678   8.878  1.5905  1.4313  1.9210
 5593SOL     OW28411   4.270   4.340   8.362 -0.1510  0.1822  0.0416
 5593SOL    HW128412   4.333   4.334   8.435  1.9274 -2.1291 -1.9478
 5593SOL    HW228413   4.229   4.425   8.378 -1.3900 -0.2362 -0.9758
 5594SOL     OW28414   0.705   1.564   7.893 -0.3900  0.7713  0.5127
 5594SOL    HW128415   0.729   1.471   7.901 -0.6559  0.7846  1.5920
 5594SOL    HW228416   0.772   1.602   7.949  0.3739  1.4733 -0.9055
 5595SOL     OW28417   3.540   0.208   4.832 -0.0938 -0.0831 -0.4541
 5595SOL    HW128418   3.546   0.254   4.915 -2.4208 -1.8898  0.7086
 5595SOL    HW228419   3.483   0.262   4.777  0.8575 -0.5627 -1.9154
 5596SOL     OW28420   1.985   1.105  12.556  0.4455 -0.2437 -0.0457
 5596SOL    HW128421   1.891   1.096  12.536  0.3804  0.3404 -0.0045
 5596SOL    HW228422   2.015   1.170  12.493 -1.9083 -0.5663 -1.4952
 5597SOL     OW28423   3.517   1.012  10.573  0.2136 -0.0889 -0.1021
 5597SOL    HW128424   3.451   1.047  10.632  0.4727 -0.4140  0.3805
 5597SOL    HW228425   3.537   0.934  10.626  0.9870 -1.0414 -1.7971
 5598SOL     OW28426   4.662   1.650  12.567  0.4244  0.6125 -0.8849
 5598SOL    HW128427   4.724   1.684  12.631 -0.0894 -1.2945  0.6033
 5598SOL    HW228428   4.714   1.606  12.500 -0.7758 -0.6295 -1.0091
 5599SOL     OW28429   1.300   4.456   7.103  0.2375 -0.8373 -0.0490
 5599SOL    HW128430   1.393   4.435   7.107  0.1676 -1.0021  0.7662
 5599SOL    HW228431   1.290   4.484   7.012  2.0328 -1.1688 -0.3476
 5600SOL     OW28432   0.829   0.069   7.445 -0.2970  0.4975  0.2926
 5600SOL    HW128433   0.765   0.058   7.515 -0.4866 -1.8523 -0.2432
 5600SOL    HW228434   0.833   4.720   7.399  0.6657  1.3139 -1.1371
 5601SOL     OW28435   2.163   2.031   8.883  0.4544  0.2067 -0.1508
 5601SOL    HW128436   2.185   2.048   8.974  0.0459  1.0517 -0.2149
 5601SOL    HW228437   2.097   2.100   8.873  2.3249  1.7546 -1.8570
 5602SOL     OW28438   3.461   0.949  10.982  0.2080  0.3470 -0.1690
 5602SOL    HW128439   3.436   1.030  11.026 -0.3284 -0.1460  0.4604
 5602SOL    HW228440   3.422   0.966  10.897  3.5643  0.5208 -1.6567
 5603SOL     OW28441   2.758   2.510   1.094 -0.6785  0.0532  0.1435
 5603SOL    HW128442   2.675   2.466   1.114 -1.1097  0.9436  0.2960
 5603SOL    HW228443   2.731   2.601   1.109 -2.3016 -0.6128  1.2421
 5604SOL     OW28444   0.677   4.230   3.038  0.0122 -0.3367 -0.2126
 5604SOL    HW128445   0.584   4.239   3.019 -0.0639 -0.7033 -0.0111
 5604SOL    HW228446   0.719   4.214   2.953  3.4912 -0.9573  1.6239
 5605SOL     OW28447   1.090   2.520   5.441 -0.4287 -0.0715  0.2356
 5605SOL    HW128448   1.117   2.498   5.530  0.5480 -2.6206 -0.6851
 5605SOL    HW228449   1.143   2.597   5.424 -1.4508  1.2730  3.0352
 5606SOL     OW28450   3.638   1.412  16.225 -0.1629 -0.0151  0.2204
 5606SOL    HW128451   3.614   1.352  16.154 -0.9841  1.6065 -0.8478
 5606SOL    HW228452   3.734   1.411  16.217 -0.1828  0.4779 -0.0667
 5607SOL     OW28453   3.416   3.874   3.469  0.1500 -0.4088  0.2058
 5607SOL    HW128454   3.434   3.826   3.549 -2.2207  1.1809  1.6975
 5607SOL    HW228455   3.341   3.828   3.431  0.1653  0.0615 -0.4028
 5608SOL     OW28456   0.866   0.180   2.204 -0.1108  0.8842 -0.1719
 5608SOL    HW128457   0.934   0.149   2.265  0.3473  1.1810 -0.5274
 5608SOL    HW228458   0.849   0.266   2.241 -0.6601  0.7992 -0.2385
 5609SOL     OW28459   0.854   1.998   0.080  0.3987  0.4046  0.3532
 5609SOL    HW128460   0.898   1.932   0.026 -0.0764  1.9593 -1.9771
 5609SOL    HW228461   0.765   1.966   0.068  1.5150 -2.7124  0.3655
 5610SOL     OW28462   4.143   4.721   0.477  0.3011  0.0968  0.4100
 5610SOL    HW128463   4.198   4.643   0.462 -0.7713 -0.7679  0.9488
 5610SOL    HW228464   4.144   0.022   0.388 -1.6058  0.7866  0.6729
 5611SOL     OW28465   3.054   1.233   7.856  0.0530 -0.4329  0.6900
 5611SOL    HW128466   3.131   1.224   7.912 -1.0625  0.6878  2.4125
 5611SOL    HW228467   3.092   1.194   7.778  0.9994  2.8617 -0.4639
 5612SOL     OW28468   3.078   2.817   3.797  0.5633  0.8090 -0.4133
 5612SOL    HW128469   3.041   2.847   3.880 -0.5861 -2.0285  0.0753
 5612SOL    HW228470   3.170   2.836   3.816  0.7352 -0.8875  0.4663
 5613SOL     OW28471   0.952   3.758  16.955  0.2227  0.4060 -0.1846
 5613SOL    HW128472   0.891   3.790  17.022 -0.1877 -1.4316  0.3145
 5613SOL    HW228473   0.903   3.709  16.889 -0.1846 -1.1383  1.2454
 5614SOL     OW28474   2.043   2.865   2.747  0.4640 -0.0060 -0.8558
 5614SOL    HW128475   2.113   2.906   2.696  0.7040  0.5224 -0.1057
 5614SOL    HW228476   1.969   2.898   2.696 -1.1111  0.8501  1.9675
 5615SOL     OW28477   1.250   4.664   7.497 -0.2327  0.3417  0.2562
 5615SOL    HW128478   1.346   4.664   7.489 -0.4724 -2.2416 -2.4658
 5615SOL    HW228479   1.219   4.672   7.407 -2.1790  1.3013  1.0164
 5616SOL     OW28480   0.744   2.519   2.358  0.1582 -0.0472  0.1587
 5616SOL    HW128481   0.696   2.436   2.352 -1.7887  1.0858  0.2659
 5616SOL    HW228482   0.744   2.522   2.454  3.7421 -2.0795  0.2333
 5617SOL     OW28483   2.787   0.454   1.683  0.2881  0.6783  0.1385
 5617SOL    HW128484   2.771   0.511   1.608 -0.1759 -0.2919 -0.4943
 5617SOL    HW228485   2.706   0.403   1.689  0.7465 -0.0189  0.3356
 5618SOL     OW28486   2.848   4.388   2.292  0.3026  0.4911 -0.0874
 5618SOL    HW128487   2.895   4.471   2.292  0.6801  0.2783 -1.6051
 5618SOL    HW228488   2.783   4.402   2.361 -0.2826  0.6073 -0.6717
 5619SOL     OW28489   3.161   4.016   6.575 -0.1064 -0.4345 -0.9636
 5619SOL    HW128490   3.178   3.967   6.495 -0.0314  0.1308 -1.2946
 5619SOL    HW228491   3.177   3.948   6.641  0.8325  0.3888 -0.3280
 5620SOL     OW28492   4.073   1.854  15.982 -0.2257  0.1364  0.6395
 5620SOL    HW128493   4.089   1.908  15.904 -0.2168 -0.1113  0.4693
 5620SOL    HW228494   4.018   1.911  16.035 -0.6717  0.7029 -0.4330
 5621SOL     OW28495   2.991   3.954   4.035 -0.0717  0.0198 -0.1160
 5621SOL    HW128496   2.965   3.989   4.120  0.4172 -0.2163  0.1293
 5621SOL    HW228497   3.075   3.909   4.043 -0.4040 -0.4775  0.5774
 5622SOL     OW28498   0.505   4.338   5.658 -0.2575  0.3166  0.4810
 5622SOL    HW128499   0.558   4.294   5.725 -1.1589 -1.0054  0.3217
 5622SOL    HW228500   0.573   4.367   5.596  0.1345 -0.6763  0.4402
 5623SOL     OW28501   4.498   3.728   4.720  0.5712  0.1166 -0.5499
 5623SOL    HW128502   4.450   3.777   4.787 -0.2142  1.3418 -2.0265
 5623SOL    HW228503   4.589   3.740   4.744  0.3790 -1.8195  1.1667
 5624SOL     OW28504   1.020   0.034  11.219 -0.2176  0.8107  0.6411
 5624SOL    HW128505   1.001   0.037  11.125 -0.9660  1.1795  0.7954
 5624SOL    HW228506   0.932   0.058  11.250 -0.5084 -0.3797  0.7151
 5625SOL     OW28507   1.992   3.676  11.715 -0.8364 -0.2490  0.1204
 5625SOL    HW128508   1.936   3.623  11.659  0.6806  1.2532 -2.8311
 5625SOL    HW228509   2.051   3.698  11.643  0.2251 -1.8541  0.4869
 5626SOL     OW28510   0.213   2.819  16.725 -0.7622  0.6578 -0.4691
 5626SOL    HW128511   0.300   2.858  16.736 -1.7064  2.5998  0.0407
 5626SOL    HW228512   0.221   2.784  16.636 -1.6560 -3.0720  0.9066
 5627SOL     OW28513   2.299   1.853   2.179  0.1663  0.1502 -0.1720
 5627SOL    HW128514   2.336   1.853   2.091 -1.1920  0.5068 -0.7479
 5627SOL    HW228515   2.365   1.901   2.228  1.2492 -1.2770 -0.2360
 5628SOL     OW28516   2.012   2.661  10.695  0.5157  0.8194 -0.2467
 5628SOL    HW128517   2.011   2.607  10.616 -2.3409 -1.1334  1.1306
 5628SOL    HW228518   2.005   2.596  10.765  0.0865  1.3634  0.2162
 5629SOL     OW28519   4.492   3.706   6.399 -0.2152 -0.0629 -0.3227
 5629SOL    HW128520   4.482   3.612   6.414  1.2946 -0.1319  0.1824
 5629SOL    HW228521   4.575   3.710   6.352 -1.7639 -0.8425 -3.0826
 5630SOL     OW28522   2.723   2.011   1.453 -0.6820  0.5227  0.1078
 5630SOL    HW128523   2.767   2.093   1.429 -0.1889  0.2690  0.1421
 5630SOL    HW228524   2.702   1.978   1.365  0.9211 -0.0445 -0.0688
 5631SOL     OW28525   2.339   1.181   6.600  0.3712  0.4481  0.4287
 5631SOL    HW128526   2.245   1.192   6.589  0.2194 -0.7308  0.4886
 5631SOL    HW228527   2.372   1.159   6.513  2.2427  1.5857  0.8473
 5632SOL     OW28528   0.806   0.512   3.673 -0.0763 -0.3525 -0.2382
 5632SOL    HW128529   0.899   0.506   3.648 -0.0814  0.4592 -0.4205
 5632SOL    HW228530   0.768   0.581   3.620 -2.1918 -0.4013  1.2416
 5633SOL     OW28531   0.924   4.502   5.911  0.0145 -0.0005  0.6390
 5633SOL    HW128532   0.967   4.479   5.829  1.8174  1.1870  1.2568
 5633SOL    HW228533   0.841   4.539   5.881  0.1319  1.4258  2.0612
 5634SOL     OW28534   1.181   0.802   2.468 -0.8866 -0.2219  0.1080
 5634SOL    HW128535   1.168   0.778   2.376 -0.0302  1.8102 -0.5472
 5634SOL    HW228536   1.122   0.740   2.510 -0.0162  0.6156  2.5568
 5635SOL     OW28537   3.540   3.840   2.883  0.3082  0.1878  0.2819
 5635SOL    HW128538   3.531   3.745   2.883 -2.7545  0.4785  1.3816
 5635SOL    HW228539   3.517   3.858   2.974  0.6950 -1.3276  0.6832
 5636SOL     OW28540   1.876   3.739   7.606 -0.0040 -0.0250  1.1468
 5636SOL    HW128541   1.914   3.669   7.554  2.1781  0.5074  2.0216
 5636SOL    HW228542   1.852   3.697   7.688  2.5592 -1.0261  1.4035
 5637SOL     OW28543   2.378   2.811   6.365 -0.1010  0.1199 -0.0571
 5637SOL    HW128544   2.366   2.778   6.276  1.9430 -2.5721  0.6666
 5637SOL    HW228545   2.343   2.742   6.422  0.4465 -1.5199 -1.7180
 5638SOL     OW28546   2.242   2.824  11.323 -0.4426 -0.1866  0.3621
 5638SOL    HW128547   2.270   2.824  11.232 -1.4165  1.9458  0.0678
 5638SOL    HW228548   2.173   2.889  11.311 -0.6374 -0.7898 -1.6672
 5639SOL     OW28549   2.778   2.391  12.622 -0.0162 -0.0069 -0.3373
 5639SOL    HW128550   2.774   2.386  12.527 -0.0119 -0.1753 -0.3291
 5639SOL    HW228551   2.850   2.331  12.638 -0.5169 -0.5421 -0.0955
 5640SOL     OW28552   1.894   1.807   5.203  0.1560  0.5939 -0.1832
 5640SOL    HW128553   1.840   1.730   5.187  0.5386  0.4654 -0.8620
 5640SOL    HW228554   1.959   1.775   5.265 -1.1459 -0.7324  0.4936
 5641SOL     OW28555   4.000   1.683  13.435  0.0306 -0.1307  0.0994
 5641SOL    HW128556   4.093   1.661  13.444 -0.5103 -2.9447 -0.9541
 5641SOL    HW228557   3.982   1.699  13.528  1.3919  0.5066  0.2442
 5642SOL     OW28558   0.512   1.510   1.080  0.4050  0.0947 -0.4175
 5642SOL    HW128559   0.475   1.560   1.008  0.8378  1.4216  0.2806
 5642SOL    HW228560   0.541   1.578   1.141  1.5808 -0.3126 -0.5271
 5643SOL     OW28561   3.838   2.940   5.355  0.4245  0.1195  0.7069
 5643SOL    HW128562   3.918   2.896   5.326  0.0140 -0.8158  1.0000
 5643SOL    HW228563   3.865   3.031   5.366  1.1827  0.1967 -1.9947
 5644SOL     OW28564   4.680   1.151  10.956 -0.4091 -0.5027 -0.1175
 5644SOL    HW128565   0.032   1.165  10.994 -1.5280 -1.9311  3.0120
 5644SOL    HW228566   4.625   1.204  11.013 -0.3952 -0.1212 -0.4593
 5645SOL     OW28567   3.466   1.604   1.118  0.4286  0.2415  0.3265
 5645SOL    HW128568   3.515   1.562   1.047  1.4427  1.1991  0.4482
 5645SOL    HW228569   3.410   1.669   1.076  0.3107  0.6474  1.1038
 5646SOL     OW28570   4.110   0.918  10.079 -0.2312 -0.2082 -0.2171
 5646SOL    HW128571   4.111   0.965  10.162  1.7034 -0.4198 -0.1201
 5646SOL    HW228572   4.198   0.942  10.049 -0.3970  0.6177 -0.0385
 5647SOL     OW28573   2.291   4.522   3.051 -0.5519 -0.4857  0.0821
 5647SOL    HW128574   2.266   4.596   3.107 -0.6149 -0.7861  0.4551
 5647SOL    HW228575   2.359   4.553   2.991 -0.2645 -0.1820  0.5624
 5648SOL     OW28576   0.256   4.046  10.855 -0.4625 -0.0165  0.8543
 5648SOL    HW128577   0.346   4.080  10.860 -0.0706 -0.5516 -2.4995
 5648SOL    HW228578   0.274   3.955  10.832 -1.3042 -0.3449  1.4983
 5649SOL     OW28579   2.680   0.327   4.490 -0.2601 -0.1014  1.0348
 5649SOL    HW128580   2.696   0.406   4.439 -0.2319  0.3647  1.7773
 5649SOL    HW228581   2.756   0.274   4.466  0.0112  1.1549 -0.8761
 5650SOL     OW28582   2.604   2.185  14.730  0.4331 -0.3019 -0.0189
 5650SOL    HW128583   2.674   2.136  14.687 -0.7689 -0.8953 -1.2593
 5650SOL    HW228584   2.632   2.269  14.694 -0.4287  0.1015  0.2518
 5651SOL     OW28585   2.020   4.669   6.712 -0.0849  0.0260  0.3806
 5651SOL    HW128586   2.100   4.638   6.670 -0.6593 -0.4854 -0.3555
 5651SOL    HW228587   1.952   4.624   6.661 -0.1015 -0.7868  1.1304
 5652SOL     OW28588   3.451   3.240  11.627  0.0693 -0.3559  0.3929
 5652SOL    HW128589   3.383   3.183  11.591  1.4708 -1.0556 -1.1263
 5652SOL    HW228590   3.397   3.265  11.702 -2.4822  0.3617 -1.6772
 5653SOL     OW28591   1.892   0.728   2.027 -0.3457 -0.3735 -0.0241
 5653SOL    HW128592   1.891   0.823   2.036  1.2608 -0.2972 -0.7499
 5653SOL    HW228593   1.802   0.697   2.039  0.0589 -0.8657  1.6716
 5654SOL     OW28594   2.504   0.285   2.464  0.2911  0.7785 -0.1838
 5654SOL    HW128595   2.483   0.218   2.399  1.8115  1.0013 -0.9129
 5654SOL    HW228596   2.600   0.283   2.463  0.3011  1.4995 -0.9980
 5655SOL     OW28597   2.178   1.433   5.742 -0.2136 -0.7677 -0.3953
 5655SOL    HW128598   2.112   1.390   5.796 -1.2606 -1.7876 -2.4743
 5655SOL    HW228599   2.244   1.364   5.752 -0.7257 -1.2795 -0.4957
 5656SOL     OW28600   0.509   4.239  16.783 -0.1394  0.6208 -0.1022
 5656SOL    HW128601   0.464   4.314  16.743  0.8241 -0.0073 -2.3553
 5656SOL    HW228602   0.516   4.180  16.708  0.6998  0.6088 -0.0160
 5657SOL     OW28603   3.392   0.389   1.928 -0.3082 -0.4650  0.1302
 5657SOL    HW128604   3.369   0.358   1.841  0.5124 -0.2649 -0.1594
 5657SOL    HW228605   3.313   0.421   1.972  0.2310  2.0421 -0.7203
 5658SOL     OW28606   3.804   0.736   4.023 -0.1275 -0.4208  0.3795
 5658SOL    HW128607   3.829   0.826   4.046 -0.6574 -0.4322  0.9852
 5658SOL    HW228608   3.780   0.732   3.931 -2.1711 -1.1767  0.9517
 5659SOL     OW28609   2.126   4.006   8.832  0.1966 -0.1945  0.3807
 5659SOL    HW128610   2.221   4.019   8.827  0.2034 -0.4649 -0.1824
 5659SOL    HW228611   2.093   4.074   8.773 -3.1574  0.4000  2.9504
 5660SOL     OW28612   1.173   3.610   5.229  0.0512 -0.1989  0.5753
 5660SOL    HW128613   1.246   3.616   5.167  0.3155  0.0675  0.9113
 5660SOL    HW228614   1.212   3.542   5.284  0.7643 -0.3623 -0.1307
 5661SOL     OW28615   1.565   1.685   3.577 -0.2085  0.0521  0.0257
 5661SOL    HW128616   1.609   1.600   3.571 -2.6608 -1.2618  0.3727
 5661SOL    HW228617   1.563   1.688   3.673 -0.9522 -3.7227  0.1585
 5662SOL     OW28618   0.223   1.679   8.812 -0.2088 -0.3729 -0.2112
 5662SOL    HW128619   0.185   1.750   8.864  0.0134 -0.1998 -0.2881
 5662SOL    HW228620   0.156   1.611   8.825 -0.2223 -0.7683 -2.4349
 5663SOL     OW28621   4.122   2.485   7.156 -0.1933  0.7185 -0.0993
 5663SOL    HW128622   4.132   2.580   7.147 -0.6851  1.0205  2.4880
 5663SOL    HW228623   4.177   2.448   7.087 -2.0977 -0.7495 -0.8364
 5664SOL     OW28624   0.210   1.773   5.741  0.4540  0.3701  0.2633
 5664SOL    HW128625   0.153   1.740   5.810 -2.2102  0.8271 -1.7155
 5664SOL    HW228626   0.297   1.740   5.761  0.3915 -0.3521 -0.6504
 5665SOL     OW28627   2.092   2.757   6.697  0.1974 -0.2613  0.2040
 5665SOL    HW128628   2.128   2.842   6.723 -0.7924  0.7351 -1.6972
 5665SOL    HW228629   2.050   2.780   6.614 -1.9275  0.1586  1.3920
 5666SOL     OW28630   2.514   2.538  11.289 -0.0079 -1.0241 -0.4310
 5666SOL    HW128631   2.545   2.448  11.295  0.1334 -0.7051  3.2260
 5666SOL    HW228632   2.516   2.565  11.197  1.4974 -0.4671 -0.2358
 5667SOL     OW28633   4.662   3.183   2.539 -0.1111  0.1081  0.4757
 5667SOL    HW128634   0.001   3.123   2.539  0.6831  1.0930  0.7274
 5667SOL    HW228635   4.706   3.264   2.567 -1.0691 -0.1163  2.6374
 5668SOL     OW28636   4.110   3.746  15.425 -0.2616  0.0354 -0.1923
 5668SOL    HW128637   4.084   3.838  15.426  0.9623  0.3874 -0.9128
 5668SOL    HW228638   4.140   3.721  15.338 -0.8272 -0.2010 -0.3183
 5669SOL     OW28639   2.281   3.041   4.964 -0.8979  0.5213  0.0530
 5669SOL    HW128640   2.327   2.960   4.941 -3.9492 -1.0575 -0.4660
 5669SOL    HW228641   2.206   3.038   4.905 -0.3957 -0.7577 -0.5112
 5670SOL     OW28642   4.549   2.326   4.689  0.0382 -0.3661 -0.1905
 5670SOL    HW128643   4.518   2.298   4.603  0.5689 -0.2470 -0.4209
 5670SOL    HW228644   4.636   2.353   4.661 -1.4157  2.0999 -2.3212
 5671SOL     OW28645   3.202   3.026   1.656  0.2409 -0.1073  1.1500
 5671SOL    HW128646   3.243   3.024   1.743 -0.1863  1.4143  1.3824
 5671SOL    HW228647   3.153   2.945   1.645  0.3763 -0.1182  0.6464
 5672SOL     OW28648   0.791   1.847   0.317 -0.0114  0.0995  0.0207
 5672SOL    HW128649   0.827   1.923   0.271 -2.5724  1.4804  0.3092
 5672SOL    HW228650   0.846   1.771   0.298  1.5484  1.7695 -2.0449
 5673SOL     OW28651   4.179   3.802  11.712  0.0673 -0.1552  0.2627
 5673SOL    HW128652   4.202   3.811  11.620  1.6619 -1.3222  0.5564
 5673SOL    HW228653   4.088   3.832  11.712  0.6528  1.6495  0.9557
 5674SOL     OW28654   1.740   1.076   8.192  0.0460 -0.3509 -0.3919
 5674SOL    HW128655   1.830   1.077   8.225  0.1275 -2.0069 -0.5874
 5674SOL    HW228656   1.699   1.138   8.252 -0.3511 -2.8276  1.9096
 5675SOL     OW28657   3.762   4.425   2.346 -0.0967 -0.8097 -0.3233
 5675SOL    HW128658   3.840   4.412   2.292 -0.3788 -0.4555 -0.8077
 5675SOL    HW228659   3.804   4.474   2.417 -0.3270 -0.2566 -0.5722
 5676SOL     OW28660   1.991   1.012   4.079  0.2577 -0.0645 -0.8780
 5676SOL    HW128661   2.083   0.989   4.088  0.1246 -0.1070  0.3627
 5676SOL    HW228662   1.955   0.927   4.057 -0.0158 -0.2106  0.1263
 5677SOL     OW28663   2.475   0.252   4.134 -0.2383 -0.0932  0.4437
 5677SOL    HW128664   2.421   0.185   4.090  1.4020  0.5460 -2.5546
 5677SOL    HW228665   2.529   0.195   4.189 -1.0716 -1.3448 -0.0186
 5678SOL     OW28666   4.039   0.464   7.141 -0.0948 -0.1508  0.5780
 5678SOL    HW128667   4.075   0.412   7.212  1.5075  1.2570  0.7784
 5678SOL    HW228668   3.991   0.396   7.094  0.2221 -0.5189  0.7873
 5679SOL     OW28669   0.633   2.711   8.772 -0.4343 -0.2444 -0.1058
 5679SOL    HW128670   0.546   2.672   8.776 -0.7590  0.4959  0.2059
 5679SOL    HW228671   0.621   2.806   8.784 -3.5385 -0.6402  0.0684
 5680SOL     OW28672   1.148   3.629  17.114 -0.5187  0.0970 -0.1128
 5680SOL    HW128673   1.087   3.640  17.187 -0.7084 -0.6095 -0.1700
 5680SOL    HW228674   1.088   3.653  17.043  1.0781 -0.9734 -1.8394
 5681SOL     OW28675   3.724   3.201  11.206  0.1048  0.6819  0.6439
 5681SOL    HW128676   3.629   3.201  11.197  0.3731 -1.2254 -2.2609
 5681SOL    HW228677   3.739   3.188  11.300 -0.5377  0.7959  0.7608
 5682SOL     OW28678   2.961   3.709  16.511  0.2758 -0.2092 -0.0321
 5682SOL    HW128679   2.948   3.701  16.606 -1.4962  1.1436 -0.1641
 5682SOL    HW228680   2.883   3.763  16.497 -0.3958 -1.1796 -0.0291
 5683SOL     OW28681   0.422   4.103   9.155  0.1500  0.9456  0.4018
 5683SOL    HW128682   0.477   4.162   9.104 -0.1516  0.1863 -0.7860
 5683SOL    HW228683   0.347   4.104   9.096  0.3406 -1.0038  0.1575
 5684SOL     OW28684   2.015   1.275   2.633  0.5637 -0.1829 -0.4076
 5684SOL    HW128685   2.065   1.199   2.662  0.0785 -0.3777 -0.0843
 5684SOL    HW228686   2.059   1.299   2.551 -1.3965 -0.2919 -1.4958
 5685SOL     OW28687   3.146   3.474  13.734  0.6293 -0.6787  0.5163
 5685SOL    HW128688   3.215   3.523  13.690 -1.0729  1.6766  0.4998
 5685SOL    HW228689   3.204   3.431  13.797  1.8090 -2.3287 -1.6708
 5686SOL     OW28690   2.333   1.121   3.734  0.8995  0.2070  0.0867
 5686SOL    HW128691   2.363   1.143   3.822 -0.5525 -0.0363  0.6363
 5686SOL    HW228692   2.414   1.157   3.699  0.6831  1.8155  1.2582
 5687SOL     OW28693   0.651   3.515  10.469  0.1036  0.3775  0.0607
 5687SOL    HW128694   0.743   3.522  10.443 -0.4923  2.4568 -1.3961
 5687SOL    HW228695   0.617   3.443  10.415  0.2321 -0.6607  1.3467
 5688SOL     OW28696   1.934   3.263  12.910  0.0013  0.2538  0.6598
 5688SOL    HW128697   1.848   3.297  12.883 -0.2177 -0.2718  0.7017
 5688SOL    HW228698   1.969   3.248  12.822 -3.1949  0.8611 -0.7544
 5689SOL     OW28699   3.359   2.055   4.962 -0.3101  0.3340  0.6286
 5689SOL    HW128700   3.281   2.061   4.907  0.5811  1.8693 -0.4610
 5689SOL    HW228701   3.396   2.141   4.944 -0.6279  0.1113 -1.1327
 5690SOL     OW28702   0.976   3.353   4.297  0.0223 -0.4562 -0.1691
 5690SOL    HW128703   0.911   3.364   4.227 -0.6175 -2.7279  0.0633
 5690SOL    HW228704   0.928   3.371   4.377  0.1887  0.0096 -0.1743
 5691SOL     OW28705   4.561   2.892   3.939  0.2166  0.2445 -0.6378
 5691SOL    HW128706   4.619   2.903   4.014  0.1594 -0.1858 -0.5280
 5691SOL    HW228707   4.541   2.798   3.939 -0.3311  0.3711  1.4196
 5692SOL     OW28708   4.722   3.355  12.745  0.6147  0.0074 -0.1184
 5692SOL    HW128709   4.684   3.273  12.776 -0.8026  0.0803 -1.6472
 5692SOL    HW228710   4.672   3.416  12.800 -0.0776  0.7068 -1.5306
 5693SOL     OW28711   2.619   2.185   8.782  0.1782 -0.0524  0.6193
 5693SOL    HW128712   2.644   2.139   8.862 -0.1591 -1.2052  0.0542
 5693SOL    HW228713   2.538   2.222   8.817 -1.0147 -0.8467 -1.2857
 5694SOL     OW28714   4.030   4.142   4.723 -0.4145 -0.2032 -0.4987
 5694SOL    HW128715   3.998   4.224   4.761 -0.9780  0.4497 -2.3544
 5694SOL    HW228716   4.027   4.166   4.630 -1.4711 -0.0629 -0.4295
 5695SOL     OW28717   2.135   1.737  17.461  0.4254  0.4589  0.2914
 5695SOL    HW128718   2.072   1.735  17.390 -0.6297  0.6079  1.2267
 5695SOL    HW228719   2.092   1.778  17.537 -1.1635 -0.1305 -0.2970
 5696SOL     OW28720   3.880   1.566  17.164 -0.2157 -0.2323 -0.4184
 5696SOL    HW128721   3.918   1.608  17.088 -1.3145  0.0270 -0.8269
 5696SOL    HW228722   3.834   1.642  17.200 -0.0160 -0.1355 -0.3679
 5697SOL     OW28723   3.046   2.146  17.718 -0.2931 -0.2189  0.3705
 5697SOL    HW128724   3.094   2.088  17.659 -0.3747 -2.2246  2.2924
 5697SOL    HW228725   3.009   2.211  17.658  1.8589  0.2062 -0.4668
 5698SOL     OW28726   3.072   4.409   5.081  0.4634 -0.1033 -0.0987
 5698SOL    HW128727   2.993   4.357   5.097 -0.0767  0.7729  0.1341
 5698SOL    HW228728   3.113   4.367   5.006  2.5713  0.3230  0.8091
 5699SOL     OW28729   2.511   0.262  10.620  0.0432 -0.2850  0.1335
 5699SOL    HW128730   2.485   0.205  10.693 -0.5112 -1.9290 -1.3318
 5699SOL    HW228731   2.463   0.344  10.615  1.8660  0.8242  0.7327
 5700SOL     OW28732   0.118   0.735   6.724  0.4808 -0.1073  0.1271
 5700SOL    HW128733   0.192   0.710   6.779 -0.1203  0.8786  1.3683
 5700SOL    HW228734   0.125   0.830   6.736  3.0666 -0.2365 -0.4013
 5701SOL     OW28735   4.604   4.099   5.230  0.4172  0.4522 -0.0542
 5701SOL    HW128736   4.681   4.044   5.246  0.8078  1.4885  1.6702
 5701SOL    HW228737   4.532   4.038   5.242  1.4631 -1.1941 -2.1908
 5702SOL     OW28738   0.786   1.887   5.482  0.0524  0.6447 -0.0069
 5702SOL    HW128739   0.816   1.825   5.549 -0.3407 -0.4882 -0.8760
 5702SOL    HW228740   0.857   1.948   5.502  2.0224 -1.2314 -1.3547
 5703SOL     OW28741   3.662   4.440  12.770 -0.3796 -0.7542 -0.1105
 5703SOL    HW128742   3.694   4.526  12.741  0.5425 -0.3619  2.0738
 5703SOL    HW228743   3.668   4.382  12.694 -1.3759  1.1464 -1.6510
 5704SOL     OW28744   1.915   1.465   5.640  0.4029  0.0839  0.2238
 5704SOL    HW128745   2.008   1.480   5.657  0.5528 -1.2849  0.6285
 5704SOL    HW228746   1.876   1.507   5.716  0.6401  1.0402 -0.1866
 5705SOL     OW28747   0.063   4.325   9.775 -0.0974 -0.1257  1.1658
 5705SOL    HW128748   0.084   4.318   9.682  1.0269 -3.0750  1.6551
 5705SOL    HW228749   4.716   4.375   9.779 -1.3727 -2.0600 -0.4273
 5706SOL     OW28750   1.494   0.077   1.736 -0.1515  0.0879 -0.3898
 5706SOL    HW128751   1.530   0.096   1.649 -0.5923 -0.5066 -0.7051
 5706SOL    HW228752   1.493   0.161   1.782  0.8730 -0.9714  1.5561
 5707SOL     OW28753   1.270   3.314   1.685 -0.6367  0.6955 -0.2094
 5707SOL    HW128754   1.211   3.245   1.655  1.0655 -0.5040 -0.7813
 5707SOL    HW228755   1.298   3.288   1.773  0.8987  1.2896 -0.5143
 5708SOL     OW28756   3.259   4.660   5.474  0.4656  0.4638 -0.3519
 5708SOL    HW128757   3.312   4.654   5.394  1.2467 -2.3480  0.3766
 5708SOL    HW228758   3.248   0.019   5.465 -1.4971  0.2789  0.0869
 5709SOL     OW28759   0.218   4.384   7.855  0.3666  0.2822  0.0831
 5709SOL    HW128760   0.132   4.348   7.835  0.8973 -0.9001 -0.0795
 5709SOL    HW228761   0.189   4.429   7.934  1.3645 -0.6606  0.9891
 5710SOL     OW28762   0.377   2.369   5.280  0.4710 -0.6079 -0.2953
 5710SOL    HW128763   0.390   2.359   5.186  0.3420  1.2824 -0.5298
 5710SOL    HW228764   0.341   2.281   5.290  2.1988 -1.1782  0.9230
 5711SOL     OW28765   1.765   3.870  12.469 -0.6464 -0.4291 -0.4187
 5711SOL    HW128766   1.683   3.828  12.445 -0.8964  0.0084 -0.3124
 5711SOL    HW228767   1.773   3.944  12.409  2.5764  1.0878  1.8590
 5712SOL     OW28768   4.480   1.756   6.400  0.3087  0.3809  0.0159
 5712SOL    HW128769   4.485   1.719   6.488  2.7050 -3.3274 -1.6853
 5712SOL    HW228770   4.510   1.844   6.422  1.0371  0.4573 -1.2826
 5713SOL     OW28771   0.553   0.348  15.053 -1.0984  0.6201 -0.4444
 5713SOL    HW128772   0.524   0.432  15.090 -1.4082  0.3287 -0.0282
 5713SOL    HW228773   0.546   0.283  15.123  0.5521 -1.8765 -2.5841
 5714SOL     OW28774   4.285   4.110   8.518  0.0037  0.1064  0.3327
 5714SOL    HW128775   4.257   4.137   8.606  0.5260 -1.3034  0.9358
 5714SOL    HW228776   4.237   4.169   8.461  0.0100  0.1811  0.4058
 5715SOL     OW28777   3.670   2.208  15.527 -0.4491 -0.0063 -0.1758
 5715SOL    HW128778   3.682   2.257  15.608  0.0300  2.6818 -1.8700
 5715SOL    HW228779   3.577   2.217  15.510 -0.6852  0.4216  1.3520
 5716SOL     OW28780   3.637   1.056   4.143 -0.0285  0.3856  0.4133
 5716SOL    HW128781   3.660   0.998   4.215  1.3584  0.5837  0.1361
 5716SOL    HW228782   3.629   1.142   4.185 -3.6231 -0.3358  1.1440
 5717SOL     OW28783   0.879   2.413  11.430 -0.2297 -0.1388  0.0494
 5717SOL    HW128784   0.879   2.502  11.465  0.1606  0.4269 -1.3813
 5717SOL    HW228785   0.818   2.426  11.357 -1.1232  2.8970  1.3164
 5718SOL     OW28786   0.460   1.189   1.852  0.1070  0.2390  0.5297
 5718SOL    HW128787   0.507   1.231   1.780  0.3743  1.7053  1.5553
 5718SOL    HW228788   0.414   1.255   1.903  1.1783  0.2516  1.4950
 5719SOL     OW28789   1.881   2.604   7.811  0.4266 -0.2435 -0.5422
 5719SOL    HW128790   1.841   2.529   7.767  2.2832 -0.1366 -2.4207
 5719SOL    HW228791   1.936   2.561   7.877  1.3396  0.4185 -0.8638
 5720SOL     OW28792   1.304   1.879   6.286  0.0409 -0.3978  0.4294
 5720SOL    HW128793   1.247   1.848   6.216 -0.3620 -0.1950  0.6657
 5720SOL    HW228794   1.296   1.974   6.277 -1.7271 -0.9171 -3.5615
 5721SOL     OW28795   2.826   1.073   8.926  0.2129 -0.1027 -0.2005
 5721SOL    HW128796   2.754   1.109   8.874 -1.2630 -1.3831  0.9295
 5721SOL    HW228797   2.870   1.019   8.860 -0.9869  0.4066 -1.4158
 5722SOL     OW28798   2.121   3.560   3.300 -0.6927 -0.2811 -0.5201
 5722SOL    HW128799   2.060   3.496   3.337  2.3238 -2.8652 -0.0072
 5722SOL    HW228800   2.110   3.544   3.206 -2.0993 -2.5504  0.0139
 5723SOL     OW28801   1.863   0.150   6.385 -0.1081 -0.1690 -0.1934
 5723SOL    HW128802   1.811   0.204   6.325 -2.5947 -2.0223  0.3078
 5723SOL    HW228803   1.846   0.191   6.470 -2.9657 -0.9768 -0.3647
 5724SOL     OW28804   3.283   0.170   3.576 -0.7552 -0.1633  0.3652
 5724SOL    HW128805   3.362   0.161   3.522 -1.1714  0.3213 -0.3282
 5724SOL    HW228806   3.289   0.100   3.641  0.9095  0.7624  1.2015
 5725SOL     OW28807   4.175   3.097   1.034 -0.3040 -0.1851 -0.6654
 5725SOL    HW128808   4.080   3.097   1.050 -0.0139 -2.2115  0.9612
 5725SOL    HW228809   4.183   3.192   1.027  1.3478 -0.1490  1.9498
 5726SOL     OW28810   1.553   0.203   4.762  0.1199  0.0310  0.1662
 5726SOL    HW128811   1.467   0.238   4.781  0.3420  0.4767  0.3547
 5726SOL    HW228812   1.600   0.251   4.831 -1.2753 -0.7528  1.6512
 5727SOL     OW28813   2.268   4.310   2.638  0.2031 -0.2000  0.5159
 5727SOL    HW128814   2.178   4.281   2.623 -0.4416  1.9512  0.2590
 5727SOL    HW228815   2.262   4.404   2.627 -0.4092 -0.2502  0.4695
 5728SOL     OW28816   2.326   0.916   6.118 -0.2137 -0.1320 -0.2211
 5728SOL    HW128817   2.275   0.976   6.063 -1.4622 -0.5274  0.5129
 5728SOL    HW228818   2.258   0.862   6.158 -2.9529  3.7357  0.3754
 5729SOL     OW28819   4.104   1.587   5.706  0.4002  0.5273  0.8034
 5729SOL    HW128820   4.156   1.627   5.636  1.1246 -2.0947 -0.1654
 5729SOL    HW228821   4.184   1.548   5.740  1.0550  2.0837  1.0696
 5730SOL     OW28822   2.555   4.508   1.607 -0.0056 -0.6749 -0.0069
 5730SOL    HW128823   2.590   4.451   1.538  1.2784 -0.8559  0.7801
 5730SOL    HW228824   2.495   4.444   1.645 -0.0770  0.5910  2.0278
 5731SOL     OW28825   2.655   0.849  13.570 -1.0577 -0.8988 -0.0779
 5731SOL    HW128826   2.638   0.825  13.661  0.1122  1.4227  0.7701
 5731SOL    HW228827   2.625   0.767  13.531 -0.7019  1.1435 -4.7260
 5732SOL     OW28828   3.952   3.753   8.685 -0.2364 -0.3266 -0.9024
 5732SOL    HW128829   3.898   3.731   8.760  0.4604 -1.2045 -0.6530
 5732SOL    HW228830   4.038   3.752   8.728 -1.0938  1.6107  0.8125
 5733SOL     OW28831   3.168   0.656   7.181  0.3601 -0.0093 -0.6815
 5733SOL    HW128832   3.227   0.659   7.256  0.5318 -1.0080 -0.7843
 5733SOL    HW228833   3.217   0.708   7.117  2.2333  1.0831  1.6309
 5734SOL     OW28834   3.709   1.539   6.326  0.1401  0.6274 -0.1240
 5734SOL    HW128835   3.759   1.473   6.277 -0.7382  0.4820 -0.8172
 5734SOL    HW228836   3.771   1.569   6.393  0.1832 -0.6907  0.4359
 5735SOL     OW28837   0.308   2.216   4.673  0.3782  0.2459  0.1247
 5735SOL    HW128838   0.268   2.148   4.619 -2.5077  1.5304  0.6026
 5735SOL    HW228839   0.394   2.211   4.634  1.0271  0.6634  1.4941
 5736SOL     OW28840   1.083   2.936   4.959 -0.1728 -0.1122  0.2332
 5736SOL    HW128841   1.113   2.985   4.883 -1.0049 -0.4865 -0.3413
 5736SOL    HW228842   1.018   2.992   5.002 -0.6275 -1.1343  0.8846
 5737SOL     OW28843   3.591   1.310  17.141 -0.6856 -0.8193  0.4335
 5737SOL    HW128844   3.680   1.297  17.108 -1.1780  0.7738 -1.5379
 5737SOL    HW228845   3.538   1.314  17.062  1.1383 -0.1701 -0.7792
 5738SOL     OW28846   0.865   2.898   9.642  0.4482 -0.2158  0.1223
 5738SOL    HW128847   0.859   2.992   9.627  0.8243 -0.4963 -1.8461
 5738SOL    HW228848   0.772   2.880   9.658  0.2382  1.8567  1.2477
 5739SOL     OW28849   4.648   3.017   3.722 -0.1780  0.0036  0.0932
 5739SOL    HW128850   4.726   2.963   3.728  0.7736  0.8144 -5.2909
 5739SOL    HW228851   4.600   2.996   3.802  0.5532 -2.2100 -0.0695
 5740SOL     OW28852   0.739   1.524   5.122 -0.2037 -0.5823 -0.2195
 5740SOL    HW128853   0.657   1.557   5.084 -0.4524  1.4352  2.0633
 5740SOL    HW228854   0.728   1.578   5.200 -1.3057 -0.3374 -0.5455
 5741SOL     OW28855   2.033   3.735  16.709 -0.1274 -0.1172  0.4746
 5741SOL    HW128856   1.955   3.721  16.763 -1.1096  0.3968 -0.8037
 5741SOL    HW228857   2.067   3.817  16.745  0.0828 -0.1566  0.3637
 5742SOL     OW28858   0.000   3.674   6.256  0.0150 -0.0241 -0.0872
 5742SOL    HW128859   0.047   3.650   6.176  2.4500 -2.2084  1.9908
 5742SOL    HW228860   0.026   3.604   6.317 -0.6672  0.0855  0.3200
 5743SOL     OW28861   1.891   0.377   4.078 -0.6785  0.0030  0.2487
 5743SOL    HW128862   1.898   0.288   4.043  0.0470  0.1861 -0.0792
 5743SOL    HW228863   1.829   0.359   4.149 -0.3283 -1.0421  0.2974
 5744SOL     OW28864   0.496   4.155   9.531  0.0019  0.4249 -0.3673
 5744SOL    HW128865   0.409   4.144   9.569 -0.2207  1.2086 -0.6555
 5744SOL    HW228866   0.481   4.225   9.468  0.6783  0.0145 -0.9919
 5745SOL     OW28867   1.059   2.339  12.218  0.0625  0.3166 -0.0128
 5745SOL    HW128868   1.110   2.264  12.251 -0.5136  0.4645  1.2423
 5745SOL    HW228869   0.974   2.295  12.225  0.7948 -0.6093  3.1418
 5746SOL     OW28870   3.626   0.753   2.013  0.0910 -0.5222 -0.0258
 5746SOL    HW128871   3.633   0.684   1.946  0.9073 -1.4721  1.0275
 5746SOL    HW228872   3.714   0.771   2.048  0.1398 -1.4007  0.3017
 5747SOL     OW28873   3.246   2.443   7.463  0.5882 -0.0051  0.2013
 5747SOL    HW128874   3.178   2.461   7.527 -0.5352 -1.8229 -0.4589
 5747SOL    HW228875   3.239   2.348   7.448  2.7521 -0.1847  0.3072
 5748SOL     OW28876   2.896   1.873  14.102 -0.6061 -0.1025 -0.2078
 5748SOL    HW128877   2.833   1.810  14.136 -1.1080  0.1454 -0.6869
 5748SOL    HW228878   2.974   1.830  14.138 -2.0510 -1.7342  0.9212
 5749SOL     OW28879   4.595   1.284   8.078  0.0852  0.0154 -0.3801
 5749SOL    HW128880   4.530   1.348   8.048  1.3818  2.6619  2.5419
 5749SOL    HW228881   4.664   1.303   8.015 -0.1081  0.1417 -0.5560
 5750SOL     OW28882   3.799   2.313  17.408 -0.5267  0.0198  0.5857
 5750SOL    HW128883   3.892   2.294  17.425 -0.3949  1.0033  0.9736
 5750SOL    HW228884   3.789   2.320  17.313  0.9814  0.2627  0.4453
 5751SOL     OW28885   2.808   2.415  15.316  0.4111  0.2177 -0.0733
 5751SOL    HW128886   2.902   2.433  15.316 -0.0089  2.3922 -0.2515
 5751SOL    HW228887   2.821   2.324  15.344 -0.6006  0.1151  0.0670
 5752SOL     OW28888   2.832   2.646   1.411 -0.4299  0.0966  0.3265
 5752SOL    HW128889   2.856   2.732   1.445  0.0608 -0.7050  2.0229
 5752SOL    HW228890   2.811   2.683   1.325  3.1412 -0.2725 -0.7436
 5753SOL     OW28891   3.454   4.709   7.026  0.5443  0.1926  0.2750
 5753SOL    HW128892   3.386   0.001   7.088 -0.3421 -1.5622  0.0995
 5753SOL    HW228893   3.409   4.726   6.943  0.4142  0.2350  0.3549
 5754SOL     OW28894   2.425   4.410   6.258 -0.7455  0.1495  0.3495
 5754SOL    HW128895   2.428   4.505   6.275 -0.5560  0.3841 -0.9595
 5754SOL    HW228896   2.438   4.406   6.163  0.8243  1.4036  0.5163
 5755SOL     OW28897   2.650   0.894   2.267 -0.6887  0.1421 -0.0454
 5755SOL    HW128898   2.644   0.960   2.335 -0.3754 -0.3151  0.4298
 5755SOL    HW228899   2.603   0.821   2.307  0.9486 -1.9070 -1.8425
 5756SOL     OW28900   0.196   2.657  11.756 -0.2862 -1.1056  0.1047
 5756SOL    HW128901   0.213   2.570  11.794 -0.7389  0.0721  3.0434
 5756SOL    HW228902   0.120   2.636  11.703  0.2595  0.1261 -1.1347
 5757SOL     OW28903   0.672   1.040   5.952  0.2540  0.0646 -0.2311
 5757SOL    HW128904   0.672   0.944   5.961  0.4983  0.2174  1.4130
 5757SOL    HW228905   0.755   1.066   5.992  0.1335 -1.3917  0.9523
 5758SOL     OW28906   3.977   1.268   6.398  0.3818 -0.1112  0.2807
 5758SOL    HW128907   3.998   1.359   6.376 -2.3229  0.3538 -0.3653
 5758SOL    HW228908   3.910   1.253   6.332  0.2026  0.0960  0.4157
 5759SOL     OW28909   0.899   1.580   5.362 -0.3898  0.7412 -0.2882
 5759SOL    HW128910   0.915   1.489   5.388  1.5156  1.5055  1.1571
 5759SOL    HW228911   0.985   1.611   5.389 -0.0571 -1.4463  1.1376
 5760SOL     OW28912   2.685   3.536  10.383  0.0931 -0.0608  0.1787
 5760SOL    HW128913   2.778   3.521  10.401 -0.4457 -0.9165  2.2829
 5760SOL    HW228914   2.689   3.591  10.304  0.1055 -1.6321 -0.9069
 5761SOL     OW28915   4.093   1.418   9.630  0.2160 -0.8394 -0.3886
 5761SOL    HW128916   4.023   1.418   9.695  0.2226 -1.0398 -0.3812
 5761SOL    HW228917   4.150   1.348   9.663  2.4117  0.4499 -1.4092
 5762SOL     OW28918   3.512   2.590   7.226 -0.6313 -0.3615  0.1636
 5762SOL    HW128919   3.582   2.525   7.235  1.5436  1.6838 -2.1669
 5762SOL    HW228920   3.530   2.640   7.147 -0.3560  1.4463  1.3846
 5763SOL     OW28921   1.874   1.145  11.839 -0.4997  0.1425  0.4947
 5763SOL    HW128922   1.801   1.206  11.830  0.2041  0.9763  0.4069
 5763SOL    HW228923   1.851   1.076  11.777  3.2799  0.6786 -1.5047
 5764SOL     OW28924   1.621   2.044   9.412  0.2597  0.4779 -0.1799
 5764SOL    HW128925   1.573   1.985   9.470 -0.2756 -0.2520 -1.3682
 5764SOL    HW228926   1.699   2.058   9.466  0.6698  0.3594 -0.7502
 5765SOL     OW28927   2.773   0.240   2.447  0.0626 -0.1809  0.6054
 5765SOL    HW128928   2.830   0.301   2.494  0.1331  0.1711  0.0612
 5765SOL    HW228929   2.791   0.265   2.357  0.5889  1.5197  1.1985
 5766SOL     OW28930   1.865   0.348   8.364  0.7289 -0.2046  0.2217
 5766SOL    HW128931   1.881   0.296   8.285 -3.4205  0.9234 -1.3311
 5766SOL    HW228932   1.919   0.427   8.360 -2.0855  1.6451 -1.1587
 5767SOL     OW28933   3.454   2.727   2.730 -0.2285  0.6486  0.7211
 5767SOL    HW128934   3.536   2.775   2.736  1.2270 -1.8183  0.7773
 5767SOL    HW228935   3.398   2.795   2.767 -1.2390  0.9255 -1.2653
 5768SOL     OW28936   0.656   0.142   6.896  0.0047 -0.7405  0.1231
 5768SOL    HW128937   0.598   0.104   6.961 -0.1572 -1.3062 -0.3533
 5768SOL    HW228938   0.630   0.234   6.899 -1.4010 -1.1980  1.8817
 5769SOL     OW28939   4.705   4.369  11.738  0.5806 -0.2275 -0.2411
 5769SOL    HW128940   4.691   4.364  11.643  1.9463  2.5404 -0.5844
 5769SOL    HW228941   0.061   4.396  11.746  1.0197 -0.9737 -2.6314
 5770SOL     OW28942   1.403   3.074   9.797  0.1962  0.0892 -0.1859
 5770SOL    HW128943   1.435   3.094   9.709  1.8294  1.2745  0.7071
 5770SOL    HW228944   1.312   3.102   9.786  0.4059  0.8453  0.0075
 5771SOL     OW28945   0.170   3.241   9.714  0.0463 -0.0192 -0.6420
 5771SOL    HW128946   0.244   3.185   9.693 -0.4125 -0.0962 -2.0038
 5771SOL    HW228947   0.202   3.324   9.678  0.0419 -0.3268 -1.3428
 5772SOL     OW28948   4.400   2.070   3.798  0.0693 -0.2166 -0.2359
 5772SOL    HW128949   4.426   2.044   3.886  0.3873  0.9965  0.0287
 5772SOL    HW228950   4.468   2.134   3.778 -0.5502  0.7933  0.9093
 5773SOL     OW28951   2.347   0.264   8.852  0.4567 -0.0766 -0.3542
 5773SOL    HW128952   2.364   0.208   8.776 -0.7318 -1.3204  0.2931
 5773SOL    HW228953   2.253   0.274   8.837 -0.1905 -1.0743  2.8813
 5774SOL     OW28954   1.559   0.512  16.336 -0.3701 -0.4448  0.2808
 5774SOL    HW128955   1.478   0.557  16.363  0.4563 -0.5538  2.9593
 5774SOL    HW228956   1.524   0.439  16.285 -0.1389 -1.2578  1.3029
 5775SOL     OW28957   3.833   3.548   6.480 -0.0646  0.2146  0.0974
 5775SOL    HW128958   3.828   3.540   6.384 -1.1222  1.1103  0.0717
 5775SOL    HW228959   3.746   3.515   6.501  0.7048 -2.4003 -0.7979
 5776SOL     OW28960   2.957   0.349  11.029  0.1544  0.1919  0.4490
 5776SOL    HW128961   3.048   0.344  11.000 -0.2839 -1.6285 -0.6303
 5776SOL    HW228962   2.912   0.388  10.954 -3.2759  1.9269  3.3998
 5777SOL     OW28963   2.712   3.014   5.438  0.1783  0.0005 -0.4921
 5777SOL    HW128964   2.659   2.936   5.454  1.4637 -0.9137 -0.6364
 5777SOL    HW228965   2.654   3.049   5.370 -0.2364  0.8538  0.3080
 5778SOL     OW28966   1.474   1.755   2.519  0.3866  0.1789  0.1974
 5778SOL    HW128967   1.562   1.728   2.493 -0.0707  2.7917 -4.0697
 5778SOL    HW228968   1.425   1.762   2.437 -0.9865  1.5524  1.1266
 5779SOL     OW28969   1.179   1.698  17.133 -0.0357 -0.4758 -0.2566
 5779SOL    HW128970   1.105   1.716  17.191 -1.2049  1.2058 -2.2587
 5779SOL    HW228971   1.180   1.602  17.139 -0.1155 -0.2460  3.6395
 5780SOL     OW28972   0.704   3.095  17.027  0.1410 -0.1993  0.0929
 5780SOL    HW128973   0.611   3.120  17.031  0.3162  0.5733 -0.7036
 5780SOL    HW228974   0.724   3.065  16.938  3.3658  1.8679  0.1244
 5781SOL     OW28975   0.832   2.297  15.778  0.0191  0.2004 -0.7047
 5781SOL    HW128976   0.894   2.240  15.822 -0.1066  2.0710  1.8962
 5781SOL    HW228977   0.878   2.309  15.695  0.8189  0.7791 -0.1754
 5782SOL     OW28978   2.568   4.201  13.756  0.8570 -0.0777  0.2645
 5782SOL    HW128979   2.663   4.203  13.745  1.0496  1.3764  2.0695
 5782SOL    HW228980   2.530   4.277  13.711 -1.4737 -0.0314  2.2455
 5783SOL     OW28981   0.622   1.658   8.259 -0.3165 -0.2040  0.0187
 5783SOL    HW128982   0.650   1.705   8.180  0.1360 -1.5781 -0.6578
 5783SOL    HW228983   0.658   1.578   8.220  0.6493  0.0042  0.4887
 5784SOL     OW28984   4.665   1.104  12.168 -0.0912  0.3534  0.1027
 5784SOL    HW128985   4.730   1.121  12.236  0.5659  2.3339 -1.0175
 5784SOL    HW228986   4.639   1.193  12.145  0.6674  0.3394 -0.7932
 5785SOL     OW28987   1.595   1.599   9.470  0.5192 -0.6436 -0.6534
 5785SOL    HW128988   1.523   1.538   9.453 -0.7445  1.2083 -1.9848
 5785SOL    HW228989   1.559   1.640   9.548 -1.1615 -0.8293 -1.3294
 5786SOL     OW28990   2.757   2.631   9.822 -0.0885 -0.0402  0.6071
 5786SOL    HW128991   2.748   2.659   9.913 -1.1326 -0.8071  0.7395
 5786SOL    HW228992   2.837   2.579   9.832 -0.7996 -1.6850 -2.0055
 5787SOL     OW28993   4.183   4.429   6.517  0.5620  0.5299  0.2139
 5787SOL    HW128994   4.200   4.339   6.490 -2.9021 -0.7537  2.2190
 5787SOL    HW228995   4.117   4.462   6.455 -0.6745 -2.7966 -0.2475
 5788SOL     OW28996   0.926   2.548   4.276 -0.5034  0.6732 -0.5422
 5788SOL    HW128997   0.925   2.464   4.322  0.4666  0.0060 -1.7238
 5788SOL    HW228998   0.857   2.533   4.211 -0.4148 -0.4342 -0.3854
 5789SOL     OW28999   1.758   2.896   5.420  0.2241  1.1405  0.0659
 5789SOL    HW129000   1.731   2.974   5.468 -2.6157 -0.0855  0.4834
 5789SOL    HW229001   1.849   2.893   5.448  0.4592 -1.4766 -0.9883
 5790SOL     OW29002   1.004   3.419   6.458 -0.3628  0.3195  0.3400
 5790SOL    HW129003   0.933   3.479   6.483 -1.6494 -1.0559 -0.0136
 5790SOL    HW229004   1.025   3.455   6.372  2.7682  0.7980  1.3131
 5791SOL     OW29005   2.609   4.300   4.693 -0.2719  0.0709  0.2036
 5791SOL    HW129006   2.686   4.276   4.641  0.3574 -2.2167  2.1990
 5791SOL    HW229007   2.533   4.292   4.634  0.4994  1.3087 -0.9440
 5792SOL     OW29008   3.187   3.897   9.707  0.3599  0.8081  0.1121
 5792SOL    HW129009   3.142   3.942   9.635 -0.8946  1.7544  1.4815
 5792SOL    HW229010   3.110   3.880   9.762  1.7692 -4.2602  0.5167
 5793SOL     OW29011   4.098   0.846   5.577 -0.3410  0.1854 -0.2709
 5793SOL    HW129012   4.052   0.905   5.636 -1.0889  1.7020 -2.3720
 5793SOL    HW229013   4.102   0.769   5.633  1.3125  1.4163  1.2833
 5794SOL     OW29014   4.302   3.800  12.610 -0.8054 -0.4860 -0.1460
 5794SOL    HW129015   4.289   3.845  12.527 -1.1790 -0.9563 -0.3452
 5794SOL    HW229016   4.267   3.712  12.596 -1.1089 -0.1677 -1.4202
 5795SOL     OW29017   4.179   3.327  13.177 -1.0945  0.5524 -0.0320
 5795SOL    HW129018   4.241   3.308  13.248 -2.4460  0.7797  1.2022
 5795SOL    HW229019   4.106   3.282  13.218 -0.1798  0.8975  2.0047
 5796SOL     OW29020   2.514   4.210   1.039  0.5442 -0.1613 -0.2435
 5796SOL    HW129021   2.431   4.204   1.088  0.6192 -0.6337 -0.1746
 5796SOL    HW229022   2.568   4.216   1.117 -1.0161 -0.6649  0.8894
 5797SOL     OW29023   0.123   3.197  13.741 -0.3777 -0.1379  0.2938
 5797SOL    HW129024   0.043   3.146  13.730 -0.0996 -0.5610  0.2382
 5797SOL    HW229025   0.187   3.126  13.748  0.4981  0.5698 -0.4975
 5798SOL     OW29026   3.879   3.960   6.232 -0.2609 -0.0939  0.5045
 5798SOL    HW129027   3.974   3.951   6.232  0.0719  3.4821  0.4002
 5798SOL    HW229028   3.864   3.966   6.138 -1.5818 -1.2942  0.6376
 5799SOL     OW29029   1.731   1.815   7.340 -0.5959  0.5505 -0.1352
 5799SOL    HW129030   1.796   1.844   7.403  0.6164 -0.6341 -0.8224
 5799SOL    HW229031   1.794   1.770   7.283  2.8782  1.6671  2.8514
 5800SOL     OW29032   0.375   4.225  15.215  0.1846 -0.0358 -0.1506
 5800SOL    HW129033   0.381   4.183  15.129 -0.4535 -0.9956  0.2742
 5800SOL    HW229034   0.322   4.302  15.195 -1.2209 -1.4424 -1.8875
 5801SOL     OW29035   4.607   3.650   8.569 -0.0748 -0.3558  0.3890
 5801SOL    HW129036   4.602   3.597   8.648  0.3212 -1.3449 -0.2526
 5801SOL    HW229037   4.516   3.657   8.542 -0.0202  1.5064  0.7012
 5802SOL     OW29038   3.730   0.992   8.404  0.2006  0.2470 -0.0947
 5802SOL    HW129039   3.770   0.991   8.318 -1.3357 -1.2572 -0.7891
 5802SOL    HW229040   3.726   1.086   8.422 -3.1731  0.1901 -0.5558
 5803SOL     OW29041   3.416   0.791   4.293  0.2387  0.3523 -0.1259
 5803SOL    HW129042   3.456   0.861   4.344  3.3953  0.7735 -3.2071
 5803SOL    HW229043   3.416   0.826   4.204 -2.6447 -0.9198 -0.6308
 5804SOL     OW29044   3.433   1.085  14.736  0.3863  0.4969  0.1378
 5804SOL    HW129045   3.441   0.992  14.754  2.4745  0.7132  0.3605
 5804SOL    HW229046   3.426   1.096  14.641  2.3889  1.1108  0.0639
 5805SOL     OW29047   1.382   3.452   8.284 -0.3576 -0.0017  0.3254
 5805SOL    HW129048   1.360   3.419   8.371 -1.6583 -0.1636 -0.0643
 5805SOL    HW229049   1.296   3.443   8.244 -0.2951 -0.5810  0.3204
 5806SOL     OW29050   2.064   1.247   6.747 -0.1088 -0.0322 -0.6620
 5806SOL    HW129051   2.088   1.308   6.677 -1.7926  1.2559 -0.1316
 5806SOL    HW229052   1.977   1.219   6.716 -0.8229  0.0707  1.2290
 5807SOL     OW29053   3.928   0.857   0.085  0.7184  0.4858 -0.0855
 5807SOL    HW129054   3.955   0.915   0.156  1.4180 -2.2871  1.8592
 5807SOL    HW229055   3.837   0.878   0.062  0.8460  0.9947 -0.1330
 5808SOL     OW29056   2.747   0.775   0.231  0.1334 -0.1089 -0.2224
 5808SOL    HW129057   2.699   0.846   0.273  2.0153  0.8874  0.2256
 5808SOL    HW229058   2.816   0.818   0.181 -0.9546  0.5286 -1.1662
 5809SOL     OW29059   1.779   3.664   7.864  0.2454  0.3553 -0.2043
 5809SOL    HW129060   1.771   3.629   7.953  0.5945  1.0345  0.0951
 5809SOL    HW229061   1.723   3.608   7.810  0.3788 -1.3780  1.4701
 5810SOL     OW29062   2.826   0.456  13.443  0.1609  0.7383  0.6511
 5810SOL    HW129063   2.817   0.450  13.348  0.3432  0.2446  0.6653
 5810SOL    HW229064   2.746   0.504  13.465  0.5877  2.1017 -0.7954
 5811SOL     OW29065   0.406   3.615   5.609  0.4444  0.2227 -0.0523
 5811SOL    HW129066   0.317   3.646   5.619 -0.0420 -1.4334  0.7826
 5811SOL    HW229067   0.393   3.540   5.551  0.6936  1.6935 -1.9959
 5812SOL     OW29068   3.383   2.280   3.719 -0.5025  0.0256 -0.8530
 5812SOL    HW129069   3.462   2.289   3.773 -1.0974  0.8400 -0.1003
 5812SOL    HW229070   3.353   2.194   3.749 -0.1869  0.3848  0.5147
 5813SOL     OW29071   1.763   2.376  11.227  0.3344  0.4045 -0.3575
 5813SOL    HW129072   1.710   2.455  11.242  0.8590  0.5562  0.6887
 5813SOL    HW229073   1.711   2.332  11.294 -1.0065  0.9983 -1.0025
 5814SOL     OW29074   2.206   3.457   2.154  0.1282  0.5871 -0.2965
 5814SOL    HW129075   2.267   3.383   2.155  0.9284  1.2576  0.0383
 5814SOL    HW229076   2.163   3.437   2.238 -0.0026  0.7460 -0.3258
 5815SOL     OW29077   1.837   0.883  14.475 -0.0710  0.3005 -0.4549
 5815SOL    HW129078   1.932   0.893  14.467  0.0653 -1.3952 -1.0800
 5815SOL    HW229079   1.807   0.944  14.408 -1.2985 -1.1502 -1.2223
 5816SOL     OW29080   1.497   0.998  12.354  0.1746  0.1215  0.3763
 5816SOL    HW129081   1.488   1.056  12.429 -1.3779  1.1512 -0.6053
 5816SOL    HW229082   1.441   1.039  12.289  1.8209 -1.7769 -2.2563
 5817SOL     OW29083   2.487   3.158  11.393 -0.2749 -0.0272 -0.1175
 5817SOL    HW129084   2.513   3.127  11.307  0.1089  0.1707 -0.0727
 5817SOL    HW229085   2.565   3.137  11.444 -1.4529  2.0749  2.5609
 5818SOL     OW29086   0.541   3.392  10.832 -0.7438 -0.5127 -1.0312
 5818SOL    HW129087   0.554   3.485  10.813  1.5487 -0.8927 -1.3290
 5818SOL    HW229088   0.620   3.352  10.797 -0.4742  0.6939 -1.7885
 5819SOL     OW29089   3.987   2.875   3.017 -0.1258  0.2292 -0.3574
 5819SOL    HW129090   3.993   2.798   3.074  0.7376  1.1836  0.8281
 5819SOL    HW229091   3.987   2.939   3.087  3.0167 -0.0478 -0.1068
 5820SOL     OW29092   0.304   2.504   4.656 -0.1428 -0.0226 -0.0092
 5820SOL    HW129093   0.319   2.410   4.645 -2.7804 -0.3563 -0.9075
 5820SOL    HW229094   0.379   2.542   4.611 -0.1463  2.3781  1.9844
 5821SOL     OW29095   3.891   3.143   0.982 -0.2806  0.0569 -0.0000
 5821SOL    HW129096   3.840   3.124   0.903 -0.1427  0.1455 -0.1107
 5821SOL    HW229097   3.840   3.220   1.007 -1.5291 -0.4803 -0.8858
 5822SOL     OW29098   2.344   1.827  10.335  0.4080  0.0032  0.3681
 5822SOL    HW129099   2.397   1.905  10.319  1.4916 -0.6739  0.5922
 5822SOL    HW229100   2.253   1.854  10.327  0.0676 -0.9999  0.7844
 5823SOL     OW29101   0.518   0.009   9.072  0.2725  0.2068 -0.7516
 5823SOL    HW129102   0.501   0.004   8.979  0.1181 -0.7212 -0.6667
 5823SOL    HW229103   0.456   0.074   9.106  0.4534 -0.5805  1.0865
 5824SOL     OW29104   2.969   3.029   2.420 -0.4527  0.6382 -0.6049
 5824SOL    HW129105   3.043   3.083   2.446  0.0146  0.8328 -2.3177
 5824SOL    HW229106   2.896   3.083   2.450 -0.5110 -1.1095  2.4551
 5825SOL     OW29107   4.071   3.244   3.318 -0.4199  0.0130  0.1492
 5825SOL    HW129108   4.152   3.234   3.368 -0.7936  0.2032  0.7952
 5825SOL    HW229109   4.028   3.159   3.329 -2.4476  0.9141 -0.6781
 5826SOL     OW29110   1.723   2.417   9.634 -0.8419 -0.3483  0.2922
 5826SOL    HW129111   1.669   2.365   9.693 -1.4079 -0.2886 -0.1640
 5826SOL    HW229112   1.662   2.430   9.561 -0.9336 -0.4032  0.3581
 5827SOL     OW29113   0.589   3.868   6.843 -0.3009 -0.4858  1.0643
 5827SOL    HW129114   0.497   3.865   6.870 -0.3222  2.2043  1.2032
 5827SOL    HW229115   0.612   3.960   6.848 -0.2367 -0.4136 -0.6313
 5828SOL     OW29116   1.661   4.316   6.404  0.4428 -0.0530  0.4769
 5828SOL    HW129117   1.668   4.373   6.481 -0.7593 -2.4359  2.3550
 5828SOL    HW229118   1.568   4.325   6.384  0.8428 -1.7706 -2.0848
 5829SOL     OW29119   3.136   2.048   1.587  0.1232  0.2895  0.2410
 5829SOL    HW129120   3.214   2.096   1.617  1.2486 -0.0228 -2.1687
 5829SOL    HW229121   3.144   2.041   1.492  0.6865  2.0910  0.1363
 5830SOL     OW29122   2.139   0.907   3.781  0.6027 -0.1553 -0.2428
 5830SOL    HW129123   2.145   0.835   3.844  0.7291  1.1439  1.2208
 5830SOL    HW229124   2.228   0.910   3.745  1.2062 -1.2742  1.1872
 5831SOL     OW29125   2.058   3.148  16.813  0.3688  0.1537  0.0190
 5831SOL    HW129126   2.013   3.066  16.794 -2.2210  1.4243  0.8017
 5831SOL    HW229127   2.070   3.139  16.908 -3.4481  1.9182  0.6525
 5832SOL     OW29128   4.340   3.957  14.125 -0.4547 -0.1292  0.0500
 5832SOL    HW129129   4.399   3.882  14.132  0.0394  0.3606  1.1814
 5832SOL    HW229130   4.397   4.030  14.101  1.4572 -1.9506 -0.9240
 5833SOL     OW29131   2.775   0.175   1.014  0.0852  0.0597 -0.0102
 5833SOL    HW129132   2.812   0.192   1.101  1.5397 -3.0879 -0.0154
 5833SOL    HW229133   2.761   0.080   1.009  1.2470  0.0139 -2.1613
 5834SOL     OW29134   2.331   0.544   7.435 -0.0458 -0.1050 -0.1612
 5834SOL    HW129135   2.263   0.593   7.480  1.5061  1.0127  0.9885
 5834SOL    HW229136   2.405   0.600   7.458  1.1876 -0.6167 -2.8911
 5835SOL     OW29137   1.650   0.561   6.980 -0.3905  0.1734 -0.3406
 5835SOL    HW129138   1.648   0.616   7.058  0.9961  0.3127 -0.4145
 5835SOL    HW229139   1.615   0.478   7.014 -0.4867  0.3835  0.0740
 5836SOL     OW29140   0.135   1.306   2.214 -0.3723 -0.3475 -0.2529
 5836SOL    HW129141   0.206   1.300   2.150 -0.2090 -0.7800 -0.0330
 5836SOL    HW229142   0.120   1.400   2.219 -1.8766 -0.5218 -1.5315
 5837SOL     OW29143   3.850   4.661  13.881 -0.6822  0.0749  1.0758
 5837SOL    HW129144   3.932   4.645  13.836 -1.7495 -2.6828  0.1191
 5837SOL    HW229145   3.883   4.655  13.971  2.4092 -0.9696 -0.1234
 5838SOL     OW29146   1.925   0.182   7.762  0.1070 -0.0452 -0.2883
 5838SOL    HW129147   1.964   0.228   7.688  0.0052 -1.8587 -1.4625
 5838SOL    HW229148   1.833   0.187   7.736  1.0314  1.7843 -3.2231
 5839SOL     OW29149   3.794   2.388   6.700  0.2510 -0.1375 -0.0716
 5839SOL    HW129150   3.772   2.470   6.744  2.0519  0.8626 -1.0625
 5839SOL    HW229151   3.778   2.406   6.607 -1.0234  0.7951  0.3304
 5840SOL     OW29152   4.265   1.188   6.362  0.1743 -0.5075  0.4127
 5840SOL    HW129153   4.299   1.277   6.371  1.4138 -0.8493 -0.9577
 5840SOL    HW229154   4.172   1.203   6.345 -0.3584 -2.1453  1.7857
 5841SOL     OW29155   3.855   1.536   5.979  0.1158 -0.1169  0.1003
 5841SOL    HW129156   3.876   1.442   5.978  0.9116  0.0657 -0.4549
 5841SOL    HW229157   3.845   1.550   6.073 -2.2580  2.7300 -0.5760
 5842SOL     OW29158   4.071   4.051   8.111 -0.2055  0.3792  0.0764
 5842SOL    HW129159   4.048   4.106   8.036  0.2931 -0.2244 -0.5261
 5842SOL    HW229160   4.105   3.979   8.058  1.0992 -0.3340  1.8976
 5843SOL     OW29161   0.201   2.261   5.533 -0.4184 -0.0720 -0.6598
 5843SOL    HW129162   0.277   2.223   5.575 -0.2694  0.5336 -0.3900
 5843SOL    HW229163   0.217   2.353   5.555  3.1321 -0.2727 -2.3503
 5844SOL     OW29164   2.886   1.707   1.326 -0.4813  0.3937 -0.2801
 5844SOL    HW129165   2.967   1.665   1.299 -0.4455  1.6060 -2.0341
 5844SOL    HW229166   2.812   1.666   1.280  0.6376 -1.2764 -0.5851
 5845SOL     OW29167   3.677   1.663   4.215  0.3358 -0.6582 -0.3881
 5845SOL    HW129168   3.748   1.689   4.273 -0.5951  1.6952 -0.2925
 5845SOL    HW229169   3.611   1.719   4.256  0.4874  0.4235 -1.6099
 5846SOL     OW29170   0.592   2.586  11.964 -0.0038 -0.1927  0.2666
 5846SOL    HW129171   0.675   2.549  11.994 -1.2022 -1.3671  2.1492
 5846SOL    HW229172   0.629   2.636  11.891  1.8067 -0.5624  0.9281
 5847SOL     OW29173   0.041   4.146  14.137  0.5510  0.4124  0.0178
 5847SOL    HW129174   0.130   4.135  14.169  0.7480 -3.5301 -1.9399
 5847SOL    HW229175   0.016   4.233  14.170  2.9175  1.3367 -0.6460
 5848SOL     OW29176   3.621   2.168   6.141  0.0564 -0.1435 -0.3434
 5848SOL    HW129177   3.638   2.175   6.235 -2.6078  1.0492  0.0495
 5848SOL    HW229178   3.711   2.173   6.108 -0.3646 -0.5366 -1.5598
 5849SOL     OW29179   3.350   3.052  11.458 -0.6167 -0.2162 -0.1672
 5849SOL    HW129180   3.438   3.019  11.473 -0.4879 -0.3452 -1.2183
 5849SOL    HW229181   3.321   3.004  11.380 -2.9519 -1.0980  1.2412
 5850SOL     OW29182   1.944   0.103  13.062  0.1385  0.6038 -0.3284
 5850SOL    HW129183   1.944   0.043  13.137  0.8547 -0.0480 -0.8510
 5850SOL    HW229184   2.036   0.101  13.037  0.2151 -0.1189  0.0164
 5851SOL     OW29185   3.070   1.221  12.135  0.5343 -0.1275  0.4150
 5851SOL    HW129186   3.065   1.311  12.104  0.3633  0.0174  0.8794
 5851SOL    HW229187   2.977   1.205  12.150  0.4436  2.4588  2.4981
 5852SOL     OW29188   4.099   1.562   3.503  0.5073 -0.0207 -0.3020
 5852SOL    HW129189   4.050   1.618   3.443  0.6634  0.8615  0.3957
 5852SOL    HW229190   4.088   1.474   3.467 -2.9257  1.0735 -1.9151
 5853SOL     OW29191   3.008   4.150   3.006  0.0022  0.0894  0.2844
 5853SOL    HW129192   3.017   4.055   3.009  0.6578  0.1105 -0.9641
 5853SOL    HW229193   2.994   4.179   3.096 -0.7664  0.5344  0.0190
 5854SOL     OW29194   1.650   4.322   8.491  0.3049 -0.2046 -0.6222
 5854SOL    HW129195   1.743   4.333   8.509  0.1364 -2.6325  1.6978
 5854SOL    HW229196   1.617   4.258   8.554  1.0453 -1.8323 -1.8947
 5855SOL     OW29197   3.829   3.884   3.581 -0.0745  0.3937 -0.1503
 5855SOL    HW129198   3.832   3.814   3.645  0.8785  2.0395  1.5857
 5855SOL    HW229199   3.780   3.947   3.634  1.4907  0.0313  1.7042
 5856SOL     OW29200   3.653   2.010  17.249  0.1826  0.3759 -0.5598
 5856SOL    HW129201   3.695   1.980  17.168 -0.1554 -0.7235 -0.3393
 5856SOL    HW229202   3.617   2.095  17.225 -1.8444 -0.7959 -1.6490
 5857SOL     OW29203   4.485   2.483   8.426  0.6421  0.1297  0.0344
 5857SOL    HW129204   4.572   2.454   8.400  0.7044  0.3448  0.0062
 5857SOL    HW229205   4.490   2.578   8.413  2.9136  0.1108  0.8380
 5858SOL     OW29206   0.242   0.406   3.568  0.2929 -0.0164  0.0655
 5858SOL    HW129207   0.174   0.460   3.607  0.1060 -0.8164  0.8428
 5858SOL    HW229208   0.301   0.393   3.643 -2.6466 -0.5426  2.2510
 5859SOL     OW29209   3.044   0.681   8.816 -0.1085  0.1141  0.0855
 5859SOL    HW129210   3.104   0.734   8.869 -2.0811  0.5055  1.9448
 5859SOL    HW229211   3.024   0.610   8.878 -0.4085 -1.1531 -1.4649
 5860SOL     OW29212   2.909   4.716   8.589  0.1255 -0.0584 -0.5702
 5860SOL    HW129213   2.956   0.034   8.524  0.2614  1.1273  0.4932
 5860SOL    HW229214   2.947   4.633   8.559  1.9549  0.2599  0.8347
 5861SOL     OW29215   1.324   4.007   8.161  0.2413 -0.2699 -0.3585
 5861SOL    HW129216   1.333   4.045   8.248 -1.9926 -1.9370  0.6219
 5861SOL    HW229217   1.379   4.074   8.121  1.4769 -0.0786  1.6509
 5862SOL     OW29218   2.077   0.201   3.088 -0.3528 -0.4839  0.8959
 5862SOL    HW129219   2.035   0.130   3.040  1.0120 -0.7318  0.0766
 5862SOL    HW229220   2.045   0.265   3.025 -2.2958 -0.1973  2.1874
 5863SOL     OW29221   4.532   2.268   4.973 -0.0491  0.5809  0.0919
 5863SOL    HW129222   4.621   2.303   4.974  0.5738 -0.9792 -0.8973
 5863SOL    HW229223   4.515   2.270   4.879  2.3647  0.8449 -0.3273
 5864SOL     OW29224   4.728   0.379  15.197  0.5530  0.3845 -0.2953
 5864SOL    HW129225   4.697   0.465  15.169 -0.0706  0.2665  0.0449
 5864SOL    HW229226   4.683   0.317  15.139  0.6585 -1.0558  1.1939
 5865SOL     OW29227   0.619   1.484   5.827 -0.2628  0.3021  0.0856
 5865SOL    HW129228   0.629   1.539   5.904 -2.3132  2.1753 -1.0081
 5865SOL    HW229229   0.698   1.504   5.777 -0.6257  0.9743 -0.2079
 5866SOL     OW29230   1.939   3.871  14.195 -0.7510  0.3482  0.6530
 5866SOL    HW129231   1.884   3.877  14.117 -0.3549 -4.1181  0.0595
 5866SOL    HW229232   1.883   3.921  14.255 -2.3463  0.8052 -1.2380
 5867SOL     OW29233   3.692   2.712   4.640 -0.7093 -0.3229 -0.0734
 5867SOL    HW129234   3.673   2.805   4.649  0.6148 -0.1931  1.4630
 5867SOL    HW229235   3.773   2.696   4.688 -1.0670 -2.2936 -0.1045
 5868SOL     OW29236   3.241   1.933   6.100  0.5308  0.5152 -0.4889
 5868SOL    HW129237   3.246   1.945   6.195  0.6231  0.5468 -0.4982
 5868SOL    HW229238   3.303   1.994   6.061  1.5345  0.0963  0.4504
 5869SOL     OW29239   2.093   1.434   5.293 -0.0465  0.1965 -0.0004
 5869SOL    HW129240   2.094   1.353   5.343 -1.2362 -0.6215 -1.2740
 5869SOL    HW229241   2.124   1.406   5.207 -1.4044  1.8294 -1.0425
 5870SOL     OW29242   2.737   0.881   5.074 -0.1725  0.7243  0.1316
 5870SOL    HW129243   2.741   0.804   5.018  0.1367  1.3539 -0.7189
 5870SOL    HW229244   2.655   0.924   5.050 -0.1608  0.5073 -0.2959
 5871SOL     OW29245   3.673   0.081   7.426 -0.4203 -0.3167 -0.1760
 5871SOL    HW129246   3.707   0.011   7.481 -1.6277 -1.5461 -0.9907
 5871SOL    HW229247   3.666   0.044   7.338  0.5464 -0.0150 -0.3773
 5872SOL     OW29248   2.361   0.322  16.899  0.7241 -0.0635 -0.3529
 5872SOL    HW129249   2.381   0.375  16.822 -0.6439  0.8646 -0.0715
 5872SOL    HW229250   2.302   0.257  16.861  1.8345 -1.3988  0.2087
 5873SOL     OW29251   2.777   0.662   7.846  0.3748 -0.0992  0.2754
 5873SOL    HW129252   2.790   0.572   7.814  0.1192 -0.6435  1.6845
 5873SOL    HW229253   2.850   0.667   7.908 -1.3199  3.0600  1.9912
 5874SOL     OW29254   1.780   1.101   8.928 -0.3705  0.0706  0.3521
 5874SOL    HW129255   1.745   1.060   8.849 -1.5751  2.9274 -0.5667
 5874SOL    HW229256   1.830   1.173   8.889  1.7161 -0.2159  2.5337
 5875SOL     OW29257   2.100   4.008   1.988  0.5001 -0.6426  0.5615
 5875SOL    HW129258   2.048   4.087   1.977  0.2739 -0.5708  2.2235
 5875SOL    HW229259   2.035   3.938   1.988 -0.1743 -0.0349 -2.1487
 5876SOL     OW29260   0.906   1.153   8.925 -0.9212 -0.1776 -0.0280
 5876SOL    HW129261   0.834   1.187   8.871 -1.4787  0.1275  0.9084
 5876SOL    HW229262   0.969   1.122   8.860  0.1425 -0.1652  1.0053
 5877SOL     OW29263   2.039   1.008   9.811  0.1538 -0.0296 -0.0961
 5877SOL    HW129264   2.116   0.983   9.863  1.1583  1.5251 -0.8217
 5877SOL    HW229265   2.074   0.990   9.724 -0.6682  0.6773 -0.5640
 5878SOL     OW29266   3.337   2.134   1.755  0.3337  0.9951  0.6309
 5878SOL    HW129267   3.401   2.162   1.820  1.1301 -0.4154  0.4564
 5878SOL    HW229268   3.309   2.059   1.808 -2.4963  2.3145  1.0370
 5879SOL     OW29269   3.864   1.119   1.939 -0.0273 -0.2149  0.4162
 5879SOL    HW129270   3.879   1.136   2.032 -0.3781  0.8152  0.2883
 5879SOL    HW229271   3.814   1.196   1.912 -0.7815 -0.5842  0.7520
 5880SOL     OW29272   3.832   4.728   7.001 -0.2574 -0.5306 -0.1035
 5880SOL    HW129273   3.768   0.021   6.935 -0.2631 -0.9434 -0.2777
 5880SOL    HW229274   3.769   4.710   7.070  1.3241 -1.5566  1.0598
 5881SOL     OW29275   0.762   3.026   5.751 -0.0573 -0.5774  0.2361
 5881SOL    HW129276   0.701   2.953   5.762 -0.4814  0.0897  2.2581
 5881SOL    HW229277   0.789   3.005   5.661  0.1782 -3.1479  0.9063
 5882SOL     OW29278   1.906   0.761   3.952 -0.0893  0.2209  0.0107
 5882SOL    HW129279   1.950   0.725   3.875  3.6762  1.5464  1.5443
 5882SOL    HW229280   1.814   0.763   3.925 -0.1631  0.1862  0.2602
 5883SOL     OW29281   1.276   3.496   7.662  0.3325  0.0720 -0.0824
 5883SOL    HW129282   1.229   3.579   7.662  0.6088  0.2287  0.2750
 5883SOL    HW229283   1.250   3.463   7.576  1.4120 -1.4802  0.1915
 5884SOL     OW29284   0.124   0.445   9.075  0.0522 -0.3693  0.0241
 5884SOL    HW129285   0.040   0.478   9.109  0.0654  1.5307 -1.7789
 5884SOL    HW229286   0.088   0.393   9.003 -0.6889  1.3175 -0.8277
 5885SOL     OW29287   3.400   2.396   2.521  0.2161  0.2266  0.3394
 5885SOL    HW129288   3.380   2.401   2.614  1.4416 -0.2678  0.6339
 5885SOL    HW229289   3.487   2.437   2.521  0.6303 -0.6360  0.0798
 5886SOL     OW29290   1.121   1.063  16.350  0.0732  0.1299  0.4149
 5886SOL    HW129291   1.208   1.088  16.381  0.2313 -2.3950  2.0564
 5886SOL    HW229292   1.152   0.993  16.293 -2.3020 -0.7362  0.2032
 5887SOL     OW29293   3.327   0.605   7.420  0.2073 -0.4913  0.4515
 5887SOL    HW129294   3.408   0.561   7.395 -0.1054 -0.3983 -0.7232
 5887SOL    HW229295   3.358   0.694   7.437 -1.0307  0.3235 -1.5707
 5888SOL     OW29296   2.984   0.426   8.921  0.1985  0.0284  0.8718
 5888SOL    HW129297   2.923   0.370   8.874  1.2957 -0.9377  0.6067
 5888SOL    HW229298   2.971   0.390   9.009  2.0147  0.9336  1.5071
 5889SOL     OW29299   0.808   0.032  10.053 -1.1478  0.1080 -0.1857
 5889SOL    HW129300   0.718   0.054  10.029 -1.4367 -0.0965  0.7316
 5889SOL    HW229301   0.853   0.017   9.969  0.8201 -0.2901  0.9398
 5890SOL     OW29302   1.536   4.498   6.009 -0.3743  0.2661 -0.7418
 5890SOL    HW129303   1.581   4.452   5.938  0.3533 -0.8196  0.4211
 5890SOL    HW229304   1.463   4.539   5.962 -0.6698 -1.2009 -1.5588
 5891SOL     OW29305   4.067   0.540   8.731  0.0217 -0.0237 -0.2334
 5891SOL    HW129306   4.029   0.625   8.710  0.3722  0.1547 -0.1456
 5891SOL    HW229307   4.019   0.512   8.809 -0.1301  0.1288 -0.2727
 5892SOL     OW29308   2.394   0.210  11.897  0.1443 -0.3775  0.4182
 5892SOL    HW129309   2.314   0.209  11.845  0.4499  0.7829 -0.0717
 5892SOL    HW229310   2.376   0.144  11.964 -0.8266  0.5315  1.0535
 5893SOL     OW29311   2.231   0.112  16.047 -0.0445 -0.3752  0.2215
 5893SOL    HW129312   2.254   0.151  16.132 -0.6257  0.8171 -0.1601
 5893SOL    HW229313   2.311   0.138  16.000  1.2415 -2.3012  1.3316
 5894SOL     OW29314   0.556   2.772   2.596 -0.0281  0.6316  0.0538
 5894SOL    HW129315   0.612   2.784   2.519 -1.1701  0.4665 -0.8147
 5894SOL    HW229316   0.473   2.788   2.552  0.7095  1.3101 -1.0888
 5895SOL     OW29317   2.890   4.081   2.513 -0.4933  0.7837 -0.2378
 5895SOL    HW129318   2.883   4.091   2.608  0.4184 -0.2547 -0.0623
 5895SOL    HW229319   2.806   4.037   2.504  0.2873 -0.0620 -3.5935
 5896SOL     OW29320   2.077   1.896  10.408 -0.2855  0.1627  0.2186
 5896SOL    HW129321   2.023   1.861  10.336 -0.1679  0.8918 -0.2257
 5896SOL    HW229322   2.015   1.954  10.451 -1.4499 -1.2004  0.3495
 5897SOL     OW29323   3.345   0.453  12.827 -0.2180 -0.0118  0.4553
 5897SOL    HW129324   3.422   0.419  12.781 -0.3356 -0.4972  0.6289
 5897SOL    HW229325   3.293   0.374  12.840 -1.8834  1.5706  3.4068
 5898SOL     OW29326   4.321   1.367   0.966 -0.0687  0.3917  0.4335
 5898SOL    HW129327   4.368   1.423   1.028 -1.3555  0.4433  1.3767
 5898SOL    HW229328   4.244   1.422   0.954 -1.3587 -2.0014 -2.1076
 5899SOL     OW29329   2.631   3.297   8.979  0.5346 -0.2172  0.1871
 5899SOL    HW129330   2.540   3.322   8.997  0.1176 -1.3093 -0.4478
 5899SOL    HW229331   2.614   3.281   8.886 -0.5481 -0.1675  0.3799
 5900SOL     OW29332   2.812   1.341   5.875  0.0022 -0.3737  0.3620
 5900SOL    HW129333   2.864   1.362   5.798 -0.6610 -1.1035 -0.2766
 5900SOL    HW229334   2.868   1.277   5.919 -0.0289  1.5516  3.1748
 5901SOL     OW29335   1.061   4.228   8.802 -0.6753  0.4239  0.0358
 5901SOL    HW129336   1.118   4.222   8.879 -1.9591 -0.9475  0.8951
 5901SOL    HW229337   0.982   4.187   8.837  0.4687  0.5753  2.8079
 5902SOL     OW29338   3.535   2.334   5.698  0.0349 -0.2254  0.8302
 5902SOL    HW129339   3.569   2.423   5.689 -0.3355 -0.0420  1.2729
 5902SOL    HW229340   3.606   2.285   5.740  2.2999  0.7777 -1.7688
 5903SOL     OW29341   4.244   3.661   3.676 -0.3949  0.1978  0.5227
 5903SOL    HW129342   4.232   3.728   3.744 -0.0040 -0.4193  1.1926
 5903SOL    HW229343   4.209   3.704   3.598  1.4505  1.4740  0.3882
 5904SOL     OW29344   4.535   3.389   3.339  0.5297 -0.6634 -0.4447
 5904SOL    HW129345   4.499   3.424   3.420 -0.2978 -0.4288 -0.9073
 5904SOL    HW229346   4.562   3.301   3.367  0.5694 -0.4339  0.2162
 5905SOL     OW29347   0.912   1.080   2.186  0.1448 -0.3689 -0.2877
 5905SOL    HW129348   0.918   1.095   2.281 -1.2870 -0.5581 -0.1647
 5905SOL    HW229349   0.942   1.165   2.156 -0.2717  0.3209  1.2227
 5906SOL     OW29350   0.864   2.647  11.528 -0.3130  0.1520 -0.1020
 5906SOL    HW129351   0.816   2.696  11.462  1.3410  0.4004 -1.1113
 5906SOL    HW229352   0.940   2.704  11.542  1.4696 -1.5347 -2.8538
 5907SOL     OW29353   4.706   1.738   7.638 -0.7630 -0.5540  0.0920
 5907SOL    HW129354   4.624   1.751   7.687 -0.5757  0.5941  0.1058
 5907SOL    HW229355   0.018   1.815   7.669 -0.5655 -1.4400  2.0558
 5908SOL     OW29356   1.300   2.026   2.837 -0.3487 -0.4982 -0.8620
 5908SOL    HW129357   1.328   2.096   2.778  1.0773 -0.4620 -0.1529
 5908SOL    HW229358   1.385   1.996   2.868 -0.1665 -1.5828 -2.4137
 5909SOL     OW29359   2.971   3.747   6.074  0.2074 -0.0978  0.1750
 5909SOL    HW129360   2.911   3.672   6.073  0.1622 -0.0348 -1.0674
 5909SOL    HW229361   3.052   3.701   6.051  1.6757  1.1468  2.9145
 5910SOL     OW29362   4.331   3.811  11.926  0.4038 -0.1452 -0.1048
 5910SOL    HW129363   4.280   3.796  11.847 -1.5829 -3.0991  1.7387
 5910SOL    HW229364   4.259   3.808  11.989 -0.3974  2.4733 -0.9281
 5911SOL     OW29365   2.342   3.567  14.711  0.1450  0.3994  0.1497
 5911SOL    HW129366   2.339   3.563  14.616  4.3248 -0.7191  0.0409
 5911SOL    HW229367   2.428   3.526  14.721  0.1331  0.8110  1.9955
 5912SOL     OW29368   0.046   2.458   4.598  0.0966  0.2968 -0.0127
 5912SOL    HW129369   4.733   2.515   4.657 -3.2957 -0.9672 -1.5304
 5912SOL    HW229370   0.133   2.481   4.629 -0.4355 -0.1072  1.7891
 5913SOL     OW29371   0.787   2.786   3.949  0.7384  0.0590  0.4029
 5913SOL    HW129372   0.711   2.814   4.001  1.3074  0.3559  1.0735
 5913SOL    HW229373   0.848   2.858   3.968 -0.0256  0.7460  0.2422
 5914SOL     OW29374   0.742   1.948   7.417 -0.1284 -0.1289 -0.3351
 5914SOL    HW129375   0.830   1.969   7.449 -0.8928  0.4913  1.3057
 5914SOL    HW229376   0.736   1.855   7.435  1.7173 -0.6572 -2.3356
 5915SOL     OW29377   1.980   2.492  11.128 -0.4227  0.5337  0.4583
 5915SOL    HW129378   1.918   2.428  11.161 -0.0125 -0.4136 -0.5969
 5915SOL    HW229379   2.037   2.512  11.203 -1.0499 -1.3255  1.4199
 5916SOL     OW29380   2.160   0.991  17.297 -0.3447 -0.3124  0.0609
 5916SOL    HW129381   2.180   1.070  17.247 -0.8921  0.1248  0.5342
 5916SOL    HW229382   2.191   0.916  17.246 -0.9116 -0.1945 -0.4464
 5917SOL     OW29383   0.396   3.685   1.747 -0.1692  0.0160 -0.1113
 5917SOL    HW129384   0.355   3.755   1.695 -0.2332 -0.1258 -0.2529
 5917SOL    HW229385   0.330   3.679   1.816 -0.8991 -1.0321 -0.8908
 5918SOL     OW29386   3.016   3.442   3.386 -0.0243 -0.1757 -0.2104
 5918SOL    HW129387   2.935   3.454   3.434  0.6573 -0.2353  0.9639
 5918SOL    HW229388   3.073   3.454   3.462 -0.6821  1.9700 -0.0650
 5919SOL     OW29389   4.571   4.629   5.174 -0.1582  0.3213 -0.2983
 5919SOL    HW129390   4.534   4.648   5.087  1.2536  0.6877 -0.8175
 5919SOL    HW229391   4.525   4.693   5.229  0.7407  0.2950  0.4755
 5920SOL     OW29392   2.299   3.718  13.465  0.2852 -0.4582 -0.2562
 5920SOL    HW129393   2.373   3.715  13.526  1.1405 -2.2401 -1.3880
 5920SOL    HW229394   2.232   3.751  13.524  0.7201  0.6531 -0.3776
 5921SOL     OW29395   4.720   2.370   1.878 -0.0428 -0.1081  0.7042
 5921SOL    HW129396   4.632   2.392   1.846  0.3688  0.3720 -0.1160
 5921SOL    HW229397   4.697   2.304   1.943 -1.4011 -1.6115 -1.2832
 5922SOL     OW29398   3.100   1.563   3.558  0.1813 -0.1504  0.1764
 5922SOL    HW129399   3.191   1.537   3.569  0.3207  0.1508 -0.2608
 5922SOL    HW229400   3.119   1.651   3.526 -1.5817 -0.0756 -0.6859
 5923SOL     OW29401   2.642   4.309   9.818 -0.1221  0.2029 -0.4005
 5923SOL    HW129402   2.611   4.373   9.882  2.2226 -0.3924  1.3072
 5923SOL    HW229403   2.723   4.272   9.853  0.9824  0.2980 -2.8820
 5924SOL     OW29404   2.735   3.697   5.733 -0.2317  1.0277 -0.1226
 5924SOL    HW129405   2.663   3.645   5.768  2.1754 -2.1213  0.1812
 5924SOL    HW229406   2.802   3.628   5.735 -0.3476  0.8795 -1.4881
 5925SOL     OW29407   2.534   1.768   5.935  0.2046 -0.3279 -0.7577
 5925SOL    HW129408   2.573   1.851   5.962  0.1439 -0.6952  0.4488
 5925SOL    HW229409   2.590   1.741   5.862  3.6212  0.1359  1.6982
 5926SOL     OW29410   3.456   2.845   1.609 -0.2585  0.8703  0.1648
 5926SOL    HW129411   3.361   2.834   1.602 -0.2772 -0.0059  2.0059
 5926SOL    HW229412   3.467   2.937   1.632 -3.3155  1.7003 -1.6261
 5927SOL     OW29413   0.162   4.102   2.874 -0.6309  0.1120  0.6508
 5927SOL    HW129414   0.198   4.158   2.806  0.1299 -0.2067  0.7876
 5927SOL    HW229415   0.109   4.046   2.818 -0.5851 -1.5413  2.2548
 5928SOL     OW29416   2.913   2.195   1.365 -0.1717  0.8076  0.0965
 5928SOL    HW129417   2.940   2.116   1.319 -3.0388 -0.7176  0.9949
 5928SOL    HW229418   2.955   2.264   1.314 -0.4085  0.5278 -0.4870
 5929SOL     OW29419   0.982   2.714   6.123  0.0101 -0.2093 -0.0732
 5929SOL    HW129420   0.988   2.622   6.098 -0.2100 -0.5529  1.1241
 5929SOL    HW229421   0.968   2.747   6.034  1.5472 -1.4379 -0.7685
 5930SOL     OW29422   4.332   0.106   5.129 -0.0503  0.4457  0.1727
 5930SOL    HW129423   4.272   0.085   5.058 -1.5940  0.2481  1.5294
 5930SOL    HW229424   4.404   0.151   5.085  0.0563 -0.2348 -0.3419
 5931SOL     OW29425   4.027   0.224   8.843 -0.1449  0.2644 -0.4636
 5931SOL    HW129426   4.015   0.242   8.750  0.0314 -3.1381 -1.1319
 5931SOL    HW229427   4.099   0.281   8.873  0.4489 -0.0118 -1.3428
 5932SOL     OW29428   2.861   1.517   0.327 -0.0242 -0.1493 -0.0784
 5932SOL    HW129429   2.922   1.566   0.272 -1.5995 -0.1922 -1.8619
 5932SOL    HW229430   2.863   1.439   0.271 -0.5992 -0.3579  0.1846
 5933SOL     OW29431   0.400   0.082   1.797  0.3994 -0.1262  0.4554
 5933SOL    HW129432   0.489   0.047   1.787 -0.0112 -0.9362 -0.3270
 5933SOL    HW229433   0.347   0.007   1.823  0.5270 -0.5065 -0.4032
 5934SOL     OW29434   0.166   1.935   6.222 -0.4377  0.3137  0.1882
 5934SOL    HW129435   0.155   1.882   6.301 -1.3352  2.8240  1.7867
 5934SOL    HW229436   0.236   1.881   6.187 -0.4381  1.1792 -1.1716
 5935SOL     OW29437   1.572   4.468  10.003  0.0442  0.8412  0.2941
 5935SOL    HW129438   1.665   4.455   9.983  0.0337  0.5647  0.4240
 5935SOL    HW229439   1.577   4.469  10.098 -3.2605 -0.1114  0.4615
 5936SOL     OW29440   1.086   2.240   1.162 -0.1136 -0.5840  0.1623
 5936SOL    HW129441   1.175   2.207   1.176 -0.6977 -1.9395  0.5824
 5936SOL    HW229442   1.099   2.330   1.194 -0.0464 -0.5012 -0.0959
 5937SOL     OW29443   0.515   2.043   7.881  0.5945  0.1163 -0.3374
 5937SOL    HW129444   0.492   2.006   7.796  0.0342  1.2460 -0.6776
 5937SOL    HW229445   0.570   2.115   7.852 -1.4508  2.3701  1.3296
 5938SOL     OW29446   3.077   1.541   6.000 -0.0483  0.2719  0.0753
 5938SOL    HW129447   3.114   1.599   5.933 -2.1456  2.9542  1.2364
 5938SOL    HW229448   3.129   1.462   5.983  0.2704  0.6946 -0.9173
 5939SOL     OW29449   2.129   4.202   8.476 -0.1297 -0.0458  0.1067
 5939SOL    HW129450   2.043   4.225   8.510  0.4827  1.7296  0.4535
 5939SOL    HW229451   2.103   4.160   8.394  3.2771 -0.0738 -0.9894
 5940SOL     OW29452   1.855   0.899  14.764  0.6262 -0.6957 -0.0467
 5940SOL    HW129453   1.858   0.907  14.668 -0.1297  4.0883  0.3219
 5940SOL    HW229454   1.921   0.831  14.778  1.3781  0.0110 -0.1571
 5941SOL     OW29455   2.867   1.054   0.867  0.7813 -0.2458  0.1086
 5941SOL    HW129456   2.818   0.978   0.898  0.8748 -0.1966  0.3817
 5941SOL    HW229457   2.871   1.109   0.946  1.3090  0.4467 -0.3968
 5942SOL     OW29458   1.936   1.129   2.955  0.4023 -0.3639  0.5555
 5942SOL    HW129459   1.968   1.217   2.976 -3.5119  0.6790  2.0908
 5942SOL    HW229460   1.853   1.106   2.996  0.9938 -2.5787  0.5192
 5943SOL     OW29461   2.718   3.743   2.621  0.0648 -0.0977  0.5912
 5943SOL    HW129462   2.712   3.817   2.560 -2.0850 -0.8668 -0.1266
 5943SOL    HW229463   2.782   3.695   2.568 -2.9137 -2.1465 -1.1351
 5944SOL     OW29464   4.501   0.885   6.096 -0.5158 -0.2753  0.5591
 5944SOL    HW129465   4.561   0.835   6.041  0.2409  0.4964  0.6874
 5944SOL    HW229466   4.513   0.838   6.178 -0.7339  0.8246  1.2247
 5945SOL     OW29467   2.781   3.715   9.061  0.0211 -0.3165  0.3227
 5945SOL    HW129468   2.703   3.763   9.032  0.1769 -0.5497 -0.4779
 5945SOL    HW229469   2.773   3.630   9.017 -1.0395  0.0295 -0.1357
 5946SOL     OW29470   1.002   0.872   1.030 -0.5066  0.1021  0.2872
 5946SOL    HW129471   0.913   0.841   1.046 -0.2846 -1.2607 -1.0532
 5946SOL    HW229472   0.979   0.939   0.964  2.0631  1.4721  0.7805
 5947SOL     OW29473   3.424   1.923  17.391 -0.3398  0.3143  0.0209
 5947SOL    HW129474   3.386   1.889  17.310 -1.1210  1.0624  0.0755
 5947SOL    HW229475   3.513   1.943  17.362 -0.2329  1.8974  1.4460
 5948SOL     OW29476   0.944   1.485   8.882  0.1609  0.4146  0.3045
 5948SOL    HW129477   0.995   1.408   8.906  1.0582  0.9880  0.2730
 5948SOL    HW229478   0.958   1.550   8.952  0.6944  2.1040 -1.3722
 5949SOL     OW29479   1.865   2.278  10.309 -0.0123 -0.0899  0.3347
 5949SOL    HW129480   1.819   2.350  10.269  0.7023 -0.9826 -2.0908
 5949SOL    HW229481   1.904   2.224  10.240  0.4843 -0.0257  0.5634
 5950SOL     OW29482   4.003   0.979   0.322  0.1512  0.0601 -0.8928
 5950SOL    HW129483   4.013   1.075   0.325 -1.3615  0.1840  0.2499
 5950SOL    HW229484   3.918   0.972   0.365 -0.3904  0.5431 -1.8838
 5951SOL     OW29485   3.860   0.862   2.105 -0.3915  0.0479  0.2479
 5951SOL    HW129486   3.898   0.934   2.156 -0.4978 -0.2591  0.7561
 5951SOL    HW229487   3.874   0.792   2.168  2.1867 -0.2654 -0.6731
 5952SOL     OW29488   0.331   2.029  15.043 -0.0213  0.2791  0.3263
 5952SOL    HW129489   0.388   2.106  15.034 -0.2232  0.3866 -0.0118
 5952SOL    HW229490   0.317   2.026  15.138  1.6851  5.0537  0.7770
 5953SOL     OW29491   4.058   2.614   4.162  0.6699 -0.6285 -0.2389
 5953SOL    HW129492   4.059   2.585   4.253  1.9426 -0.2391 -0.1246
 5953SOL    HW229493   4.092   2.545   4.107 -0.4043 -0.1388 -1.5249
 5954SOL     OW29494   2.833   4.331   4.528 -0.3619  0.4944 -0.3555
 5954SOL    HW129495   2.893   4.256   4.535  0.5407  1.1984 -0.6048
 5954SOL    HW229496   2.890   4.407   4.519 -0.0440  0.3244  0.2363
 5955SOL     OW29497   0.144   4.133   9.287  0.2286  0.2834 -0.5075
 5955SOL    HW129498   0.157   4.180   9.370 -4.6269 -1.4102  1.2623
 5955SOL    HW229499   0.229   4.093   9.273  0.4809  0.2255  1.2021
 5956SOL     OW29500   2.859   0.507   9.730  0.3685  0.0737  0.3982
 5956SOL    HW129501   2.927   0.542   9.787 -0.2547  0.3328  0.9800
 5956SOL    HW229502   2.801   0.453   9.784  0.0010 -0.5004 -0.5619
 5957SOL     OW29503   1.647   0.757  13.393  0.0321  0.9401 -0.3909
 5957SOL    HW129504   1.617   0.847  13.378 -0.2237  1.0522  0.8420
 5957SOL    HW229505   1.713   0.763  13.462  0.1151 -0.0050 -0.3860
 5958SOL     OW29506   1.115   2.243   8.014 -0.8329  0.3640  0.2283
 5958SOL    HW129507   1.163   2.218   8.093  1.0782 -1.3395 -1.4772
 5958SOL    HW229508   1.028   2.212   8.036 -1.2440  0.3069 -1.5204
 5959SOL     OW29509   1.748   0.767  15.621 -0.0103  0.0978  0.3128
 5959SOL    HW129510   1.682   0.759  15.552  1.6684  1.5243 -1.4346
 5959SOL    HW229511   1.786   0.679  15.620  2.3144  1.1104  0.1035
 5960SOL     OW29512   1.077   3.925   4.224 -0.3418  0.1775 -0.1620
 5960SOL    HW129513   1.043   3.838   4.245 -1.9572  1.2053  1.4050
 5960SOL    HW229514   1.094   3.965   4.309 -1.7024  0.2363  0.0721
 5961SOL     OW29515   3.583   3.535   8.529 -0.0932  0.6376  0.3274
 5961SOL    HW129516   3.551   3.568   8.613 -0.4553  0.4320  0.2711
 5961SOL    HW229517   3.677   3.518   8.535 -0.0277  1.2018  0.8992
 5962SOL     OW29518   1.068   3.108   4.279  0.2463 -0.3427 -0.0245
 5962SOL    HW129519   1.004   3.071   4.339  0.8609  0.8012  1.3540
 5962SOL    HW229520   1.052   3.203   4.284  1.1576 -0.3330  3.0040
 5963SOL     OW29521   0.906   3.463  11.087  0.8511  0.1933  0.5024
 5963SOL    HW129522   0.917   3.460  11.182  1.3046  0.1533  0.4458
 5963SOL    HW229523   0.810   3.470  11.079  0.8969 -0.3712 -0.5973
 5964SOL     OW29524   1.955   4.114   5.608  0.2516  0.1226  0.6978
 5964SOL    HW129525   1.932   4.023   5.629  1.6260 -0.7445 -1.5066
 5964SOL    HW229526   2.005   4.132   5.688 -2.0044  1.5465  1.7464
 5965SOL     OW29527   1.562   2.273   9.792  0.2795 -0.9485 -0.3757
 5965SOL    HW129528   1.482   2.311   9.828 -0.1853  0.1934 -2.6470
 5965SOL    HW229529   1.548   2.178   9.792 -4.2495 -0.2718 -0.5621
 5966SOL     OW29530   1.321   3.422   9.497  0.4897  0.6492  0.0558
 5966SOL    HW129531   1.374   3.393   9.571  0.8237  0.1783 -0.3666
 5966SOL    HW229532   1.373   3.486   9.449  0.8723  0.9864  0.9246
 5967SOL     OW29533   0.997   1.950   3.905 -0.3710  0.0076  0.6383
 5967SOL    HW129534   1.073   1.957   3.962 -0.0904 -0.6087  0.3370
 5967SOL    HW229535   1.008   1.864   3.865 -2.2601 -0.2939  0.7648
 5968SOL     OW29536   2.083   2.105  16.366  0.1318 -0.4959  0.3666
 5968SOL    HW129537   2.123   2.048  16.431  3.2960  1.0895 -0.1828
 5968SOL    HW229538   2.000   2.058  16.362 -0.3525  0.3184  0.7524
 5969SOL     OW29539   2.535   2.984   3.574 -0.6430  0.5852 -0.0360
 5969SOL    HW129540   2.625   3.014   3.588  0.2530 -1.9679 -0.3346
 5969SOL    HW229541   2.552   2.908   3.519  1.2886  1.2987 -0.4117
 5970SOL     OW29542   3.690   2.863   8.634 -0.5009  0.2260 -0.1082
 5970SOL    HW129543   3.626   2.837   8.567 -1.6259 -0.9846  1.4506
 5970SOL    HW229544   3.704   2.950   8.597  6.3417 -1.4873 -1.6544
 5971SOL     OW29545   4.403   0.730   9.656  0.2765  0.7228 -0.3880
 5971SOL    HW129546   4.326   0.786   9.664 -0.2809  0.1212 -1.5095
 5971SOL    HW229547   4.387   0.663   9.722  0.3994  2.6219  1.5540
 5972SOL     OW29548   0.891   3.829   7.567  0.1444 -0.1440  0.0131
 5972SOL    HW129549   0.844   3.912   7.583 -0.5049 -0.5521  0.2303
 5972SOL    HW229550   0.895   3.821   7.472  3.1930 -3.3270  0.4304
 5973SOL     OW29551   0.600   4.639   7.299  0.0082 -0.1558  0.3446
 5973SOL    HW129552   0.604   4.544   7.290  0.5372 -0.0646 -0.3372
 5973SOL    HW229553   0.537   4.644   7.372 -2.3853  2.6788 -1.9219
 5974SOL     OW29554   4.573   0.675   3.652  0.5519 -0.6969  0.0322
 5974SOL    HW129555   4.545   0.754   3.699  0.1912  0.3558 -1.9603
 5974SOL    HW229556   4.482   0.647   3.643 -0.0486  0.5878  1.9138
 5975SOL     OW29557   2.511   0.235   0.791 -0.1462  0.5933 -0.1084
 5975SOL    HW129558   2.606   0.228   0.786 -0.2889 -1.0326 -0.3130
 5975SOL    HW229559   2.485   0.155   0.747 -2.4896  0.4689  1.4816
 5976SOL     OW29560   2.877   0.339   7.271 -0.2998  0.1778  0.0764
 5976SOL    HW129561   2.970   0.316   7.282  0.0065  1.7761  0.7692
 5976SOL    HW229562   2.888   0.434   7.270 -0.0882  0.1525 -0.0961
 5977SOL     OW29563   3.054   1.653  16.205  0.8835 -0.1975  0.0534
 5977SOL    HW129564   3.148   1.670  16.216  0.9094  0.1282 -0.6965
 5977SOL    HW229565   3.047   1.580  16.266 -0.4898 -1.6330 -1.7986
 5978SOL     OW29566   1.561   1.174   9.404  0.1216 -0.0479 -0.0576
 5978SOL    HW129567   1.530   1.086   9.386  2.2278 -0.7586 -0.2039
 5978SOL    HW229568   1.647   1.164   9.446 -0.5065  1.2685  1.5358
 5979SOL     OW29569   1.689   3.739   3.480  0.1793  0.3473  0.1341
 5979SOL    HW129570   1.623   3.753   3.411  0.1117  1.6486  0.4576
 5979SOL    HW229571   1.759   3.770   3.423 -1.0413 -0.6870 -1.9658
 5980SOL     OW29572   1.959   0.617   4.197  0.5396 -0.6187  0.1618
 5980SOL    HW129573   1.963   0.665   4.114 -1.0194 -0.0543  0.4293
 5980SOL    HW229574   1.938   0.537   4.149 -0.7989 -1.1860  1.6920
 5981SOL     OW29575   4.627   2.428   6.777  0.6538 -0.1344 -0.0139
 5981SOL    HW129576   4.662   2.513   6.750  1.3929  0.0224  1.4192
 5981SOL    HW229577   4.682   2.402   6.851 -0.5861 -1.6481  0.3907
 5982SOL     OW29578   0.717   4.697   3.595 -1.1004  0.9475  0.2871
 5982SOL    HW129579   0.644   4.723   3.539  0.5779  1.4285 -1.6861
 5982SOL    HW229580   0.791   4.704   3.534 -1.0386 -1.9234  0.0227
 5983SOL     OW29581   0.573   2.327   4.766  0.5353  0.1018 -0.2434
 5983SOL    HW129582   0.575   2.319   4.671  1.4575  0.1120 -0.2222
 5983SOL    HW229583   0.545   2.238   4.785  0.9257  0.0432  0.0621
 5984SOL     OW29584   0.712   1.526   1.846 -0.1285 -0.4017 -0.1874
 5984SOL    HW129585   0.806   1.527   1.860 -0.0866  0.4655 -0.5178
 5984SOL    HW229586   0.695   1.587   1.774  0.7468 -3.1184 -2.7017
 5985SOL     OW29587   3.205   2.921   5.911 -0.2313  0.2016 -0.1743
 5985SOL    HW129588   3.294   2.951   5.930 -0.9440  1.9596  0.4133
 5985SOL    HW229589   3.170   2.996   5.863 -1.2038 -1.3859 -1.9369
 5986SOL     OW29590   1.084   0.573  16.356  0.1599  0.1707  0.4445
 5986SOL    HW129591   1.059   0.633  16.285  1.9906  0.2781 -0.0900
 5986SOL    HW229592   1.008   0.589  16.412 -0.4878 -0.7854 -0.1576
 5987SOL     OW29593   4.185   3.629   7.525 -0.2428 -0.2615  0.2238
 5987SOL    HW129594   4.139   3.713   7.530  0.1593 -0.0269 -0.0036
 5987SOL    HW229595   4.120   3.566   7.556  0.8205 -1.0375  0.8870
 5988SOL     OW29596   0.324   2.410   2.255 -0.7649  0.1641 -0.1910
 5988SOL    HW129597   0.264   2.437   2.185 -0.5926  0.6897 -0.1273
 5988SOL    HW229598   0.407   2.451   2.232 -0.1298  0.1335  2.0198
 5989SOL     OW29599   2.887   1.346   2.951  0.2604  0.1990 -0.3137
 5989SOL    HW129600   2.814   1.372   3.008 -1.0820 -2.1225 -0.9951
 5989SOL    HW229601   2.838   1.293   2.888  0.0626  1.1416 -0.9454
 5990SOL     OW29602   0.235   1.768  15.036 -0.6710 -0.2901 -0.2626
 5990SOL    HW129603   0.273   1.854  15.019 -0.4456 -0.5697 -1.1331
 5990SOL    HW229604   0.163   1.782  15.098  0.5424 -0.4570  1.1889
 5991SOL     OW29605   0.842   4.131   7.096  0.1851 -0.5730  0.2566
 5991SOL    HW129606   0.789   4.211   7.091  1.4252  0.2352 -0.2312
 5991SOL    HW229607   0.925   4.161   7.133  1.3407 -1.7878 -1.3234
 5992SOL     OW29608   1.169   4.383  10.118  0.3004 -0.1519  0.0415
 5992SOL    HW129609   1.197   4.421  10.202 -1.9884  2.7001 -0.4885
 5992SOL    HW229610   1.087   4.344  10.147 -1.2212  2.7745 -0.3381
 5993SOL     OW29611   4.253   4.507   1.985  0.3226  0.2101  0.3146
 5993SOL    HW129612   4.251   4.463   2.069  0.0296  1.9493  1.2122
 5993SOL    HW229613   4.348   4.506   1.970  0.3365 -1.2117  0.4822
 5994SOL     OW29614   0.531   4.432   0.645 -0.2957  0.0771 -0.3383
 5994SOL    HW129615   0.517   4.347   0.604  0.3269 -1.5098  2.7603
 5994SOL    HW229616   0.601   4.463   0.587  0.6228 -2.6384 -0.6884
 5995SOL     OW29617   1.808   1.998   9.936 -0.2355 -0.2176  0.4194
 5995SOL    HW129618   1.886   1.986   9.882  0.0048  0.5957  0.5749
 5995SOL    HW229619   1.836   2.058  10.006  0.5902  0.2383 -0.2965
 5996SOL     OW29620   1.268   0.302   2.851 -0.7122 -0.3350  0.3640
 5996SOL    HW129621   1.215   0.355   2.911 -1.9443 -1.8192  0.5950
 5996SOL    HW229622   1.308   0.366   2.792  0.1930 -2.3487 -1.2037
 5997SOL     OW29623   1.808   3.947   9.252  0.0061  0.1293  0.3110
 5997SOL    HW129624   1.878   3.956   9.187  0.1152 -0.6224  0.3238
 5997SOL    HW229625   1.861   3.908   9.321 -0.0339  0.5871  0.6012
 5998SOL     OW29626   2.976   1.606   2.131  0.9215  0.4802  0.2715
 5998SOL    HW129627   3.002   1.534   2.073  0.7623  0.5327  0.1347
 5998SOL    HW229628   2.941   1.565   2.210  0.8353  0.3632  0.1739
 5999SOL     OW29629   2.036   2.539   3.808 -0.7393  0.1634  0.3297
 5999SOL    HW129630   2.017   2.629   3.782 -2.0896 -0.2774 -0.2550
 5999SOL    HW229631   1.962   2.502   3.760 -0.8702  0.0530  0.6146
 6000SOL     OW29632   4.094   2.431   7.867  0.6401 -0.2687 -0.4090
 6000SOL    HW129633   4.009   2.428   7.911  0.9500 -0.1273  0.2045
 6000SOL    HW229634   4.083   2.378   7.788 -3.1556  1.0208 -0.7227
 6001SOL     OW29635   4.176   2.119   7.545 -0.0185 -0.0431  0.1358
 6001SOL    HW129636   4.266   2.138   7.519  0.8046 -1.3416  1.9707
 6001SOL    HW229637   4.135   2.184   7.488 -1.0062 -0.5371  0.2826
 6002SOL     OW29638   4.307   0.100   1.947  0.6156 -0.1691  1.1326
 6002SOL    HW129639   4.220   0.068   1.968  0.8700 -0.6521  1.4419
 6002SOL    HW229640   4.327   0.035   1.880 -1.0862  0.7240 -0.2463
 6003SOL     OW29641   4.348   3.654   1.096  0.0493  0.0671 -0.0192
 6003SOL    HW129642   4.319   3.622   1.182  0.2951 -0.2702 -0.0631
 6003SOL    HW229643   4.419   3.592   1.083  0.1165  0.2750 -0.6548
 6004SOL     OW29644   2.976   0.415  14.630 -0.3610 -0.1264 -0.0631
 6004SOL    HW129645   2.881   0.416  14.644 -0.3733 -0.1717 -0.1399
 6004SOL    HW229646   3.006   0.419  14.721 -1.2881 -0.3690  0.2545
 6005SOL     OW29647   1.202   2.833   6.196  0.0282  0.5974 -0.0664
 6005SOL    HW129648   1.117   2.792   6.176  0.1858  0.2816 -0.0789
 6005SOL    HW229649   1.195   2.836   6.291  1.7475  0.6023  0.0529
 6006SOL     OW29650   2.567   2.958  15.894 -0.0919 -0.8035  0.1077
 6006SOL    HW129651   2.604   2.872  15.874  1.1702 -0.0979 -0.5669
 6006SOL    HW229652   2.479   2.942  15.861  0.0709  1.8659 -1.5747
 6007SOL     OW29653   4.343   4.378  14.136  0.3743 -0.5242 -0.0856
 6007SOL    HW129654   4.311   4.397  14.047  1.9678 -0.7331 -0.7065
 6007SOL    HW229655   4.351   4.283  14.135  1.2341 -0.4681  1.4807
 6008SOL     OW29656   3.895   2.698  13.914  0.1052  0.4470  0.1189
 6008SOL    HW129657   3.824   2.640  13.885 -1.0345  0.6526  2.5075
 6008SOL    HW229658   3.845   2.760  13.967  0.1971  0.1675  0.5320
 6009SOL     OW29659   1.833   2.007   2.139 -0.2096 -0.4889  0.0265
 6009SOL    HW129660   1.927   2.010   2.158 -0.1788 -0.0736 -0.1806
 6009SOL    HW229661   1.798   2.019   2.227  1.4317 -0.2438  0.6362
 6010SOL     OW29662   3.885   1.228  13.868  0.2597  0.3176 -0.2572
 6010SOL    HW129663   3.813   1.287  13.844  0.6704 -0.5374 -3.5259
 6010SOL    HW229664   3.835   1.156  13.906 -1.1967  1.8559  0.7741
 6011SOL     OW29665   3.243   0.688   5.079 -0.0874 -0.1828 -0.4822
 6011SOL    HW129666   3.182   0.614   5.079  0.7926 -0.8961 -1.4269
 6011SOL    HW229667   3.194   0.766   5.053 -1.5224 -0.4514  1.3494
 6012SOL     OW29668   1.782   3.896  16.577  0.4585  0.1569  0.2499
 6012SOL    HW129669   1.753   3.851  16.657  0.0490 -0.1138 -0.0522
 6012SOL    HW229670   1.713   3.961  16.567  0.5720  0.3095  0.4632
 6013SOL     OW29671   3.531   3.186   2.344 -0.0550 -0.2225  0.2174
 6013SOL    HW129672   3.622   3.165   2.364  0.1610  0.0953 -0.4298
 6013SOL    HW229673   3.523   3.269   2.392 -0.2248 -1.0987  1.7263
 6014SOL     OW29674   3.552   1.664  17.671  0.0501 -0.6126  0.2935
 6014SOL    HW129675   3.572   1.682   0.024  0.7135  2.4921 -0.4688
 6014SOL    HW229676   3.598   1.583  17.651  0.4512  0.4964 -3.3020
 6015SOL     OW29677   1.918   0.260  12.467  0.1761 -0.1177 -0.2023
 6015SOL    HW129678   1.846   0.293  12.521  1.8591  0.3885  1.7665
 6015SOL    HW229679   1.942   0.179  12.512  1.9756 -0.2077 -1.3174
 6016SOL     OW29680   1.065   0.932   8.417 -0.6512 -0.5857  0.8442
 6016SOL    HW129681   0.982   0.898   8.383 -0.2989 -1.0901  0.4724
 6016SOL    HW229682   1.071   1.003   8.353 -0.9205 -0.4327  0.9887
 6017SOL     OW29683   2.094   2.264   2.845 -0.0137 -0.1126 -0.0325
 6017SOL    HW129684   2.004   2.250   2.815 -0.7936  0.6209  1.9192
 6017SOL    HW229685   2.144   2.248   2.765  1.2594 -1.1528  0.9752
 6018SOL     OW29686   3.635   1.963   4.886  0.2378  0.1536  0.3545
 6018SOL    HW129687   3.549   1.960   4.928  0.0061 -1.9154 -0.2693
 6018SOL    HW229688   3.689   2.004   4.954  1.0648 -1.5132  0.7102
 6019SOL     OW29689   0.988   0.324   4.938  0.0977  0.5223  0.2836
 6019SOL    HW129690   0.958   0.281   5.019  0.7319  0.2643  0.3843
 6019SOL    HW229691   1.011   0.412   4.969 -0.0465  0.6283  0.0895
 6020SOL     OW29692   0.471   0.255  13.386 -0.2861 -0.2016  0.4167
 6020SOL    HW129693   0.485   0.342  13.423  1.3592 -0.9084  1.5158
 6020SOL    HW229694   0.393   0.222  13.432 -1.3768  0.4238 -0.9912
 6021SOL     OW29695   2.278   4.309  15.242  0.0084 -0.2500 -0.2261
 6021SOL    HW129696   2.230   4.271  15.317  0.4258 -1.0954 -0.3841
 6021SOL    HW229697   2.207   4.299  15.179  0.1475 -0.6502 -0.3198
 6022SOL     OW29698   4.013   0.616   2.973 -0.2238 -0.2453 -0.0219
 6022SOL    HW129699   4.041   0.708   2.962  1.6020 -0.6564  1.2021
 6022SOL    HW229700   4.085   0.575   3.022 -0.0876  1.3009  1.0782
 6023SOL     OW29701   0.033   1.305   4.829  0.3835 -0.3893  0.0956
 6023SOL    HW129702   4.707   1.301   4.903 -2.3526 -0.1707 -2.1636
 6023SOL    HW229703   0.020   1.223   4.781 -0.5083  0.1247 -0.5395
 6024SOL     OW29704   1.381   0.439  12.615 -0.3010 -0.0369  0.3927
 6024SOL    HW129705   1.403   0.354  12.652 -1.9881 -0.2316  0.9532
 6024SOL    HW229706   1.471   0.460  12.587 -1.2155  1.1272 -1.7279
 6025SOL     OW29707   4.333   3.635   6.622 -0.4988 -0.2800 -0.5250
 6025SOL    HW129708   4.271   3.644   6.550  1.1535  0.2357 -1.8677
 6025SOL    HW229709   4.399   3.701   6.599 -0.4260  0.5114  1.8495
 6026SOL     OW29710   0.729   0.575   2.099  0.5009 -0.1770 -0.1611
 6026SOL    HW129711   0.727   0.638   2.028 -1.3054  1.2723  1.1630
 6026SOL    HW229712   0.662   0.621   2.150  0.1661 -1.0128  0.1643
 6027SOL     OW29713   0.823   1.211  13.635  0.2207 -0.3847  0.0063
 6027SOL    HW129714   0.781   1.167  13.709  0.9308  0.3922  0.8594
 6027SOL    HW229715   0.762   1.285  13.632 -1.0033 -1.3896  0.0417
 6028SOL     OW29716   3.926   0.381   5.063 -0.1226 -0.0975  0.2287
 6028SOL    HW129717   3.899   0.467   5.096 -1.8367 -0.9418  1.0436
 6028SOL    HW229718   4.020   0.396   5.052  0.2110 -2.4864 -0.1781
 6029SOL     OW29719   3.328   3.901   5.506  0.3481 -0.0142 -0.5213
 6029SOL    HW129720   3.264   3.892   5.436 -0.3687 -2.2852  0.4244
 6029SOL    HW229721   3.278   3.966   5.555  0.3796 -1.2148  1.0751
 6030SOL     OW29722   0.998   0.281   7.427  0.4534  0.1259 -0.0285
 6030SOL    HW129723   0.922   0.225   7.436  0.8600 -0.5522 -0.8430
 6030SOL    HW229724   1.061   0.209   7.427  0.3812  0.0687  1.6783
 6031SOL     OW29725   0.571   4.241  14.756  0.2836  0.0442 -0.2818
 6031SOL    HW129726   0.592   4.316  14.811 -1.6818 -0.1804  0.8070
 6031SOL    HW229727   0.555   4.172  14.821  4.0782 -0.6869 -0.1517
 6032SOL     OW29728   4.288   0.987   8.574  0.1082  0.1505 -0.1891
 6032SOL    HW129729   4.350   1.023   8.511 -0.9782  0.4080 -1.0937
 6032SOL    HW229730   4.254   1.065   8.616  1.5036  0.0251  1.1895
 6033SOL     OW29731   3.936   4.000  15.019  0.0567 -0.0513 -0.1476
 6033SOL    HW129732   3.986   4.070  14.976  0.1454  0.5810  0.9744
 6033SOL    HW229733   3.903   4.056  15.090 -0.0200 -2.5933  1.8243
 6034SOL     OW29734   2.012   0.486  14.390 -0.0213 -0.2107  0.2657
 6034SOL    HW129735   2.100   0.512  14.415 -0.4227 -1.8870  3.3232
 6034SOL    HW229736   2.029   0.393  14.379  0.3038 -0.1088 -0.0975
 6035SOL     OW29737   3.048   3.285   6.368 -0.2679 -0.3651 -0.1249
 6035SOL    HW129738   3.102   3.254   6.295  0.2181 -1.2223  0.5825
 6035SOL    HW229739   3.077   3.232   6.443 -0.3054 -0.0732  0.0958
 6036SOL     OW29740   2.064   0.366   6.847  0.4446  0.2108 -0.0256
 6036SOL    HW129741   1.996   0.300   6.833  0.7105  0.3781 -2.1246
 6036SOL    HW229742   2.020   0.447   6.873 -1.8053 -0.9354 -0.2032
 6037SOL     OW29743   4.609   0.825   6.675 -0.3474 -0.1438 -0.1850
 6037SOL    HW129744   4.552   0.816   6.751  0.7671 -2.3358  0.4092
 6037SOL    HW229745   4.687   0.781   6.708  0.3568  1.2224 -0.0526
 6038SOL     OW29746   2.335   0.495   2.416  0.2899 -0.1237  0.5495
 6038SOL    HW129747   2.409   0.436   2.428  1.1401  0.6948 -0.6779
 6038SOL    HW229748   2.293   0.461   2.337  1.8228  2.0369 -1.1949
 6039SOL     OW29749   0.349   0.304   9.625  0.3074  0.3035  0.7208
 6039SOL    HW129750   0.380   0.394   9.638 -0.1632  0.5835 -0.1492
 6039SOL    HW229751   0.321   0.292   9.535  0.4391  1.3215  0.5553
 6040SOL     OW29752   2.752   0.009  10.626 -0.2848  0.0543 -0.1838
 6040SOL    HW129753   2.702   0.011  10.708  0.7302  1.1194  0.4019
 6040SOL    HW229754   2.742   4.653  10.598  0.1122  0.3586 -1.3140
 6041SOL     OW29755   1.119   3.746   7.719 -0.1114 -0.5150 -0.1097
 6041SOL    HW129756   1.073   3.794   7.651 -2.4889 -0.1828  1.7047
 6041SOL    HW229757   1.070   3.776   7.796 -0.6609 -0.2402 -0.5684
 6042SOL     OW29758   0.840   1.211  11.866  0.9458 -0.1507 -0.0433
 6042SOL    HW129759   0.759   1.224  11.817  1.9310  2.1068 -1.1009
 6042SOL    HW229760   0.856   1.302  11.889 -2.4251  0.3521  0.2903
 6043SOL     OW29761   0.154   0.585   9.505 -0.0965 -0.0362  0.1734
 6043SOL    HW129762   0.220   0.568   9.438  0.1689  1.5325  0.0378
 6043SOL    HW229763   0.189   0.645   9.572 -0.8661 -0.3284  0.8357
 6044SOL     OW29764   1.150   2.502   7.956 -0.4767  0.3904 -0.0469
 6044SOL    HW129765   1.129   2.515   7.863  2.8669 -2.8512 -1.2857
 6044SOL    HW229766   1.156   2.407   7.955 -0.0937  0.4196 -0.7182
 6045SOL     OW29767   2.964   3.719   6.571  0.1967  0.1295  0.5013
 6045SOL    HW129768   2.880   3.673   6.582  0.4708 -0.1913  1.2103
 6045SOL    HW229769   2.954   3.796   6.625  2.1185 -0.1398  1.2273
 6046SOL     OW29770   3.903   4.377   0.341 -0.3196  0.3169  0.3737
 6046SOL    HW129771   3.865   4.298   0.380  0.3711 -0.3230 -0.2470
 6046SOL    HW229772   3.882   4.453   0.396 -0.6106  0.1637  0.4775
 6047SOL     OW29773   4.041   0.151   7.258 -0.1553  0.1397  0.5794
 6047SOL    HW129774   4.020   0.061   7.283 -2.5106  0.8756  1.2733
 6047SOL    HW229775   4.010   0.159   7.167 -1.3077 -1.5940  0.8081
 6048SOL     OW29776   3.497   1.989   6.453  0.7084  0.3055  0.4723
 6048SOL    HW129777   3.542   2.063   6.494 -0.6712  1.4912 -0.1488
 6048SOL    HW229778   3.574   1.950   6.413  0.8888 -1.3101  2.3882
 6049SOL     OW29779   0.131   4.421   8.654  1.3765  0.4156  0.5347
 6049SOL    HW129780   0.149   4.334   8.618  1.1036  0.4113  0.4078
 6049SOL    HW229781   0.036   4.407   8.656  1.4683 -0.6739 -3.2437
 6050SOL     OW29782   2.134   4.586  17.737  0.2266  0.3715  0.0185
 6050SOL    HW129783   2.167   4.501  17.709 -0.4448 -0.1732  0.8983
 6050SOL    HW229784   2.092   4.569   0.081 -0.8752 -0.5940 -0.7375
 6051SOL     OW29785   4.178   3.269   3.856 -0.2710 -0.2834 -0.0878
 6051SOL    HW129786   4.149   3.231   3.938  1.7997  2.1729  1.7766
 6051SOL    HW229787   4.194   3.193   3.800  1.0832 -0.7102  0.9014
 6052SOL     OW29788   3.615   3.008   9.817 -0.8268  0.6360 -1.2450
 6052SOL    HW129789   3.634   2.932   9.872 -1.9899 -0.2008 -2.0049
 6052SOL    HW229790   3.702   3.038   9.788 -0.9194  1.1341 -1.0148
 6053SOL     OW29791   0.033   3.586   0.741  0.3243 -0.6935  0.2486
 6053SOL    HW129792   0.114   3.546   0.771  0.2637 -0.7595  0.3240
 6053SOL    HW229793   4.711   3.552   0.810 -0.4877 -0.1107 -0.1362
 6054SOL     OW29794   1.040   0.408   4.064 -0.5346 -0.2281 -0.1533
 6054SOL    HW129795   0.951   0.433   4.040  0.0879  2.5713  0.4817
 6054SOL    HW229796   1.032   0.313   4.066 -2.0522 -0.0799  1.0086
 6055SOL     OW29797   3.543   3.677   8.752 -0.2245  0.0576 -0.4669
 6055SOL    HW129798   3.463   3.726   8.769  1.2827  2.5262 -0.4693
 6055SOL    HW229799   3.525   3.598   8.803 -1.2146 -0.7723 -2.1519
 6056SOL     OW29800   1.743   1.906   8.345 -0.2615 -0.4043  0.2267
 6056SOL    HW129801   1.769   1.923   8.254  0.9791 -0.7229  0.5163
 6056SOL    HW229802   1.828   1.899   8.389  0.9527 -1.0853 -2.2129
 6057SOL     OW29803   2.272   3.643  12.190 -0.0446 -1.0196 -0.5327
 6057SOL    HW129804   2.193   3.694  12.210  1.3396  0.3599  1.3179
 6057SOL    HW229805   2.334   3.710  12.218 -1.4123  0.3259 -0.6967
 6058SOL     OW29806   1.423   4.225   1.297  0.1004 -0.1881  0.2397
 6058SOL    HW129807   1.370   4.204   1.221 -1.3490  2.1258  0.6144
 6058SOL    HW229808   1.402   4.318   1.307  0.0855 -0.1850  0.1743
 6059SOL     OW29809   3.997   0.384  16.633 -0.6778  0.2014  0.1847
 6059SOL    HW129810   4.017   0.292  16.619 -1.6696 -0.1062  0.7937
 6059SOL    HW229811   3.902   0.376  16.642 -0.5737 -0.0070  1.1132
 6060SOL     OW29812   3.210   2.229   0.362  0.1166 -0.0249 -0.2748
 6060SOL    HW129813   3.183   2.169   0.293 -0.9199 -1.2803  1.2339
 6060SOL    HW229814   3.287   2.273   0.324  0.2292 -1.1117 -1.3034
 6061SOL     OW29815   0.451   0.504  14.325 -0.3580  0.1111  0.4093
 6061SOL    HW129816   0.537   0.541  14.304  0.1283 -0.2077  1.8561
 6061SOL    HW229817   0.423   0.447  14.253 -0.8717 -0.8569  1.3774
 6062SOL     OW29818   3.074   4.627   3.844  0.0041  0.4001  0.5766
 6062SOL    HW129819   3.071   4.531   3.839 -1.9678  0.5094 -0.6251
 6062SOL    HW229820   3.113   4.649   3.759 -2.3147  1.4156 -0.2364
 6063SOL     OW29821   1.811   4.176   6.001  0.1876  0.5074 -0.3346
 6063SOL    HW129822   1.840   4.088   5.978 -0.4299  0.5282 -1.1913
 6063SOL    HW229823   1.784   4.168   6.093  0.4811 -0.2567 -0.3215
 6064SOL     OW29824   4.191   0.709   0.227 -0.2402 -0.0996  0.9492
 6064SOL    HW129825   4.189   0.614   0.234 -1.2945 -0.2701 -2.0622
 6064SOL    HW229826   4.098   0.729   0.225 -0.0270  1.0647  2.3955
 6065SOL     OW29827   2.880   4.462  10.092  0.1922  0.0337 -0.2025
 6065SOL    HW129828   2.835   4.384  10.058  0.3642 -0.3556  0.4580
 6065SOL    HW229829   2.882   4.515  10.013 -1.5580  0.5444  0.0989
 6066SOL     OW29830   0.957   1.742   3.414  0.1040  0.0481 -0.1752
 6066SOL    HW129831   0.986   1.830   3.439  2.5752 -0.7493 -0.2026
 6066SOL    HW229832   0.872   1.771   3.381  0.3801  1.4932  0.3853
 6067SOL     OW29833   2.645   4.580   6.938 -0.0008 -0.4669 -0.0811
 6067SOL    HW129834   2.595   4.505   6.972  2.0415 -1.3767  0.9504
 6067SOL    HW229835   2.651   4.567   6.844  0.2195 -1.2350  0.0404
 6068SOL     OW29836   2.374   2.353  15.077  0.0443 -0.1964 -0.9110
 6068SOL    HW129837   2.393   2.433  15.125  2.2609 -0.8854 -0.6240
 6068SOL    HW229838   2.413   2.283  15.130  0.5912 -0.4956 -1.7131
 6069SOL     OW29839   1.765   1.941   4.799  0.1229 -0.6220 -0.0591
 6069SOL    HW129840   1.720   2.000   4.739 -2.6021 -2.9147 -0.2414
 6069SOL    HW229841   1.846   1.944   4.747 -1.0386 -1.2559 -1.8836
 6070SOL     OW29842   4.122   1.646   2.915 -0.8537 -0.6025 -0.3514
 6070SOL    HW129843   4.107   1.560   2.875  1.6348 -0.9752 -0.5269
 6070SOL    HW229844   4.062   1.696   2.860 -0.3863  1.7474  1.2855
 6071SOL     OW29845   3.724   0.017  13.494  0.0029  0.2877  0.4423
 6071SOL    HW129846   3.669   0.005  13.572 -0.1555 -1.1618  0.1118
 6071SOL    HW229847   3.799   4.706  13.533 -0.2205  0.0054  0.5380
 6072SOL     OW29848   2.874   4.527   3.460  0.5399  0.3837 -0.0501
 6072SOL    HW129849   2.844   4.616   3.444  0.1254  0.2978  0.2335
 6072SOL    HW229850   2.827   4.513   3.542  0.1795 -1.1867 -0.5185
 6073SOL     OW29851   2.545   3.554   3.801 -0.0039 -0.3447 -0.0965
 6073SOL    HW129852   2.555   3.471   3.755 -1.8011  0.1541 -1.4046
 6073SOL    HW229853   2.477   3.537   3.866  1.0660  0.2632  1.1735
 6074SOL     OW29854   0.561   1.695   5.582  0.4623  0.4702  0.2569
 6074SOL    HW129855   0.645   1.680   5.625  1.0416  0.6097 -0.8422
 6074SOL    HW229856   0.556   1.790   5.575  1.3952  0.4485 -0.6256
 6075SOL     OW29857   4.394   2.260   4.311 -0.4367  0.1318  0.4231
 6075SOL    HW129858   4.475   2.287   4.353 -0.8334 -0.5513  1.6368
 6075SOL    HW229859   4.430   2.203   4.243 -1.8093 -1.8830  1.3703
 6076SOL     OW29860   2.953   4.189  13.291 -0.1581 -0.0657  0.3394
 6076SOL    HW129861   3.004   4.149  13.362 -1.4679  1.4034  2.1074
 6076SOL    HW229862   2.960   4.280  13.319  1.7623 -0.6254  1.7049
 6077SOL     OW29863   3.316   1.496   3.842  0.1941  0.2092 -0.1806
 6077SOL    HW129864   3.252   1.427   3.824  2.0975 -1.5417 -0.1555
 6077SOL    HW229865   3.259   1.539   3.907 -1.5417 -1.2854 -0.7208
 6078SOL     OW29866   0.336   4.126  14.980 -0.2330  0.2806  0.5446
 6078SOL    HW129867   0.334   4.065  14.905  0.4292  0.4588  0.3839
 6078SOL    HW229868   0.309   4.204  14.932  0.7825  0.5593  0.4385
 6079SOL     OW29869   1.663   3.852   0.780  0.1111  0.0071  0.4348
 6079SOL    HW129870   1.680   3.839   0.873 -2.5982  0.7540  1.0272
 6079SOL    HW229871   1.689   3.769   0.739 -0.0941 -0.2853  0.8946
 6080SOL     OW29872   2.268   3.636  17.035 -0.2512  0.3171  0.1882
 6080SOL    HW129873   2.251   3.592  16.951  1.1824  0.0948  0.0203
 6080SOL    HW229874   2.360   3.659  17.023  0.2172 -1.2828  0.7099
 6081SOL     OW29875   0.987   2.542   5.195 -0.0124  0.1623 -0.0667
 6081SOL    HW129876   1.064   2.569   5.144  0.1721  2.5596  1.5084
 6081SOL    HW229877   1.028   2.522   5.280 -1.1483  1.1034  0.6961
 6082SOL     OW29878   3.781   2.428   3.655 -0.1611 -0.9592  0.7352
 6082SOL    HW129879   3.858   2.437   3.711  0.6238  1.1834 -0.7332
 6082SOL    HW229880   3.725   2.381   3.717 -0.6678 -1.5338 -0.1538
 6083SOL     OW29881   2.661   3.958   2.480 -0.2114  0.2077 -0.3247
 6083SOL    HW129882   2.633   4.046   2.505 -1.2149  0.6744 -3.0664
 6083SOL    HW229883   2.587   3.932   2.425  0.1728  0.4625 -0.9698
 6084SOL     OW29884   3.479   0.447   9.054 -0.2786  0.0676 -0.0135
 6084SOL    HW129885   3.547   0.397   9.010  1.2649  0.5399  1.8099
 6084SOL    HW229886   3.395   0.414   9.023  0.8842 -1.1845 -1.7935
 6085SOL     OW29887   1.027   2.772   8.565  0.0343 -0.1840  0.3804
 6085SOL    HW129888   1.106   2.766   8.511  1.1177  0.3785  1.9142
 6085SOL    HW229889   1.060   2.825   8.638 -2.7933  1.0639  0.7356
 6086SOL     OW29890   3.276   3.443   7.381 -0.0608 -0.9125  0.7920
 6086SOL    HW129891   3.360   3.409   7.413  1.0559  1.3697  0.3097
 6086SOL    HW229892   3.308   3.525   7.343 -1.2258 -0.1775  1.4014
 6087SOL     OW29893   3.853   1.087   2.738  0.3388 -0.5283 -0.1497
 6087SOL    HW129894   3.933   1.077   2.686  0.7862  0.0019  0.4366
 6087SOL    HW229895   3.797   1.117   2.666  0.3038  1.3291  0.6627
 6088SOL     OW29896   3.201   0.175  10.678 -0.0941  0.2249 -0.6986
 6088SOL    HW129897   3.187   0.268  10.695  1.5586  0.6534 -1.7516
 6088SOL    HW229898   3.112   0.145  10.697  1.4301 -2.7526  1.7807
 6089SOL     OW29899   1.834   1.021   2.289  0.0478  0.5370 -0.0153
 6089SOL    HW129900   1.747   1.021   2.249  0.6258  0.6731 -1.2660
 6089SOL    HW229901   1.830   1.106   2.332  0.7992 -0.6816  2.4440
 6090SOL     OW29902   1.158   2.262   6.565 -0.1075  0.1050 -0.3937
 6090SOL    HW129903   1.103   2.323   6.613 -1.5893 -2.3321  0.9891
 6090SOL    HW229904   1.247   2.295   6.580 -0.0085 -1.1680  1.8999
 6091SOL     OW29905   2.452   3.537   2.579 -0.3471 -0.3963 -0.4792
 6091SOL    HW129906   2.538   3.580   2.580 -0.3975 -0.3120  0.3727
 6091SOL    HW229907   2.444   3.520   2.673 -1.8351 -0.1810 -0.5733
 6092SOL     OW29908   3.889   2.861   4.319  0.2705 -0.2381  0.0574
 6092SOL    HW129909   3.913   2.861   4.412 -3.5091 -2.8092  1.0282
 6092SOL    HW229910   3.974   2.891   4.287  1.5807 -1.5387  2.2825
 6093SOL     OW29911   1.365   2.568   7.577  0.4736 -0.0319  0.3490
 6093SOL    HW129912   1.338   2.568   7.485  2.2118 -0.3675 -0.1734
 6093SOL    HW229913   1.445   2.618   7.559  1.2409 -1.4951 -0.3280
 6094SOL     OW29914   3.202   3.634   7.169 -0.3350 -0.1387 -0.6297
 6094SOL    HW129915   3.266   3.602   7.105 -0.8253  0.4301 -1.3979
 6094SOL    HW229916   3.130   3.575   7.146 -1.2177  1.7028 -2.4870
 6095SOL     OW29917   1.397   3.589   1.691  0.3834  0.2064 -0.1353
 6095SOL    HW129918   1.445   3.527   1.746 -1.4069  0.1301  1.3490
 6095SOL    HW229919   1.322   3.533   1.668 -0.6135  1.1289  0.8421
 6096SOL     OW29920   0.684   4.439  10.245  0.4319  0.3022 -0.5841
 6096SOL    HW129921   0.677   4.493  10.167 -0.4432  1.4210  0.2689
 6096SOL    HW229922   0.764   4.396  10.215  0.6121 -0.4833  1.0455
 6097SOL     OW29923   0.439   1.386   6.802 -0.3568 -0.4025 -0.6256
 6097SOL    HW129924   0.357   1.382   6.753 -2.3906  1.1339  2.6787
 6097SOL    HW229925   0.492   1.448   6.751  0.5507 -0.5720  0.1106
 6098SOL     OW29926   4.247   2.220  10.586 -0.1138 -0.9310 -0.5761
 6098SOL    HW129927   4.165   2.241  10.540  0.2257  1.0543 -0.2691
 6098SOL    HW229928   4.215   2.163  10.656  0.7164 -1.6815 -0.8202
 6099SOL     OW29929   2.126   1.805   2.392  0.0185 -0.1751  0.2133
 6099SOL    HW129930   2.123   1.895   2.424  0.8016 -0.3166  0.6825
 6099SOL    HW229931   2.193   1.814   2.325  0.5631  1.3497  0.9665
 6100SOL     OW29932   0.877   2.749   5.348  0.2902 -0.2203  0.1056
 6100SOL    HW129933   0.870   2.688   5.422 -0.7621 -0.0159  0.1765
 6100SOL    HW229934   0.933   2.703   5.286 -0.3852 -2.2688  0.9818
 6101SOL     OW29935   3.412   1.275   3.614  0.3357 -0.2218 -0.5481
 6101SOL    HW129936   3.424   1.238   3.527  1.4826 -1.4526  0.1360
 6101SOL    HW229937   3.466   1.217   3.667 -0.0268 -0.0416  0.0191
 6102SOL     OW29938   3.122   1.761  15.243  0.3551  0.0952 -0.0443
 6102SOL    HW129939   3.092   1.841  15.285  1.3582 -0.2902  1.4126
 6102SOL    HW229940   3.190   1.722  15.299 -1.4541 -0.2251  1.9172
 6103SOL     OW29941   3.834   2.716  15.166 -0.3303 -0.1996 -0.9733
 6103SOL    HW129942   3.892   2.781  15.127 -0.9467  1.5653  1.0704
 6103SOL    HW229943   3.812   2.759  15.248 -1.1648 -0.8729 -0.8397
 6104SOL     OW29944   4.563   1.406   7.368  0.9397  0.1525  0.5972
 6104SOL    HW129945   4.532   1.480   7.420  2.4906  1.0615  0.2535
 6104SOL    HW229946   4.530   1.334   7.422 -0.3067 -1.5153 -2.4271
 6105SOL     OW29947   3.256   2.681   0.233  0.2375  0.8190 -0.4924
 6105SOL    HW129948   3.167   2.715   0.240 -0.3031 -1.3728  3.1228
 6105SOL    HW229949   3.280   2.717   0.147  0.4211  0.9108 -0.4015
 6106SOL     OW29950   0.987   0.831   3.893 -0.2050 -0.0105 -0.1167
 6106SOL    HW129951   0.936   0.893   3.840  1.0293 -0.6243 -2.0076
 6106SOL    HW229952   0.923   0.761   3.907 -1.4557  0.5509 -2.9841
 6107SOL     OW29953   2.459   1.881   5.666  0.4083 -0.4482 -0.1458
 6107SOL    HW129954   2.416   1.918   5.743  1.8315  0.2542  0.3003
 6107SOL    HW229955   2.425   1.791   5.669 -0.5460 -0.1138 -0.9377
 6108SOL     OW29956   1.704   3.327   5.306 -0.1212  0.2232 -0.0749
 6108SOL    HW129957   1.790   3.287   5.317  0.4844  1.9102  1.3653
 6108SOL    HW229958   1.731   3.417   5.286  0.3477 -0.3228 -1.8512
 6109SOL     OW29959   1.220   4.400   8.304  0.4951  0.1235  0.3045
 6109SOL    HW129960   1.221   4.457   8.381 -0.0638 -0.4447  0.7320
 6109SOL    HW229961   1.286   4.339   8.335  0.3308 -0.0607  0.2906
 6110SOL     OW29962   1.274   0.550   8.833 -0.7528 -0.2922 -0.0639
 6110SOL    HW129963   1.267   0.608   8.908 -0.2186  2.0669 -1.8166
 6110SOL    HW229964   1.322   0.476   8.869  0.5701  0.6218  0.0889
 6111SOL     OW29965   1.340   4.049   8.833 -0.5261  0.4533 -0.6455
 6111SOL    HW129966   1.312   4.082   8.918  2.0492 -3.2239  1.6559
 6111SOL    HW229967   1.399   3.976   8.853 -1.7043 -0.2225  0.3429
 6112SOL     OW29968   1.059   1.410   4.385 -0.9850 -0.2030 -0.4607
 6112SOL    HW129969   1.091   1.342   4.444  1.5072  0.0319 -1.5412
 6112SOL    HW229970   1.090   1.382   4.299 -1.9076  1.1728 -1.2585
 6113SOL     OW29971   4.216   2.181   5.089 -0.0013  0.5545 -0.4178
 6113SOL    HW129972   4.304   2.148   5.105 -0.8872 -1.2594  0.6232
 6113SOL    HW229973   4.166   2.134   5.156 -0.1888 -0.0540 -0.9853
 6114SOL     OW29974   0.701   3.187   9.174  0.2669 -0.5513  0.3663
 6114SOL    HW129975   0.606   3.184   9.185 -0.0800 -0.8029 -2.6506
 6114SOL    HW229976   0.735   3.141   9.250  2.1614  1.1127  0.5351
 6115SOL     OW29977   3.795   0.652   5.175  0.5561 -0.4638  0.0895
 6115SOL    HW129978   3.823   0.686   5.090  0.2687  0.8475  0.5297
 6115SOL    HW229979   3.837   0.718   5.229  1.1972 -0.2547 -0.6626
 6116SOL     OW29980   4.353   2.186   9.578 -0.3226  0.2916  0.1301
 6116SOL    HW129981   4.417   2.242   9.623  1.1752 -1.2818 -0.0219
 6116SOL    HW229982   4.415   2.117   9.553 -0.7802  0.3141 -1.0700
 6117SOL     OW29983   1.829   1.673   7.123 -0.4573 -0.0435 -0.6330
 6117SOL    HW129984   1.878   1.755   7.113  1.1675 -1.1275 -1.4009
 6117SOL    HW229985   1.902   1.612   7.131  1.2321  2.2257  1.1500
 6118SOL     OW29986   0.703   2.129   5.312 -0.0380 -0.6950  0.3316
 6118SOL    HW129987   0.753   2.053   5.343 -0.2663  0.0208  2.4471
 6118SOL    HW229988   0.770   2.181   5.268  1.0991 -0.7233  2.0303
 6119SOL     OW29989   3.960   0.183   5.232  0.1762  0.3385 -0.1542
 6119SOL    HW129990   3.921   0.199   5.317 -0.7637 -1.6550 -0.2035
 6119SOL    HW229991   3.918   0.255   5.185 -1.5918  0.9654  2.4345
 6120SOL     OW29992   4.149   0.979   7.551  0.2356  0.0027 -0.6269
 6120SOL    HW129993   4.152   0.926   7.630 -0.0842 -1.1532 -1.3999
 6120SOL    HW229994   4.096   0.927   7.491 -1.8629  2.5266 -0.9761
 6121SOL     OW29995   4.228   1.720   5.468 -0.1959 -0.2323 -0.2899
 6121SOL    HW129996   4.194   1.791   5.413 -0.2398  0.8209  1.0963
 6121SOL    HW229997   4.305   1.698   5.415  1.9065 -1.1038  3.1725
 6122SOL     OW29998   0.668   4.218   1.086  0.3080 -0.7020  0.3085
 6122SOL    HW129999   0.715   4.267   1.019  0.3931  1.2902  1.8344
 6122SOL    HW230000   0.597   4.176   1.038 -1.5064  1.3690  1.2334
 6123SOL     OW30001   4.334   2.796  12.230  0.0825 -0.8675  0.1888
 6123SOL    HW130002   4.353   2.883  12.197 -2.2011 -0.7827 -0.9100
 6123SOL    HW230003   4.293   2.750  12.157 -0.9620  0.5927 -0.1419
 6124SOL     OW30004   2.939   2.617   5.985  0.1552  0.3720 -0.0348
 6124SOL    HW130005   2.928   2.522   5.991  1.3176  0.2367 -0.0342
 6124SOL    HW230006   3.034   2.624   5.970  0.4425 -0.3336  1.5413
 6125SOL     OW30007   1.298   2.183   5.504  0.3455 -0.0319  0.1236
 6125SOL    HW130008   1.393   2.179   5.518  0.4342  2.0901  0.1350
 6125SOL    HW230009   1.274   2.246   5.572  0.9663 -0.7775  1.0258
 6126SOL     OW30010   2.638   3.690   4.126 -0.1938 -0.3030  0.0866
 6126SOL    HW130011   2.694   3.612   4.123 -0.5976 -0.6481  1.3180
 6126SOL    HW230012   2.607   3.709   4.038  1.2137 -0.2227 -0.3823
 6127SOL     OW30013   0.696   3.285   8.021 -0.4655  0.2050 -0.3201
 6127SOL    HW130014   0.758   3.318   7.955 -2.0397  1.5660 -1.1012
 6127SOL    HW230015   0.623   3.340   7.993  1.4813  2.2872 -1.3597
 6128SOL     OW30016   3.913   3.916  11.745 -0.3234  0.2492  0.5541
 6128SOL    HW130017   3.864   3.945  11.669  1.4285 -0.6935 -0.9315
 6128SOL    HW230018   3.861   3.944  11.820  0.1172  0.8520  0.6392
 6129SOL     OW30019   2.851   1.427   7.823  0.1612  0.0716 -0.0180
 6129SOL    HW130020   2.867   1.467   7.909  2.2814  1.4079 -1.0478
 6129SOL    HW230021   2.920   1.361   7.828  0.1607  0.1808  1.4397
 6130SOL     OW30022   0.560   3.791   3.672 -0.0897  0.1660 -0.6863
 6130SOL    HW130023   0.481   3.833   3.638 -0.0790  0.1898 -0.6818
 6130SOL    HW230024   0.619   3.859   3.642 -0.9090  0.7882 -0.8771
 6131SOL     OW30025   2.380   3.754   5.936  0.5018 -0.3098  0.6696
 6131SOL    HW130026   2.306   3.754   5.997 -0.0479  0.5510  0.0193
 6131SOL    HW230027   2.397   3.848   5.936 -0.1774 -0.1795 -0.3191
 6132SOL     OW30028   0.887   3.825   9.537 -0.0666  0.4538  0.6690
 6132SOL    HW130029   0.795   3.836   9.514  0.3705  1.3093 -0.6668
 6132SOL    HW230030   0.892   3.749   9.595 -1.4055 -0.0579  0.0973
 6133SOL     OW30031   1.171   0.175  15.710  0.1156 -0.3934  0.4075
 6133SOL    HW130032   1.206   0.239  15.772  1.3635 -1.5467  0.8741
 6133SOL    HW230033   1.145   0.116  15.780  2.0802 -1.4563  0.2211
 6134SOL     OW30034   4.658   2.856   4.409 -0.5044 -0.1190 -0.3208
 6134SOL    HW130035   4.661   2.859   4.505  1.8424 -0.8127 -0.3828
 6134SOL    HW230036   4.581   2.800   4.399  1.0668 -2.4555  1.0382
 6135SOL     OW30037   3.901   3.886   4.104  0.5744 -0.2840 -0.0509
 6135SOL    HW130038   3.937   3.810   4.151  2.6751  0.8684  0.2132
 6135SOL    HW230039   3.956   3.961   4.126  2.5509 -1.4703 -0.8636
 6136SOL     OW30040   2.655   1.856  14.924 -0.5242  0.5009 -0.3013
 6136SOL    HW130041   2.655   1.814  14.838 -1.9844  0.5121 -0.3186
 6136SOL    HW230042   2.668   1.780  14.981  1.1339  1.0374  0.0248
 6137SOL     OW30043   3.009   3.053   7.900  0.2650 -0.1907 -0.5940
 6137SOL    HW130044   3.031   3.031   7.809 -0.7846 -0.0480 -0.8730
 6137SOL    HW230045   2.914   3.049   7.891  0.0005  1.0232  1.7949
 6138SOL     OW30046   0.774   1.311   7.901  0.4385 -0.8122 -0.6886
 6138SOL    HW130047   0.748   1.231   7.947 -2.1254  1.3769  1.6355
 6138SOL    HW230048   0.869   1.304   7.907  0.4327  0.7298  0.8998
 6139SOL     OW30049   1.817   3.906  10.713 -0.2022 -0.1411 -0.1391
 6139SOL    HW130050   1.831   3.852  10.791 -0.8572  0.0894  0.1405
 6139SOL    HW230051   1.890   3.877  10.659  0.0064  0.1615 -0.0257
 6140SOL     OW30052   2.857   3.913   6.740  0.0398 -0.8003  0.7330
 6140SOL    HW130053   2.862   4.008   6.741  1.7130 -0.8891  1.0882
 6140SOL    HW230054   2.775   3.886   6.699 -0.3402  2.4536 -0.6380
 6141SOL     OW30055   1.349   0.384   9.044 -0.0512  0.5797 -0.0495
 6141SOL    HW130056   1.285   0.340   9.100  0.0772 -2.0693 -1.9818
 6141SOL    HW230057   1.393   0.444   9.104  0.9726  0.7855 -1.0165
 6142SOL     OW30058   2.667   3.199   8.017 -0.3727  0.1866 -0.1135
 6142SOL    HW130059   2.666   3.244   7.933 -1.5641 -0.8124 -0.6221
 6142SOL    HW230060   2.734   3.252   8.061 -1.8044  1.5286  0.4455
 6143SOL     OW30061   3.604   1.603   0.272 -0.0488  0.1452  0.1413
 6143SOL    HW130062   3.601   1.552   0.353 -0.7369 -0.7733 -0.4641
 6143SOL    HW230063   3.567   1.684   0.308  2.1158  0.8512  0.8438
 6144SOL     OW30064   0.421   4.303   2.897  0.2006  0.4458  0.4517
 6144SOL    HW130065   0.352   4.351   2.942  1.2994 -0.0781  2.7055
 6144SOL    HW230066   0.381   4.292   2.811 -0.5626 -0.5172  0.9311
 6145SOL     OW30067   0.848   3.954   3.701  0.1889 -0.5434  0.1750
 6145SOL    HW130068   0.780   3.984   3.640  0.2384 -2.0119 -0.5898
 6145SOL    HW230069   0.923   3.968   3.643  0.0046 -3.9645 -0.8740
 6146SOL     OW30070   4.123   1.385  10.364  0.0101  0.1073 -0.7455
 6146SOL    HW130071   4.209   1.398  10.403  0.1337 -1.9501 -0.3254
 6146SOL    HW230072   4.114   1.465  10.312  0.1287 -1.3421 -2.9867
 6147SOL     OW30073   4.194   4.165   9.325  0.6554 -0.0623 -0.0009
 6147SOL    HW130074   4.136   4.242   9.317  1.5741  0.5005 -1.2559
 6147SOL    HW230075   4.162   4.107   9.256 -1.7811  1.2430  0.0316
 6148SOL     OW30076   1.657   3.927   1.544  0.4809 -0.3737 -0.2295
 6148SOL    HW130077   1.729   3.897   1.489  0.3795 -0.4965 -0.2966
 6148SOL    HW230078   1.623   3.838   1.544  0.7072 -0.4628 -1.6603
 6149SOL     OW30079   4.517   3.854   6.628 -0.2867  0.1349 -0.1386
 6149SOL    HW130080   4.606   3.888   6.637  0.2310 -1.3487  0.3977
 6149SOL    HW230081   4.508   3.853   6.533  0.5909 -0.1624 -0.2175
 6150SOL     OW30082   3.280   3.601  11.169 -0.2338  0.5763  0.1070
 6150SOL    HW130083   3.226   3.654  11.228  0.3043 -0.5731  1.6377
 6150SOL    HW230084   3.336   3.555  11.232 -0.7735 -0.0316  0.1455
 6151SOL     OW30085   4.314   3.057   8.082 -0.3241  0.5249  0.8166
 6151SOL    HW130086   4.335   3.103   8.000 -0.8201  0.4245  0.6328
 6151SOL    HW230087   4.261   3.121   8.129  0.7544  0.5238  2.0264
 6152SOL     OW30088   2.138   4.702   0.783  0.0933  0.4089 -0.1357
 6152SOL    HW130089   2.115   4.664   0.867 -2.7543 -1.6105 -1.8388
 6152SOL    HW230090   2.203   4.637   0.755 -1.4938 -0.7177 -1.2704
 6153SOL     OW30091   0.174   1.528   7.350  0.3154  0.1040 -0.6376
 6153SOL    HW130092   0.259   1.484   7.341  0.3477  0.0582 -0.1056
 6153SOL    HW230093   0.123   1.471   7.408  0.3031  1.3608  0.5913
 6154SOL     OW30094   1.499   0.074   4.239  0.4621  0.8732 -1.0057
 6154SOL    HW130095   1.412   0.095   4.273  1.2212  0.5620  1.1320
 6154SOL    HW230096   1.551   0.103   4.314  0.3375  0.0490 -0.6027
 6155SOL     OW30097   3.591   3.760   2.062  0.2782 -0.0660  0.1312
 6155SOL    HW130098   3.539   3.825   2.015  0.5756  1.2135  1.5792
 6155SOL    HW230099   3.654   3.819   2.103  0.1353  0.1179  0.0874
 6156SOL     OW30100   3.386   0.896   1.775 -0.1814 -0.0999 -0.3805
 6156SOL    HW130101   3.423   0.888   1.863 -2.3311 -2.8269  0.2911
 6156SOL    HW230102   3.429   0.972   1.736 -0.1587 -0.4041 -0.9432
 6157SOL     OW30103   1.882   2.217  17.496  0.0551  0.2899 -0.2028
 6157SOL    HW130104   1.957   2.200  17.439 -0.0108  0.0199 -0.2094
 6157SOL    HW230105   1.916   2.179  17.577 -1.1286 -0.3913 -0.0247
 6158SOL     OW30106   1.500   0.710   2.291  0.1567 -0.0497  0.6498
 6158SOL    HW130107   1.432   0.768   2.257  0.8353  0.2055 -0.2598
 6158SOL    HW230108   1.457   0.625   2.299  1.4090 -0.9388 -2.2007
 6159SOL     OW30109   0.172   3.796  13.154 -0.0688 -0.6718 -0.2930
 6159SOL    HW130110   0.234   3.868  13.144  0.4648 -1.2799 -1.3188
 6159SOL    HW230111   0.160   3.803  13.249  2.0092 -2.0863  0.0652
 6160SOL     OW30112   1.020   1.791  11.751 -0.4468 -0.0666 -0.5803
 6160SOL    HW130113   0.986   1.878  11.730  0.9119  0.5540 -0.2072
 6160SOL    HW230114   0.939   1.743  11.770 -1.3163  1.8160  0.5070
 6161SOL     OW30115   2.110   4.268   5.815 -0.8310 -0.1585 -0.3283
 6161SOL    HW130116   2.078   4.304   5.898  0.2306 -2.5583  1.1104
 6161SOL    HW230117   2.204   4.261   5.831 -0.7568 -1.6457 -1.4625
 6162SOL     OW30118   2.412   3.407   9.116 -0.4196  0.5108  0.2948
 6162SOL    HW130119   2.464   3.466   9.171  1.2292  0.1009 -0.8664
 6162SOL    HW230120   2.325   3.447   9.122 -0.6046  0.3503 -1.3283
 6163SOL     OW30121   2.153   0.981   9.581 -0.0247 -0.1208  1.3721
 6163SOL    HW130122   2.202   0.899   9.582 -0.0056 -0.1187  0.5968
 6163SOL    HW230123   2.172   1.021   9.495 -2.9557  1.6915  1.5701
 6164SOL     OW30124   1.272   1.039   4.961 -0.0141 -0.2639 -0.3793
 6164SOL    HW130125   1.255   1.006   5.049 -4.2225  1.2220 -0.6137
 6164SOL    HW230126   1.190   1.089   4.960  0.1792  0.0994  1.8804
 6165SOL     OW30127   3.298   0.444  16.684  0.2736 -0.4907  0.2513
 6165SOL    HW130128   3.322   0.479  16.769 -1.0217  3.3130 -0.9509
 6165SOL    HW230129   3.239   0.512  16.651  1.1335 -0.0466 -0.3690
 6166SOL     OW30130   0.195   1.288   6.321 -0.3947 -0.0132  0.1212
 6166SOL    HW130131   0.109   1.262   6.289 -1.5338  0.6597  2.6597
 6166SOL    HW230132   0.252   1.242   6.259 -1.7033 -2.8304  1.0372
 6167SOL     OW30133   2.414   2.647   4.352  0.1652 -0.3160  0.5533
 6167SOL    HW130134   2.496   2.617   4.391 -0.5085 -1.2768  1.2364
 6167SOL    HW230135   2.407   2.594   4.273  0.4827  2.4786 -1.3246
 6168SOL     OW30136   1.037   3.561   8.148  0.0080  0.3310  0.4572
 6168SOL    HW130137   1.049   3.655   8.164  0.7123  0.2243  0.5614
 6168SOL    HW230138   1.096   3.536   8.077  2.4321 -2.0640  3.3334
 6169SOL     OW30139   4.407   2.121   7.416 -0.1832  0.3105 -0.3436
 6169SOL    HW130140   4.436   2.060   7.347 -2.7183 -1.0090 -0.2556
 6169SOL    HW230141   4.450   2.197   7.378  0.1423  0.5690  0.5544
 6170SOL     OW30142   3.323   1.662   7.256  0.1495 -0.5851 -0.0828
 6170SOL    HW130143   3.388   1.625   7.316  0.2230 -1.8559 -0.9519
 6170SOL    HW230144   3.243   1.634   7.301  0.8019  0.1381  1.5591
 6171SOL     OW30145   3.245   4.547   7.888  0.0430 -0.0332  0.1876
 6171SOL    HW130146   3.299   4.518   7.961 -2.8841 -0.1189  2.3282
 6171SOL    HW230147   3.264   4.475   7.827 -0.1988 -0.6722  0.8751
 6172SOL     OW30148   4.480   3.806   7.024 -0.0897  0.2488 -0.2661
 6172SOL    HW130149   4.505   3.873   6.961 -0.7334  2.0583  1.3785
 6172SOL    HW230150   4.544   3.739   7.000  1.0606  2.1518 -2.4791
 6173SOL     OW30151   3.294   3.700  13.626  0.1030  0.0735  0.2364
 6173SOL    HW130152   3.378   3.730  13.660 -0.7068  0.5005  1.8422
 6173SOL    HW230153   3.313   3.696  13.532  0.5718 -1.8091  0.4066
 6174SOL     OW30154   1.300   3.419   5.645  0.2460 -0.7450 -0.2415
 6174SOL    HW130155   1.343   3.340   5.612  0.1641 -1.0253  0.3367
 6174SOL    HW230156   1.207   3.395   5.646  0.4660 -1.6172 -0.8745
 6175SOL     OW30157   1.240   4.621   2.690 -0.2619  0.1358 -0.2447
 6175SOL    HW130158   1.313   4.603   2.748 -0.7515  1.5040  0.8176
 6175SOL    HW230159   1.176   4.653   2.754  1.0601  3.0454 -0.3851
 6176SOL     OW30160   1.491   1.258   2.051  0.0617  0.2262  0.0609
 6176SOL    HW130161   1.437   1.232   1.977  0.6296  1.4100 -0.7679
 6176SOL    HW230162   1.541   1.333   2.019  1.1207 -0.4001  0.2630
 6177SOL     OW30163   0.411   2.890   6.497  0.1063  0.8683 -0.5994
 6177SOL    HW130164   0.487   2.922   6.447  0.0840 -0.1798 -1.3088
 6177SOL    HW230165   0.450   2.830   6.559  0.3882  0.9039 -0.7421
 6178SOL     OW30166   1.848   0.464   3.789 -0.7676 -0.3518  0.6499
 6178SOL    HW130167   1.795   0.384   3.782 -2.1457  0.5546  0.5180
 6178SOL    HW230168   1.773   0.524   3.787 -0.5504 -0.0033  2.8055
 6179SOL     OW30169   0.939   0.809   3.480 -0.1670  0.1996  0.5386
 6179SOL    HW130170   0.979   0.751   3.543 -0.2416 -0.6306 -0.1785
 6179SOL    HW230171   0.909   0.742   3.419 -0.1440  1.1704 -0.5495
 6180SOL     OW30172   4.728   1.434   3.860 -0.3198 -0.0577 -0.2179
 6180SOL    HW130173   4.678   1.383   3.796 -1.6550  1.0250 -0.0494
 6180SOL    HW230174   0.001   1.516   3.810 -1.0326 -0.5763 -1.1935
 6181SOL     OW30175   2.811   2.680   8.698 -0.1265  0.3941  0.2362
 6181SOL    HW130176   2.889   2.689   8.752 -1.8160 -3.4232  3.3075
 6181SOL    HW230177   2.766   2.607   8.740  2.2513 -1.3669 -0.3354
 6182SOL     OW30178   3.232   3.335   1.949  0.0242  0.1314  0.7499
 6182SOL    HW130179   3.207   3.394   2.019 -1.3203  1.5920 -0.9638
 6182SOL    HW230180   3.320   3.367   1.925  0.2330 -0.2279  1.0400
 6183SOL     OW30181   4.409   3.025  13.670 -1.0452 -0.2030 -0.3500
 6183SOL    HW130182   4.315   3.041  13.668 -1.0298  0.2419  1.8484
 6183SOL    HW230183   4.412   2.929  13.665 -3.1583 -0.2623 -0.3756
 6184SOL     OW30184   3.581   4.343   2.170 -0.5074 -0.1288  0.1599
 6184SOL    HW130185   3.634   4.375   2.242 -0.3964  0.9360 -0.3839
 6184SOL    HW230186   3.617   4.400   2.102  1.4408  2.7132  3.5765
 6185SOL     OW30187   4.601   3.729  11.941  0.0695  0.2727 -0.0570
 6185SOL    HW130188   4.677   3.787  11.953 -0.1385  0.5555 -0.1162
 6185SOL    HW230189   4.531   3.792  11.929  1.1216  1.6828  1.1661
 6186SOL     OW30190   3.196   2.921   5.070 -0.2794 -0.3206 -0.1408
 6186SOL    HW130191   3.145   2.870   5.007 -1.7801 -1.2506  1.8187
 6186SOL    HW230192   3.284   2.927   5.034 -0.2597 -1.8156 -0.3375
 6187SOL     OW30193   3.621   4.690  12.607 -0.2949  0.3630 -0.3053
 6187SOL    HW130194   3.556   4.696  12.537 -0.9057  0.3863  0.2590
 6187SOL    HW230195   3.702   4.705  12.558 -0.2474  0.6295 -0.1448
 6188SOL     OW30196   2.041   4.493  17.334  0.0998  0.0106  0.0524
 6188SOL    HW130197   2.067   4.577  17.371 -1.2521  1.4492 -2.3364
 6188SOL    HW230198   2.113   4.444  17.375  0.8760 -0.0217 -1.3509
 6189SOL     OW30199   4.619   4.706   4.895  0.0913 -0.3124 -0.2708
 6189SOL    HW130200   4.630   4.612   4.907  2.7666 -0.0601 -0.6683
 6189SOL    HW230201   4.700   4.734   4.939 -0.6087 -3.6544  3.1338
 6190SOL     OW30202   2.838   1.067  17.565  0.4029  0.0341 -0.4457
 6190SOL    HW130203   2.901   1.123  17.520  1.4167  0.2991  1.2727
 6190SOL    HW230204   2.804   1.012  17.496 -1.4601  2.0625 -1.1489
 6191SOL     OW30205   0.288   2.657   2.372  0.7501 -0.6322 -0.3990
 6191SOL    HW130206   0.298   2.564   2.351 -2.1614 -0.5726 -2.0927
 6191SOL    HW230207   0.222   2.693   2.314  0.2940  0.9007  1.0615
 6192SOL     OW30208   1.278   2.306  15.708 -0.3300 -0.2817  0.4227
 6192SOL    HW130209   1.223   2.248  15.761  0.7449  1.0391  2.9761
 6192SOL    HW230210   1.338   2.248  15.661  1.2225 -0.5957  2.8176
 6193SOL     OW30211   3.869   3.145  16.825  0.7150 -0.1794  0.1629
 6193SOL    HW130212   3.803   3.170  16.889  0.9773 -2.0737  1.1720
 6193SOL    HW230213   3.851   3.195  16.745  1.2449  1.5346  1.1240
 6194SOL     OW30214   2.100   1.546  11.362 -0.6036  0.3083 -0.7747
 6194SOL    HW130215   2.105   1.590  11.277  1.8721 -0.1184 -0.8463
 6194SOL    HW230216   2.101   1.457  11.327  0.4717  0.0823 -0.1536
 6195SOL     OW30217   2.777   1.389   6.767  0.1386  0.0318 -0.1540
 6195SOL    HW130218   2.719   1.465   6.762  1.0338  0.8943  3.0578
 6195SOL    HW230219   2.779   1.344   6.682  0.4048  1.4192 -0.8798
 6196SOL     OW30220   4.446   3.396   9.145  0.0405 -0.1718 -0.3670
 6196SOL    HW130221   4.455   3.312   9.101  2.7515  0.5168 -1.1487
 6196SOL    HW230222   4.460   3.366   9.235 -1.4620 -2.0683 -0.7753
 6197SOL     OW30223   2.487   2.023   0.900 -0.0990 -0.3359  0.7799
 6197SOL    HW130224   2.544   1.948   0.887  1.3304  1.0197 -0.6796
 6197SOL    HW230225   2.542   2.065   0.966  0.6457  2.9247 -1.9071
 6198SOL     OW30226   3.012   0.883  12.241 -0.2887  0.0613  0.4015
 6198SOL    HW130227   3.044   0.961  12.287  1.2975 -1.1576  1.3482
 6198SOL    HW230228   3.066   0.881  12.162 -2.0143 -0.7812 -0.7519
 6199SOL     OW30229   4.110   3.251   9.816  0.5803 -0.2738  0.1835
 6199SOL    HW130230   4.068   3.250   9.902 -0.1726  3.5013 -0.1540
 6199SOL    HW230231   4.123   3.157   9.802 -1.4956 -0.9169  2.4912
 6200SOL     OW30232   4.431   0.945   8.851  0.4624 -0.0335 -0.0113
 6200SOL    HW130233   4.383   0.884   8.794  0.4702  1.1450 -1.2912
 6200SOL    HW230234   4.472   0.882   8.909  0.3254 -0.5611 -0.4843
 6201SOL     OW30235   1.581   2.935   4.365  0.3351  0.7459  0.3552
 6201SOL    HW130236   1.592   2.840   4.363  0.3295  0.7575 -0.1593
 6201SOL    HW230237   1.544   2.953   4.452  0.2673  3.0861 -0.1670
 6202SOL     OW30238   0.354   4.412   6.666 -0.4816  0.1011 -0.0086
 6202SOL    HW130239   0.329   4.448   6.751  2.3437  2.0814 -0.0032
 6202SOL    HW230240   0.408   4.480   6.625 -0.2279  0.5612  1.0744
 6203SOL     OW30241   2.901   3.683  10.226  0.1457 -0.5631 -0.1358
 6203SOL    HW130242   2.926   3.661  10.315  0.1115  0.1459  0.0476
 6203SOL    HW230243   2.886   3.778  10.229  0.2479 -0.5963  1.2113
 6204SOL     OW30244   2.758   0.815  10.975  0.0105 -0.7975  0.3474
 6204SOL    HW130245   2.834   0.802  11.032  0.0624 -0.2275  0.4079
 6204SOL    HW230246   2.736   0.724  10.957  0.2571 -1.2796  2.4763
 6205SOL     OW30247   0.206   2.592   0.604 -0.3042  0.6203  0.4525
 6205SOL    HW130248   0.227   2.505   0.570  0.9957  1.6086 -1.3028
 6205SOL    HW230249   0.131   2.606   0.547 -0.6543  0.2531  0.8271
 6206SOL     OW30250   1.776   2.161   5.693  0.0909  0.4281  0.0759
 6206SOL    HW130251   1.825   2.216   5.631  0.3230 -1.0202 -1.0297
 6206SOL    HW230252   1.841   2.124   5.753 -0.2779 -2.5568 -1.3559
 6207SOL     OW30253   2.183   3.957   9.279 -1.0025 -0.1853 -0.0236
 6207SOL    HW130254   2.142   3.988   9.359  0.1433  2.0492 -0.2869
 6207SOL    HW230255   2.266   4.006   9.276 -0.1590 -1.6164 -0.0646
 6208SOL     OW30256   3.918   1.126  15.045 -0.4515 -0.1651 -0.8616
 6208SOL    HW130257   3.874   1.041  15.041 -0.8128 -0.0978  2.1802
 6208SOL    HW230258   3.912   1.152  14.953 -1.3466  0.5536 -0.5923
 6209SOL     OW30259   4.479   4.367  11.888  0.0031  0.0639 -0.3179
 6209SOL    HW130260   4.508   4.426  11.957  0.2448 -0.8991  0.4156
 6209SOL    HW230261   4.554   4.365  11.829  1.4770 -0.6094  1.5699
 6210SOL     OW30262   3.436   1.219   8.851  0.0672 -0.1202  0.6501
 6210SOL    HW130263   3.473   1.140   8.890  3.2247  0.0923 -1.9948
 6210SOL    HW230264   3.414   1.182   8.766 -1.3808 -1.6288  1.6920
 6211SOL     OW30265   0.041   1.068   4.682  0.1937  0.4916 -0.3056
 6211SOL    HW130266   0.010   0.982   4.656  2.0785 -0.2612 -0.0100
 6211SOL    HW230267   0.104   1.052   4.752 -0.1094  0.4000 -0.0484
 6212SOL     OW30268   4.284   0.024   8.124 -0.2280  0.5886 -0.3228
 6212SOL    HW130269   4.306   0.052   8.213  1.6990 -1.5233 -0.1659
 6212SOL    HW230270   4.363   0.057   8.081  0.0355  0.7012  0.2517
 6213SOL     OW30271   0.605   2.593   3.283 -0.0037 -0.0557 -0.1115
 6213SOL    HW130272   0.620   2.685   3.304 -0.6370 -0.3613  1.7230
 6213SOL    HW230273   0.674   2.580   3.218  0.8636  1.3018  0.5459
 6214SOL     OW30274   1.467   3.854   8.604  0.4504  0.4146 -0.0516
 6214SOL    HW130275   1.408   3.788   8.640  1.8559 -0.7891  0.0222
 6214SOL    HW230276   1.549   3.834   8.650  0.3055 -2.4886 -1.0355
 6215SOL     OW30277   2.332   2.930  13.356 -0.0017 -0.1497  0.0584
 6215SOL    HW130278   2.251   2.977  13.338  0.0357  0.0396  0.3842
 6215SOL    HW230279   2.359   2.904  13.268  0.0308  0.6367 -0.1665
 6216SOL     OW30280   2.562   2.593  14.905  0.0141  0.2442 -0.0457
 6216SOL    HW130281   2.641   2.539  14.898 -0.8119 -1.2537  1.9009
 6216SOL    HW230282   2.527   2.556  14.986 -1.6717 -1.9158 -1.7604
 6217SOL     OW30283   0.640   3.563  11.452  0.5481 -0.7037 -0.0797
 6217SOL    HW130284   0.628   3.531  11.363 -2.4129 -2.5724  0.9784
 6217SOL    HW230285   0.687   3.490  11.494  0.2331 -2.2259 -2.3779
 6218SOL     OW30286   4.555   0.298   6.812  0.0570  0.5081  0.3168
 6218SOL    HW130287   4.646   0.279   6.834  0.1643  0.0594 -0.5067
 6218SOL    HW230288   4.532   0.216   6.769 -0.5841  0.5258  0.6152
 6219SOL     OW30289   3.478   0.940   1.442 -0.4211 -0.5677  0.2946
 6219SOL    HW130290   3.466   0.913   1.351  0.3775  1.3792 -0.3972
 6219SOL    HW230291   3.451   0.863   1.492 -0.1215 -0.3200  0.8490
 6220SOL     OW30292   4.049   3.470   2.115  0.1365  0.5223 -0.3043
 6220SOL    HW130293   4.117   3.528   2.079 -1.5054 -0.5130 -5.0190
 6220SOL    HW230294   3.987   3.468   2.042 -0.7552  0.0485  0.4750
 6221SOL     OW30295   2.543   2.709   1.441  0.2879 -0.6106 -0.0538
 6221SOL    HW130296   2.561   2.799   1.467 -0.3342 -0.1362 -1.2789
 6221SOL    HW230297   2.635   2.683   1.427 -0.0470 -1.7127 -0.2229
 6222SOL     OW30298   1.223   0.564   5.903  0.5911 -0.1642  0.3772
 6222SOL    HW130299   1.236   0.495   5.838 -1.0274 -2.0924  2.1062
 6222SOL    HW230300   1.129   0.554   5.918  0.3162 -0.8243 -1.8186
 6223SOL     OW30301   4.239   3.309   6.394  0.0708 -0.4346  0.0336
 6223SOL    HW130302   4.200   3.223   6.382  2.7792 -1.3732 -2.0461
 6223SOL    HW230303   4.316   3.309   6.337  0.3186 -0.5115  0.3691
 6224SOL     OW30304   3.725   1.306  17.416  0.2523 -0.2713  0.0908
 6224SOL    HW130305   3.724   1.330  17.323  1.0987 -0.5461  0.0027
 6224SOL    HW230306   3.757   1.216  17.409  0.3296 -0.1757 -0.7569
 6225SOL     OW30307   1.492   0.172   3.456 -0.7303 -0.5985  0.1606
 6225SOL    HW130308   1.531   0.221   3.384  0.3356 -0.5599  0.7632
 6225SOL    HW230309   1.533   0.088   3.434 -0.9893 -0.3887 -1.0853
 6226SOL     OW30310   2.391   4.462   1.249  0.1815 -0.2575  0.2354
 6226SOL    HW130311   2.462   4.416   1.294 -0.0192 -1.9743 -1.1990
 6226SOL    HW230312   2.311   4.418   1.276  0.0077 -0.7648 -1.1116
 6227SOL     OW30313   3.345   0.459   4.780 -0.5997 -0.1100 -0.2958
 6227SOL    HW130314   3.317   0.547   4.757  1.9730  0.6019 -0.7352
 6227SOL    HW230315   3.339   0.404   4.702  0.3168 -0.7594  0.0836
 6228SOL     OW30316   2.019   0.380   6.410  0.0039  0.3455 -0.3457
 6228SOL    HW130317   2.007   0.294   6.371  0.8889 -0.1773  0.5449
 6228SOL    HW230318   1.961   0.370   6.486  2.6785  2.5434  2.0040
 6229SOL     OW30319   2.053   4.062   4.913  0.0240  0.7332 -0.4402
 6229SOL    HW130320   2.046   4.074   5.008  0.1257 -1.7365 -0.1213
 6229SOL    HW230321   1.968   4.026   4.888  0.0469  0.0932  0.3713
 6230SOL     OW30322   0.218   4.035   9.616  0.1570 -0.6434  0.1578
 6230SOL    HW130323   0.159   4.002   9.549 -1.1518 -0.1136  1.0423
 6230SOL    HW230324   0.187   4.125   9.618 -2.0712 -1.5200  3.7334
 6231SOL     OW30325   0.929   3.684   5.841 -0.6574  0.1381  0.1265
 6231SOL    HW130326   1.016   3.685   5.882 -0.5657 -0.7675 -0.0340
 6231SOL    HW230327   0.902   3.771   5.868  2.1382  0.3054  2.4717
 6232SOL     OW30328   2.542   0.399   8.535  0.6764  0.1046 -0.1120
 6232SOL    HW130329   2.634   0.392   8.507  0.9283  0.0739  0.7368
 6232SOL    HW230330   2.553   0.445   8.618 -1.0690  1.6748 -0.7516
 6233SOL     OW30331   0.276   3.470   0.863 -0.0649 -0.2264 -0.1830
 6233SOL    HW130332   0.266   3.410   0.937 -2.7676  0.3373 -0.0800
 6233SOL    HW230333   0.371   3.464   0.856  0.0034  1.3034 -0.6920
 6234SOL     OW30334   1.526   0.433  14.550 -0.1057 -0.0648 -0.1664
 6234SOL    HW130335   1.483   0.518  14.562  0.4063  0.0985  0.5064
 6234SOL    HW230336   1.620   0.450  14.541 -0.1422  0.9058  1.2464
 6235SOL     OW30337   3.895   1.095  17.623 -0.2014 -0.1452 -0.1754
 6235SOL    HW130338   3.843   1.015  17.629  0.8584 -0.8607 -0.4950
 6235SOL    HW230339   3.920   1.094  17.531 -0.1870  1.9674 -0.1960
 6236SOL     OW30340   2.340   0.588  13.727  0.0545  0.4389 -0.1586
 6236SOL    HW130341   2.350   0.495  13.705 -1.6974  0.1537  0.2517
 6236SOL    HW230342   2.244   0.592  13.734  0.0637 -1.2050  0.8240
 6237SOL     OW30343   3.841   1.947  17.048 -0.0662  0.2027 -0.3532
 6237SOL    HW130344   3.910   1.880  17.048 -1.6177 -1.3906 -1.6158
 6237SOL    HW230345   3.884   2.024  17.009 -1.1597  0.9097 -0.1700
 6238SOL     OW30346   1.313   2.567   1.954 -0.3520  0.3380 -0.0795
 6238SOL    HW130347   1.314   2.629   2.027 -0.2944  0.2114  0.0286
 6238SOL    HW230348   1.390   2.511   1.965 -0.9593 -0.5748 -0.4681
 6239SOL     OW30349   2.780   2.765   4.556  0.2314  0.1062 -0.0723
 6239SOL    HW130350   2.857   2.821   4.545  1.2277 -1.5634 -1.4873
 6239SOL    HW230351   2.750   2.805   4.638  0.2280 -0.3831  0.1626
 6240SOL     OW30352   0.243   1.464  12.132 -0.1466 -0.2810  0.0875
 6240SOL    HW130353   0.292   1.512  12.199  0.2891 -0.1933 -0.2911
 6240SOL    HW230354   0.197   1.535  12.087  0.6188 -0.3627 -0.8310
 6241SOL     OW30355   2.787   0.333   8.412  0.1545 -0.5289  0.3096
 6241SOL    HW130356   2.880   0.323   8.431  0.0048 -2.6333 -0.0775
 6241SOL    HW230357   2.774   0.277   8.335 -1.1878 -0.7620  0.7019
 6242SOL     OW30358   2.602   0.086   7.047  0.2240  0.2552  0.5430
 6242SOL    HW130359   2.542   0.134   6.990  1.1451  1.1055  0.3020
 6242SOL    HW230360   2.609   0.002   7.001  0.8565 -0.1067  1.3108
 6243SOL     OW30361   0.169   4.654  10.195 -0.4478 -0.5220  0.0089
 6243SOL    HW130362   0.166   4.642  10.100  0.4380  1.7267 -0.2833
 6243SOL    HW230363   0.137   4.572  10.233 -2.7206  0.8805  1.1245
 6244SOL     OW30364   3.224   2.659   0.544 -0.0333 -0.1546  0.0042
 6244SOL    HW130365   3.162   2.587   0.544  1.8901 -1.8026 -1.8163
 6244SOL    HW230366   3.241   2.676   0.451  1.6676  1.6619  0.6372
 6245SOL     OW30367   1.566   3.362  13.087 -0.7674 -0.2806  0.4554
 6245SOL    HW130368   1.647   3.341  13.134 -0.5419 -0.1197  0.1404
 6245SOL    HW230369   1.593   3.332  13.000 -1.9323 -3.3249  1.1543
 6246SOL     OW30370   3.761   2.318   5.886  0.0845 -0.0886  0.2707
 6246SOL    HW130371   3.836   2.266   5.916  0.2554 -0.4200 -0.7132
 6246SOL    HW230372   3.806   2.386   5.836 -0.0934  0.0071  0.2408
 6247SOL     OW30373   0.593   1.924   6.749  0.1974 -0.0088 -0.7859
 6247SOL    HW130374   0.677   1.933   6.703 -0.3916  2.3282 -1.4087
 6247SOL    HW230375   0.617   1.897   6.837  0.9264 -1.7727 -1.5161
 6248SOL     OW30376   0.060   0.599  14.898  0.4139 -0.2376 -0.2848
 6248SOL    HW130377   0.134   0.646  14.859  0.3951 -1.1349 -1.4195
 6248SOL    HW230378   0.096   0.510  14.895  0.4580 -0.1809 -1.4335
 6249SOL     OW30379   3.904   2.639   4.778  0.0810  0.2672  0.0657
 6249SOL    HW130380   3.923   2.716   4.833  1.8894  0.5257 -0.9063
 6249SOL    HW230381   3.947   2.577   4.838  0.8836 -0.3394 -1.1317
 6250SOL     OW30382   0.880   2.615   9.503  0.2234 -0.1997 -0.0605
 6250SOL    HW130383   0.908   2.562   9.429  1.7041 -0.8452  0.9433
 6250SOL    HW230384   0.863   2.700   9.463  0.5129  0.0276  0.2894
 6251SOL     OW30385   0.336   2.088  16.442  0.6238 -0.6056 -0.3148
 6251SOL    HW130386   0.411   2.146  16.454  0.2303 -0.3413  0.8794
 6251SOL    HW230387   0.276   2.143  16.491  0.0088 -1.2260 -0.3712
 6252SOL     OW30388   0.924   4.558  11.835 -0.3867 -0.2863 -0.3577
 6252SOL    HW130389   0.838   4.551  11.877 -1.0638  0.3260 -1.6536
 6252SOL    HW230390   0.931   4.652  11.818 -0.1649 -0.4378 -1.0836
 6253SOL     OW30391   0.332   2.868  11.629 -0.6541 -0.5263  0.0090
 6253SOL    HW130392   0.253   2.913  11.660  0.8560  1.3256  1.1736
 6253SOL    HW230393   0.326   2.789  11.683 -0.7303 -0.5632 -0.0533
 6254SOL     OW30394   0.698   1.612   9.647  0.2458 -0.3195  0.4902
 6254SOL    HW130395   0.691   1.639   9.556  1.2721  0.4000  0.6237
 6254SOL    HW230396   0.774   1.659   9.681  0.5113  0.9928 -1.9247
 6255SOL     OW30397   0.434   4.574   5.752  0.7772  0.6358  0.0620
 6255SOL    HW130398   0.439   4.489   5.708  0.4303  0.1136  1.0171
 6255SOL    HW230399   0.379   4.550   5.827 -0.5344 -0.6361 -1.3189
 6256SOL     OW30400   2.234   2.958   7.327 -0.7716  0.1709 -0.6069
 6256SOL    HW130401   2.151   2.988   7.365 -1.4316 -1.5975 -0.6324
 6256SOL    HW230402   2.291   2.993   7.395 -0.3534 -2.3031  0.3305
 6257SOL     OW30403   1.763   0.436  16.497 -0.2973  0.6007 -0.5674
 6257SOL    HW130404   1.821   0.422  16.421  0.6429 -0.5186  0.3508
 6257SOL    HW230405   1.680   0.457  16.455 -0.8367  1.3984  0.9236
 6258SOL     OW30406   4.656   0.334   3.451  0.0231  0.1075 -0.1314
 6258SOL    HW130407   0.015   0.347   3.441  0.4126 -2.7720 -0.2656
 6258SOL    HW230408   4.648   0.267   3.383 -0.3291 -3.1142  3.0974
 6259SOL     OW30409   3.261   0.486   4.374 -0.1798 -0.3942  0.3956
 6259SOL    HW130410   3.254   0.525   4.286 -0.7364 -2.4386 -0.4573
 6259SOL    HW230411   3.182   0.432   4.371 -2.5899  3.1274 -0.4812
 6260SOL     OW30412   0.680   3.109   2.900  0.1680  0.2466 -0.1437
 6260SOL    HW130413   0.737   3.052   2.849 -0.4591  0.7932 -1.4306
 6260SOL    HW230414   0.591   3.074   2.899  0.4849 -0.5202 -1.1924
 6261SOL     OW30415   0.314   3.535   8.252  0.1188  0.4860  0.5887
 6261SOL    HW130416   0.224   3.543   8.284  0.0115 -1.0219  0.6936
 6261SOL    HW230417   0.332   3.625   8.225 -3.9284  1.5576  1.3849
 6262SOL     OW30418   3.848   1.751   8.775  0.4920  0.0760 -0.4676
 6262SOL    HW130419   3.819   1.661   8.761  2.2439 -0.3963 -1.1629
 6262SOL    HW230420   3.847   1.754   8.870  1.8806  2.1303 -0.5086
 6263SOL     OW30421   2.099   2.280   8.738 -0.0704 -0.5899 -0.8059
 6263SOL    HW130422   2.136   2.333   8.667 -0.5240  1.1658  0.2670
 6263SOL    HW230423   2.139   2.196   8.715 -0.9050 -0.6740 -1.9672
 6264SOL     OW30424   0.058   2.995  11.555 -0.0762 -0.8949  0.4479
 6264SOL    HW130425   0.049   2.997  11.650  2.3783  0.1384  0.6565
 6264SOL    HW230426   4.703   3.017  11.532  0.7967 -0.4250 -2.6020
 6265SOL     OW30427   4.203   3.601   9.439  0.4483  0.1431 -0.2660
 6265SOL    HW130428   4.116   3.634   9.416 -1.2724 -3.3962  1.1646
 6265SOL    HW230429   4.178   3.599   9.532 -1.6157  1.4327 -0.7840
 6266SOL     OW30430   2.864   4.102   7.877 -0.0016 -0.0452 -0.0489
 6266SOL    HW130431   2.775   4.066   7.878 -1.3427  3.0288 -4.7382
 6266SOL    HW230432   2.909   4.037   7.823  0.1322 -0.5044  0.6312
 6267SOL     OW30433   4.689   4.239  17.136  0.1657 -0.3452 -0.0698
 6267SOL    HW130434   0.025   4.272  17.082 -0.6826  0.1030 -0.9042
 6267SOL    HW230435   4.694   4.297  17.212 -0.1749  1.0236 -1.0957
 6268SOL     OW30436   3.237   0.924   7.441 -0.2192 -0.2612  0.0545
 6268SOL    HW130437   3.323   0.884   7.426 -0.1492  0.1066 -0.5284
 6268SOL    HW230438   3.214   0.964   7.357  1.4383 -2.3116 -1.3782
 6269SOL     OW30439   4.195   0.758   6.057 -0.4203  0.5578  0.1254
 6269SOL    HW130440   4.244   0.679   6.079 -0.8772  0.2247 -0.0738
 6269SOL    HW230441   4.265   0.820   6.034 -0.2311  0.5120  0.5717
 6270SOL     OW30442   0.840   3.419   6.123  0.5412 -0.8552  0.9944
 6270SOL    HW130443   0.773   3.371   6.173 -2.2760  0.2964 -1.6439
 6270SOL    HW230444   0.915   3.403   6.180  1.5033  1.4522  0.3699
 6271SOL     OW30445   2.431   4.011   5.977 -0.2128 -0.2326  0.0553
 6271SOL    HW130446   2.401   3.992   6.066  1.4951  2.1840  1.1293
 6271SOL    HW230447   2.505   4.065   6.002  0.1233  0.2141 -1.8959
 6272SOL     OW30448   0.998   1.055   8.682  0.2642  0.5960  0.3230
 6272SOL    HW130449   0.980   1.139   8.641 -1.4115  1.0389  1.9815
 6272SOL    HW230450   1.035   1.011   8.605  2.0216 -0.4508  1.7481
 6273SOL     OW30451   0.274   1.363   8.770  0.8716  0.1102  0.0121
 6273SOL    HW130452   0.363   1.375   8.737  0.0430 -0.7369 -2.4590
 6273SOL    HW230453   0.222   1.366   8.690  0.7140  1.1748  0.1590
 6274SOL     OW30454   1.910   0.558   6.955  0.1987 -0.1283 -0.3815
 6274SOL    HW130455   1.815   0.569   6.954  0.3669  1.3465 -0.2338
 6274SOL    HW230456   1.940   0.648   6.942  0.3107  0.0413  1.0291
 6275SOL     OW30457   0.565   2.891   9.600  0.0765 -0.2066 -0.5185
 6275SOL    HW130458   0.578   2.881   9.506  1.3754 -0.1414 -0.3436
 6275SOL    HW230459   0.540   2.804   9.630  0.1914  0.0530  0.3515
 6276SOL     OW30460   2.682   1.799   3.814  0.3677 -0.5355  0.0707
 6276SOL    HW130461   2.670   1.889   3.845 -0.4518 -1.1706  1.5868
 6276SOL    HW230462   2.594   1.765   3.829 -0.5460  2.4918  1.5047
 6277SOL     OW30463   0.724   1.250   2.007  0.5443 -0.3562  0.0641
 6277SOL    HW130464   0.774   1.323   1.971 -2.8585  1.5458 -0.7458
 6277SOL    HW230465   0.636   1.258   1.971  0.2563  2.2162  1.3533
 6278SOL     OW30466   4.262   1.123   0.662 -0.3176 -0.0529 -0.2353
 6278SOL    HW130467   4.357   1.109   0.660 -0.5723 -1.7347 -0.3725
 6278SOL    HW230468   4.229   1.043   0.620 -1.6057  0.7016 -0.6739
 6279SOL     OW30469   1.875   0.793   7.975 -0.2670  0.1102  0.5429
 6279SOL    HW130470   1.842   0.768   8.061 -1.0884 -0.9523 -0.0788
 6279SOL    HW230471   1.831   0.872   7.943  0.1665  0.0685 -0.1489
 6280SOL     OW30472   1.134   0.524   6.971  0.8498 -0.5136 -0.3428
 6280SOL    HW130473   1.175   0.553   7.053  0.4228 -1.4918  0.2080
 6280SOL    HW230474   1.102   0.441   7.004  0.5069 -0.3092 -0.1635
 6281SOL     OW30475   1.154   0.951   8.922  0.3462 -0.3061  0.0189
 6281SOL    HW130476   1.078   0.915   8.968 -0.1550  2.3588  1.2922
 6281SOL    HW230477   1.122   0.995   8.844 -0.3067 -0.3973  0.2374
 6282SOL     OW30478   0.800   2.675  11.814 -0.5430 -0.2868 -0.0580
 6282SOL    HW130479   0.795   2.762  11.776 -0.6754  0.7140  2.3084
 6282SOL    HW230480   0.833   2.613  11.748  2.1611  0.4882  0.5580
 6283SOL     OW30481   1.875   4.011  15.473 -0.5864 -0.0610 -0.0111
 6283SOL    HW130482   1.951   4.034  15.527  0.4495 -1.3249 -0.9346
 6283SOL    HW230483   1.907   3.999  15.384 -1.3904 -0.4078 -0.2520
 6284SOL     OW30484   0.189   4.484  15.227 -0.0735  0.0709 -0.2517
 6284SOL    HW130485   0.219   4.517  15.143  1.4295  1.9183  0.9987
 6284SOL    HW230486   0.110   4.433  15.214  0.1132 -0.1902 -0.3590
 6285SOL     OW30487   3.490   1.596   8.254 -0.3381 -0.0845 -0.0707
 6285SOL    HW130488   3.528   1.523   8.304 -0.4706 -0.4554 -0.5134
 6285SOL    HW230489   3.535   1.668   8.298 -1.5252 -0.1991  1.3346
 6286SOL     OW30490   2.702   1.508  17.682 -0.0378  0.1821  0.2741
 6286SOL    HW130491   2.684   1.421  17.646  0.7100 -1.0030  2.7770
 6286SOL    HW230492   2.796   1.520  17.667  0.2724 -0.5514  1.6336
 6287SOL     OW30493   0.490   1.073   9.495 -0.4038 -0.0251  0.4614
 6287SOL    HW130494   0.417   1.082   9.556 -0.3930  0.8559  0.3452
 6287SOL    HW230495   0.532   1.159   9.492 -1.0485  0.2316 -1.3429
 6288SOL     OW30496   0.003   3.339   6.189  0.0609  0.0091  0.5641
 6288SOL    HW130497   0.082   3.306   6.145 -1.5998 -2.9716 -0.1531
 6288SOL    HW230498   0.049   3.362   6.269 -1.6940  2.0959  0.9658
 6289SOL     OW30499   2.181   3.474   0.160  0.0690  0.5065 -0.0936
 6289SOL    HW130500   2.248   3.537   0.133  2.6584 -1.4803  1.7161
 6289SOL    HW230501   2.099   3.516   0.135 -1.3761 -0.2855  3.3246
 6290SOL     OW30502   1.959   1.907  17.627 -0.9696 -0.2456 -0.5430
 6290SOL    HW130503   1.921   1.899  17.715 -0.4164  0.1607 -0.2657
 6290SOL    HW230504   1.877   1.922  17.580 -2.7782 -2.2282  1.9957
 6291SOL     OW30505   0.163   0.342   8.269  0.1063  0.8818 -0.0039
 6291SOL    HW130506   0.097   0.370   8.333 -1.2531  1.4672 -1.6786
 6291SOL    HW230507   0.242   0.335   8.323 -0.0486 -0.6350  0.0504
 6292SOL     OW30508   1.734   2.449  12.974  0.1653 -0.0974 -0.3769
 6292SOL    HW130509   1.737   2.531  13.024  0.3259 -1.1362  1.3376
 6292SOL    HW230510   1.806   2.403  13.019 -0.0987  1.3758  1.5178
 6293SOL     OW30511   0.168   2.247   2.770 -0.0756  0.5430 -0.5351
 6293SOL    HW130512   0.110   2.191   2.821  1.3528 -0.8028 -0.3923
 6293SOL    HW230513   0.101   2.303   2.731 -1.1931 -0.3631  0.0980
 6294SOL     OW30514   0.982   1.468  12.657  0.8204 -0.4475 -0.0925
 6294SOL    HW130515   1.073   1.496  12.668  0.1738  2.1907 -1.3194
 6294SOL    HW230516   0.967   1.439  12.747 -0.3423 -1.6327 -0.6687
 6295SOL     OW30517   1.152   0.350   8.212 -0.6181 -0.0507 -0.2891
 6295SOL    HW130518   1.142   0.312   8.300  1.4303 -1.1464 -0.5235
 6295SOL    HW230519   1.087   0.294   8.169 -1.5391  0.6419  0.1956
 6296SOL     OW30520   4.177   0.544  16.477 -0.2321 -0.2347 -0.4128
 6296SOL    HW130521   4.114   0.505  16.538 -2.4793  3.5172 -0.3703
 6296SOL    HW230522   4.206   0.463  16.434 -0.3015 -0.4240 -0.1100
 6297SOL     OW30523   2.163   4.479   4.074  0.6328 -0.2380 -0.0387
 6297SOL    HW130524   2.155   4.387   4.100  0.6088 -1.6224 -4.8396
 6297SOL    HW230525   2.252   4.494   4.043 -0.1341  0.2556 -2.0536
 6298SOL     OW30526   0.402   0.276   8.375 -0.0560 -0.2427 -0.8743
 6298SOL    HW130527   0.458   0.333   8.322  1.9663 -2.3096 -0.9675
 6298SOL    HW230528   0.415   0.191   8.332 -1.2512 -2.0252  2.2918
 6299SOL     OW30529   4.443   2.073   6.797 -0.1216  0.3333 -0.5090
 6299SOL    HW130530   4.537   2.068   6.777  0.3820  1.0371  1.6066
 6299SOL    HW230531   4.413   1.984   6.778  2.2436 -0.6284  0.2434
 6300SOL     OW30532   2.270   2.289   7.264 -0.5219  0.1216  0.2726
 6300SOL    HW130533   2.241   2.380   7.256  1.3724  0.8645  1.6944
 6300SOL    HW230534   2.290   2.285   7.358  0.7133 -1.1013 -0.0423
 6301SOL     OW30535   4.727   1.651  10.041 -0.6567  0.7665 -0.6658
 6301SOL    HW130536   4.728   1.617   9.951 -1.2377 -0.8432 -0.0593
 6301SOL    HW230537   0.012   1.743  10.026 -0.9729  0.5828 -2.2673
 6302SOL     OW30538   0.555   4.489   2.655  0.2692 -0.3643  0.1424
 6302SOL    HW130539   0.466   4.510   2.684  0.9566  1.5483  0.8603
 6302SOL    HW230540   0.566   4.538   2.574  2.9655 -1.8998 -0.4047
 6303SOL     OW30541   2.107   3.198   0.131 -0.0265 -0.5415 -0.0625
 6303SOL    HW130542   2.126   3.190   0.038  1.4586  0.9672  0.1103
 6303SOL    HW230543   2.150   3.280   0.156 -0.7111 -0.3103  0.3856
 6304SOL     OW30544   1.908   3.757   4.700 -0.2083 -0.2306  0.3640
 6304SOL    HW130545   1.871   3.790   4.782  1.5779 -0.6262  1.3278
 6304SOL    HW230546   1.902   3.833   4.642  1.6250 -1.0790 -0.9233
 6305SOL     OW30547   2.116   0.461   3.955  0.2081 -0.2848 -0.2039
 6305SOL    HW130548   2.148   0.423   4.037 -0.1531 -0.5555 -0.1887
 6305SOL    HW230549   2.021   0.447   3.959 -0.0196  0.7322 -1.9848
 6306SOL     OW30550   4.455   4.120   9.394  0.4914  0.0409 -0.2161
 6306SOL    HW130551   4.462   4.070   9.313 -1.1276 -1.5053  0.5847
 6306SOL    HW230552   4.366   4.150   9.374  0.9804  2.0311  0.5646
 6307SOL     OW30553   0.981   4.358   3.590  0.2000  0.1801  0.2203
 6307SOL    HW130554   0.905   4.342   3.534 -1.9912  1.4690  2.8209
 6307SOL    HW230555   0.940   4.374   3.676  0.4695  0.2694  0.3332
 6308SOL     OW30556   3.659   4.732   6.481 -0.1328 -0.3444 -0.3496
 6308SOL    HW130557   3.595   4.726   6.410 -2.2265 -0.3119  1.5613
 6308SOL    HW230558   3.621   4.687   6.556  1.0730  0.2044  0.5873
 6309SOL     OW30559   2.649   4.518   4.848 -0.2630 -0.1602  0.0413
 6309SOL    HW130560   2.639   4.433   4.804  1.1423 -0.7554  0.8799
 6309SOL    HW230561   2.706   4.553   4.779  0.1846 -1.8921 -0.4801
 6310SOL     OW30562   1.616   1.616   7.619  0.2609 -0.0440  0.2564
 6310SOL    HW130563   1.701   1.599   7.660 -0.8810 -1.8429  1.8771
 6310SOL    HW230564   1.566   1.543   7.656  1.3906 -0.8379  0.2221
 6311SOL     OW30565   2.383   1.206   0.909 -0.0142  0.3528 -0.2446
 6311SOL    HW130566   2.337   1.278   0.865 -1.0028 -1.5674 -2.3786
 6311SOL    HW230567   2.354   1.129   0.859 -0.2014  0.7640 -0.7703
 6312SOL     OW30568   4.041   2.304   1.920  0.4272 -0.3907 -0.2291
 6312SOL    HW130569   3.957   2.300   1.875  0.0409  0.2326  0.4203
 6312SOL    HW230570   4.064   2.212   1.936  0.8998 -0.0829  0.9004
 6313SOL     OW30571   4.179   1.847  16.997  0.6705 -0.1105 -0.3914
 6313SOL    HW130572   4.167   1.933  17.039 -2.0458 -1.4894  1.6748
 6313SOL    HW230573   4.225   1.867  16.916  1.1117  0.6118  0.0324
 6314SOL     OW30574   4.281   4.007   6.602  0.4696 -0.1128 -0.7493
 6314SOL    HW130575   4.216   3.959   6.654  1.1746 -1.1597 -0.8160
 6314SOL    HW230576   4.365   3.976   6.635 -0.2073  0.2106  1.2428
 6315SOL     OW30577   3.304   3.557  16.143 -0.1461  0.1981  0.0078
 6315SOL    HW130578   3.241   3.552  16.071  1.7219  1.6403 -1.7116
 6315SOL    HW230579   3.247   3.555  16.220  1.7727 -1.2808  1.4004
 6316SOL     OW30580   1.656   1.429  16.460 -0.4159  0.3769  0.7515
 6316SOL    HW130581   1.731   1.381  16.494 -0.7122  0.4631  1.5140
 6316SOL    HW230582   1.667   1.444  16.366 -2.7045 -2.7929 -0.0220
 6317SOL     OW30583   1.507   3.152   6.213 -0.0232  0.0314  0.3087
 6317SOL    HW130584   1.430   3.136   6.158  0.2148  2.1714 -0.6703
 6317SOL    HW230585   1.575   3.182   6.153 -0.7150  1.2373  0.1331
 6318SOL     OW30586   1.686   3.403  14.452 -0.2420  0.3096 -0.3309
 6318SOL    HW130587   1.720   3.436  14.369 -0.4229 -1.3104 -1.0388
 6318SOL    HW230588   1.713   3.312  14.451  1.3715  0.8151 -2.6354
 6319SOL     OW30589   4.014   3.778   6.956  0.3287  0.5287  0.4486
 6319SOL    HW130590   4.089   3.718   6.956 -1.1107 -1.2847  0.4202
 6319SOL    HW230591   4.039   3.830   6.879  0.9879  0.7535  0.8124
 6320SOL     OW30592   1.502   2.312   5.282  0.4256  0.2313  0.0579
 6320SOL    HW130593   1.473   2.235   5.233 -0.6244  0.2147  0.6925
 6320SOL    HW230594   1.509   2.274   5.370 -0.4943  0.9752  0.4556
 6321SOL     OW30595   1.583   3.913   8.950 -0.3469 -0.2677 -0.3159
 6321SOL    HW130596   1.609   3.847   8.885  3.9607  0.3859  0.7677
 6321SOL    HW230597   1.509   3.869   8.993  0.0840 -0.7106 -0.0184
 6322SOL     OW30598   2.286   3.502   4.526 -0.2253  0.2384 -0.1103
 6322SOL    HW130599   2.328   3.587   4.541 -2.2628  0.8975  1.8488
 6322SOL    HW230600   2.325   3.500   4.439 -2.1987 -0.5686 -0.9590
 6323SOL     OW30601   0.331   4.715   8.837  0.3160  0.1056 -0.1992
 6323SOL    HW130602   0.237   4.732   8.846  0.2712 -0.9081  1.1721
 6323SOL    HW230603   0.345   4.702   8.743  2.4248  1.4317 -0.0611
 6324SOL     OW30604   2.192   2.343   5.558 -0.1895 -0.0756 -0.1588
 6324SOL    HW130605   2.188   2.439   5.558  0.8186 -0.0334 -0.2850
 6324SOL    HW230606   2.225   2.332   5.469 -0.5211 -0.8123 -0.1950
 6325SOL     OW30607   4.693   1.631  14.926  0.1664  0.0952  0.0703
 6325SOL    HW130608   4.686   1.599  15.016 -0.1481  1.0952  0.4059
 6325SOL    HW230609   4.683   1.724  14.948 -0.8439 -0.0420  0.2069
 6326SOL     OW30610   1.658   1.174   1.370  0.5121 -0.3612 -0.1766
 6326SOL    HW130611   1.688   1.090   1.404  1.5577 -0.1545 -0.5743
 6326SOL    HW230612   1.722   1.193   1.301  2.1994  3.1123  2.3411
 6327SOL     OW30613   2.439   2.551   6.155  0.2562  0.7019  0.1356
 6327SOL    HW130614   2.499   2.548   6.230 -0.4176  0.4364  0.6712
 6327SOL    HW230615   2.494   2.592   6.089  0.7821  0.1040  0.1973
 6328SOL     OW30616   4.416   2.602   4.207 -0.0289 -0.0919 -0.0640
 6328SOL    HW130617   4.378   2.659   4.273  1.0322 -0.4799  0.8822
 6328SOL    HW230618   4.347   2.541   4.183  0.0252 -0.0408 -0.3607
 6329SOL     OW30619   1.207   3.112   4.515  0.3089 -0.3423 -0.6155
 6329SOL    HW130620   1.174   3.090   4.428 -1.5513 -0.5073  0.1307
 6329SOL    HW230621   1.242   3.198   4.495  0.4581 -0.9371 -2.8920
 6330SOL     OW30622   2.558   4.700   3.131  0.0474  0.2824 -0.5669
 6330SOL    HW130623   2.470   4.720   3.100  0.3661  2.4499 -0.0759
 6330SOL    HW230624   2.577   0.039   3.189  1.8470  0.0128 -0.7969
 6331SOL     OW30625   2.155   2.372   1.957  0.6176 -0.4537 -0.3206
 6331SOL    HW130626   2.208   2.295   1.977 -1.3866 -1.7931 -0.1943
 6331SOL    HW230627   2.195   2.393   1.872  3.0568  0.2333  0.9941
 6332SOL     OW30628   2.557   4.381   4.099 -0.3411 -0.3726 -0.2912
 6332SOL    HW130629   2.598   4.297   4.122  0.8929 -0.3318 -2.2877
 6332SOL    HW230630   2.541   4.425   4.182  0.9293 -0.5503  0.0455
 6333SOL     OW30631   0.661   3.146   4.382 -0.5423  0.1802  0.6730
 6333SOL    HW130632   0.654   3.241   4.384 -1.9961  0.0724  0.3954
 6333SOL    HW230633   0.747   3.143   4.426 -0.1788  0.4040 -0.0206
 6334SOL     OW30634   2.648   1.262   6.995  0.5675  0.2320 -0.1344
 6334SOL    HW130635   2.586   1.220   6.935  0.7455 -2.2964  1.4399
 6334SOL    HW230636   2.710   1.296   6.930  0.9075 -0.5989 -0.2444
 6335SOL     OW30637   0.672   3.467   9.512 -0.4002  0.6271 -0.5214
 6335SOL    HW130638   0.711   3.530   9.452  1.1082  0.5316  0.3487
 6335SOL    HW230639   0.704   3.503   9.595  1.1675  2.3360 -1.8658
 6336SOL     OW30640   1.357   1.638   9.649  0.4469  0.2600 -0.3729
 6336SOL    HW130641   1.324   1.656   9.737  0.6377 -1.9559  0.1534
 6336SOL    HW230642   1.313   1.555   9.631 -0.9163  0.6066  1.4299
 6337SOL     OW30643   1.395   3.370   0.423 -0.2926  0.3853  0.0280
 6337SOL    HW130644   1.330   3.334   0.484  0.6815 -0.7662  0.3818
 6337SOL    HW230645   1.461   3.385   0.491 -0.6377  2.8156 -0.1853
 6338SOL     OW30646   1.909   0.100   4.518  0.4503  0.2321 -0.1313
 6338SOL    HW130647   1.987   0.095   4.462  0.8091 -0.9385  0.4536
 6338SOL    HW230648   1.897   0.194   4.524 -1.3058 -0.0978  1.7551
 6339SOL     OW30649   2.636   0.489   8.083  0.1205  0.0799  0.0186
 6339SOL    HW130650   2.664   0.577   8.109  0.1485 -0.4627  1.7817
 6339SOL    HW230651   2.599   0.503   7.995  1.5730  1.7263 -0.3395
 6340SOL     OW30652   0.420   2.323   3.364  0.2982  0.1614 -0.2761
 6340SOL    HW130653   0.451   2.276   3.441 -3.5199  0.6312  1.5613
 6340SOL    HW230654   0.426   2.411   3.401  0.7704  0.2310 -0.5196
 6341SOL     OW30655   3.219   1.132   1.053  0.5070 -0.0295 -0.0807
 6341SOL    HW130656   3.217   1.161   1.145  0.1188  1.7749 -0.6557
 6341SOL    HW230657   3.176   1.048   1.069  1.3255 -0.4338  0.0046
 6342SOL     OW30658   2.405   1.641   4.651 -0.0720 -0.0383  0.4278
 6342SOL    HW130659   2.440   1.719   4.693 -1.1898  1.1073 -0.7954
 6342SOL    HW230660   2.388   1.673   4.563  0.8082  1.4502  0.7988
 6343SOL     OW30661   4.438   4.290   7.889  0.1470  0.0228 -0.6476
 6343SOL    HW130662   4.387   4.217   7.925  0.0438  0.6412  0.4614
 6343SOL    HW230663   4.394   4.312   7.807 -3.2833 -0.6235  1.0309
 6344SOL     OW30664   3.789   0.371   3.982 -0.1521  0.0309  0.0991
 6344SOL    HW130665   3.719   0.412   4.035 -0.4588  0.7889 -0.8990
 6344SOL    HW230666   3.733   0.315   3.929 -1.3629 -0.6548  2.0818
 6345SOL     OW30667   2.433   3.289  15.071 -0.4284  0.0422  0.1705
 6345SOL    HW130668   2.389   3.259  15.150  1.0046  0.5097  1.1427
 6345SOL    HW230669   2.425   3.215  15.011  1.5195 -0.0969  0.0778
 6346SOL     OW30670   1.860   2.862  10.421 -0.7382 -0.1584 -0.0380
 6346SOL    HW130671   1.941   2.892  10.379  0.4214 -1.4427  1.3029
 6346SOL    HW230672   1.845   2.929  10.488 -1.7137 -0.0549 -0.3507
 6347SOL     OW30673   0.483   1.742   8.774 -0.0461 -0.4490  0.4705
 6347SOL    HW130674   0.395   1.708   8.793 -1.2845  1.8222 -1.2268
 6347SOL    HW230675   0.487   1.738   8.679 -1.7557 -0.5290  0.4016
 6348SOL     OW30676   4.621   2.235  17.213 -0.3418 -0.0937 -0.1212
 6348SOL    HW130677   4.582   2.156  17.250  0.4502 -0.3107  0.2701
 6348SOL    HW230678   4.713   2.207  17.209 -0.0822  1.2631 -3.5596
 6349SOL     OW30679   3.897   3.100   2.908 -0.1893 -0.1452  0.9835
 6349SOL    HW130680   3.976   3.051   2.929 -0.1198  0.4819  2.2189
 6349SOL    HW230681   3.819   3.047   2.924 -1.3054  1.3613  0.5218
 6350SOL     OW30682   0.807   0.492   6.129  0.4337  0.2420  0.7073
 6350SOL    HW130683   0.727   0.506   6.180  0.0955 -1.4696  0.6150
 6350SOL    HW230684   0.855   0.454   6.203  2.1288 -2.1915 -1.6846
 6351SOL     OW30685   1.215   2.345   4.530  0.1622  0.2949  0.2980
 6351SOL    HW130686   1.226   2.250   4.526 -1.3718  0.0351  1.9442
 6351SOL    HW230687   1.193   2.365   4.621 -3.0227  0.7015 -0.5547
 6352SOL     OW30688   2.684   1.374   9.149 -0.2355 -0.0425  0.6351
 6352SOL    HW130689   2.710   1.460   9.183  2.0036 -0.4601 -0.0148
 6352SOL    HW230690   2.666   1.326   9.230 -0.0071 -0.9647  0.1426
 6353SOL     OW30691   1.195   3.649  13.909 -0.7117  0.5338  0.4267
 6353SOL    HW130692   1.208   3.674  14.000 -1.7532  0.4633  0.5870
 6353SOL    HW230693   1.284   3.657  13.874  0.4898 -0.4716  3.3528
 6354SOL     OW30694   2.529   2.208   4.862 -0.4696  0.6904 -0.1621
 6354SOL    HW130695   2.485   2.143   4.917  0.8224 -1.2236 -1.4112
 6354SOL    HW230696   2.459   2.260   4.822  0.5630  1.4487 -0.9658
 6355SOL     OW30697   3.272   1.926   0.415  0.0959  0.0875  0.2007
 6355SOL    HW130698   3.215   1.961   0.484  0.6357  1.3258  0.0114
 6355SOL    HW230699   3.243   1.967   0.334 -1.6353 -0.0558  0.7464
 6356SOL     OW30700   0.607   2.293   3.796  0.2568 -0.1571  0.1361
 6356SOL    HW130701   0.658   2.374   3.787 -0.7644  0.6442  1.5925
 6356SOL    HW230702   0.672   2.230   3.828 -0.5860 -2.1484 -2.1047
 6357SOL     OW30703   3.220   0.815   7.888  0.3416  0.3220 -0.4545
 6357SOL    HW130704   3.186   0.775   7.808 -0.6155  0.9030 -0.3316
 6357SOL    HW230705   3.279   0.886   7.861  1.5316 -0.6136 -0.3573
 6358SOL     OW30706   3.539   4.722   8.286  0.0289  0.1631 -0.3455
 6358SOL    HW130707   3.499   0.008   8.202  0.4324  3.1939  0.2374
 6358SOL    HW230708   3.607   0.054   8.296  1.2523 -1.1665  0.3220
 6359SOL     OW30709   1.807   3.608  14.236 -0.0625  0.0069 -0.1771
 6359SOL    HW130710   1.889   3.575  14.199 -0.6268  2.1281 -3.2739
 6359SOL    HW230711   1.828   3.700  14.250  0.1054  0.3088 -2.4624
 6360SOL     OW30712   3.505   1.014  16.890 -0.1258  0.1992 -0.0563
 6360SOL    HW130713   3.533   1.081  16.828 -0.7939  0.1806 -0.3717
 6360SOL    HW230714   3.410   1.023  16.885 -0.1501 -0.1230 -0.1476
 6361SOL     OW30715   3.278   4.096  15.584  0.0139 -0.0302 -0.0948
 6361SOL    HW130716   3.216   4.124  15.652 -0.6651 -1.0799 -0.2934
 6361SOL    HW230717   3.258   4.003  15.579  1.8763 -0.4553  0.4988
 6362SOL     OW30718   2.586   0.902   4.492 -0.4026 -0.2130  0.3494
 6362SOL    HW130719   2.616   0.831   4.549  1.5535 -0.6694 -1.2513
 6362SOL    HW230720   2.563   0.963   4.562 -0.0436  1.3667 -0.8999
 6363SOL     OW30721   2.358   1.612   5.665  0.1290  0.3601 -0.2763
 6363SOL    HW130722   2.429   1.548   5.663 -0.1517 -0.0086  1.2809
 6363SOL    HW230723   2.286   1.562   5.702  0.7084 -2.0075 -2.3470
 6364SOL     OW30724   3.666   3.471   3.540  0.2062  0.2047 -0.2203
 6364SOL    HW130725   3.746   3.507   3.578 -0.2299  2.4368 -1.4376
 6364SOL    HW230726   3.602   3.511   3.599 -0.7488 -0.5541 -0.7546
 6365SOL     OW30727   3.756   4.689   5.140  0.3437 -0.0920 -0.4477
 6365SOL    HW130728   3.831   4.715   5.194  1.0018  0.9384 -1.8493
 6365SOL    HW230729   3.680   4.720   5.190 -0.7655 -0.3676 -1.9708
 6366SOL     OW30730   1.078   4.093   2.710  0.0246  0.0303  0.8836
 6366SOL    HW130731   1.056   4.032   2.640  0.9356  1.7008 -0.8471
 6366SOL    HW230732   1.074   4.173   2.659 -1.8916 -0.2652  0.5919
 6367SOL     OW30733   0.184   2.936   6.768  0.2030  0.0163  0.5754
 6367SOL    HW130734   0.181   3.030   6.783  0.9645 -0.0364  1.0565
 6367SOL    HW230735   0.217   2.946   6.679  1.0709  0.3716  0.9381
 6368SOL     OW30736   0.812   0.425   2.296  0.4359  0.1441  0.3713
 6368SOL    HW130737   0.729   0.420   2.343  0.9464 -1.1134  1.1360
 6368SOL    HW230738   0.787   0.471   2.216 -0.8023  1.2865  1.4049
 6369SOL     OW30739   0.041   3.090   5.722 -0.4880 -0.3131 -0.0251
 6369SOL    HW130740   0.023   3.183   5.739  1.3929  0.2609 -1.2258
 6369SOL    HW230741   4.704   3.075   5.660 -0.9027 -0.8422  0.5812
 6370SOL     OW30742   4.173   1.688   6.005  0.6748 -0.2660 -0.1430
 6370SOL    HW130743   4.150   1.735   5.925  1.0353  1.1263  0.5711
 6370SOL    HW230744   4.110   1.720   6.069  0.7901 -1.7864  0.7322
 6371SOL     OW30745   2.799   0.052  16.648  0.0137  0.5227 -0.1787
 6371SOL    HW130746   2.755   4.714  16.692  1.6306 -1.7833 -2.4130
 6371SOL    HW230747   2.761   0.119  16.705 -2.5046 -1.6609  0.6654
 6372SOL     OW30748   3.859   2.600   7.207 -0.3218  0.5727 -0.6009
 6372SOL    HW130749   3.899   2.569   7.289 -0.9201 -1.7402 -1.1848
 6372SOL    HW230750   3.833   2.685   7.242 -1.8918  0.6113 -1.8553
 6373SOL     OW30751   0.737   4.414   5.458 -0.1651 -0.2482  0.1860
 6373SOL    HW130752   0.672   4.475   5.423 -0.5040 -1.6333 -1.5801
 6373SOL    HW230753   0.718   4.325   5.428  0.4125 -0.4242  0.3429
 6374SOL     OW30754   3.236   4.290   7.715  0.2324 -0.2137 -0.1770
 6374SOL    HW130755   3.172   4.287   7.785 -0.9792 -2.1645 -1.3818
 6374SOL    HW230756   3.248   4.196   7.711 -2.8115 -0.5920 -0.1281
 6375SOL     OW30757   1.986   2.744   7.109 -0.1794  0.1333 -0.0577
 6375SOL    HW130758   1.915   2.680   7.116 -0.1753  0.2217  0.7622
 6375SOL    HW230759   1.935   2.825   7.115  1.7601  1.3917 -0.6873
 6376SOL     OW30760   4.356   4.298  14.971  0.1992 -0.1642 -0.2746
 6376SOL    HW130761   4.380   4.214  15.011 -1.1428 -0.1509  0.5643
 6376SOL    HW230762   4.399   4.358  15.032  3.8121 -3.2080  0.1896
 6377SOL     OW30763   3.578   4.272   7.416  0.3211 -0.4572  0.3373
 6377SOL    HW130764   3.506   4.331   7.439  0.4007 -0.7702  1.3641
 6377SOL    HW230765   3.641   4.272   7.488  1.5494  0.9178 -0.7227
 6378SOL     OW30766   4.177   1.309   5.349  0.0374 -0.3983  0.0435
 6378SOL    HW130767   4.172   1.225   5.303  0.7519 -0.9345  0.9417
 6378SOL    HW230768   4.217   1.363   5.282 -1.8213  0.7288 -0.1648
 6379SOL     OW30769   2.917   2.202   4.100 -0.3883  0.3067 -0.3269
 6379SOL    HW130770   2.965   2.284   4.106 -2.1140  1.0992  2.6999
 6379SOL    HW230771   2.833   2.233   4.135  0.2516  0.7691  0.7870
 6380SOL     OW30772   3.948   1.122   2.993 -0.3561  0.6976 -0.0828
 6380SOL    HW130773   3.891   1.187   3.034  0.5792  0.3864  1.6614
 6380SOL    HW230774   3.903   1.105   2.910 -0.8098 -1.0224  0.5073
 6381SOL     OW30775   2.747   2.751   1.765  0.2418 -0.5782  0.1714
 6381SOL    HW130776   2.826   2.782   1.809 -1.6232 -0.3396  3.3504
 6381SOL    HW230777   2.753   2.810   1.690  0.6154 -1.1799 -0.2773
 6382SOL     OW30778   2.979   1.494   1.026  0.8261  0.2202 -0.0868
 6382SOL    HW130779   3.017   1.488   0.938 -0.0694  1.5355 -0.5654
 6382SOL    HW230780   2.906   1.554   1.013  0.2074 -0.0583  2.0456
 6383SOL     OW30781   2.361   4.057  13.366 -0.0853 -0.4683 -0.0721
 6383SOL    HW130782   2.393   4.146  13.347 -0.0650 -0.1787  1.3335
 6383SOL    HW230783   2.373   4.057  13.461  1.2472 -1.3632 -0.2319
 6384SOL     OW30784   1.131   0.988  14.826  0.3286 -0.4644  0.2191
 6384SOL    HW130785   1.104   0.995  14.918  1.0793 -1.5828  0.5400
 6384SOL    HW230786   1.185   0.908  14.824  0.6900 -0.2469  1.1081
 6385SOL     OW30787   0.861   1.731   8.584  0.1881 -0.6272  0.6609
 6385SOL    HW130788   0.879   1.823   8.564 -0.5861 -0.5298  0.4191
 6385SOL    HW230789   0.936   1.717   8.642 -0.0817  0.6856  1.3301
 6386SOL     OW30790   2.465   4.526  12.183  0.0670  0.3708 -0.3302
 6386SOL    HW130791   2.517   4.445  12.178  1.1689  1.1951 -2.0214
 6386SOL    HW230792   2.478   4.551  12.275 -0.9411 -1.0339  0.2044
 6387SOL     OW30793   0.689   1.760   2.589  0.2126  0.4944 -0.0782
 6387SOL    HW130794   0.764   1.743   2.645  0.5435 -0.3766 -0.7920
 6387SOL    HW230795   0.665   1.852   2.599  1.3426  0.5708  2.0174
 6388SOL     OW30796   2.545   1.123   5.032 -0.0435 -0.5445 -0.5446
 6388SOL    HW130797   2.617   1.174   4.996 -1.2979  1.1796 -0.5913
 6388SOL    HW230798   2.482   1.194   5.044 -0.4469 -0.9532 -0.2131
 6389SOL     OW30799   3.274   4.337   8.104 -0.3617 -0.2559 -0.8920
 6389SOL    HW130800   3.291   4.250   8.140 -0.1368  0.0646 -0.2236
 6389SOL    HW230801   3.209   4.316   8.037 -0.1914 -2.2166 -0.4633
 6390SOL     OW30802   2.523   4.253   6.972  0.0218  0.4064 -0.1780
 6390SOL    HW130803   2.433   4.223   6.985  0.5995 -0.5513  1.5366
 6390SOL    HW230804   2.553   4.281   7.058 -4.7155  1.3043  1.1657
 6391SOL     OW30805   4.227   2.416   5.400 -0.3894  0.1707  0.3323
 6391SOL    HW130806   4.303   2.467   5.374  0.3339 -1.0083  0.1464
 6391SOL    HW230807   4.254   2.359   5.472 -0.2202  1.2984  1.1633
 6392SOL     OW30808   4.087   1.885   6.595 -0.1017 -0.0784 -0.1083
 6392SOL    HW130809   4.117   1.936   6.520 -1.4646 -1.6101 -1.6751
 6392SOL    HW230810   4.169   1.852   6.631 -1.1306 -0.9459  1.4212
 6393SOL     OW30811   1.473   2.295   2.205  0.3312 -0.6161  0.2792
 6393SOL    HW130812   1.547   2.312   2.264  0.8237  2.3873 -1.1550
 6393SOL    HW230813   1.419   2.372   2.223 -0.7261 -1.3174  0.0725
 6394SOL     OW30814   2.446   3.083   2.436  0.0815 -0.4101 -0.1916
 6394SOL    HW130815   2.453   3.178   2.439  1.8639 -0.4740 -2.9616
 6394SOL    HW230816   2.428   3.075   2.343  0.7595  0.3177 -0.3846
 6395SOL     OW30817   1.315   0.236   5.757 -0.2634  0.0786  0.3622
 6395SOL    HW130818   1.403   0.210   5.730 -0.2632  0.1124  0.3300
 6395SOL    HW230819   1.287   0.161   5.810 -0.1755 -0.2609 -0.0709
 6396SOL     OW30820   2.651   2.737   2.092  0.8231 -0.4108 -0.0788
 6396SOL    HW130821   2.605   2.797   2.033 -0.1079 -1.8800 -0.8412
 6396SOL    HW230822   2.740   2.772   2.083 -0.4154  2.5825 -0.6072
 6397SOL     OW30823   0.042   0.695   2.261 -0.1112 -0.0798 -0.5018
 6397SOL    HW130824   0.126   0.664   2.227  0.1642  0.9491 -0.7723
 6397SOL    HW230825   0.066   0.748   2.338  1.2800  0.3037 -1.1940
 6398SOL     OW30826   0.701   0.709   5.341  0.0159  0.1518 -0.1453
 6398SOL    HW130827   0.724   0.792   5.383 -1.6515  0.4442  0.1918
 6398SOL    HW230828   0.662   0.659   5.412 -0.5527  1.8705  0.7391
 6399SOL     OW30829   2.749   4.072   0.814  0.7662 -0.5275  0.6032
 6399SOL    HW130830   2.655   4.068   0.795  0.7702  0.4675  0.3882
 6399SOL    HW230831   2.757   4.164   0.837 -1.9941  0.3979 -2.1334
 6400SOL     OW30832   2.535   2.705  13.399  0.3197 -0.0684 -0.0229
 6400SOL    HW130833   2.464   2.766  13.381 -0.8389 -2.0228 -1.9672
 6400SOL    HW230834   2.609   2.764  13.413  0.6285 -0.1110 -1.5416
 6401SOL     OW30835   0.290   3.583   7.921 -0.0370  0.0368  0.2670
 6401SOL    HW130836   0.347   3.606   7.847 -0.3543 -2.3804 -0.7248
 6401SOL    HW230837   0.204   3.606   7.883  0.6772  0.4804 -1.0926
 6402SOL     OW30838   2.360   3.691   7.009  0.0344 -0.6765  0.1398
 6402SOL    HW130839   2.449   3.695   7.046  0.9773 -3.0208 -1.8150
 6402SOL    HW230840   2.338   3.780   6.983 -1.4998 -0.5538  1.8681
 6403SOL     OW30841   3.428   2.329  11.038 -0.9067 -0.0362  0.4765
 6403SOL    HW130842   3.414   2.397  10.972  0.4001 -0.3261 -0.1042
 6403SOL    HW230843   3.467   2.370  11.116 -0.1529  0.8972 -0.3804
 6404SOL     OW30844   0.866   3.909   3.957  0.3068  0.0786 -0.1646
 6404SOL    HW130845   0.849   3.930   3.865  1.7473  2.4028  0.0994
 6404SOL    HW230846   0.777   3.925   3.988  0.3203 -2.2383  1.0756
 6405SOL     OW30847   3.033   1.871   0.922  0.0979  0.1021 -0.2221
 6405SOL    HW130848   2.964   1.812   0.951 -0.7230 -0.4997 -3.4306
 6405SOL    HW230849   3.015   1.881   0.828  0.0127 -0.3288 -0.2489
 6406SOL     OW30850   4.269   1.008   6.837 -0.0130 -0.0003 -0.0905
 6406SOL    HW130851   4.254   0.914   6.823 -1.6055 -0.0633  2.1217
 6406SOL    HW230852   4.308   1.011   6.924  0.1096 -0.6313 -0.1263
 6407SOL     OW30853   4.542   2.613   3.963  0.1675 -0.3324 -0.4410
 6407SOL    HW130854   4.507   2.621   4.051 -0.3408 -2.8857 -0.4071
 6407SOL    HW230855   4.476   2.549   3.938  0.2532 -0.6328  0.1089
 6408SOL     OW30856   2.600   1.951   2.398 -0.9493 -0.1793 -0.3889
 6408SOL    HW130857   2.682   1.989   2.430  0.1755 -1.7352 -1.4633
 6408SOL    HW230858   2.532   2.010   2.433  0.4932  0.4395  1.3889
 6409SOL     OW30859   3.501   1.393   0.098 -0.7213  0.6873  0.2898
 6409SOL    HW130860   3.531   1.457   0.163  1.1237 -1.8866  1.9749
 6409SOL    HW230861   3.558   1.408   0.023  1.5533 -0.7745  1.7428
 6410SOL     OW30862   2.472   1.231   2.619 -0.4452 -0.3944 -0.0204
 6410SOL    HW130863   2.392   1.201   2.663 -0.4351 -1.1034 -0.4936
 6410SOL    HW230864   2.441   1.298   2.559  3.7138  1.1055 -0.5069
 6411SOL     OW30865   1.826   4.671   9.378 -0.1959 -0.1890 -0.4166
 6411SOL    HW130866   1.811   4.677   9.472 -1.1882 -0.1254 -0.5818
 6411SOL    HW230867   1.743   4.637   9.345 -0.8317  2.3651 -1.4294
 6412SOL     OW30868   2.738   1.222  17.349 -0.1709  0.0656  0.4193
 6412SOL    HW130869   2.708   1.242  17.438 -0.1483 -1.0687  0.6765
 6412SOL    HW230870   2.690   1.292  17.304 -2.2827 -1.8790 -0.3198
 6413SOL     OW30871   0.450   1.556   1.918 -0.9079  0.0912  0.0220
 6413SOL    HW130872   0.542   1.535   1.902  0.2061  2.9693  2.6462
 6413SOL    HW230873   0.423   1.600   1.838 -0.0346 -1.7480 -1.2829
 6414SOL     OW30874   0.872   0.669  14.481 -0.4069 -0.3020  0.5696
 6414SOL    HW130875   0.880   0.712  14.566  0.0566  1.1671 -0.2094
 6414SOL    HW230876   0.966   0.651  14.482 -0.4649 -0.6333 -0.0210
 6415SOL     OW30877   0.891   3.645  10.428 -0.5425 -0.8666 -0.2856
 6415SOL    HW130878   0.950   3.620  10.499  1.3225 -0.9293 -1.8622
 6415SOL    HW230879   0.888   3.740  10.437  4.8958 -0.4210 -3.1507
 6416SOL     OW30880   0.074   1.444  13.048 -0.5717  0.3292  0.1964
 6416SOL    HW130881   0.121   1.361  13.061 -0.0443  0.6418  0.2812
 6416SOL    HW230882   0.006   1.452  13.115 -0.7551  2.7281 -0.2757
 6417SOL     OW30883   2.936   2.014   4.998 -0.5911  0.0383 -0.6255
 6417SOL    HW130884   3.007   1.992   4.938  1.3474 -2.3027  2.5127
 6417SOL    HW230885   2.965   2.094   5.042  1.3743 -1.2774  0.4544
 6418SOL     OW30886   2.697   1.378  15.240  0.8530 -0.5760  0.0382
 6418SOL    HW130887   2.722   1.354  15.329  2.5105 -0.7987 -0.4770
 6418SOL    HW230888   2.787   1.403  15.221  0.3537  1.7469  0.7849
 6419SOL     OW30889   2.840   3.957   5.925 -0.0615  0.2149 -0.2007
 6419SOL    HW130890   2.881   3.914   6.000 -2.4598  0.5006  1.3023
 6419SOL    HW230891   2.799   3.888   5.873 -1.4375 -0.4243  1.7183
 6420SOL     OW30892   3.649   2.974   2.966 -0.0943  0.1638 -0.0897
 6420SOL    HW130893   3.649   2.905   3.032 -3.4744  1.8170  1.6312
 6420SOL    HW230894   3.657   3.051   3.023 -1.8930 -1.4840  2.3669
 6421SOL     OW30895   1.279   1.007   5.254 -0.0807  0.0377  0.3058
 6421SOL    HW130896   1.366   0.990   5.218 -0.5058 -2.0091  0.2190
 6421SOL    HW230897   1.309   0.984   5.342  2.9552  0.7778 -0.5500
 6422SOL     OW30898   3.030   1.769   7.079  0.1873  0.4408  0.8153
 6422SOL    HW130899   2.939   1.760   7.109  0.5080 -0.1076  1.6039
 6422SOL    HW230900   3.074   1.708   7.138 -0.3496  0.5584  1.3437
 6423SOL     OW30901   3.431   4.390  14.165  0.3718 -0.1565 -0.2773
 6423SOL    HW130902   3.337   4.379  14.149  0.4757  1.6294 -2.0376
 6423SOL    HW230903   3.436   4.339  14.246 -1.9544  0.2209  0.1209
 6424SOL     OW30904   0.720   1.795   7.738  0.4912  0.0375 -0.1681
 6424SOL    HW130905   0.680   1.714   7.771 -0.2362 -0.5866 -2.6257
 6424SOL    HW230906   0.655   1.817   7.672  1.3959 -0.5712 -1.2591
 6425SOL     OW30907   3.980   4.413   4.792 -0.2961  0.3219  0.5293
 6425SOL    HW130908   3.901   4.411   4.845 -1.2732  1.3962 -0.8688
 6425SOL    HW230909   4.022   4.494   4.822  0.6651 -0.0798  0.2750
 6426SOL     OW30910   4.643   4.478   7.533 -0.3144  0.2512 -0.0337
 6426SOL    HW130911   4.712   4.528   7.576 -0.0787 -1.9492  2.1607
 6426SOL    HW230912   4.563   4.515   7.570 -1.2965 -1.9932  0.0733
 6427SOL     OW30913   1.952   3.681   7.055 -0.1156 -0.8166 -0.3949
 6427SOL    HW130914   2.037   3.681   7.100 -0.2695  2.1013 -0.1419
 6427SOL    HW230915   1.901   3.698   7.134 -1.3525  2.0063 -1.8161
 6428SOL     OW30916   4.378   1.806   6.692 -0.1869 -0.7983  0.3365
 6428SOL    HW130917   4.338   1.763   6.767 -1.0034  2.7834  1.9451
 6428SOL    HW230918   4.453   1.749   6.677 -0.4006 -0.5711 -1.6370
 6429SOL     OW30919   2.784   0.509  13.744  0.7145  0.3186 -0.5920
 6429SOL    HW130920   2.872   0.538  13.767 -0.6419  3.7402  0.3441
 6429SOL    HW230921   2.784   0.524  13.650 -1.4096  1.2655 -0.4450
 6430SOL     OW30922   4.383   3.872   7.296  0.3324  0.0249  0.1439
 6430SOL    HW130923   4.400   3.800   7.357 -1.3619  0.3392  0.9730
 6430SOL    HW230924   4.437   3.851   7.220 -0.4040  1.2524 -0.7262
 6431SOL     OW30925   1.673   1.941  11.258  0.7810  0.0725  0.7265
 6431SOL    HW130926   1.715   2.026  11.275  0.5270  0.4815 -0.6956
 6431SOL    HW230927   1.743   1.878  11.277 -0.0567 -0.9402  0.4514
 6432SOL     OW30928   2.931   4.412   1.999 -0.4271 -0.0167  0.1611
 6432SOL    HW130929   2.985   4.428   1.922 -1.6722  0.2092 -0.6717
 6432SOL    HW230930   2.985   4.344   2.039  1.0380 -0.3139 -2.3019
 6433SOL     OW30931   2.918   2.076   6.450  0.1000  0.3568 -0.3627
 6433SOL    HW130932   2.893   1.995   6.494  1.3851 -0.5408 -1.2861
 6433SOL    HW230933   3.007   2.088   6.482 -0.1813 -0.0330  0.5607
 6434SOL     OW30934   3.439   2.868   4.956 -0.1873  0.0995  0.1439
 6434SOL    HW130935   3.514   2.822   4.995  0.4455  0.9234 -0.0853
 6434SOL    HW230936   3.484   2.952   4.945 -0.8537  0.2145 -1.7356
 6435SOL     OW30937   4.141   0.250   6.055  0.6673 -0.0148 -0.3810
 6435SOL    HW130938   4.166   0.164   6.023 -1.3741 -0.2936 -1.2374
 6435SOL    HW230939   4.226   0.288   6.077 -0.8449  2.8506  0.5980
 6436SOL     OW30940   2.244   0.845   8.395  0.3970 -0.5218 -0.4987
 6436SOL    HW130941   2.268   0.933   8.422 -0.3109 -0.6692  0.5936
 6436SOL    HW230942   2.323   0.829   8.343  1.9179  0.6032  1.4749
 6437SOL     OW30943   2.743   3.395   8.231 -0.0950  0.8234  0.2755
 6437SOL    HW130944   2.835   3.372   8.243 -0.7841 -1.4058  1.1956
 6437SOL    HW230945   2.729   3.415   8.323 -1.9013  1.0709 -0.0414
 6438SOL     OW30946   2.666   0.796   5.783  0.3555  0.7216 -0.0095
 6438SOL    HW130947   2.620   0.728   5.734 -0.1962 -1.0007  2.8765
 6438SOL    HW230948   2.604   0.831   5.848 -0.5664  1.0613 -1.0673
 6439SOL     OW30949   2.469   2.621  11.529  0.0031 -0.0651 -0.4868
 6439SOL    HW130950   2.487   2.610  11.435  0.7939 -2.0754 -0.0928
 6439SOL    HW230951   2.476   2.530  11.558  0.1271 -0.1731 -0.8582
 6440SOL     OW30952   3.473   3.207   6.437 -0.0529 -0.1191  0.0409
 6440SOL    HW130953   3.425   3.130   6.467 -0.9761  0.2909 -0.3845
 6440SOL    HW230954   3.536   3.168   6.377  1.5817  1.7818  0.5209
 6441SOL     OW30955   1.102   0.159   2.368  0.3301  0.4847 -0.4047
 6441SOL    HW130956   1.103   0.097   2.441  0.4046 -0.1037 -0.9095
 6441SOL    HW230957   1.125   0.238   2.417 -0.8103 -0.5574  1.8109
 6442SOL     OW30958   0.602   4.109   0.043  0.3803  0.5760  0.2516
 6442SOL    HW130959   0.679   4.158   0.015 -0.1207  0.9147 -0.5283
 6442SOL    HW230960   0.533   4.140  17.723  1.2517  1.9011 -0.0501
 6443SOL     OW30961   2.909   1.315  11.021 -0.2744 -0.2425  0.0416
 6443SOL    HW130962   2.898   1.239  11.077  0.5495  1.0162  1.9160
 6443SOL    HW230963   2.895   1.389  11.081 -0.1082 -0.1931  0.0181
 6444SOL     OW30964   4.608   2.163   6.152 -0.3030  0.3873 -0.0441
 6444SOL    HW130965   4.604   2.252   6.115 -1.4455  0.2067 -0.3336
 6444SOL    HW230966   4.658   2.111   6.090 -0.4563  0.5730 -0.3235
 6445SOL     OW30967   0.761   0.029   4.468  0.1534  0.4782 -0.3404
 6445SOL    HW130968   0.767   0.122   4.447  0.6053  0.8936  1.6446
 6445SOL    HW230969   0.675   0.021   4.427  0.7883  1.4404 -1.8572
 6446SOL     OW30970   2.419   3.633   1.717  0.0667 -0.2642  0.3458
 6446SOL    HW130971   2.511   3.657   1.722  0.0389 -0.4541  1.8882
 6446SOL    HW230972   2.379   3.706   1.765  1.2635  0.5141  0.1596
 6447SOL     OW30973   3.458   4.046  14.290  0.1515  0.2061  0.3487
 6447SOL    HW130974   3.454   4.039  14.194  0.1685  1.7061  0.2436
 6447SOL    HW230975   3.372   4.077  14.315  1.4435  1.6894  2.9034
 6448SOL     OW30976   0.783   1.194   3.857 -0.1050 -0.1472  0.4313
 6448SOL    HW130977   0.836   1.119   3.831  0.2549  0.3957 -0.3890
 6448SOL    HW230978   0.707   1.154   3.900  0.4744 -0.5354  1.0859
 6449SOL     OW30979   0.961   4.267   0.907 -0.1718  0.1950  0.4622
 6449SOL    HW130980   0.875   4.305   0.887  0.5214  0.4540 -1.9991
 6449SOL    HW230981   1.001   4.338   0.957  1.1527  0.4963 -1.0445
 6450SOL     OW30982   2.811   1.934   2.746  0.3305 -0.0538 -0.3097
 6450SOL    HW130983   2.856   2.005   2.791  1.3153 -1.5209  0.9989
 6450SOL    HW230984   2.802   1.967   2.656  0.9901  0.7817 -0.0722
 6451SOL     OW30985   3.677   4.396   7.177 -0.1158 -0.1536  0.2565
 6451SOL    HW130986   3.651   4.364   7.264 -0.7882 -2.7601 -0.8740
 6451SOL    HW230987   3.595   4.376   7.131 -0.6543  1.7521  0.3822
 6452SOL     OW30988   2.794   2.846   5.899  0.0881  0.4661  0.1687
 6452SOL    HW130989   2.849   2.898   5.959 -1.2897  0.9384  1.0219
 6452SOL    HW230990   2.812   2.758   5.931  2.0128  0.3593 -1.2157
 6453SOL     OW30991   1.187   1.821  15.816 -0.3217  0.3829 -0.6789
 6453SOL    HW130992   1.159   1.769  15.891 -0.9109  2.5871  0.6497
 6453SOL    HW230993   1.217   1.898  15.866  0.5494  0.1715 -0.8799
 6454SOL     OW30994   1.684   2.985   9.318 -0.3711  0.0119 -0.4729
 6454SOL    HW130995   1.737   3.054   9.357  0.2436 -0.9467  0.3885
 6454SOL    HW230996   1.656   2.942   9.399  0.1005  1.1045  0.2747
 6455SOL     OW30997   0.239   4.727  11.381 -0.1928  0.3969  0.6475
 6455SOL    HW130998   0.310   4.734  11.443  0.6229  2.1213 -0.4734
 6455SOL    HW230999   0.287   4.723  11.298  0.7051  1.1717  1.1356
 6456SOL     OW31000   0.592   2.576   9.452  0.3829  0.0333  0.0432
 6456SOL    HW131001   0.687   2.572   9.457  0.4331 -0.1095 -0.8917
 6456SOL    HW231002   0.566   2.493   9.412  4.0139 -1.6583  1.2154
 6457SOL     OW31003   0.713   3.637   4.579  0.2826 -0.3611 -0.0713
 6457SOL    HW131004   0.764   3.700   4.630 -1.3372 -0.9058  2.2093
 6457SOL    HW231005   0.735   3.677   4.494 -1.0736 -1.5157 -0.9538
 6458SOL     OW31006   3.768   3.360   7.547 -0.0956  0.0300  0.3268
 6458SOL    HW131007   3.708   3.361   7.473  0.6344 -1.2951 -0.2829
 6458SOL    HW231008   3.739   3.290   7.606  1.8231  1.2467  2.7224
 6459SOL     OW31009   2.293   4.329   4.730  0.2914 -0.9535 -0.3071
 6459SOL    HW131010   2.211   4.333   4.779 -0.9763 -0.3636 -2.4455
 6459SOL    HW231011   2.282   4.261   4.664  1.5129  1.6768 -3.2600
 6460SOL     OW31012   0.759   4.622   2.836  0.1418 -0.1391  0.4357
 6460SOL    HW131013   0.768   4.699   2.781 -1.0380  0.1012  0.5806
 6460SOL    HW231014   0.672   4.604   2.799 -0.7662  0.8450  2.1249
 6461SOL     OW31015   3.372   3.135   3.540  0.1871  0.3697  0.3321
 6461SOL    HW131016   3.462   3.126   3.571  0.2733 -3.5234 -0.9905
 6461SOL    HW231017   3.395   3.160   3.451 -0.7955  1.4789  0.3947
 6462SOL     OW31018   2.426   4.499   2.097 -0.7579 -0.0725  0.2114
 6462SOL    HW131019   2.496   4.438   2.072  2.2064  3.5662 -0.4336
 6462SOL    HW231020   2.440   4.501   2.192  2.1320  1.0021 -0.2311
 6463SOL     OW31021   0.629   1.667   0.053 -1.0817 -0.0507  0.4879
 6463SOL    HW131022   0.649   1.755   0.086  0.7507  0.0606 -0.9119
 6463SOL    HW231023   0.628   1.621   0.137  0.3469  0.3374  0.7157
 6464SOL     OW31024   0.980   0.347  12.050  0.2573  0.5716  0.3793
 6464SOL    HW131025   0.921   0.408  12.093  0.3570  0.7436  0.2766
 6464SOL    HW231026   1.064   0.384  12.079  0.8417 -1.0277  0.7135
 6465SOL     OW31027   3.979   1.430   5.106  0.4724  0.2796  0.0705
 6465SOL    HW131028   4.004   1.462   5.192  0.0295 -2.1573  1.0971
 6465SOL    HW231029   3.904   1.372   5.117  1.0261 -0.9735 -2.6699
 6466SOL     OW31030   4.250   2.395  10.258 -0.0843 -0.3260 -0.2469
 6466SOL    HW131031   4.157   2.394  10.280  0.2588  0.4779  1.2325
 6466SOL    HW231032   4.275   2.308  10.290 -0.2047 -1.3535 -2.9321
 6467SOL     OW31033   4.444   2.681   8.713  0.5576  0.0905 -0.2900
 6467SOL    HW131034   4.497   2.693   8.634  2.5916 -0.4097  0.9810
 6467SOL    HW231035   4.475   2.597   8.747  1.4369  0.4716 -0.1326
 6468SOL     OW31036   1.982   1.286  14.332  0.3279 -0.5969  0.4477
 6468SOL    HW131037   2.016   1.219  14.274 -2.5208  1.1951 -3.3197
 6468SOL    HW231038   1.894   1.252  14.348 -0.0275 -0.1825 -0.6143
 6469SOL     OW31039   2.135   0.832   4.317 -0.8554  0.6817  0.3366
 6469SOL    HW131040   2.065   0.772   4.292 -2.3624  2.2477  0.7946
 6469SOL    HW231041   2.140   0.829   4.413  0.4032 -1.2582  0.2135
 6470SOL     OW31042   2.674   3.241   1.801  0.3077 -0.7839  0.3577
 6470SOL    HW131043   2.610   3.296   1.756  1.8046 -1.1860 -2.2972
 6470SOL    HW231044   2.752   3.297   1.798  2.3832 -3.6900  0.3714
 6471SOL     OW31045   2.677   3.182   4.001 -0.2186  0.2758 -0.1176
 6471SOL    HW131046   2.629   3.126   4.062 -1.5671 -0.4964 -1.8893
 6471SOL    HW231047   2.630   3.156   3.922 -0.5926  0.7468 -0.0475
 6472SOL     OW31048   0.961   2.388   2.593  0.3051 -0.1913  0.1775
 6472SOL    HW131049   0.916   2.306   2.573  0.2838 -0.0962 -0.1590
 6472SOL    HW231050   0.887   2.437   2.629  0.5074 -0.4981  1.0147
 6473SOL     OW31051   1.974   1.413   3.081  0.0563 -0.0827 -0.1357
 6473SOL    HW131052   1.961   1.437   2.990 -1.4635  2.6803  0.8178
 6473SOL    HW231053   1.884   1.416   3.111 -0.3382 -0.9441 -1.2427
 6474SOL     OW31054   3.570   1.000   4.880 -0.3023 -0.0535  0.4986
 6474SOL    HW131055   3.585   1.024   4.972 -2.1555  0.3282  0.6983
 6474SOL    HW231056   3.643   0.945   4.852 -0.4016  0.2761 -0.3861
 6475SOL     OW31057   0.020   1.556  14.063  0.1002 -0.2773  0.1497
 6475SOL    HW131058   0.057   1.583  14.147  1.3099 -0.8837 -0.1922
 6475SOL    HW231059   4.720   1.472  14.093 -1.7664  0.2011 -0.7207
 6476SOL     OW31060   1.895   4.373   1.557  0.4276 -0.4291 -0.1344
 6476SOL    HW131061   1.904   4.463   1.588 -0.8391 -0.1710 -0.4938
 6476SOL    HW231062   1.824   4.385   1.493  0.9759  0.6217 -0.5471
 6477SOL     OW31063   0.571   2.138   0.593  0.4467  0.0179 -0.4778
 6477SOL    HW131064   0.631   2.193   0.643 -0.0924 -0.0335  0.2324
 6477SOL    HW231065   0.595   2.055   0.634  0.6540  0.6222  0.6397
 6478SOL     OW31066   3.629   0.699   7.627 -0.1302 -0.6435 -0.7755
 6478SOL    HW131067   3.545   0.738   7.652  0.9217 -0.3152  2.2937
 6478SOL    HW231068   3.687   0.772   7.602 -0.3190 -0.6759 -1.3041
 6479SOL     OW31069   3.256   2.378   6.682 -0.5639  0.2871 -0.1240
 6479SOL    HW131070   3.338   2.397   6.636 -0.4972  0.6864  0.1553
 6479SOL    HW231071   3.277   2.427   6.762 -0.7913  0.4760 -0.1793
 6480SOL     OW31072   4.192   4.711   3.273  0.2728  0.0916 -0.2779
 6480SOL    HW131073   4.280   0.005   3.249 -0.1414  0.6118 -1.1318
 6480SOL    HW231074   4.222   4.631   3.317  1.5890  1.7772  1.8633
 6481SOL     OW31075   0.672   1.569   6.791  0.1226 -0.5115  0.0339
 6481SOL    HW131076   0.679   1.640   6.855 -1.0468 -1.2088  0.9512
 6481SOL    HW231077   0.628   1.615   6.720 -0.5212 -0.9369  0.1568
 6482SOL     OW31078   4.692   3.322   5.774  0.2460 -0.0798 -0.0935
 6482SOL    HW131079   4.667   3.390   5.836  1.3232  0.5402 -0.3266
 6482SOL    HW231080   4.611   3.271   5.776 -1.1794  2.1797 -0.7889
 6483SOL     OW31081   1.467   2.349   6.012 -0.0770  0.1350 -0.0983
 6483SOL    HW131082   1.523   2.396   6.074  1.2287  0.6285 -1.6285
 6483SOL    HW231083   1.496   2.395   5.933 -0.4846 -1.4404 -1.1556
 6484SOL     OW31084   0.235   3.548  12.189 -0.0596  0.0690 -0.3724
 6484SOL    HW131085   0.261   3.539  12.281 -0.0514  2.2962 -0.1542
 6484SOL    HW231086   0.213   3.641  12.180 -2.4224 -0.4590  0.1302
 6485SOL     OW31087   1.337   0.994   1.242  0.8458 -0.1333  0.1925
 6485SOL    HW131088   1.390   0.961   1.170  0.0173 -0.8472 -0.0883
 6485SOL    HW231089   1.363   0.937   1.314  2.2082  2.2857  1.6337
 6486SOL     OW31090   2.277   0.082   4.087 -0.0789  0.0725  0.1991
 6486SOL    HW131091   2.199   0.103   4.035  0.2874  1.0781  0.0721
 6486SOL    HW231092   2.297   4.733   4.045 -1.8558 -0.1789 -0.1557
 6487SOL     OW31093   1.509   4.068  12.503 -0.2287 -0.0084  0.8084
 6487SOL    HW131094   1.488   4.120  12.580  3.2118 -0.0586  1.7736
 6487SOL    HW231095   1.473   3.983  12.528 -0.7243  0.3760  1.3873
 6488SOL     OW31096   0.473   1.084  14.987 -0.9053  0.0087  0.5534
 6488SOL    HW131097   0.407   1.075  14.918  1.7332 -0.2655 -1.9162
 6488SOL    HW231098   0.541   1.118  14.928 -2.0266  0.2373 -0.6138
 6489SOL     OW31099   1.709   1.385  16.796 -0.3643  0.0197 -0.1086
 6489SOL    HW131100   1.760   1.360  16.873  0.9762 -1.2993 -1.4240
 6489SOL    HW231101   1.780   1.389  16.732 -0.3491  0.8955 -0.0297
 6490SOL     OW31102   4.165   3.139  10.286  0.1389  0.3647 -0.5332
 6490SOL    HW131103   4.153   3.077  10.357 -0.4687 -1.2162 -2.0029
 6490SOL    HW231104   4.089   3.125  10.229  0.3552 -1.3275 -0.4066
 6491SOL     OW31105   4.295   2.799   7.217  0.6023  0.4558 -0.3098
 6491SOL    HW131106   4.330   2.771   7.132  0.8989  0.5766 -0.2281
 6491SOL    HW231107   4.293   2.893   7.200 -1.3768  0.8476  2.2250
 6492SOL     OW31108   0.302   1.804   5.446  1.1745  0.2806  0.2331
 6492SOL    HW131109   0.349   1.887   5.445  0.3706  0.7443  1.1252
 6492SOL    HW231110   0.269   1.813   5.535  0.5067  0.2276 -0.0063
 6493SOL     OW31111   0.910   0.614   8.653 -0.5033 -0.8281 -0.5411
 6493SOL    HW131112   0.849   0.670   8.702  0.8944  1.2833 -1.2158
 6493SOL    HW231113   0.850   0.589   8.583 -0.9827  1.3533 -0.9023
 6494SOL     OW31114   2.182   0.501  13.064 -0.2344 -0.3604  0.8005
 6494SOL    HW131115   2.129   0.577  13.038  2.1269  1.2189  0.6104
 6494SOL    HW231116   2.122   0.453  13.122  0.5278  0.7548  2.5057
 6495SOL     OW31117   0.905   4.298  11.786  0.2042 -0.2460  0.0282
 6495SOL    HW131118   0.918   4.393  11.790 -0.4918 -0.1369 -0.4873
 6495SOL    HW231119   0.993   4.275  11.757  0.2862  1.2096 -0.8379
 6496SOL     OW31120   1.443   2.311   8.828  0.8602  0.0132 -0.0217
 6496SOL    HW131121   1.519   2.367   8.846 -0.2963  1.6620 -0.2654
 6496SOL    HW231122   1.486   2.241   8.778 -1.2271 -0.5961 -0.9529
 6497SOL     OW31123   3.326   0.468   0.771  0.6160 -0.2842 -0.3963
 6497SOL    HW131124   3.258   0.472   0.838 -1.5980 -0.2971 -2.6606
 6497SOL    HW231125   3.407   0.493   0.816  0.2311 -1.4013  0.9386
 6498SOL     OW31126   1.372   3.598   7.052 -0.2729  0.0740 -0.1644
 6498SOL    HW131127   1.403   3.662   7.116  3.4215  0.0395 -1.8852
 6498SOL    HW231128   1.290   3.637   7.021 -1.1994  0.1604  2.3920
 6499SOL     OW31129   4.025   4.255   7.912 -0.2350 -0.1216  0.2298
 6499SOL    HW131130   4.093   4.283   7.852  1.7045 -2.7899  1.1897
 6499SOL    HW231131   3.966   4.331   7.919  0.5245  0.3947  1.0625
 6500SOL     OW31132   0.509   0.984   8.187  0.0751  0.2329  0.3868
 6500SOL    HW131133   0.491   0.895   8.218  0.0541  0.5066  1.1751
 6500SOL    HW231134   0.435   1.019   8.236 -2.6131 -2.4362 -1.8145
 6501SOL     OW31135   3.898   2.967  13.096  0.0051  0.0901  0.1221
 6501SOL    HW131136   3.866   3.011  13.017 -2.5057 -0.7040  0.6842
 6501SOL    HW231137   3.965   2.907  13.063  1.1614  1.6543 -0.3782
 6502SOL     OW31138   3.479   4.647   7.652  0.0354  0.3723  0.5547
 6502SOL    HW131139   3.443   4.679   7.569  1.6399  0.5521 -0.0596
 6502SOL    HW231140   3.488   4.718   7.717  0.7884  2.1364 -1.4948
 6503SOL     OW31141   4.504   4.256   4.213  0.4840 -0.2023  0.2124
 6503SOL    HW131142   4.465   4.342   4.225 -0.6529 -0.6165 -0.5042
 6503SOL    HW231143   4.567   4.246   4.285 -0.3250 -0.2097  0.9251
 6504SOL     OW31144   0.058   1.692   8.323  0.2358 -0.3460 -0.1395
 6504SOL    HW131145   0.067   1.696   8.418  0.2631 -0.9533 -0.1174
 6504SOL    HW231146   0.107   1.769   8.294  0.0787 -1.0374 -2.2052
 6505SOL     OW31147   0.292   3.136  11.989 -0.0824  0.5011 -0.1798
 6505SOL    HW131148   0.374   3.178  12.016 -0.7383  0.1546  2.4273
 6505SOL    HW231149   0.226   3.198  12.018 -1.7405 -1.4422  0.2119
 6506SOL     OW31150   0.308   1.854   7.946 -0.3772  0.8880  0.6317
 6506SOL    HW131151   0.301   1.797   8.023  0.2665  0.1634  0.1506
 6506SOL    HW231152   0.399   1.884   7.938 -0.8546  2.0346 -0.4612
 6507SOL     OW31153   1.356   4.588   8.801 -0.1360 -0.0784  0.0602
 6507SOL    HW131154   1.414   4.660   8.826  1.0355 -0.6585 -1.0022
 6507SOL    HW231155   1.404   4.513   8.835 -0.7491 -1.1182 -1.3559
 6508SOL     OW31156   3.285   3.016   9.518 -0.3455  0.4177  0.9490
 6508SOL    HW131157   3.216   2.968   9.472  0.0244  0.0572  0.7738
 6508SOL    HW231158   3.236   3.042   9.596 -0.7752  0.0795  0.7881
 6509SOL     OW31159   3.303   3.597   4.514  0.4870 -0.0038 -0.5929
 6509SOL    HW131160   3.305   3.689   4.488 -1.2346 -0.2658 -1.6809
 6509SOL    HW231161   3.211   3.570   4.508 -0.3394  2.2824  1.7068
 6510SOL     OW31162   1.337   4.543   7.792 -0.4123 -0.1270  0.5800
 6510SOL    HW131163   1.324   4.507   7.880 -0.9233 -0.6891  0.2759
 6510SOL    HW231164   1.259   4.596   7.778  0.3231  0.2261 -2.1480
 6511SOL     OW31165   3.072   3.601   9.574 -0.4536 -0.3201 -0.2486
 6511SOL    HW131166   3.013   3.647   9.634 -1.9527  0.0577 -2.0008
 6511SOL    HW231167   3.130   3.546   9.626 -0.9689 -2.2422 -1.6879
 6512SOL     OW31168   0.109   0.541  11.350  0.1685  0.4760 -0.0276
 6512SOL    HW131169   0.103   0.460  11.299 -0.4747  0.8356 -0.5262
 6512SOL    HW231170   0.137   0.501  11.433  0.8929  0.0855 -0.4628
 6513SOL     OW31171   0.900   1.585  16.460  0.3044  0.1388 -0.8616
 6513SOL    HW131172   0.918   1.530  16.536  3.7093 -0.0454 -1.8011
 6513SOL    HW231173   0.845   1.528  16.405  1.9637 -1.9437 -0.3386
 6514SOL     OW31174   0.472   3.331   6.973  0.3155  0.1515  0.3606
 6514SOL    HW131175   0.480   3.320   6.878 -0.9491 -0.4637  0.3207
 6514SOL    HW231176   0.420   3.411   6.973  2.3512  1.4806  1.5997
 6515SOL     OW31177   3.210   2.990  11.756 -0.2028 -0.5617 -0.4020
 6515SOL    HW131178   3.244   2.907  11.790  2.5098  0.4070 -0.7097
 6515SOL    HW231179   3.164   2.952  11.681 -1.3626 -2.6321  1.3769
 6516SOL     OW31180   3.970   2.150   5.673 -0.4730  0.5769 -0.5747
 6516SOL    HW131181   4.000   2.127   5.585 -0.1564 -3.2352  0.5349
 6516SOL    HW231182   3.889   2.100   5.676  1.2788 -2.0628  2.1060
 6517SOL     OW31183   3.056   2.142   7.237  0.0251  0.1950 -0.1491
 6517SOL    HW131184   3.114   2.105   7.169  0.5992  0.7769  0.0254
 6517SOL    HW231185   3.047   2.228   7.196 -1.7114  0.0558 -0.0531
 6518SOL     OW31186   1.547   4.489   8.291  0.0001 -0.3620 -0.2970
 6518SOL    HW131187   1.511   4.546   8.359 -0.8595 -0.2236 -0.8783
 6518SOL    HW231188   1.603   4.439   8.351  1.0049 -0.4739 -1.3296
 6519SOL     OW31189   0.218   2.443   6.898  0.1309  0.2595 -0.0330
 6519SOL    HW131190   0.302   2.480   6.922  0.4344 -0.0380 -0.6285
 6519SOL    HW231191   0.213   2.464   6.804 -0.1993  2.2223  0.4284
 6520SOL     OW31192   3.352   0.664  12.667  0.4908  0.3222  0.7728
 6520SOL    HW131193   3.327   0.598  12.731  0.4016 -0.9733 -0.5824
 6520SOL    HW231194   3.411   0.613  12.611  1.3818  1.6217  0.5170
 6521SOL     OW31195   4.656   1.922   1.822 -0.0244 -0.1425 -0.4335
 6521SOL    HW131196   4.600   1.948   1.896  0.1520  1.4154 -0.8428
 6521SOL    HW231197   4.635   1.829   1.814 -1.2500 -0.0381  1.5251
 6522SOL     OW31198   0.948   1.369   4.091  0.1872 -0.3407  0.0076
 6522SOL    HW131199   0.885   1.359   4.019  1.6405 -0.2579 -1.2669
 6522SOL    HW231200   0.914   1.311   4.159 -2.0104  2.1578  1.0593
 6523SOL     OW31201   1.754   2.890   7.418 -0.1269 -0.5007 -0.0318
 6523SOL    HW131202   1.838   2.937   7.420 -1.2578  1.5314 -0.9366
 6523SOL    HW231203   1.699   2.961   7.385  1.2582 -0.4549 -2.2076
 6524SOL     OW31204   1.170   2.009   9.119  0.2464 -0.0363  0.0352
 6524SOL    HW131205   1.244   2.012   9.058 -0.8236  0.6439 -1.2426
 6524SOL    HW231206   1.214   1.966   9.192  0.7120  1.1005  0.4222
 6525SOL     OW31207   2.703   0.652   2.628 -0.0896  0.3715 -0.2691
 6525SOL    HW131208   2.641   0.664   2.556  0.7354  1.7342 -0.7483
 6525SOL    HW231209   2.647   0.599   2.686 -1.7848 -0.5959 -2.7796
 6526SOL     OW31210   4.430   3.008   2.123 -0.0082  0.4548 -0.2481
 6526SOL    HW131211   4.498   3.016   2.056 -0.4466 -0.2926 -0.7823
 6526SOL    HW231212   4.403   3.098   2.140  1.0462  0.5160  1.1122
 6527SOL     OW31213   3.085   3.873   5.360  0.2148 -0.1550 -0.0701
 6527SOL    HW131214   3.019   3.805   5.380 -1.4448  2.0347  1.9356
 6527SOL    HW231215   3.027   3.948   5.349  1.7735  1.2647  1.5795
 6528SOL     OW31216   0.042   1.894   2.197  0.2790 -0.2542 -0.3915
 6528SOL    HW131217   0.089   1.976   2.213  1.3695 -1.0607  0.6387
 6528SOL    HW231218   4.687   1.924   2.205  0.0089 -1.4490  1.0628
 6529SOL     OW31219   1.489   3.538   2.269 -0.1682 -0.2337  0.4797
 6529SOL    HW131220   1.443   3.621   2.279  2.2826  0.8410  2.6406
 6529SOL    HW231221   1.445   3.499   2.193 -2.8922 -0.0313  1.9765
 6530SOL     OW31222   3.008   3.885   7.770  0.2800  0.0581 -0.3346
 6530SOL    HW131223   2.946   3.830   7.723 -1.7236  1.5937  0.4873
 6530SOL    HW231224   3.078   3.823   7.787  0.3139  0.0028 -0.6878
 6531SOL     OW31225   2.326   4.693   5.988 -0.3368 -0.3503 -0.2697
 6531SOL    HW131226   2.293   4.672   5.901  1.5882  1.8900 -1.5432
 6531SOL    HW231227   2.248   4.663   6.036  2.9999 -3.2514  3.3160
 6532SOL     OW31228   3.664   2.177   7.360  0.5716  0.3838  0.6309
 6532SOL    HW131229   3.611   2.214   7.431 -0.0628  0.2998  0.1928
 6532SOL    HW231230   3.591   2.160   7.301  2.7046 -0.4697 -1.7161
 6533SOL     OW31231   2.842   4.076  11.513 -0.0979  0.4992 -0.6865
 6533SOL    HW131232   2.872   4.063  11.423 -0.2623  0.0726 -0.6799
 6533SOL    HW231233   2.832   3.985  11.540 -0.1202  0.5592 -0.4912
 6534SOL     OW31234   1.403   3.938  10.072 -0.4659  0.2340 -0.3707
 6534SOL    HW131235   1.395   3.874  10.142  1.6363  0.6414  0.2228
 6534SOL    HW231236   1.498   3.951  10.068 -0.0520 -2.7625 -0.2462
 6535SOL     OW31237   4.704   2.656   4.785  0.3271 -0.3239 -0.3147
 6535SOL    HW131238   4.722   2.741   4.745  1.4865  0.3150  1.5888
 6535SOL    HW231239   4.612   2.665   4.810  0.5226 -0.8363  0.5743
 6536SOL     OW31240   3.530   1.187   0.459  0.5714  0.0870 -0.2105
 6536SOL    HW131241   3.509   1.280   0.469  1.7506  0.2086  1.1021
 6536SOL    HW231242   3.507   1.160   0.547 -2.4627 -1.0002 -1.3237
 6537SOL     OW31243   3.584   0.888  11.441 -0.4135  0.0914 -0.2312
 6537SOL    HW131244   3.525   0.961  11.419  2.4010  1.2993 -3.6972
 6537SOL    HW231245   3.614   0.905  11.530  0.1354 -0.0852 -0.3858
 6538SOL     OW31246   3.563   0.708  17.357 -0.0789 -0.4829 -0.7933
 6538SOL    HW131247   3.657   0.721  17.358 -0.1694  0.0297  1.2878
 6538SOL    HW231248   3.549   0.657  17.437 -1.8004  3.2161  1.2678
 6539SOL     OW31249   1.979   3.270   5.275 -0.7482  0.2086 -0.4394
 6539SOL    HW131250   1.978   3.209   5.201  0.7108  0.7653 -0.9205
 6539SOL    HW231251   2.030   3.219   5.339  0.3491  1.9838  0.1180
 6540SOL     OW31252   3.937   1.726   3.353  0.0947 -0.2777  0.0409
 6540SOL    HW131253   3.879   1.774   3.412  0.7076  1.1018 -0.4755
 6540SOL    HW231254   3.879   1.706   3.279 -0.0104  3.0127 -0.7527
 6541SOL     OW31255   2.856   4.190   9.948  0.2475 -0.4978  0.1537
 6541SOL    HW131256   2.898   4.156   9.869 -0.0900 -1.9175  0.5709
 6541SOL    HW231257   2.917   4.183  10.022 -1.7596  2.4085  2.0661
 6542SOL     OW31258   1.651   2.823  14.270  0.5337 -0.3561  0.0173
 6542SOL    HW131259   1.560   2.804  14.247  1.1326 -1.1428 -1.7260
 6542SOL    HW231260   1.688   2.865  14.192  2.8906  0.8820  1.7824
 6543SOL     OW31261   1.965   3.134   9.611  0.2461  0.1933  0.4615
 6543SOL    HW131262   1.982   3.058   9.554  0.5925  0.9613 -0.4575
 6543SOL    HW231263   2.044   3.185   9.594  0.3601  0.0685  0.6185
 6544SOL     OW31264   4.488   2.853   3.359  0.2207 -0.2508 -0.0740
 6544SOL    HW131265   4.570   2.893   3.332  0.8393 -2.1197 -0.9635
 6544SOL    HW231266   4.516   2.765   3.333 -0.5376 -0.5797  0.2028
 6545SOL     OW31267   4.295   3.369   6.061  0.1141 -0.5093  0.5032
 6545SOL    HW131268   4.219   3.331   6.018 -3.0396  3.9575  2.0954
 6545SOL    HW231269   4.300   3.453   6.016  2.3047 -0.9613 -0.1085
 6546SOL     OW31270   4.254   2.362   0.307 -0.1617 -0.5204 -0.0707
 6546SOL    HW131271   4.232   2.412   0.386  0.1512 -0.5902  0.0609
 6546SOL    HW231272   4.187   2.296   0.289 -0.6483 -0.3440  1.0495
 6547SOL     OW31273   2.521   2.609   8.475  0.4651 -0.0342 -0.3307
 6547SOL    HW131274   2.542   2.697   8.504 -2.4212  0.4844  0.1178
 6547SOL    HW231275   2.595   2.560   8.511  0.0874  0.9510  1.7473
 6548SOL     OW31276   2.690   3.518   3.114 -0.0685 -0.0950 -0.2272
 6548SOL    HW131277   2.768   3.479   3.075  1.8139  1.3223  2.1488
 6548SOL    HW231278   2.648   3.443   3.158  0.6929 -0.4203 -0.0599
 6549SOL     OW31279   1.410   3.534  12.489 -0.1592  0.5239  0.2732
 6549SOL    HW131280   1.454   3.614  12.459 -0.1122  1.0415  1.6957
 6549SOL    HW231281   1.386   3.491  12.407  0.0971  0.9135 -0.0071
 6550SOL     OW31282   4.110   2.804   8.089 -0.0809 -0.0720  0.0295
 6550SOL    HW131283   4.169   2.870   8.052 -1.2947  0.2904 -1.2834
 6550SOL    HW231284   4.174   2.736   8.110  0.6245  0.7964  0.6649
 6551SOL     OW31285   2.073   2.603   1.602 -0.0219  0.3862 -0.4886
 6551SOL    HW131286   2.151   2.648   1.570  1.3134 -3.1205 -2.2374
 6551SOL    HW231287   2.115   2.516   1.597  0.7249  0.7652 -0.8715
 6552SOL     OW31288   0.113   4.631   5.369  0.8006  0.1250 -0.2303
 6552SOL    HW131289   0.054   4.619   5.295  0.4346 -0.1987  0.1111
 6552SOL    HW231290   0.070   4.703   5.416  0.1483 -0.3719 -0.0549
 6553SOL     OW31291   1.703   0.231  11.216  0.3711  0.4262  0.2838
 6553SOL    HW131292   1.682   0.269  11.301 -1.4755 -3.2767  1.4793
 6553SOL    HW231293   1.744   0.147  11.238  0.1812 -0.3422 -2.2434
 6554SOL     OW31294   0.694   0.850  15.399 -0.3237  0.3447 -0.0301
 6554SOL    HW131295   0.667   0.840  15.308  0.0868  1.7089 -0.2884
 6554SOL    HW231296   0.667   0.765  15.435  1.4329  0.8464  2.4325
 6555SOL     OW31297   2.653   2.938   4.360 -1.0113 -0.0803  0.2931
 6555SOL    HW131298   2.669   2.866   4.421  0.3957 -0.6507 -0.7678
 6555SOL    HW231299   2.568   2.971   4.391 -1.1609  1.3476 -1.6338
 6556SOL     OW31300   0.811   3.195   3.110  0.2021 -0.3333 -0.5671
 6556SOL    HW131301   0.762   3.186   3.029  1.0102  0.5689 -1.1471
 6556SOL    HW231302   0.750   3.156   3.173 -0.1139 -0.8706 -1.2107
 6557SOL     OW31303   2.577   3.808   6.587  0.4418  0.3862 -0.2056
 6557SOL    HW131304   2.500   3.855   6.617  0.9546 -0.2027  1.9912
 6557SOL    HW231305   2.585   3.858   6.506  1.3070  1.7743  0.7408
 6558SOL     OW31306   3.050   1.818   4.680  0.7285  0.3560 -0.2253
 6558SOL    HW131307   2.999   1.766   4.618  1.7727 -2.5224  1.3327
 6558SOL    HW231308   3.092   1.745   4.725  2.4012  1.1220 -0.5133
 6559SOL     OW31309   1.412   0.130   6.895  0.3239 -0.6227  0.1407
 6559SOL    HW131310   1.393   0.219   6.865  1.9788  0.2929  1.7546
 6559SOL    HW231311   1.421   0.089   6.809 -1.1094 -1.9933  0.6595
 6560SOL     OW31312   2.363   3.095   8.648  0.3817  0.2676 -0.1051
 6560SOL    HW131313   2.338   3.005   8.628  1.4727 -0.7383  3.1004
 6560SOL    HW231314   2.299   3.125   8.713  0.3335 -0.9508  0.4010
 6561SOL     OW31315   3.823   4.413   5.073  0.5789 -0.6187 -0.8991
 6561SOL    HW131316   3.745   4.385   5.122  0.6299  1.9703  0.6703
 6561SOL    HW231317   3.810   4.508   5.083 -1.2936 -0.9524 -0.0772
 6562SOL     OW31318   1.178   2.753   7.778 -0.3291  0.6246 -0.1632
 6562SOL    HW131319   1.166   2.660   7.760 -1.0874  0.3737  1.6922
 6562SOL    HW231320   1.117   2.792   7.715 -0.5856 -0.9115 -0.8654
 6563SOL     OW31321   3.086   3.271   1.750  0.2763  0.2965 -0.0900
 6563SOL    HW131322   3.152   3.239   1.688  1.1501  2.4237 -0.2448
 6563SOL    HW231323   3.134   3.275   1.832 -1.4913 -2.3848  1.0826
 6564SOL     OW31324   2.454   4.008   5.499  0.3843 -0.1981  0.5836
 6564SOL    HW131325   2.387   4.068   5.533 -0.2532 -0.4153 -0.2947
 6564SOL    HW231326   2.480   4.038   5.412  0.3119 -0.2912  0.5296
 6565SOL     OW31327   3.886   2.746   5.602  0.6802  0.1627  0.0300
 6565SOL    HW131328   3.898   2.835   5.568  0.4511  0.7622  1.4780
 6565SOL    HW231329   3.876   2.699   5.520 -0.8692 -0.1105  0.3568
 6566SOL     OW31330   3.090   4.693   3.101  0.1778 -0.0219 -0.0059
 6566SOL    HW131331   3.034   0.028   3.133  1.3703  0.9727 -0.0808
 6566SOL    HW231332   3.167   0.013   3.084  0.4671 -0.6745 -0.8152
 6567SOL     OW31333   3.111   3.831   2.405 -0.1328  0.1211  1.0394
 6567SOL    HW131334   3.024   3.868   2.390 -0.2319 -0.3088  0.5524
 6567SOL    HW231335   3.102   3.736   2.394  2.5741  0.2723 -2.4072
 6568SOL     OW31336   0.788   2.386   6.905 -0.1368  0.6166 -0.8848
 6568SOL    HW131337   0.741   2.329   6.845  2.5444 -1.0203 -1.4524
 6568SOL    HW231338   0.733   2.356   6.977 -0.1885  0.8103 -0.8425
 6569SOL     OW31339   1.446   2.856   8.034 -0.2252 -0.8003 -0.0521
 6569SOL    HW131340   1.421   2.829   7.946 -0.3352 -1.4013  0.1615
 6569SOL    HW231341   1.435   2.950   8.023  1.8020 -0.8166 -2.0996
 6570SOL     OW31342   2.361   1.320   2.358 -0.2324  0.1861 -0.6302
 6570SOL    HW131343   2.367   1.397   2.302  1.0238  1.1851  0.8873
 6570SOL    HW231344   2.267   1.308   2.371  0.1218 -1.0206  0.7139
 6571SOL     OW31345   2.310   0.621   5.312 -0.3282 -0.5320 -0.6340
 6571SOL    HW131346   2.313   0.564   5.235 -1.5550 -1.6233  0.1291
 6571SOL    HW231347   2.221   0.605   5.344  0.2105 -1.9183  0.1288
 6572SOL     OW31348   0.733   2.803   2.391  0.2931  0.2848  0.2412
 6572SOL    HW131349   0.709   2.829   2.303 -0.0817  3.0295  1.1639
 6572SOL    HW231350   0.778   2.719   2.376 -0.8098 -0.9000  3.4949
 6573SOL     OW31351   1.700   3.229   4.659  0.0919 -0.1686 -0.4253
 6573SOL    HW131352   1.765   3.175   4.614  0.1675 -0.6669  0.2723
 6573SOL    HW231353   1.669   3.283   4.587 -1.2875  0.8822  0.9710
 6574SOL     OW31354   2.744   0.912   7.162 -0.7033 -0.1448 -0.0458
 6574SOL    HW131355   2.776   0.898   7.072  0.5241 -0.9185  0.5033
 6574SOL    HW231356   2.828   0.939   7.199  0.5205  0.5340 -3.2899
 6575SOL     OW31357   0.574   4.552   3.794 -0.2896 -0.0102  0.0316
 6575SOL    HW131358   0.656   4.522   3.835  0.2639 -0.4234 -1.3799
 6575SOL    HW231359   0.602   4.603   3.718 -1.2163 -1.9951 -1.6324
 6576SOL     OW31360   3.442   4.048   6.027 -0.1694  0.5274 -0.1096
 6576SOL    HW131361   3.485   4.129   6.055  0.0189 -0.2013  1.6991
 6576SOL    HW231362   3.354   4.085   6.021  0.4898  2.1312 -0.1092
 6577SOL     OW31363   0.163   2.135  11.286  0.3994  0.5032  0.2477
 6577SOL    HW131364   0.206   2.212  11.323 -0.9012  1.8457 -1.0604
 6577SOL    HW231365   0.075   2.150  11.320 -0.6689  0.7287 -2.6164
 6578SOL     OW31366   3.869   3.381   1.387 -0.1616  0.1136  0.1905
 6578SOL    HW131367   3.796   3.438   1.362  0.6576  0.1893 -2.0656
 6578SOL    HW231368   3.845   3.333   1.467  0.0077  0.4267  0.4296
 6579SOL     OW31369   2.143   3.233   5.510 -0.0543  0.0564 -0.7110
 6579SOL    HW131370   2.090   3.182   5.571  0.8643 -0.2062 -0.1303
 6579SOL    HW231371   2.178   3.306   5.561 -0.3849  0.3783 -0.9463
 6580SOL     OW31372   2.339   4.170   0.156  0.1921 -0.2268  0.6417
 6580SOL    HW131373   2.414   4.113   0.145 -0.0612 -0.4854  0.2660
 6580SOL    HW231374   2.378   4.223   0.226  1.7996  0.8183 -1.0567
 6581SOL     OW31375   0.869   2.564   2.795 -0.1878 -0.1056  0.5655
 6581SOL    HW131376   0.835   2.642   2.840 -1.2238 -1.0331  1.3817
 6581SOL    HW231377   0.960   2.558   2.826  0.1939  1.5335 -0.2252
 6582SOL     OW31378   1.494   3.761   7.909 -0.1573  0.3662  0.0432
 6582SOL    HW131379   1.521   3.737   7.821 -0.0607 -1.3416  0.5393
 6582SOL    HW231380   1.473   3.852   7.891 -1.4901 -0.1648 -1.1095
 6583SOL     OW31381   0.177   0.040   6.331 -0.3863 -0.6079 -0.6519
 6583SOL    HW131382   0.112   0.047   6.261 -1.6830  1.2665  0.7318
 6583SOL    HW231383   0.246   4.722   6.291 -1.3139 -0.5817 -2.2922
 6584SOL     OW31384   1.232   3.620  14.767 -0.2932  0.5491  0.2632
 6584SOL    HW131385   1.307   3.563  14.787  0.6102  0.7687 -2.4485
 6584SOL    HW231386   1.174   3.552  14.733 -2.4294  2.3678  0.2933
 6585SOL     OW31387   4.555   4.549  14.183  0.1128  0.1844  0.1903
 6585SOL    HW131388   4.490   4.479  14.180 -0.0748  0.3334  0.9261
 6585SOL    HW231389   4.629   4.496  14.212 -1.6960 -0.9829  2.6144
 6586SOL     OW31390   1.433   1.591   6.210  0.4631 -0.7543  0.3828
 6586SOL    HW131391   1.382   1.671   6.196  0.6184 -0.6490  0.4057
 6586SOL    HW231392   1.438   1.584   6.305 -1.1596  1.1838  0.6167
 6587SOL     OW31393   4.280   1.611   4.866 -0.1344 -0.3084 -0.0693
 6587SOL    HW131394   4.271   1.526   4.911  3.4653 -0.1849  0.9006
 6587SOL    HW231395   4.261   1.590   4.775 -0.2265 -1.1666  0.1435
 6588SOL     OW31396   2.947   0.084   5.930 -0.0905 -0.5226  0.0232
 6588SOL    HW131397   2.930   0.091   5.836 -0.2051 -1.4057 -0.0251
 6588SOL    HW231398   2.957   0.170   5.969  1.1538 -2.1022  3.2055
 6589SOL     OW31399   1.295   2.480  16.814 -0.7939 -0.3266  0.1051
 6589SOL    HW131400   1.336   2.402  16.777  0.0129  0.3955 -0.5035
 6589SOL    HW231401   1.249   2.519  16.739 -0.8643 -1.0361 -0.2209
 6590SOL     OW31402   2.142   1.390   6.557  0.4699 -0.5851 -0.4326
 6590SOL    HW131403   2.149   1.482   6.583 -2.4636 -0.1798 -1.0573
 6590SOL    HW231404   2.207   1.378   6.488 -2.1613 -0.4530 -2.9356
 6591SOL     OW31405   0.844   3.122   7.187 -0.2417 -0.0429  0.4185
 6591SOL    HW131406   0.886   3.166   7.114 -1.9058  1.3261  0.2984
 6591SOL    HW231407   0.918   3.132   7.247 -0.2276 -1.1686  0.5940
 6592SOL     OW31408   3.621   0.230  15.326  0.0775 -0.0641 -0.1303
 6592SOL    HW131409   3.614   0.258  15.234  1.5338 -0.4207 -0.3647
 6592SOL    HW231410   3.548   0.169  15.311 -2.2033  2.9392 -1.1288
 6593SOL     OW31411   4.574   1.821   8.174  0.7927  0.8597 -0.1242
 6593SOL    HW131412   4.640   1.755   8.195 -0.2250  0.1633  0.8500
 6593SOL    HW231413   4.492   1.773   8.161  1.2768  0.1440 -0.5709
 6594SOL     OW31414   0.170   0.325   5.365  0.1516  0.9447  0.7447
 6594SOL    HW131415   0.116   0.287   5.295 -1.0102  0.8822  1.6702
 6594SOL    HW231416   0.103   0.368   5.418  1.1467  2.7735  0.5023
 6595SOL     OW31417   2.497   0.526   5.714 -0.4970 -0.6224  0.3502
 6595SOL    HW131418   2.518   0.496   5.803  1.3195  2.5091  0.9911
 6595SOL    HW231419   2.588   0.520   5.685 -0.7567 -1.5793 -0.2450
 6596SOL     OW31420   4.121   0.599   2.575  0.3718  0.6504  0.2839
 6596SOL    HW131421   4.073   0.549   2.641  0.1752 -1.0397 -1.1715
 6596SOL    HW231422   4.101   0.538   2.505  0.9348  0.2833  0.4465
 6597SOL     OW31423   4.135   1.233   4.583  0.3455  0.2182 -0.0344
 6597SOL    HW131424   4.078   1.188   4.644 -0.9718  0.1651 -1.2843
 6597SOL    HW231425   4.183   1.158   4.549  2.1722  0.4098  2.1760
 6598SOL     OW31426   2.768   1.244   4.835  0.7490  0.2058 -0.3173
 6598SOL    HW131427   2.724   1.326   4.855 -1.4374 -0.6227 -1.6350
 6598SOL    HW231428   2.813   1.221   4.917  2.9401 -0.4744 -1.7112
 6599SOL     OW31429   2.413   1.113  13.368  0.1160  0.0205  0.5224
 6599SOL    HW131430   2.465   1.158  13.435  0.5501 -0.7483  0.7008
 6599SOL    HW231431   2.478   1.136  13.301 -2.5117 -0.1059 -2.0561
 6600SOL     OW31432   0.611   0.691   3.025 -0.0990 -0.0135  0.6792
 6600SOL    HW131433   0.669   0.758   2.989  1.8588 -2.3270 -0.4369
 6600SOL    HW231434   0.670   0.632   3.072 -0.2485  0.7257  1.7914
 6601SOL     OW31435   4.662   4.647   9.453  0.4402 -0.8106 -0.6267
 6601SOL    HW131436   4.666   4.628   9.359  0.1194  1.7075 -1.1470
 6601SOL    HW231437   4.581   4.698   9.457  1.8269  1.3067  0.4087
 6602SOL     OW31438   1.920   2.909   2.319  0.4820 -0.2213  0.2594
 6602SOL    HW131439   1.854   2.945   2.377  1.1016  2.1511 -0.5327
 6602SOL    HW231440   1.869   2.856   2.257 -0.8252  2.5164 -0.9648
 6603SOL     OW31441   0.276   1.354   6.579  0.6333 -0.2774 -0.3425
 6603SOL    HW131442   0.267   1.260   6.595 -0.4855  0.1828  1.7107
 6603SOL    HW231443   0.279   1.349   6.483 -2.0798  0.1836 -0.4574
 6604SOL     OW31444   3.643   3.069   6.267  0.6303 -0.6536 -0.3374
 6604SOL    HW131445   3.564   3.059   6.214 -0.2948  1.8823  0.5246
 6604SOL    HW231446   3.643   2.981   6.302  3.0755 -0.5799 -0.1678
 6605SOL     OW31447   0.951   1.327   7.559 -0.7102 -0.1853  0.2437
 6605SOL    HW131448   0.962   1.415   7.595 -0.2018 -0.7469  1.4410
 6605SOL    HW231449   0.856   1.319   7.562 -0.8725  0.9488 -2.2123
 6606SOL     OW31450   3.445   3.927  16.340  0.5788 -0.4278  0.4974
 6606SOL    HW131451   3.514   3.994  16.331 -1.7585  1.8890 -0.2390
 6606SOL    HW231452   3.456   3.888  16.427  1.6315 -0.1312  0.5040
 6607SOL     OW31453   2.174   3.911  12.979 -0.1888  0.0546 -0.0497
 6607SOL    HW131454   2.173   4.002  12.950 -1.2964  0.7564  2.2001
 6607SOL    HW231455   2.255   3.905  13.030  0.2152  1.6649 -0.5169
 6608SOL     OW31456   1.106   4.271   7.184  0.4646  0.3342 -0.0646
 6608SOL    HW131457   1.177   4.332   7.162  0.1940  0.7994  0.3408
 6608SOL    HW231458   1.140   4.211   7.118  1.4593  0.3602  0.4215
 6609SOL     OW31459   2.543   3.820   7.686 -0.4789 -0.0418  0.3978
 6609SOL    HW131460   2.498   3.902   7.664  2.3472  1.0229 -1.4712
 6609SOL    HW231461   2.578   3.854   7.768 -1.7499 -0.6831  1.1952
 6610SOL     OW31462   0.521   2.809   4.074 -0.9481  0.5249 -0.6320
 6610SOL    HW131463   0.468   2.754   4.132  2.1492 -1.8381 -0.0336
 6610SOL    HW231464   0.462   2.809   3.998 -1.3334 -0.4805 -0.3369
 6611SOL     OW31465   1.282   1.826  15.556  0.1116  0.6760 -0.3481
 6611SOL    HW131466   1.228   1.781  15.491 -0.0069  0.7693 -0.3122
 6611SOL    HW231467   1.232   1.799  15.633  0.9770 -0.4931 -0.1935
 6612SOL     OW31468   3.027   1.028   5.711  0.0678 -0.0306  0.2360
 6612SOL    HW131469   3.009   0.950   5.763 -1.4131  0.1926  0.0653
 6612SOL    HW231470   2.986   1.091   5.771 -0.9442 -0.9035  0.4705
 6613SOL     OW31471   3.727   0.076   3.114 -0.2877  0.0227  0.5563
 6613SOL    HW131472   3.683   0.131   3.049 -0.3796  0.2181  0.7822
 6613SOL    HW231473   3.686   0.112   3.193 -1.7728 -0.6219  0.0863
 6614SOL     OW31474   2.134   1.691   7.035 -0.0570  0.1051 -0.1884
 6614SOL    HW131475   2.080   1.769   7.049 -0.2657 -0.3815  1.7088
 6614SOL    HW231476   2.197   1.692   7.107  0.9180  0.0437 -1.0307
 6615SOL     OW31477   0.075   1.292   7.446 -0.2475  0.5501  0.6712
 6615SOL    HW131478   4.735   1.315   7.393 -1.8059 -1.3637  2.0519
 6615SOL    HW231479   0.065   1.197   7.444 -0.8164  0.6746 -1.6052
 6616SOL     OW31480   1.477   0.427   7.135 -0.3924  0.5260  0.0851
 6616SOL    HW131481   1.449   0.368   7.205 -3.0045 -0.9416 -2.1990
 6616SOL    HW231482   1.408   0.490   7.152 -1.8831 -1.0565 -0.1327
 6617SOL     OW31483   1.741   2.406   2.234  0.4148 -0.5104  0.3181
 6617SOL    HW131484   1.827   2.375   2.204  0.7016 -1.3581  2.0402
 6617SOL    HW231485   1.754   2.474   2.299 -1.0143  2.4798 -2.5308
 6618SOL     OW31486   2.684   2.710   2.849 -0.3644  0.2889  0.1971
 6618SOL    HW131487   2.727   2.632   2.883 -0.6564  0.4888  1.0226
 6618SOL    HW231488   2.655   2.681   2.763  3.4622  2.9887 -2.0107
 6619SOL     OW31489   4.189   4.294   5.229 -0.0010 -0.9991  0.2340
 6619SOL    HW131490   4.105   4.321   5.265 -0.2050  0.0012 -1.0061
 6619SOL    HW231491   4.246   4.346   5.287  1.4354 -1.6147 -0.6259
 6620SOL     OW31492   2.153   4.308   1.337 -0.6872 -0.0719 -0.5823
 6620SOL    HW131493   2.078   4.274   1.386  0.2858 -1.1378  0.1752
 6620SOL    HW231494   2.118   4.390   1.302 -0.4498  0.5036  0.5276
 6621SOL     OW31495   0.310   1.740  13.685 -0.4683  0.4261 -0.5167
 6621SOL    HW131496   0.323   1.819  13.632 -0.0995  1.0611  0.5178
 6621SOL    HW231497   0.216   1.735  13.700 -0.1358 -0.1262  1.3512
 6622SOL     OW31498   1.523   2.794   3.430 -0.1904 -0.5140 -0.3179
 6622SOL    HW131499   1.598   2.827   3.479 -1.1692  2.9041 -1.1054
 6622SOL    HW231500   1.484   2.738   3.498  1.3734 -2.2086 -0.8157
 6623SOL     OW31501   1.036   3.584   6.806  0.3640  0.1752 -0.7867
 6623SOL    HW131502   1.026   3.652   6.739  0.9343  0.0334 -1.0189
 6623SOL    HW231503   1.099   3.526   6.762  0.7373 -2.3280  3.0740
 6624SOL     OW31504   4.301   4.460  15.643 -0.1577  0.6871  0.4314
 6624SOL    HW131505   4.227   4.514  15.614  0.1735 -0.2895 -2.2868
 6624SOL    HW231506   4.370   4.498  15.589 -0.4983 -1.6464 -1.6709
 6625SOL     OW31507   0.041   1.223  16.397  0.7410 -0.1326  0.4039
 6625SOL    HW131508   0.074   1.231  16.487 -0.2664  1.0789  0.6729
 6625SOL    HW231509   0.111   1.167  16.364 -1.4836 -2.0919 -0.9671
 6626SOL     OW31510   1.190   1.087   6.544  0.4443  0.1655 -0.5052
 6626SOL    HW131511   1.134   1.162   6.526  1.5296  1.2003  0.4143
 6626SOL    HW231512   1.195   1.087   6.639 -0.2717 -3.7171 -0.4486
 6627SOL     OW31513   3.218   1.862   4.016  0.4374  0.1676  0.3408
 6627SOL    HW131514   3.136   1.899   4.047  0.0455 -0.3983 -0.0003
 6627SOL    HW231515   3.189   1.773   3.997  2.2491 -0.9403  2.8192
 6628SOL     OW31516   0.394   4.668  11.582 -0.5724 -0.0588  0.1974
 6628SOL    HW131517   0.482   4.655  11.548 -0.1102  2.9898  0.2193
 6628SOL    HW231518   0.412   4.714  11.664  2.2595 -0.2488 -0.3080
 6629SOL     OW31519   2.515   3.898   9.194  0.3122  0.5061  0.1830
 6629SOL    HW131520   2.512   3.891   9.099  0.0700 -0.8773  0.2926
 6629SOL    HW231521   2.534   3.991   9.189  1.6291  0.0805 -2.6440
 6630SOL     OW31522   2.609   2.566   2.615 -1.0369 -0.0062  0.3936
 6630SOL    HW131523   2.627   2.622   2.539  1.4198 -0.5254  0.5750
 6630SOL    HW231524   2.523   2.527   2.598 -0.6411 -1.0355  0.7240
 6631SOL     OW31525   3.808   4.050  11.973 -0.1683  0.7142  0.0736
 6631SOL    HW131526   3.762   4.125  11.936 -0.1367  1.6655  1.9258
 6631SOL    HW231527   3.770   4.043  12.061  0.1951 -0.7970  0.1101
 6632SOL     OW31528   3.045   2.593   3.349 -0.1657 -0.1472  0.7462
 6632SOL    HW131529   3.078   2.647   3.420 -0.3656 -0.5142  1.1187
 6632SOL    HW231530   3.130   2.563   3.316 -0.5930 -2.7520  1.9963
 6633SOL     OW31531   0.116   3.846   5.572 -0.1306  1.1213  0.3029
 6633SOL    HW131532   0.039   3.869   5.623 -0.1904 -0.1982  0.7960
 6633SOL    HW231533   0.105   3.751   5.570 -2.5510  1.4377 -1.9792
 6634SOL     OW31534   2.422   3.375   1.307  0.5590  0.1284 -0.5192
 6634SOL    HW131535   2.510   3.406   1.286 -0.0570  1.0434 -1.7334
 6634SOL    HW231536   2.397   3.433   1.379  0.6379  1.0873 -1.2696
 6635SOL     OW31537   1.014   2.683   3.735  0.3710  0.3600 -0.1396
 6635SOL    HW131538   1.100   2.645   3.752  0.5993  1.6950  1.6457
 6635SOL    HW231539   1.037   2.775   3.743  0.7246  0.1856  0.9030
 6636SOL     OW31540   3.522   0.064  17.579  0.9134  0.0569 -0.3858
 6636SOL    HW131541   3.514   4.706  17.595  0.2862  0.0447 -0.7705
 6636SOL    HW231542   3.488   0.098  17.662  2.9572  1.4049 -0.0841
 6637SOL     OW31543   0.693   0.113  13.552 -0.1536 -0.4295 -0.3962
 6637SOL    HW131544   0.645   0.034  13.573 -0.5811 -0.1506 -0.3263
 6637SOL    HW231545   0.680   0.114  13.457  1.5426 -1.0413 -0.6440
 6638SOL     OW31546   4.575   1.052   4.000  0.3022 -0.2845  0.0914
 6638SOL    HW131547   4.583   1.147   4.001  2.0748 -0.4123 -2.1780
 6638SOL    HW231548   4.508   1.028   4.064  0.2440 -0.5972 -0.0845
 6639SOL     OW31549   0.833   2.560   5.570 -0.0633 -0.3546 -0.2266
 6639SOL    HW131550   0.822   2.549   5.664  0.5607 -3.2710 -0.4751
 6639SOL    HW231551   0.888   2.483   5.553  1.2747  0.0542  2.2946
 6640SOL     OW31552   0.706   1.989   4.236 -0.6131 -0.7760 -0.0359
 6640SOL    HW131553   0.709   1.942   4.319  1.2076  0.5484  0.6716
 6640SOL    HW231554   0.797   2.018   4.227 -0.7722 -0.3948 -0.3986
 6641SOL     OW31555   4.417   3.209   4.996 -0.0406 -0.3268 -0.3867
 6641SOL    HW131556   4.390   3.300   5.011  0.8059 -0.4806  2.0909
 6641SOL    HW231557   4.465   3.189   5.076  0.8293  0.5923 -0.6837
 6642SOL     OW31558   4.389   4.062  12.002  0.4267 -0.1047  0.4738
 6642SOL    HW131559   4.357   3.977  11.972  1.1648  0.6079 -2.3353
 6642SOL    HW231560   4.385   4.107  11.918 -0.2072  0.7652  0.9663
 6643SOL     OW31561   1.366   3.439   6.297 -0.2548  0.1875  0.0314
 6643SOL    HW131562   1.413   3.371   6.346 -1.5590 -1.4034 -0.9410
 6643SOL    HW231563   1.410   3.515   6.334 -1.6484  1.9680 -2.0175
 6644SOL     OW31564   3.497   0.552  17.542  0.5232 -0.7665 -0.3007
 6644SOL    HW131565   3.537   0.466  17.557 -1.8862 -1.8114  0.1143
 6644SOL    HW231566   3.417   0.534  17.592  0.2542 -1.7998 -1.0968
 6645SOL     OW31567   2.583   3.539   2.853  0.2137 -0.5686  0.4787
 6645SOL    HW131568   2.620   3.517   2.938  2.7992  0.4657 -0.3877
 6645SOL    HW231569   2.649   3.603   2.827  0.0071 -0.0709  1.1902
 6646SOL     OW31570   1.836   1.440  11.584  0.3042  0.4303 -0.1992
 6646SOL    HW131571   1.745   1.469  11.596  0.1021 -0.2313 -0.0989
 6646SOL    HW231572   1.891   1.500  11.634  0.3176  0.0314  0.2644
 6647SOL     OW31573   1.798   4.398   2.107 -0.2512  0.4565  0.3694
 6647SOL    HW131574   1.770   4.489   2.116  1.1627  0.9253  0.0296
 6647SOL    HW231575   1.763   4.377   2.021 -0.8284  0.9063  0.4946
 6648SOL     OW31576   0.760   2.428   7.269 -0.0706 -0.0639  0.1092
 6648SOL    HW131577   0.732   2.457   7.355 -0.1855 -0.7924  0.3179
 6648SOL    HW231578   0.822   2.358   7.288  2.3947  1.9468 -0.4198
 6649SOL     OW31579   2.388   3.671   2.144  0.0518 -0.1014  0.0115
 6649SOL    HW131580   2.316   3.724   2.178 -1.0461 -0.8185 -1.1905
 6649SOL    HW231581   2.352   3.582   2.142  0.8754 -0.3907 -1.6499
 6650SOL     OW31582   2.849   2.038   2.499  0.1019  0.2829  0.2853
 6650SOL    HW131583   2.940   2.063   2.484 -0.2399 -0.4321 -3.0128
 6650SOL    HW231584   2.803   2.122   2.501 -1.0896 -0.3874  1.0087
 6651SOL     OW31585   3.173   3.090   8.125 -0.6405  0.5131 -0.1985
 6651SOL    HW131586   3.195   3.182   8.109  0.3044 -0.1916 -3.0318
 6651SOL    HW231587   3.132   3.057   8.044  1.8075 -3.6417  0.2722
 6652SOL     OW31588   4.132   3.319   7.254  0.8332  0.9184  0.4970
 6652SOL    HW131589   4.159   3.258   7.186 -1.2644 -1.5293  1.8633
 6652SOL    HW231590   4.038   3.303   7.251  1.0604 -0.3457  0.1357
 6653SOL     OW31591   0.930   4.359   8.278  0.3344  0.5548 -0.7761
 6653SOL    HW131592   0.952   4.335   8.368 -1.2665 -0.2097 -0.5835
 6653SOL    HW231593   1.018   4.347   8.244  0.1526 -0.4988 -0.8842
 6654SOL     OW31594   2.977   0.280   4.628 -0.0551 -0.1735  0.0204
 6654SOL    HW131595   3.048   0.224   4.661  1.8179  1.2579 -1.5860
 6654SOL    HW231596   2.992   0.260   4.535  1.5272 -0.5611  0.3597
 6655SOL     OW31597   1.193   3.596   4.843  0.1603 -0.3695  0.8568
 6655SOL    HW131598   1.144   3.678   4.844  2.4973  1.0274  1.0715
 6655SOL    HW231599   1.281   3.632   4.829  0.5475 -1.0278  1.6285
 6656SOL     OW31600   1.687   0.964   6.593 -0.1584  0.3644  0.4936
 6656SOL    HW131601   1.616   0.983   6.531  1.2603  3.2808 -0.2473
 6656SOL    HW231602   1.641   0.890   6.632  1.9518  0.1255  2.5063
 6657SOL     OW31603   3.264   0.112   0.698 -0.2121  0.0060  0.2758
 6657SOL    HW131604   3.280   0.041   0.636  0.5021  1.1404 -0.8300
 6657SOL    HW231605   3.254   0.063   0.780  1.9418 -2.1834 -0.7563
 6658SOL     OW31606   0.224   1.763   4.677 -0.3022  0.0633 -0.0081
 6658SOL    HW131607   0.189   1.815   4.605 -1.0543 -0.6752 -0.1758
 6658SOL    HW231608   0.158   1.693   4.687  0.7112 -1.0546 -1.1429
 6659SOL     OW31609   4.155   1.790   7.935  0.4300  0.5119  0.2462
 6659SOL    HW131610   4.127   1.817   7.848 -1.5882  1.2533  1.1366
 6659SOL    HW231611   4.142   1.871   7.984  1.7559  0.3756  0.8202
 6660SOL     OW31612   4.190   0.753   4.866  0.0564  0.4182 -0.3191
 6660SOL    HW131613   4.149   0.721   4.785  0.7144 -0.1951 -0.4133
 6660SOL    HW231614   4.237   0.834   4.849  0.7500 -0.1271 -1.0370
 6661SOL     OW31615   0.869   2.191   8.106  0.0926 -0.6595  0.8621
 6661SOL    HW131616   0.832   2.140   8.178 -0.1647  1.0491  1.9434
 6661SOL    HW231617   0.821   2.273   8.096  0.8617 -0.5047 -1.7247
 6662SOL     OW31618   0.367   4.366  17.077 -0.2183 -0.3958  0.4769
 6662SOL    HW131619   0.279   4.368  17.038 -0.2222 -0.4816  0.4809
 6662SOL    HW231620   0.395   4.275  17.083  2.1070  0.5270  3.5037
 6663SOL     OW31621   1.181   2.606   4.811 -0.0386 -0.4964 -0.1067
 6663SOL    HW131622   1.271   2.610   4.781 -0.4165 -0.8179 -1.3042
 6663SOL    HW231623   1.174   2.661   4.889  0.4251  2.3730 -2.1000
 6664SOL     OW31624   1.440   2.111   0.950  0.0431  0.5468  0.2372
 6664SOL    HW131625   1.531   2.086   0.964  0.5451  2.3251  0.2193
 6664SOL    HW231626   1.419   2.144   1.037  1.1533  0.5798  0.4993
 6665SOL     OW31627   0.987   0.870  14.628  0.4245  0.5293  0.3419
 6665SOL    HW131628   1.018   0.898  14.542  0.2077 -1.0197 -0.2471
 6665SOL    HW231629   1.014   0.940  14.687  1.2943 -0.0169  0.5996
 6666SOL     OW31630   1.118   0.201   2.638  0.0955 -0.6913 -0.2440
 6666SOL    HW131631   1.079   0.288   2.644  2.0306  0.0847  1.1086
 6666SOL    HW231632   1.201   0.207   2.685 -0.6586 -3.5044  1.4619
 6667SOL     OW31633   1.564   0.805   6.789 -0.0132 -0.0965  0.4435
 6667SOL    HW131634   1.584   0.714   6.810 -0.2097 -0.3921 -0.6289
 6667SOL    HW231635   1.615   0.855   6.853  0.4346 -1.2752  1.0033
 6668SOL     OW31636   4.511   0.214   4.950  0.1044 -0.0563  0.0659
 6668SOL    HW131637   4.558   0.131   4.938 -1.4790 -0.9991  0.4245
 6668SOL    HW231638   4.529   0.257   4.867  2.7441  2.2395  1.8205
 6669SOL     OW31639   1.786   2.764   2.077 -0.0636  0.7256  0.2251
 6669SOL    HW131640   1.839   2.817   2.018  0.2401  0.4245  0.2228
 6669SOL    HW231641   1.698   2.794   2.056 -1.0664 -1.1325  1.6938
 6670SOL     OW31642   2.306   0.797  15.203  0.3426  0.7937 -0.7642
 6670SOL    HW131643   2.248   0.855  15.251 -0.5102 -0.3725 -0.3916
 6670SOL    HW231644   2.273   0.817  15.116  1.7625 -0.5658 -1.6110
 6671SOL     OW31645   4.263   0.633   7.412  0.3434 -0.2490  0.2776
 6671SOL    HW131646   4.313   0.625   7.493 -1.7002 -2.7618  1.2743
 6671SOL    HW231647   4.216   0.550   7.411 -2.0371  1.0868 -0.5367
 6672SOL     OW31648   2.153   1.640   6.759 -0.3263 -0.1739 -0.3276
 6672SOL    HW131649   2.122   1.645   6.850 -3.3710  1.3092 -1.4475
 6672SOL    HW231650   2.070   1.645   6.712 -1.1662  0.3779  1.2020
 6673SOL     OW31651   0.505   3.548   2.905  0.6769  0.2120 -0.6042
 6673SOL    HW131652   0.549   3.483   2.849  1.5620 -0.0948  0.4513
 6673SOL    HW231653   0.574   3.613   2.895  0.4658  0.7207  1.3523
 6674SOL     OW31654   2.908   1.544  16.901  0.2384 -0.4788 -0.1424
 6674SOL    HW131655   2.863   1.625  16.876 -2.4287 -1.1483  2.5873
 6674SOL    HW231656   2.958   1.531  16.820 -1.1179 -2.8151 -0.6006
 6675SOL     OW31657   4.253   0.963  17.417  0.2065  0.1879 -0.0643
 6675SOL    HW131658   4.207   0.905  17.478 -1.5499  1.0871 -0.5539
 6675SOL    HW231659   4.305   1.012  17.481  0.3908  0.0980 -0.1447
 6676SOL     OW31660   1.791   1.532   4.201  0.2277  0.7578  0.0198
 6676SOL    HW131661   1.772   1.536   4.295 -2.8057 -2.4120 -0.4673
 6676SOL    HW231662   1.804   1.438   4.189 -1.5903  0.4281  0.6020
 6677SOL     OW31663   1.068   2.341   9.594 -0.6581 -0.4405  0.4123
 6677SOL    HW131664   1.134   2.395   9.549 -2.2842 -0.2645 -1.7515
 6677SOL    HW231665   1.124   2.291   9.654  0.9672  0.3160 -0.4744
 6678SOL     OW31666   1.199   4.506   6.822 -0.2777  0.3815 -0.2546
 6678SOL    HW131667   1.203   4.433   6.760 -0.1724 -0.9178  1.2547
 6678SOL    HW231668   1.245   4.566   6.764  0.4678 -1.0997 -1.1842
 6679SOL     OW31669   4.636   3.297   7.815  0.0316 -0.0078  0.1908
 6679SOL    HW131670   4.659   3.221   7.869  1.3631 -0.0260 -0.4063
 6679SOL    HW231671   4.673   3.365   7.870  1.4376 -0.9148  0.3722
 6680SOL     OW31672   3.253   1.708   0.236 -0.1246  0.0472 -0.0994
 6680SOL    HW131673   3.298   1.760   0.171  0.3890  1.2004  1.1832
 6680SOL    HW231674   3.260   1.770   0.308  2.7128 -1.2968  0.7851
 6681SOL     OW31675   0.365   2.656   1.980  0.6302 -0.2038  0.4474
 6681SOL    HW131676   0.278   2.637   2.014  0.6753 -1.1877  0.0174
 6681SOL    HW231677   0.407   2.621   2.058  0.3044 -0.7062  0.4001
 6682SOL     OW31678   0.354   1.531  15.019  0.6461 -0.1494 -0.3652
 6682SOL    HW131679   0.346   1.495  14.931  1.4420  0.0658 -0.5235
 6682SOL    HW231680   0.309   1.616  15.014  1.9000  0.4817 -0.7983
 6683SOL     OW31681   3.224   0.781  11.958 -0.2114 -0.3941 -0.0470
 6683SOL    HW131682   3.261   0.777  11.870  0.3215 -1.4684  0.2266
 6683SOL    HW231683   3.200   0.689  11.971 -0.5078 -0.4430 -0.9616
 6684SOL     OW31684   2.762   4.257   9.547  0.1410  0.4350 -0.1707
 6684SOL    HW131685   2.836   4.314   9.568  0.2787  0.2814 -0.2392
 6684SOL    HW231686   2.793   4.225   9.463  0.4539 -0.9094  0.4608
 6685SOL     OW31687   4.135   1.302   8.395  0.6443 -0.3736 -0.5477
 6685SOL    HW131688   4.210   1.290   8.453 -1.1582 -3.3874  1.1858
 6685SOL    HW231689   4.141   1.219   8.347 -0.2404 -0.8615  0.1786
 6686SOL     OW31690   0.897   1.182  16.260  0.3149 -0.1508 -0.8002
 6686SOL    HW131691   0.984   1.145  16.276  0.2556  0.4851  1.0238
 6686SOL    HW231692   0.914   1.227  16.177  0.3084  0.9694 -0.2012
 6687SOL     OW31693   3.032   0.480   2.311 -0.0497 -0.0660  0.3558
 6687SOL    HW131694   3.066   0.560   2.271 -1.8829 -0.3555 -1.7651
 6687SOL    HW231695   3.079   0.406   2.273 -0.5818 -0.9190  1.3845
 6688SOL     OW31696   1.047   2.398   9.092  0.6808 -0.6272 -0.3090
 6688SOL    HW131697   1.113   2.364   9.032  1.1374  0.1511 -0.2561
 6688SOL    HW231698   1.049   2.332   9.161  1.2800 -2.7460 -2.3871
 6689SOL     OW31699   2.780   2.665   9.026  0.7125  0.4835  0.6111
 6689SOL    HW131700   2.774   2.715   9.107 -1.3881 -0.6356  1.1360
 6689SOL    HW231701   2.858   2.704   8.986  1.5251 -1.5787  0.1726
 6690SOL     OW31702   4.158   0.526   1.530  0.1410  0.6004  0.3913
 6690SOL    HW131703   4.223   0.485   1.473  0.2081  0.1858  0.7761
 6690SOL    HW231704   4.215   0.577   1.587  1.2789  2.4360 -2.3592
 6691SOL     OW31705   0.582   2.312   7.105  0.4599 -0.2536 -0.2738
 6691SOL    HW131706   0.527   2.391   7.098  1.2613  0.1926 -1.4896
 6691SOL    HW231707   0.642   2.334   7.177 -0.3565  0.3228  0.2338
 6692SOL     OW31708   0.396   0.275   6.193 -0.5402  0.0606  0.1200
 6692SOL    HW131709   0.377   0.203   6.133  0.0676 -0.0381  0.0501
 6692SOL    HW231710   0.407   0.350   6.133  1.2924 -0.0407  0.3275
 6693SOL     OW31711   3.387   1.546   3.578 -0.0893 -0.4958 -0.1140
 6693SOL    HW131712   3.411   1.459   3.546 -2.4013 -0.9195 -0.6624
 6693SOL    HW231713   3.382   1.527   3.672  1.0463 -1.6082 -0.2817
 6694SOL     OW31714   0.945   0.389  13.203  0.2455  0.2420  0.0787
 6694SOL    HW131715   0.999   0.444  13.260  0.2659  0.4993 -0.1946
 6694SOL    HW231716   1.007   0.373  13.132 -0.4951 -0.4428 -0.4173
 6695SOL     OW31717   1.846   0.072   4.848  0.1709 -0.5392 -0.8405
 6695SOL    HW131718   1.871   0.128   4.773  0.2621 -0.1661 -0.5316
 6695SOL    HW231719   1.788   0.130   4.898  2.7727 -0.8764  2.5445
 6696SOL     OW31720   1.016   2.798   5.625  0.0728  0.1461  0.2464
 6696SOL    HW131721   0.948   2.734   5.605  0.0990  0.3446 -0.4894
 6696SOL    HW231722   1.081   2.779   5.557 -0.2113 -1.0210  0.3044
 6697SOL     OW31723   1.765   1.952   9.194 -0.0857  0.2880  0.2610
 6697SOL    HW131724   1.693   1.984   9.248  0.2870  1.0465  0.3025
 6697SOL    HW231725   1.730   1.882   9.138 -0.6909 -0.3207  1.4092
 6698SOL     OW31726   0.721   1.126  12.163 -0.4460 -0.2738  0.5588
 6698SOL    HW131727   0.706   1.155  12.253 -3.7329 -1.7116  0.4691
 6698SOL    HW231728   0.676   1.042  12.161 -1.3469  0.2981 -3.8598
 6699SOL     OW31729   0.129   3.835   8.978 -0.3178  0.3472 -0.4764
 6699SOL    HW131730   0.208   3.805   8.932 -0.6965 -2.1475  0.5336
 6699SOL    HW231731   0.141   3.930   8.974  0.0952  0.3793  1.8241
 6700SOL     OW31732   3.479   1.644   6.397 -0.1843  0.1850 -0.0717
 6700SOL    HW131733   3.552   1.592   6.364  0.2285  0.0355  1.0931
 6700SOL    HW231734   3.532   1.722   6.410  1.2926 -0.8653  0.1321
 6701SOL     OW31735   0.013   3.970   6.770 -0.3608 -0.0386  0.0272
 6701SOL    HW131736   4.698   3.999   6.847 -2.0541 -0.0039 -1.0913
 6701SOL    HW231737   0.067   4.046   6.749 -1.3614 -0.0405 -2.5439
 6702SOL     OW31738   1.392   4.551   1.577 -0.0179 -0.0720  0.2270
 6702SOL    HW131739   1.355   4.609   1.644 -1.1937 -0.1239 -0.3805
 6702SOL    HW231740   1.366   4.608   1.504  0.2615 -0.6764 -0.3451
 6703SOL     OW31741   3.293   0.357   6.392 -0.2859  0.4270 -0.5744
 6703SOL    HW131742   3.260   0.387   6.476 -1.7570 -1.1675 -0.5953
 6703SOL    HW231743   3.386   0.345   6.412 -1.0119 -4.1704  0.0714
 6704SOL     OW31744   1.543   1.599   7.375  0.2160 -0.6547 -0.2793
 6704SOL    HW131745   1.589   1.678   7.347 -3.4226  1.6966  0.3091
 6704SOL    HW231746   1.570   1.598   7.467  2.4415 -0.1259 -0.9488
 6705SOL     OW31747   1.826   0.212  16.283 -0.6391  0.6258  0.5375
 6705SOL    HW131748   1.808   0.272  16.211  1.9514  0.4007 -0.3090
 6705SOL    HW231749   1.918   0.234  16.293 -1.0529  2.1102  1.0061
 6706SOL     OW31750   0.934   1.613   0.230  0.4704 -0.7311 -0.2847
 6706SOL    HW131751   0.960   1.577   0.315 -0.2919 -0.7047 -0.0451
 6706SOL    HW231752   1.020   1.621   0.189  0.0733 -1.8454 -1.3447
 6707SOL     OW31753   4.466   3.436   7.610  0.3697  0.4092 -0.0240
 6707SOL    HW131754   4.388   3.398   7.569 -1.3180  1.9556  1.7768
 6707SOL    HW231755   4.538   3.386   7.571  0.7687  0.7163  0.3341
 6708SOL     OW31756   1.205   2.996   8.480  0.7583 -0.7503 -0.3652
 6708SOL    HW131757   1.163   3.026   8.400  1.2633 -0.1894 -0.4256
 6708SOL    HW231758   1.234   2.912   8.445  3.2746  0.0706 -0.2568
 6709SOL     OW31759   3.032   1.088   8.495  0.0459 -0.2205 -0.6818
 6709SOL    HW131760   3.004   1.046   8.577 -0.0274  0.3403 -0.4225
 6709SOL    HW231761   3.087   1.016   8.466  0.0136 -0.3228 -0.4896
 6710SOL     OW31762   2.316   0.867   2.159 -0.0075  0.4994  0.0390
 6710SOL    HW131763   2.308   0.926   2.234 -2.1327  0.4824 -0.1830
 6710SOL    HW231764   2.258   0.801   2.196 -1.2737  1.1763 -0.7457
 6711SOL     OW31765   2.747   3.578   9.486  0.7085 -0.6378 -0.1516
 6711SOL    HW131766   2.838   3.582   9.518  0.8900 -1.2712 -0.5868
 6711SOL    HW231767   2.743   3.525   9.406 -0.4101 -1.9425  0.7856
 6712SOL     OW31768   2.274   4.629   3.316 -0.2878  0.1655  0.4566
 6712SOL    HW131769   2.305   4.686   3.386 -1.2816  0.8726  0.3224
 6712SOL    HW231770   2.350   4.571   3.325 -0.6769 -0.5920 -1.1802
 6713SOL     OW31771   3.870   0.340  17.617 -0.3470 -0.4668 -0.3848
 6713SOL    HW131772   3.796   0.320  17.560  0.1399 -0.0187 -1.1642
 6713SOL    HW231773   3.860   0.434  17.627  0.1792 -0.3642 -0.8343
 6714SOL     OW31774   3.669   3.826   3.932  0.1624  0.0152 -0.5929
 6714SOL    HW131775   3.732   3.777   3.984 -1.2963 -1.7018 -0.4437
 6714SOL    HW231776   3.714   3.901   3.893  1.4215  0.8006  2.3739
 6715SOL     OW31777   3.022   0.314   5.012  0.0191 -0.2626 -0.2900
 6715SOL    HW131778   2.986   0.382   4.954 -0.4691  1.9905  2.6734
 6715SOL    HW231779   2.960   0.244   4.991  1.0512 -1.5232  0.8338
 6716SOL     OW31780   1.725   3.810  15.312  0.3173  0.4730  0.2889
 6716SOL    HW131781   1.772   3.885  15.275  0.3214  0.0319 -0.5895
 6716SOL    HW231782   1.796   3.747  15.313  0.7593  0.9755  0.9465
 6717SOL     OW31783   3.803   3.670   8.894  0.2866 -0.3371 -0.4244
 6717SOL    HW131784   3.801   3.766   8.899  3.2721 -0.3999  1.7406
 6717SOL    HW231785   3.725   3.647   8.945  1.0232 -1.6111  0.1362
 6718SOL     OW31786   2.028   0.227   8.014  0.0785  0.0694 -0.1602
 6718SOL    HW131787   1.987   0.188   7.936 -1.4035 -2.5112  1.8990
 6718SOL    HW231788   2.087   0.283   7.964  1.2937 -1.2244 -0.1817
 6719SOL     OW31789   2.574   1.067   4.708 -0.2844 -0.3113  0.3977
 6719SOL    HW131790   2.504   1.034   4.764  2.0032 -1.0627  2.8070
 6719SOL    HW231791   2.636   1.112   4.765  1.6504 -1.4207 -0.8287
 6720SOL     OW31792   3.357   0.139   6.060  0.2488 -0.0425 -0.2222
 6720SOL    HW131793   3.265   0.115   6.045  0.7627 -1.1644 -1.6199
 6720SOL    HW231794   3.348   0.146   6.155 -0.5819 -0.2860 -0.2856
 6721SOL     OW31795   2.403   3.055  14.913 -0.0715  0.2745 -0.1788
 6721SOL    HW131796   2.436   3.072  14.824 -0.3158 -2.0513 -0.7183
 6721SOL    HW231797   2.396   2.960  14.905 -2.7794  0.5466 -1.0427
 6722SOL     OW31798   4.067   3.468   3.709  0.0753 -0.7807 -0.1175
 6722SOL    HW131799   4.113   3.412   3.770 -0.4950  0.7245  1.6937
 6722SOL    HW231800   4.134   3.533   3.688  1.0752 -1.5808  0.6204
 6723SOL     OW31801   3.082   3.566  15.957 -0.1298  0.6465 -0.1538
 6723SOL    HW131802   3.092   3.623  15.881  1.3449 -0.0213 -0.4794
 6723SOL    HW231803   3.011   3.511  15.925  0.1652  0.2438 -0.1126
 6724SOL     OW31804   1.751   2.588  12.435  0.1495 -0.3566 -0.0182
 6724SOL    HW131805   1.761   2.545  12.520 -0.6528 -2.3995 -0.9613
 6724SOL    HW231806   1.828   2.646  12.440  0.3570 -0.6646  0.3690
 6725SOL     OW31807   1.205   1.501   7.817 -0.1659  0.7941 -0.2870
 6725SOL    HW131808   1.114   1.509   7.788 -0.4504  0.5187  0.5285
 6725SOL    HW231809   1.256   1.515   7.737 -1.6556  0.2078 -1.3447
 6726SOL     OW31810   2.533   1.180   2.168  0.3626 -0.0148  0.0139
 6726SOL    HW131811   2.488   1.208   2.248  1.2604 -0.3901  0.6458
 6726SOL    HW231812   2.503   1.247   2.107 -2.8858  0.1034  1.7450
 6727SOL     OW31813   2.793   1.531   6.125  0.0206  0.1011 -0.5848
 6727SOL    HW131814   2.879   1.532   6.084 -0.4118  1.3441 -1.4898
 6727SOL    HW231815   2.735   1.479   6.070  1.1269 -0.8591 -0.8353
 6728SOL     OW31816   0.176   1.314  12.399 -0.0763  0.1285  0.0385
 6728SOL    HW131817   0.153   1.393  12.350  1.0733  0.4510  0.0397
 6728SOL    HW231818   0.211   1.350  12.480  3.2687 -1.0374 -0.8949
 6729SOL     OW31819   0.551   2.049   0.335 -1.0078  0.4441 -0.3508
 6729SOL    HW131820   0.540   2.103   0.413 -0.5235 -2.3131  1.6155
 6729SOL    HW231821   0.551   2.116   0.267  2.4991 -0.2314 -0.9856
 6730SOL     OW31822   1.101   3.460   1.955  0.2661 -0.2714  0.0793
 6730SOL    HW131823   1.034   3.480   1.889  0.1780 -2.6920 -0.5518
 6730SOL    HW231824   1.042   3.403   2.005 -2.0175  2.0881  0.1165
 6731SOL     OW31825   2.422   0.249   9.391  0.4409  0.0407 -0.2902
 6731SOL    HW131826   2.393   0.165   9.428  0.7980 -0.6252 -1.5446
 6731SOL    HW231827   2.364   0.258   9.316  0.1003  1.2775  0.1211
 6732SOL     OW31828   0.356   4.082   6.868  0.5373  0.3241 -0.1358
 6732SOL    HW131829   0.298   4.105   6.795  2.3182  1.3856 -1.1940
 6732SOL    HW231830   0.445   4.095   6.837  0.0581 -0.6403 -1.9181
 6733SOL     OW31831   0.372   1.576  12.324  0.1148 -0.0243 -0.7503
 6733SOL    HW131832   0.355   1.629  12.403 -3.7647 -2.2714 -0.0940
 6733SOL    HW231833   0.467   1.575  12.322  0.0878  1.6168 -2.8949
 6734SOL     OW31834   0.805   0.486  16.175  0.0167 -0.2400  0.1732
 6734SOL    HW131835   0.874   0.419  16.173 -1.4540 -1.7711 -0.1507
 6734SOL    HW231836   0.798   0.508  16.082 -1.2207 -1.8413 -0.1208
 6735SOL     OW31837   2.640   4.507   2.491  0.6391  0.4827 -0.3284
 6735SOL    HW131838   2.585   4.451   2.546  0.6925  0.7468 -0.0018
 6735SOL    HW231839   2.672   4.566   2.559  2.8510  2.1767 -2.8607
 6736SOL     OW31840   2.294   1.146   7.238 -0.0023  0.3366  0.7258
 6736SOL    HW131841   2.236   1.096   7.180  1.4261  0.6624 -0.9876
 6736SOL    HW231842   2.354   1.182   7.173 -1.5288  0.0045 -0.8610
 6737SOL     OW31843   2.483   4.189  14.016 -0.0774  0.4468  0.0856
 6737SOL    HW131844   2.501   4.176  13.923  1.5468  0.7933  0.3614
 6737SOL    HW231845   2.473   4.284  14.022  1.7675  0.5835  0.8942
 6738SOL     OW31846   3.645   0.664   4.732  0.1392 -0.4609 -0.5810
 6738SOL    HW131847   3.594   0.659   4.651  1.0628 -1.8545 -1.0561
 6738SOL    HW231848   3.569   0.666   4.791  0.5705  0.2138 -0.0418
 6739SOL     OW31849   0.250   2.176   8.096 -0.4014  0.6703  0.9668
 6739SOL    HW131850   0.270   2.251   8.040 -0.1080 -1.7535 -2.1454
 6739SOL    HW231851   0.206   2.122   8.030 -0.8298  1.7500  0.3598
 6740SOL     OW31852   0.747   0.919   4.563 -0.0725 -0.0545 -0.0415
 6740SOL    HW131853   0.806   0.994   4.574  0.6034 -0.3850 -1.4555
 6740SOL    HW231854   0.805   0.856   4.521  0.9645 -0.3607  1.8341
 6741SOL     OW31855   1.758   2.537   5.556 -0.1340 -0.1328 -0.8104
 6741SOL    HW131856   1.743   2.540   5.461 -1.3479 -1.1834 -0.6473
 6741SOL    HW231857   1.839   2.488   5.567  0.8528  1.1775 -2.2413
 6742SOL     OW31858   0.520   2.527   5.775 -0.4626  0.5994 -0.2573
 6742SOL    HW131859   0.483   2.527   5.687  0.5850 -1.4329 -0.6994
 6742SOL    HW231860   0.463   2.478   5.833  1.8943 -5.1338 -2.7844
 6743SOL     OW31861   3.834   2.549   3.179 -0.1286  0.6330 -0.9319
 6743SOL    HW131862   3.875   2.473   3.137 -0.6679 -0.8333  1.1780
 6743SOL    HW231863   3.907   2.611   3.179  0.4787 -0.0828 -1.1705
 6744SOL     OW31864   2.583   3.231   3.199  0.2871 -0.1514 -0.3204
 6744SOL    HW131865   2.527   3.154   3.192  0.7681 -0.3265 -2.0727
 6744SOL    HW231866   2.665   3.187   3.222  0.0390 -0.1404  0.5857
 6745SOL     OW31867   2.640   1.740   7.825  1.0305  0.7929  0.4383
 6745SOL    HW131868   2.715   1.684   7.803  0.0298 -0.0547 -0.7713
 6745SOL    HW231869   2.672   1.822   7.787 -0.4940  0.5359 -1.3858
 6746SOL     OW31870   4.685   0.847   8.499 -0.3656  0.7282  0.2300
 6746SOL    HW131871   4.602   0.804   8.519 -1.6765  2.6338 -1.0863
 6746SOL    HW231872   4.661   0.891   8.417 -0.5487  0.2016  0.0002
 6747SOL     OW31873   4.424   1.463  11.755 -0.6609 -0.1456 -0.4168
 6747SOL    HW131874   4.494   1.410  11.792  2.0909  2.8712 -1.2621
 6747SOL    HW231875   4.401   1.411  11.678 -2.1252 -1.3332  0.8110
 6748SOL     OW31876   1.295   0.043  16.575 -0.5812  0.0413 -0.1645
 6748SOL    HW131877   1.287   0.018  16.667 -0.4182  0.1142 -0.1289
 6748SOL    HW231878   1.389   0.061  16.573 -0.2265 -1.9680 -1.2473
 6749SOL     OW31879   0.802   3.111   0.360 -0.3360  0.3207  0.2204
 6749SOL    HW131880   0.736   3.168   0.321 -1.6118 -0.7762  0.7357
 6749SOL    HW231881   0.872   3.173   0.380  0.6004 -1.4958  2.7264
 6750SOL     OW31882   1.351   3.814  15.103  0.1156 -0.0821  0.0865
 6750SOL    HW131883   1.276   3.823  15.045 -1.1005  0.8212  1.8065
 6750SOL    HW231884   1.347   3.720  15.121  0.3246  0.0189  0.6779
 6751SOL     OW31885   2.295   3.494  14.444  0.1637 -0.0091 -0.5201
 6751SOL    HW131886   2.242   3.444  14.383 -0.3055 -1.1828  0.8683
 6751SOL    HW231887   2.225   3.549  14.478  0.8466 -0.1865  1.1583
 6752SOL     OW31888   3.496   3.068   1.157 -0.2876 -0.2923 -0.3930
 6752SOL    HW131889   3.404   3.047   1.174  0.5712 -1.6329  2.5994
 6752SOL    HW231890   3.503   3.050   1.063 -2.0584  1.4572 -0.8641
 6753SOL     OW31891   0.615   2.166  13.279 -0.7948 -0.4199  0.2348
 6753SOL    HW131892   0.611   2.166  13.374  1.8441  3.2637  0.3405
 6753SOL    HW231893   0.630   2.074  13.259 -2.5714 -0.2594 -1.8716
 6754SOL     OW31894   2.239   4.508   6.569  0.1782  0.3019 -0.6816
 6754SOL    HW131895   2.281   4.449   6.632 -0.5042  0.9216  0.3621
 6754SOL    HW231896   2.293   4.586   6.582 -0.4367  0.5054  0.6559
 6755SOL     OW31897   1.340   0.181   6.526 -0.0754  0.8478  0.4736
 6755SOL    HW131898   1.304   0.139   6.604 -2.2949 -1.2224 -1.6345
 6755SOL    HW231899   1.268   0.160   6.466  0.1224  0.6767  0.2963
 6756SOL     OW31900   2.475   2.362   7.553  0.1021  0.2896  0.1133
 6756SOL    HW131901   2.410   2.298   7.580 -0.7856  0.5906 -1.3515
 6756SOL    HW231902   2.530   2.314   7.491 -0.6312 -2.1250  1.3268
 6757SOL     OW31903   3.506   0.068  12.813 -0.6731 -0.8562 -0.3931
 6757SOL    HW131904   3.509   4.725  12.868  1.2289  0.7973  1.8672
 6757SOL    HW231905   3.550   0.030  12.736  0.0249 -2.0233  0.5898
 6758SOL     OW31906   0.492   2.800   3.423  0.2855  0.4604 -0.0740
 6758SOL    HW131907   0.405   2.777   3.389  0.5985  1.7182 -1.7698
 6758SOL    HW231908   0.465   2.857   3.494 -2.6356 -0.3971 -0.4659
 6759SOL     OW31909   0.458   4.645   8.570 -0.5018 -0.5694  0.3740
 6759SOL    HW131910   0.384   4.612   8.518  0.1517  1.5793 -1.9479
 6759SOL    HW231911   0.499   4.712   8.515 -1.8937  1.0926  1.3580
 6760SOL     OW31912   3.934   4.571   6.132 -0.2040  0.3925  0.3182
 6760SOL    HW131913   4.021   4.532   6.131  0.4776  1.8978  1.5531
 6760SOL    HW231914   3.943   4.640   6.066  0.8793  1.3690  1.5037
 6761SOL     OW31915   1.834   3.158   0.150 -0.1417 -0.8396  0.4510
 6761SOL    HW131916   1.821   3.115   0.235 -1.5181  1.1699  1.2762
 6761SOL    HW231917   1.926   3.186   0.153 -0.2552 -0.4069 -0.3843
 6762SOL     OW31918   0.749   0.901   9.157 -0.0495  0.1649  0.2494
 6762SOL    HW131919   0.705   0.927   9.076 -0.0609  1.0047  0.5278
 6762SOL    HW231920   0.669   0.903   9.210 -0.5717  2.2380 -0.6131
 6763SOL     OW31921   3.644   3.283   1.053 -0.6344 -0.0455 -0.3182
 6763SOL    HW131922   3.602   3.345   1.113  1.5491 -1.0380  2.2368
 6763SOL    HW231923   3.580   3.212   1.057 -2.7999  1.9937  1.5357
 6764SOL     OW31924   0.676   2.753  17.381  0.2708  0.4372 -0.2839
 6764SOL    HW131925   0.770   2.768  17.375  0.4112 -0.4745 -0.3210
 6764SOL    HW231926   0.651   2.823  17.441 -2.0435  0.1316 -0.8944
 6765SOL     OW31927   0.097   2.169   5.202  0.1589  0.6653 -0.2377
 6765SOL    HW131928   0.045   2.101   5.244 -0.6208  2.4312  1.6682
 6765SOL    HW231929   0.186   2.136   5.192 -0.2888 -0.6504  0.1333
 6766SOL     OW31930   2.711   1.000   1.917 -0.6932  0.1490  0.1593
 6766SOL    HW131931   2.803   0.993   1.891 -0.8494  1.4203 -0.7482
 6766SOL    HW231932   2.692   1.091   1.893  0.8851  0.6405  0.8080
 6767SOL     OW31933   4.036   0.282  14.787  0.6424  1.0313  0.0158
 6767SOL    HW131934   4.031   0.319  14.699 -1.6725 -0.0035 -0.2567
 6767SOL    HW231935   4.110   0.223  14.775  0.6775  1.1880 -0.5654
 6768SOL     OW31936   4.058   2.811   5.203 -0.4159  0.0934  0.4467
 6768SOL    HW131937   4.084   2.720   5.217 -0.5578  0.1205  0.9054
 6768SOL    HW231938   4.093   2.827   5.115  1.1357  0.0213  1.0412
 6769SOL     OW31939   3.828   4.207   3.404 -0.1750 -0.1405 -0.0891
 6769SOL    HW131940   3.754   4.266   3.399 -1.5231 -1.5530  3.2025
 6769SOL    HW231941   3.776   4.127   3.393  1.6929 -1.5082  0.8184
 6770SOL     OW31942   1.522   2.550   2.715  0.4670 -0.1896 -0.2544
 6770SOL    HW131943   1.489   2.524   2.801  1.6649  2.3504  0.9770
 6770SOL    HW231944   1.587   2.481   2.704  0.1568 -0.2587 -1.6467
 6771SOL     OW31945   0.423   4.573   7.789 -0.9795 -0.0425 -0.8195
 6771SOL    HW131946   0.449   4.563   7.881  0.0700 -0.0612 -1.1189
 6771SOL    HW231947   0.374   4.492   7.776 -0.6822 -0.3767  0.0927
 6772SOL     OW31948   2.964   1.691  14.757 -0.6020  0.2087 -0.1838
 6772SOL    HW131949   2.995   1.769  14.803 -2.4188  0.7883  0.0332
 6772SOL    HW231950   3.045   1.667  14.712 -0.5660  0.8438 -0.4586
 6773SOL     OW31951   2.343   2.126   3.914 -0.1725  0.0775 -0.6074
 6773SOL    HW131952   2.268   2.128   3.855 -0.8579 -0.8616  0.2277
 6773SOL    HW231953   2.415   2.178   3.877  0.2708 -0.5133 -0.5732
 6774SOL     OW31954   1.978   0.590   7.815 -0.1725  0.2131  0.0640
 6774SOL    HW131955   1.885   0.612   7.817 -0.8796 -2.7768  0.3549
 6774SOL    HW231956   1.987   0.628   7.902  0.1595  0.3220 -0.0198
 6775SOL     OW31957   2.073   2.679   2.923 -0.4758 -0.5233  0.0327
 6775SOL    HW131958   2.168   2.681   2.924 -0.4628 -1.5469  0.0370
 6775SOL    HW231959   2.057   2.771   2.899  0.0686 -0.0858  1.3066
 6776SOL     OW31960   4.299   3.325   2.611 -0.0425 -0.1083  0.0733
 6776SOL    HW131961   4.332   3.258   2.551 -1.2932  0.4262 -1.2283
 6776SOL    HW231962   4.334   3.304   2.697  0.1838  0.1493  0.0462
 6777SOL     OW31963   1.866   0.584   4.579 -0.1286  0.3070  0.5126
 6777SOL    HW131964   1.894   0.551   4.493 -2.9790  0.9026 -0.6434
 6777SOL    HW231965   1.912   0.531   4.645  0.1507  3.4658  2.8094
 6778SOL     OW31966   4.237   1.877   8.544  0.3745 -0.5578 -0.0771
 6778SOL    HW131967   4.317   1.866   8.491 -0.6123  0.3163 -1.7522
 6778SOL    HW231968   4.206   1.791   8.569  1.2418 -1.3197 -1.6087
 6779SOL     OW31969   1.106   1.631   3.212 -0.6117 -0.3486  0.4215
 6779SOL    HW131970   1.062   1.552   3.243 -0.3235 -0.5904  0.2133
 6779SOL    HW231971   1.066   1.697   3.268 -1.1129 -0.6753  0.4544
 6780SOL     OW31972   4.551   2.025   6.375 -0.2907 -0.3273 -0.0215
 6780SOL    HW131973   4.567   2.088   6.305  1.4335 -0.8378 -0.0903
 6780SOL    HW231974   4.626   2.026   6.434  1.6815  2.2181 -2.5623
 6781SOL     OW31975   1.368   0.542   5.018  0.0632  0.2887 -0.0465
 6781SOL    HW131976   1.368   0.621   4.963  0.0538  0.0271 -0.4219
 6781SOL    HW231977   1.275   0.540   5.040 -0.3243  0.2554 -1.7048
 6782SOL     OW31978   0.905   3.307   8.462 -0.1227  0.0312  0.3372
 6782SOL    HW131979   0.969   3.285   8.395  1.3902  3.8894  0.5426
 6782SOL    HW231980   0.916   3.402   8.467 -1.5628  0.1337  1.5803
 6783SOL     OW31981   2.218   1.808   1.200  0.5981 -0.4807 -0.3054
 6783SOL    HW131982   2.248   1.748   1.132  0.1166 -3.5778  2.2110
 6783SOL    HW231983   2.136   1.838   1.159  1.5069  1.0061 -1.0274
 6784SOL     OW31984   1.049   4.709   4.314  0.3362 -0.5058 -0.3145
 6784SOL    HW131985   1.110   0.030   4.361  1.0954 -1.2274 -0.4360
 6784SOL    HW231986   0.973   4.695   4.371 -0.4148  0.3473 -1.1064
 6785SOL     OW31987   2.564   2.509   3.750  0.0846 -0.0522  0.0381
 6785SOL    HW131988   2.588   2.602   3.753 -0.4876  0.1555 -2.6751
 6785SOL    HW231989   2.473   2.521   3.723  0.0372  0.7032  0.5226
 6786SOL     OW31990   0.680   2.633   9.056  0.6374 -0.5913  0.2589
 6786SOL    HW131991   0.584   2.625   9.054  0.5931 -0.0181  0.0474
 6786SOL    HW231992   0.693   2.655   8.964  0.4897 -0.7992  0.1868
 6787SOL     OW31993   2.338   0.234  16.240 -0.2386 -0.3020  0.1478
 6787SOL    HW131994   2.395   0.298  16.199  2.4184 -0.8241  3.0049
 6787SOL    HW231995   2.359   0.230  16.334  1.2591 -3.2922 -0.3028
 6788SOL     OW31996   3.090   3.464   7.684 -0.5411  0.4977 -0.6350
 6788SOL    HW131997   3.057   3.496   7.600  0.0844  2.0106 -0.3098
 6788SOL    HW231998   3.155   3.402   7.652 -2.1081 -1.8128  0.6760
 6789SOL     OW31999   0.211   0.935  15.944 -0.2267  0.0741 -0.0771
 6789SOL    HW132000   0.155   0.954  15.868 -0.5302 -3.6660 -0.7952
 6789SOL    HW232001   0.297   0.948  15.905  1.0737 -0.0034  2.7813
 6790SOL     OW32002   1.914   4.076   3.945  0.8574 -0.2807  0.2144
 6790SOL    HW132003   1.852   4.004   3.937 -2.4095  2.5686 -0.4087
 6790SOL    HW232004   1.886   4.134   3.874  0.9360 -0.1145  0.3184
 6791SOL     OW32005   0.688   0.011   3.087 -0.4938  0.4253 -0.1212
 6791SOL    HW132006   0.723   4.697   3.013  0.5005  1.0735 -0.0769
 6791SOL    HW232007   0.712   4.678   3.149  0.8469  2.4403  1.5694
 6792SOL     OW32008   1.916   1.866   4.338  0.5733 -0.0666  0.1093
 6792SOL    HW132009   1.889   1.783   4.376  1.9113 -1.0510 -1.1048
 6792SOL    HW232010   1.847   1.886   4.275  1.9305  0.1042 -1.3273
 6793SOL     OW32011   1.811   3.661   6.376 -0.1032 -0.1797  0.4384
 6793SOL    HW132012   1.726   3.684   6.340  1.1407  0.3825 -2.1693
 6793SOL    HW232013   1.851   3.748   6.373 -1.7591  0.5123 -1.7283
 6794SOL     OW32014   2.155   1.989   4.223  0.4378  0.0870  0.3899
 6794SOL    HW132015   2.120   2.065   4.175  1.3303  0.3659  0.1644
 6794SOL    HW232016   2.081   1.967   4.280  0.0775  2.1600  0.7299
 6795SOL     OW32017   0.527   3.866  17.229  0.7684 -0.4920  0.1026
 6795SOL    HW132018   0.609   3.873  17.277 -0.1515  0.9474  1.5061
 6795SOL    HW232019   0.549   3.910  17.147  0.2666 -1.7541 -0.7078
 6796SOL     OW32020   0.263   3.186  10.575 -0.1230  0.4935 -0.1504
 6796SOL    HW132021   0.278   3.098  10.541  0.7182  0.9774 -1.0338
 6796SOL    HW232022   0.248   3.233  10.492 -1.5197  1.4401  0.6451
 6797SOL     OW32023   4.135   1.046   8.100  1.0975 -0.1595  0.3162
 6797SOL    HW132024   4.167   0.991   8.029 -1.0223 -0.3120 -0.5316
 6797SOL    HW232025   4.179   1.131   8.090  2.5340 -0.7799  1.3472
 6798SOL     OW32026   2.463   0.782   1.719 -0.1414 -0.0779 -0.1305
 6798SOL    HW132027   2.403   0.851   1.746  0.4911  0.6780 -0.6493
 6798SOL    HW232028   2.502   0.765   1.805 -0.5172 -0.3342 -0.0133
 6799SOL     OW32029   3.307   4.248  13.613  0.2551  0.2641 -0.3707
 6799SOL    HW132030   3.333   4.273  13.525  0.4790 -0.9932 -0.6547
 6799SOL    HW232031   3.383   4.213  13.661 -0.1286  0.4157  0.3523
 6800SOL     OW32032   3.717   1.139   7.900  0.2694 -0.3863  0.7261
 6800SOL    HW132033   3.772   1.216   7.887 -0.9589  0.3545 -0.1248
 6800SOL    HW232034   3.692   1.115   7.810 -0.2721  0.3029  0.6960
 6801SOL     OW32035   3.569   1.298  16.472  0.1400 -0.9098 -0.6118
 6801SOL    HW132036   3.661   1.285  16.447  0.2840 -0.2348 -0.4235
 6801SOL    HW232037   3.546   1.360  16.402  0.2201 -2.2587 -1.8461
 6802SOL     OW32038   3.176   4.460  13.702  0.5465 -0.0130 -0.9747
 6802SOL    HW132039   3.087   4.423  13.696  0.3599  0.1704  0.7595
 6802SOL    HW232040   3.226   4.386  13.668  2.2613 -0.0351  1.6465
 6803SOL     OW32041   4.511   4.261   0.355  0.7103  0.4976 -0.1727
 6803SOL    HW132042   4.482   4.317   0.282 -2.3676 -0.9925 -0.0754
 6803SOL    HW232043   4.542   4.331   0.413  1.8661  0.1773 -0.4189
 6804SOL     OW32044   3.361   2.254   8.334  0.1529 -0.2223 -0.9047
 6804SOL    HW132045   3.419   2.229   8.405  1.5479  0.2665 -1.8683
 6804SOL    HW232046   3.328   2.167   8.311  0.2843 -0.8244  1.1950
 6805SOL     OW32047   0.898   2.129  13.021  0.0728 -0.3435  0.1495
 6805SOL    HW132048   0.859   2.185  13.088  0.1110  0.7663 -0.7528
 6805SOL    HW232049   0.941   2.195  12.966 -2.2874 -0.9766 -2.4574
 6806SOL     OW32050   3.078   1.042   0.689  0.3526  0.5438  0.5731
 6806SOL    HW132051   3.006   1.061   0.749 -0.2135  1.0684 -0.2739
 6806SOL    HW232052   3.095   1.132   0.660  1.5338  0.9636  2.5379
 6807SOL     OW32053   0.194   0.475   6.639  0.2759 -0.3999 -0.5216
 6807SOL    HW132054   0.146   0.558   6.636 -0.6462 -0.9193 -0.1617
 6807SOL    HW232055   0.196   0.459   6.544  3.9316 -1.4992 -0.2846
 6808SOL     OW32056   3.371   2.798  16.413  0.6197 -0.0250 -0.0839
 6808SOL    HW132057   3.384   2.726  16.352  1.5898 -1.7735  2.1685
 6808SOL    HW232058   3.443   2.854  16.382 -0.9686  1.3042 -1.3602
 6809SOL     OW32059   2.382   1.337   3.052 -0.6820  0.1740  0.3426
 6809SOL    HW132060   2.372   1.249   3.088  1.6731 -1.0752 -2.0329
 6809SOL    HW232061   2.389   1.388   3.132  0.1805 -0.8764  0.9357
 6810SOL     OW32062   1.369   3.317   3.045  0.4572  0.1587  0.4804
 6810SOL    HW132063   1.390   3.258   3.117  0.2595 -0.5808 -0.0684
 6810SOL    HW232064   1.274   3.319   3.055  0.4323  0.0530  0.2608
 6811SOL     OW32065   0.787   4.256  13.513  0.0107  0.1757 -0.0537
 6811SOL    HW132066   0.769   4.321  13.445 -1.1437 -1.6016 -1.4767
 6811SOL    HW232067   0.805   4.313  13.587 -0.6511 -0.1425  0.3575
 6812SOL     OW32068   3.905   1.426  13.594  0.3396  0.4535  0.0240
 6812SOL    HW132069   3.857   1.497  13.638  0.9979 -0.3089  2.0088
 6812SOL    HW232070   3.885   1.443  13.503 -2.0516 -2.3332  0.0366
 6813SOL     OW32071   1.216   1.536  12.279  0.3404  0.1381  0.0144
 6813SOL    HW132072   1.207   1.525  12.184 -1.6527 -0.5427  0.2699
 6813SOL    HW232073   1.172   1.454  12.300  1.0017 -0.0717  0.5647
 6814SOL     OW32074   3.970   2.173   7.862 -1.0262 -0.5011 -0.1431
 6814SOL    HW132075   3.880   2.167   7.896 -0.4223 -1.7769  1.1911
 6814SOL    HW232076   4.011   2.111   7.921 -0.1791 -1.1746 -1.4527
 6815SOL     OW32077   1.084   1.431  16.911  0.0592 -0.0606  0.2646
 6815SOL    HW132078   1.072   1.526  16.901  2.9963 -0.1444 -3.7227
 6815SOL    HW232079   1.143   1.431  16.987  1.8603 -1.0361 -1.1332
 6816SOL     OW32080   1.576   0.906   3.275 -0.2127 -0.1689  0.5604
 6816SOL    HW132081   1.528   0.848   3.333  0.4053 -1.3959 -0.1522
 6816SOL    HW232082   1.586   0.979   3.336 -1.7466 -0.4869  1.1951
 6817SOL     OW32083   0.385   3.738  14.943 -0.0761  0.2612 -0.6092
 6817SOL    HW132084   0.339   3.769  15.021  0.4815  0.2959 -0.2930
 6817SOL    HW232085   0.361   3.806  14.879  0.5235  0.5700 -0.5028
 6818SOL     OW32086   3.007   1.494   8.266  0.5118  0.5002  0.0050
 6818SOL    HW132087   3.043   1.533   8.346 -0.0278  0.5455  0.2268
 6818SOL    HW232088   2.981   1.410   8.302 -0.1379  1.1160  0.9745
 6819SOL     OW32089   4.542   3.046  11.504  0.2065 -0.3062  0.2559
 6819SOL    HW132090   4.458   3.013  11.536 -1.2672  1.8102 -1.4742
 6819SOL    HW232091   4.548   3.116  11.568  0.0992 -1.5153  1.5915
 6820SOL     OW32092   2.914   0.087   0.103 -0.2364 -0.0678 -0.8034
 6820SOL    HW132093   2.920   4.727   0.098  1.7115  0.0315 -0.1844
 6820SOL    HW232094   2.960   0.091   0.186  0.6108  1.5208 -1.3486
 6821SOL     OW32095   2.728   1.862  12.973  0.7108 -0.1285 -0.0981
 6821SOL    HW132096   2.744   1.945  12.928 -0.8363 -0.7520 -1.7750
 6821SOL    HW232097   2.789   1.800  12.932 -2.9547 -2.8387 -1.4067
 6822SOL     OW32098   3.456   2.498   6.521  0.1644 -0.6904  0.8064
 6822SOL    HW132099   3.428   2.542   6.440  1.0364 -0.6647  0.5195
 6822SOL    HW232100   3.525   2.557   6.553 -0.8114 -0.4645  2.4833
 6823SOL     OW32101   3.823   4.241   8.999 -0.0724 -0.5207 -0.6574
 6823SOL    HW132102   3.898   4.267   8.945 -0.0954  0.4463 -0.2242
 6823SOL    HW232103   3.757   4.260   8.932  1.1681 -0.1566 -1.7954
 6824SOL     OW32104   0.502   2.230  11.994  0.4994 -0.4445 -0.5513
 6824SOL    HW132105   0.433   2.231  11.928  1.9477 -1.5139 -2.0828
 6824SOL    HW232106   0.568   2.254  11.928 -0.1521  1.4913 -0.5154
 6825SOL     OW32107   1.795   3.591   9.256  0.2807  0.1737 -0.2930
 6825SOL    HW132108   1.807   3.606   9.162  1.9605  4.0395  0.5586
 6825SOL    HW232109   1.839   3.665   9.298  0.7256  0.0194 -0.4903
 6826SOL     OW32110   1.497   1.601  12.335 -0.3244 -0.3742  0.6309
 6826SOL    HW132111   1.543   1.665  12.279 -1.0730 -0.3359  0.0637
 6826SOL    HW232112   1.406   1.619  12.310  0.7515  2.6087 -1.2342
 6827SOL     OW32113   4.088   1.531   7.809 -0.2321  0.3950 -0.4139
 6827SOL    HW132114   4.095   1.618   7.850 -1.4997  0.1766  0.2399
 6827SOL    HW232115   4.176   1.546   7.775  0.3025  0.0097  0.8023
 6828SOL     OW32116   2.302   2.743   3.418 -0.5534 -0.0121 -0.0950
 6828SOL    HW132117   2.250   2.815   3.382  0.2213  0.2875 -0.6127
 6828SOL    HW232118   2.254   2.731   3.501 -0.6489  1.2089  0.0326
 6829SOL     OW32119   0.163   3.365  13.056 -0.5467  0.2907 -0.0689
 6829SOL    HW132120   0.090   3.427  13.057 -0.1362  0.7563  2.3399
 6829SOL    HW232121   0.233   3.410  13.104  0.1410 -1.5714  0.6855
 6830SOL     OW32122   0.504   3.654   5.852 -0.1849 -0.2277  0.2152
 6830SOL    HW132123   0.467   3.742   5.844  2.0932  0.7707  0.6602
 6830SOL    HW232124   0.515   3.635   5.759  0.6248 -0.5185  0.3717
 6831SOL     OW32125   3.521   3.254   7.685  0.0399  0.3313  0.6872
 6831SOL    HW132126   3.564   3.232   7.767  1.5870 -1.5460 -0.6248
 6831SOL    HW232127   3.505   3.344   7.711 -4.4257  0.5533 -2.7241
 6832SOL     OW32128   2.425   4.282  12.875 -0.1723  0.2244  0.5984
 6832SOL    HW132129   2.366   4.234  12.933  1.5632 -1.7172  0.7534
 6832SOL    HW232130   2.485   4.333  12.930 -2.1406  0.1235  2.8332
 6833SOL     OW32131   1.752   0.033  10.105 -0.3342  0.2908 -0.7412
 6833SOL    HW132132   1.668   0.036  10.060 -0.8787 -0.0761  0.2521
 6833SOL    HW232133   1.721   0.003  10.191 -0.4337  3.4258  0.3263
 6834SOL     OW32134   3.209   0.940   0.466  0.2820  0.3879  0.0506
 6834SOL    HW132135   3.298   0.909   0.474  0.6044  1.3635  0.2770
 6834SOL    HW232136   3.180   0.956   0.556  0.5525 -1.8390  0.5317
 6835SOL     OW32137   0.026   0.564   4.190  0.0973  0.2199 -0.2479
 6835SOL    HW132138   0.016   0.629   4.121  1.1829 -1.0233 -1.5889
 6835SOL    HW232139   4.683   0.588   4.238  0.2762  1.0781 -0.3878
 6836SOL     OW32140   3.826   4.226  15.498  0.7256  0.5237  0.0486
 6836SOL    HW132141   3.855   4.304  15.545  2.1016  0.3945 -0.5955
 6836SOL    HW232142   3.732   4.223  15.520  0.9333  0.2589  0.9001
 6837SOL     OW32143   0.618   4.039   3.539  0.1532  0.3896  0.1665
 6837SOL    HW132144   0.663   4.056   3.456 -0.7657  0.6997 -0.2669
 6837SOL    HW232145   0.539   4.094   3.537  0.5498  0.9146 -0.8207
 6838SOL     OW32146   0.707   2.549   4.116 -0.4560  0.0961  0.3336
 6838SOL    HW132147   0.634   2.491   4.092 -0.7766  0.8140 -0.4282
 6838SOL    HW232148   0.667   2.635   4.107  1.0256  0.6732 -0.6762
 6839SOL     OW32149   3.663   0.076   5.939 -0.3769 -0.1710  0.3125
 6839SOL    HW132150   3.599   0.034   5.882  0.3916 -0.6839 -0.1683
 6839SOL    HW232151   3.631   0.167   5.934 -3.3224 -1.1518  1.2644
 6840SOL     OW32152   0.757   2.689  10.439  0.3062  0.1334  0.4686
 6840SOL    HW132153   0.745   2.595  10.451  0.9895  0.1402  1.1986
 6840SOL    HW232154   0.701   2.703  10.363 -1.0493 -3.3900  0.8001
 6841SOL     OW32155   0.573   1.975   0.038  0.3257  0.2165  0.0637
 6841SOL    HW132156   0.590   2.051   0.094 -0.4554 -1.6345  2.8582
 6841SOL    HW232157   0.481   1.958   0.059 -0.1346  2.6253 -0.0021
 6842SOL     OW32158   2.641   2.900   3.012  0.2439  0.4084 -0.0681
 6842SOL    HW132159   2.659   2.830   2.949  0.2940 -0.7971  1.3057
 6842SOL    HW232160   2.732   2.916   3.036  0.1262  0.4087  0.3731
 6843SOL     OW32161   1.283   4.286  10.741  0.1368  0.0482 -0.1049
 6843SOL    HW132162   1.352   4.350  10.727 -1.1047  1.0363 -1.7542
 6843SOL    HW232163   1.209   4.319  10.690 -0.3488 -1.9893 -0.7299
 6844SOL     OW32164   3.043   3.651   8.979  0.2907 -0.3520  0.3179
 6844SOL    HW132165   3.054   3.617   9.068  0.2570 -3.3293 -0.8172
 6844SOL    HW232166   2.948   3.664   8.986  0.4221  0.8678 -0.2548
 6845SOL     OW32167   4.612   4.433   9.245  0.3272 -0.2455 -0.2041
 6845SOL    HW132168   4.525   4.442   9.205  0.4151  3.5052  0.4613
 6845SOL    HW232169   4.599   4.408   9.337 -0.1349  0.6128 -0.0342
 6846SOL     OW32170   4.481   2.734   4.556  0.5595 -0.2828 -0.0256
 6846SOL    HW132171   4.444   2.662   4.506  1.1514  0.2698 -1.2591
 6846SOL    HW232172   4.474   2.691   4.641  0.6421 -0.3001 -0.0278
 6847SOL     OW32173   0.579   0.816  14.543 -0.9438 -0.0278 -0.3637
 6847SOL    HW132174   0.578   0.898  14.494 -1.8404  0.3415  0.2732
 6847SOL    HW232175   0.658   0.780  14.502 -0.4008 -0.6245  1.1853
 6848SOL     OW32176   3.488   0.524  12.480  0.5740  0.5437  0.1592
 6848SOL    HW132177   3.409   0.534  12.427 -0.2366 -0.3109  1.2052
 6848SOL    HW232178   3.549   0.518  12.407 -1.1832 -1.7902 -1.0894
 6849SOL     OW32179   1.862   2.288   6.780  0.2867  0.3864 -0.7113
 6849SOL    HW132180   1.945   2.292   6.732 -0.3084 -2.3540 -1.9527
 6849SOL    HW232181   1.854   2.382   6.795  1.0601  0.2642  0.5193
 6850SOL     OW32182   2.302   0.407   6.711  0.1715  0.1673  0.2046
 6850SOL    HW132183   2.212   0.392   6.740  0.6251 -0.1770  1.4300
 6850SOL    HW232184   2.306   0.347   6.636 -0.0287 -1.8882  1.8319
 6851SOL     OW32185   0.661   1.975   1.974  0.1281  0.1525 -0.0691
 6851SOL    HW132186   0.680   2.059   2.017 -0.6775  1.0296 -1.4301
 6851SOL    HW232187   0.585   1.942   2.022  2.3935 -0.2372  3.2440
 6852SOL     OW32188   2.258   4.295  12.214 -0.1769 -0.0311 -0.1907
 6852SOL    HW132189   2.320   4.361  12.183  0.3498 -0.4153  0.0484
 6852SOL    HW232190   2.201   4.352  12.266 -2.6797 -1.4302 -1.4292
 6853SOL     OW32191   2.937   2.699   6.675 -0.2059  0.1570 -0.2556
 6853SOL    HW132192   2.873   2.764   6.646  0.0818 -1.0275 -3.5632
 6853SOL    HW232193   2.883   2.621   6.665  0.7331 -0.5025 -0.1067
 6854SOL     OW32194   2.287   4.494   0.661  0.4558 -0.1288 -0.1751
 6854SOL    HW132195   2.317   4.426   0.722  2.5813  0.9560 -0.0005
 6854SOL    HW232196   2.245   4.437   0.596 -1.1293 -0.9983  1.6201
 6855SOL     OW32197   0.174   2.345   8.308  0.0457 -0.0667  0.1102
 6855SOL    HW132198   0.242   2.409   8.288  2.6473 -2.2403  1.9631
 6855SOL    HW232199   0.186   2.269   8.251 -1.8376  2.5040 -3.6323
 6856SOL     OW32200   3.321   2.995   7.336  0.2623  0.4518  0.4026
 6856SOL    HW132201   3.375   3.049   7.394  2.8681 -1.1070 -0.5867
 6856SOL    HW232202   3.342   2.913   7.380 -0.6946  0.1147  0.2421
 6857SOL     OW32203   1.111   3.779   3.865 -0.5283 -0.7467 -0.8567
 6857SOL    HW132204   1.032   3.823   3.896 -0.1099 -0.5510 -0.0687
 6857SOL    HW232205   1.173   3.852   3.862 -1.7160  0.2877 -0.1534
 6858SOL     OW32206   1.598   2.692   3.001  0.0376 -0.2227  0.3231
 6858SOL    HW132207   1.683   2.649   2.999  0.4452  0.4341  2.5520
 6858SOL    HW232208   1.614   2.767   3.060  1.1211 -1.1976  1.2667
 6859SOL     OW32209   2.275   2.150  10.169  0.3293  0.6419 -0.5798
 6859SOL    HW132210   2.360   2.114  10.190 -0.3008 -0.5903 -0.1622
 6859SOL    HW232211   2.301   2.238  10.141  2.2915 -0.4314 -2.0959
 6860SOL     OW32212   4.582   1.163   8.987  0.3774 -0.1584  0.2640
 6860SOL    HW132213   4.523   1.235   8.965  2.7997  1.8662  0.3610
 6860SOL    HW232214   4.519   1.092   8.998  1.3365 -0.8740  1.0520
 6861SOL     OW32215   4.728   1.702   4.039 -0.0123  0.0420  0.1012
 6861SOL    HW132216   4.635   1.725   4.044  0.1687  0.3531  2.2941
 6861SOL    HW232217   0.017   1.708   3.947  0.5769 -1.0791  0.1835
 6862SOL     OW32218   1.554   1.658   3.856  0.1132 -0.0765  0.1857
 6862SOL    HW132219   1.512   1.575   3.876 -2.4688  1.1139 -0.2997
 6862SOL    HW232220   1.641   1.660   3.895  0.2743  5.1869 -0.3653
 6863SOL     OW32221   3.313   0.471   8.637  0.9635 -0.4709 -0.3796
 6863SOL    HW132222   3.325   0.429   8.723  0.4572 -0.6749 -0.4070
 6863SOL    HW232223   3.405   0.482   8.615  1.0194  0.6581  0.4465
 6864SOL     OW32224   2.016   0.673   9.554 -0.3471  0.3039 -0.3116
 6864SOL    HW132225   2.007   0.614   9.629  1.3915  1.6176  0.9558
 6864SOL    HW232226   2.066   0.741   9.600 -3.7630  2.0148  0.8275
 6865SOL     OW32227   0.803   0.783   1.925 -0.3599  0.5981 -0.0536
 6865SOL    HW132228   0.872   0.846   1.901  0.0440 -0.3509 -1.3761
 6865SOL    HW232229   0.720   0.829   1.913 -0.8188  0.0171  0.9039
 6866SOL     OW32230   3.848   2.937   8.039  1.0493  0.1889 -0.1166
 6866SOL    HW132231   3.812   2.959   8.125  2.8357  0.3608  0.5817
 6866SOL    HW232232   3.915   2.877   8.071  0.4984 -0.1846  0.3372
 6867SOL     OW32233   2.965   3.136   7.473  0.2025  0.3425 -0.1083
 6867SOL    HW132234   3.040   3.082   7.451  0.9633  1.0287  0.7827
 6867SOL    HW232235   2.924   3.084   7.543  0.7234 -0.3138 -0.2929
 6868SOL     OW32236   1.834   2.966   1.927 -0.2213  0.0649 -0.4068
 6868SOL    HW132237   1.908   3.026   1.920  0.2877 -0.4092  0.8868
 6868SOL    HW232238   1.834   2.933   1.837 -1.0582 -3.0574  0.7356
 6869SOL     OW32239   2.282   1.883   1.750  0.0482  0.3452  0.7068
 6869SOL    HW132240   2.224   1.826   1.799  0.9311  0.1696  1.5428
 6869SOL    HW232241   2.319   1.925   1.827  2.3225 -2.2640  1.0267
 6870SOL     OW32242   2.650   2.781   7.863 -0.3090  0.5634  0.3064
 6870SOL    HW132243   2.560   2.808   7.879 -0.3499 -1.5942  3.7241
 6870SOL    HW232244   2.677   2.747   7.949  0.5160  1.3376  0.3531
 6871SOL     OW32245   3.082   0.317  12.173  0.2228 -0.0052 -0.1212
 6871SOL    HW132246   3.143   0.304  12.245  0.5095 -1.0123 -0.5487
 6871SOL    HW232247   3.043   0.402  12.192  0.7328  0.4098 -0.8866
 6872SOL     OW32248   1.131   1.351   1.712 -0.0062  0.8739 -0.0167
 6872SOL    HW132249   1.130   1.259   1.686 -2.3708  0.3484  1.9193
 6872SOL    HW232250   1.089   1.397   1.639  0.5219  2.6304  0.7761
 6873SOL     OW32251   4.681   1.968   3.132  0.3539  0.5957  0.0286
 6873SOL    HW132252   4.653   2.046   3.181 -1.1519 -0.6003  1.0623
 6873SOL    HW232253   4.730   1.928   3.204 -2.3368 -0.6181  1.1563
 6874SOL     OW32254   1.860   2.000   9.588  0.0005 -0.0946  0.1411
 6874SOL    HW132255   1.865   1.905   9.574  1.7259  0.4348 -2.8285
 6874SOL    HW232256   1.931   2.019   9.528 -1.5360  1.2244 -1.2317
 6875SOL     OW32257   4.335   4.599   6.672 -0.5063 -0.0472  0.2353
 6875SOL    HW132258   4.292   4.673   6.629  0.3673  0.4036  0.1358
 6875SOL    HW232259   4.302   4.521   6.628 -1.2024 -0.2195  1.0679
 6876SOL     OW32260   3.450   4.368  12.343 -0.2400  0.2611  0.2709
 6876SOL    HW132261   3.543   4.347  12.338 -0.6950 -1.5561 -0.7687
 6876SOL    HW232262   3.427   4.299  12.405  1.7142 -0.1794  0.4951
 6877SOL     OW32263   3.597   2.059   3.984  0.5004 -0.5689 -0.3402
 6877SOL    HW132264   3.545   1.983   3.959 -0.2952  0.9437 -3.2308
 6877SOL    HW232265   3.551   2.094   4.060  1.1934  0.6360 -0.4789
 6878SOL     OW32266   2.398   2.368   4.514  0.0802  0.0095  0.3326
 6878SOL    HW132267   2.474   2.419   4.485 -1.2363  2.9417  2.0212
 6878SOL    HW232268   2.351   2.352   4.432 -1.0968  2.6276  0.4940
 6879SOL     OW32269   3.276   0.010   6.830  0.2989 -0.7311  0.0229
 6879SOL    HW132270   3.229   0.050   6.757  1.1874  1.3926  0.6245
 6879SOL    HW232271   3.272   4.656   6.796  1.5926 -0.6793 -0.2890
 6880SOL     OW32272   0.336   1.318   7.091  0.4460 -0.9187 -0.3858
 6880SOL    HW132273   0.272   1.367   7.039  0.7016 -1.2344 -0.9983
 6880SOL    HW232274   0.343   1.233   7.048 -0.8349 -1.9462  1.4456
 6881SOL     OW32275   1.916   0.617   8.911  0.1416  0.1690 -0.2352
 6881SOL    HW132276   1.976   0.670   8.860  0.7732 -0.3117  0.0124
 6881SOL    HW232277   1.845   0.678   8.931 -0.7041 -1.3079  1.3511
 6882SOL     OW32278   1.416   3.519   8.752 -0.0687 -0.2287 -0.0295
 6882SOL    HW132279   1.358   3.526   8.827  0.8524 -0.6416  0.7272
 6882SOL    HW232280   1.383   3.445   8.702  0.1970  0.4550 -1.2031
 6883SOL     OW32281   4.363   4.611   6.283 -0.0159 -0.0990 -0.1382
 6883SOL    HW132282   4.399   4.557   6.353  0.9574  2.8836  1.6586
 6883SOL    HW232283   4.301   4.661   6.336 -0.0010  0.4020 -0.5823
 6884SOL     OW32284   2.767   4.531   3.967  0.1320 -0.0786  0.4107
 6884SOL    HW132285   2.838   4.486   3.921 -0.3996  0.0973 -0.5873
 6884SOL    HW232286   2.704   4.460   3.981 -1.3813  1.0189 -0.8254
 6885SOL     OW32287   2.094   0.916   3.081 -0.4357 -0.5919  0.0304
 6885SOL    HW132288   2.022   0.901   3.141 -0.4522  0.2964  0.2263
 6885SOL    HW232289   2.058   0.955   3.001  0.5606  0.8484  0.2918
 6886SOL     OW32290   2.208   4.059   2.986 -0.1899 -0.0150 -0.7276
 6886SOL    HW132291   2.128   4.072   2.935  0.3901 -2.4591 -2.2680
 6886SOL    HW232292   2.232   4.151   2.996  2.2705 -0.7685  0.2175
 6887SOL     OW32293   0.311   2.769   5.447 -0.5334 -0.6025 -0.4878
 6887SOL    HW132294   0.393   2.811   5.422 -0.1810 -1.3022 -0.5339
 6887SOL    HW232295   0.280   2.827   5.516  1.1129  0.6846 -0.8356
 6888SOL     OW32296   1.721   0.109   5.196 -0.1965 -0.1844 -0.1771
 6888SOL    HW132297   1.807   0.150   5.184 -0.2549  0.9700  3.4164
 6888SOL    HW232298   1.748   0.033   5.247  0.0164  2.1062  3.1286
 6889SOL     OW32299   0.302   4.214   5.151  0.5633 -0.5319  0.3139
 6889SOL    HW132300   0.290   4.303   5.183  1.0222 -0.7702  1.1374
 6889SOL    HW232301   0.319   4.172   5.235 -0.3233 -0.1388  0.7012
 6890SOL     OW32302   4.128   4.149   4.410 -0.1768 -0.3338 -0.4330
 6890SOL    HW132303   4.064   4.218   4.425  0.4831  0.0246  0.7481
 6890SOL    HW232304   4.116   4.129   4.317  0.6180 -1.2604 -0.3347
 6891SOL     OW32305   3.875   3.036   9.727  0.1899  0.0246 -0.1373
 6891SOL    HW132306   3.962   3.030   9.766  0.1286 -1.2398 -0.1866
 6891SOL    HW232307   3.865   2.956   9.676  2.1509 -0.2277 -0.1402
 6892SOL     OW32308   2.857   1.057   7.907  0.2570  0.0382  0.2525
 6892SOL    HW132309   2.889   1.041   7.995 -1.0707 -0.9807  0.5543
 6892SOL    HW232310   2.921   1.126   7.891 -1.3298  1.5614  0.4934
 6893SOL     OW32311   3.269   2.055   5.228 -0.8859  0.2836  0.4982
 6893SOL    HW132312   3.338   2.108   5.267 -0.5084 -0.0619  0.3039
 6893SOL    HW232313   3.290   2.041   5.135  0.4580 -0.2717  0.8869
 6894SOL     OW32314   1.061   2.829   1.978  0.2347 -0.1749  0.5207
 6894SOL    HW132315   1.035   2.738   1.964 -2.1177  0.3323  1.4941
 6894SOL    HW232316   1.155   2.812   1.973  0.5302  0.8470  2.5561
 6895SOL     OW32317   1.217   2.268   6.293 -0.0840 -0.3083 -0.8647
 6895SOL    HW132318   1.197   2.224   6.376 -0.1336  3.0044  0.8926
 6895SOL    HW232319   1.130   2.305   6.278  0.9623  1.8196 -1.6319
 6896SOL     OW32320   0.483   0.993   9.243  0.1765  0.6728 -0.1362
 6896SOL    HW132321   0.497   1.087   9.226 -0.7426  1.1246  1.6516
 6896SOL    HW232322   0.482   0.998   9.338 -1.4779 -1.2014 -0.0624
 6897SOL     OW32323   4.375   3.288  16.240 -0.4935 -0.0557  0.1912
 6897SOL    HW132324   4.460   3.258  16.272 -0.0366  0.8796 -0.1325
 6897SOL    HW232325   4.397   3.264  16.150 -1.0264  1.0260 -0.2322
 6898SOL     OW32326   4.206   4.717   2.778 -0.0522 -0.0110 -0.3775
 6898SOL    HW132327   4.126   0.003   2.730 -0.7752 -2.6958 -0.3848
 6898SOL    HW232328   4.243   4.656   2.713  4.2156  0.7230  1.3811
 6899SOL     OW32329   1.230   0.574   7.229 -0.7180  0.1430 -0.7129
 6899SOL    HW132330   1.274   0.658   7.224  3.5478 -2.1578 -1.8170
 6899SOL    HW232331   1.191   0.570   7.316 -0.6211 -1.0702 -0.7297
 6900SOL     OW32332   0.811   0.439   7.242 -0.0683 -0.4658 -0.0435
 6900SOL    HW132333   0.837   0.348   7.236  0.8129 -0.2456  0.4050
 6900SOL    HW232334   0.798   0.462   7.149  2.5704  0.8486 -0.1025
 6901SOL     OW32335   0.210   4.271   5.910 -0.0648 -0.1219 -0.6244
 6901SOL    HW132336   0.200   4.197   5.850  1.9054 -0.3406 -0.7073
 6901SOL    HW232337   0.185   4.344   5.853  0.5082  0.0074 -0.7130
 6902SOL     OW32338   1.293   0.661   8.198 -0.4928  0.4768  0.5478
 6902SOL    HW132339   1.320   0.630   8.285 -1.9058 -1.3782  0.3080
 6902SOL    HW232340   1.376   0.697   8.168 -1.3738  0.9885 -1.3055
 6903SOL     OW32341   0.110   4.366   3.577 -0.1559  0.4162 -0.2407
 6903SOL    HW132342   0.067   4.321   3.650  2.5405 -1.0549  0.4450
 6903SOL    HW232343   0.197   4.384   3.613 -0.2880  2.2834 -0.8680
 6904SOL     OW32344   0.262   2.401   7.950 -0.7139  0.1649  0.3213
 6904SOL    HW132345   0.178   2.442   7.971 -0.4651  1.5425 -1.3640
 6904SOL    HW232346   0.319   2.467   7.990  1.2785 -1.1636 -0.3148
 6905SOL     OW32347   0.422   0.822   6.166  0.3241 -0.0091  0.6803
 6905SOL    HW132348   0.445   0.803   6.257  2.2023 -0.0411  0.2075
 6905SOL    HW232349   0.506   0.848   6.129  0.6131 -0.8997  0.7002
 6906SOL     OW32350   0.037   2.437   5.020  0.1258  0.2989 -0.2189
 6906SOL    HW132351   0.067   2.356   4.980 -1.9333 -1.2013  1.2428
 6906SOL    HW232352   0.093   2.500   4.975  1.3496 -0.3433  0.4175
 6907SOL     OW32353   0.313   0.339  13.604  0.2605 -0.3867 -0.0090
 6907SOL    HW132354   0.311   0.414  13.663 -1.2769  0.5405 -1.2448
 6907SOL    HW232355   0.235   0.361  13.553  0.5506 -1.0276 -0.7293
 6908SOL     OW32356   4.563   4.441   4.864  0.1002  0.2548  0.0577
 6908SOL    HW132357   4.529   4.367   4.913 -2.4895  0.6762 -1.0891
 6908SOL    HW232358   4.517   4.444   4.780  2.4188  0.5450 -1.1825
 6909SOL     OW32359   4.331   2.608  10.135  0.1636 -0.0665 -0.2462
 6909SOL    HW132360   4.395   2.642  10.198 -1.0522 -0.0270  0.9604
 6909SOL    HW232361   4.302   2.529  10.181  0.6781  0.2209  0.5683
 6910SOL     OW32362   1.124   3.081   1.851  0.3327 -0.1388  0.1714
 6910SOL    HW132363   1.064   3.021   1.894 -0.4687  1.9152  1.9302
 6910SOL    HW232364   1.194   3.092   1.914  0.3283  1.6082 -0.1070
 6911SOL     OW32365   3.344   4.519   6.043 -0.4997 -0.0275  0.3561
 6911SOL    HW132366   3.288   4.495   6.117  0.3547  1.4639  1.4963
 6911SOL    HW232367   3.290   4.589   6.008 -0.6588 -0.4539 -0.2496
 6912SOL     OW32368   2.409   1.957   6.691 -0.1668  0.1552  0.5711
 6912SOL    HW132369   2.472   1.941   6.620  0.6840 -1.9381  1.7865
 6912SOL    HW232370   2.417   1.879   6.747 -1.1384  0.1553  0.7137
 6913SOL     OW32371   3.258   0.257  16.504 -0.2008  0.0175 -0.1120
 6913SOL    HW132372   3.269   0.311  16.583 -0.5005 -0.2379  0.1044
 6913SOL    HW232373   3.200   0.186  16.533 -0.2541 -0.1442 -0.6163
 6914SOL     OW32374   0.089   0.890   3.574  0.2583  0.6894 -0.3105
 6914SOL    HW132375   0.111   0.858   3.487  1.0930  1.5880 -0.4255
 6914SOL    HW232376   0.017   0.944   3.543 -0.4113  0.4227  0.7806
 6915SOL     OW32377   1.804   2.033   1.586  0.0151 -0.0289  0.0067
 6915SOL    HW132378   1.874   1.997   1.531  0.9166 -2.6889  2.9334
 6915SOL    HW232379   1.853   2.042   1.667 -2.3689 -2.0827  1.6848
 6916SOL     OW32380   3.501   2.032   1.518  0.1904 -0.2270 -0.3973
 6916SOL    HW132381   3.579   1.989   1.554  0.4212  1.1159  0.7250
 6916SOL    HW232382   3.455   2.065   1.596 -0.6602 -0.0440 -0.9834
 6917SOL     OW32383   2.693   4.172   7.518 -0.0493 -0.4717 -0.0826
 6917SOL    HW132384   2.759   4.102   7.520 -0.9334 -1.2323  2.5228
 6917SOL    HW232385   2.730   4.235   7.579 -0.3601 -0.6890  0.3260
 6918SOL     OW32386   2.325   0.331   0.967  0.1480  0.2286 -0.0841
 6918SOL    HW132387   2.390   0.310   0.901  0.5223 -0.8802  0.6355
 6918SOL    HW232388   2.321   0.253   1.022 -0.1414 -0.0483 -0.5003
 6919SOL     OW32389   3.206   0.415   6.137 -0.5196  0.2255  0.0699
 6919SOL    HW132390   3.258   0.493   6.117 -0.8918  0.0662 -1.5606
 6919SOL    HW232391   3.229   0.396   6.228  2.0300 -0.6659 -0.7611
 6920SOL     OW32392   1.543   1.017   8.735 -0.3431  0.5223  0.1738
 6920SOL    HW132393   1.462   0.998   8.688 -0.4683 -0.9280  0.9672
 6920SOL    HW232394   1.600   1.019   8.658  0.9866  1.2810  1.1719
 6921SOL     OW32395   4.394   2.315   6.657 -0.6402  0.4208  0.1705
 6921SOL    HW132396   4.415   2.222   6.647  0.0258  0.4052  1.7651
 6921SOL    HW232397   4.469   2.347   6.707 -1.0284  0.4328  0.7460
 6922SOL     OW32398   0.160   4.096   3.377 -0.1539 -0.4294  0.7177
 6922SOL    HW132399   0.123   4.009   3.389 -1.8694  0.3946  1.3837
 6922SOL    HW232400   0.098   4.140   3.319 -0.1395 -1.8140 -0.3498
 6923SOL     OW32401   4.609   3.479   5.456  0.2617 -0.2636 -0.2132
 6923SOL    HW132402   4.562   3.562   5.445  0.4612 -0.0677  0.4241
 6923SOL    HW232403   4.618   3.446   5.366 -1.0050  2.3570 -1.3032
 6924SOL     OW32404   0.374   4.396   3.992 -0.2782 -0.3671 -0.3997
 6924SOL    HW132405   0.318   4.333   3.947  0.7493 -2.0781  0.7424
 6924SOL    HW232406   0.336   4.391   4.080  1.8794 -0.1386  0.5419
 6925SOL     OW32407   3.749   0.108   8.566  0.0945  0.0840  0.0023
 6925SOL    HW132408   3.824   0.167   8.559 -1.5568  2.1778 -0.1682
 6925SOL    HW232409   3.685   0.143   8.504 -0.2708 -0.3523  0.1341
 6926SOL     OW32410   0.711   4.534   8.404 -0.1774  0.1519 -1.2622
 6926SOL    HW132411   0.687   4.472   8.472 -1.3510  1.3959 -0.5326
 6926SOL    HW232412   0.761   4.482   8.341  0.3843 -1.7400  0.7242
 6927SOL     OW32413   3.276   2.392   6.118  0.1744 -0.3897 -0.4439
 6927SOL    HW132414   3.223   2.401   6.197  1.4978 -0.5794  0.4664
 6927SOL    HW232415   3.278   2.470   6.062  1.2753  0.0130  0.1496
 6928SOL     OW32416   0.591   0.960   8.931 -0.1663 -0.4573 -0.0683
 6928SOL    HW132417   0.498   0.981   8.934  0.2685  1.3591  0.5635
 6928SOL    HW232418   0.632   1.046   8.920  0.8936 -0.9988 -0.2993
 6929SOL     OW32419   1.259   3.368   9.933  0.3662  0.2449 -0.0836
 6929SOL    HW132420   1.303   3.294   9.974  0.6863  2.2567  3.1792
 6929SOL    HW232421   1.327   3.410   9.880 -0.8005  3.3788  0.9284
 6930SOL     OW32422   2.687   0.509   4.161 -0.3687 -0.3114 -0.1228
 6930SOL    HW132423   2.685   0.521   4.256  2.0888 -0.9400 -0.0035
 6930SOL    HW232424   2.665   0.596   4.130  0.7972  0.2115  0.5115
 6931SOL     OW32425   3.455   2.188   4.182 -0.2526  0.1696  0.0992
 6931SOL    HW132426   3.415   2.159   4.264 -0.5769 -0.0321 -0.1313
 6931SOL    HW232427   3.390   2.253   4.155 -0.7302 -0.5389 -0.4400
 6932SOL     OW32428   0.200   2.783   7.845 -0.4790  0.9189 -0.3425
 6932SOL    HW132429   0.216   2.843   7.773  1.1474  0.6612 -0.1982
 6932SOL    HW232430   0.131   2.734   7.800 -1.3213 -0.2979  2.2344
 6933SOL     OW32431   0.777   0.682  16.359 -0.5798  0.2376  0.0915
 6933SOL    HW132432   0.775   0.611  16.296  1.5689  0.9579 -0.7681
 6933SOL    HW232433   0.792   0.756  16.300 -2.3457  0.5965  0.0818
 6934SOL     OW32434   1.609   4.101  11.813  0.2329  0.4894  0.4131
 6934SOL    HW132435   1.571   4.020  11.845  0.9036  0.1035  0.2293
 6934SOL    HW232436   1.548   4.165  11.849 -0.1300 -0.6165  1.7484
 6935SOL     OW32437   2.534   0.103   1.965 -0.2524  0.5308  0.0212
 6935SOL    HW132438   2.610   0.046   1.977 -1.5943 -1.5033 -1.3072
 6935SOL    HW232439   2.456   0.048   1.954 -0.7633  1.5778 -1.5311
 6936SOL     OW32440   0.952   4.507  14.236  0.4657 -0.2275  0.0414
 6936SOL    HW132441   0.962   4.594  14.197 -0.0186  0.1258  0.7097
 6936SOL    HW232442   0.968   4.517  14.330 -1.3934 -0.1157  0.3453
 6937SOL     OW32443   1.185   2.280   5.241 -0.2762  0.3260  0.1215
 6937SOL    HW132444   1.202   2.259   5.332  2.4182  1.6320 -0.0835
 6937SOL    HW232445   1.236   2.360   5.230  1.3731 -0.7870 -0.4423
 6938SOL     OW32446   2.606   1.046   2.491 -0.0386  0.1906 -0.7736
 6938SOL    HW132447   2.688   1.080   2.527  0.4309 -2.2177  0.4130
 6938SOL    HW232448   2.550   1.116   2.525  1.1664 -0.0033  1.6461
 6939SOL     OW32449   4.036   3.079  17.032  0.6482  0.3813 -0.1166
 6939SOL    HW132450   3.972   3.072  16.960  0.1140  1.5542  0.2392
 6939SOL    HW232451   3.994   3.039  17.108  0.0501 -1.5858 -1.4816
 6940SOL     OW32452   2.865   0.644   8.427 -0.6533  0.4450  0.0972
 6940SOL    HW132453   2.940   0.609   8.476 -1.3951 -0.1191  0.8288
 6940SOL    HW232454   2.879   0.609   8.340 -1.0709 -0.2002  0.2935
 6941SOL     OW32455   0.219   0.247  16.520  0.6276 -0.3664  0.1981
 6941SOL    HW132456   0.257   0.172  16.565  1.8782  0.6271  0.7723
 6941SOL    HW232457   0.291   0.287  16.472  0.6489  0.8806  1.2571
 6942SOL     OW32458   0.319   0.194   4.897  0.0209  0.1991 -0.1005
 6942SOL    HW132459   0.365   0.274   4.875 -2.2713  2.3037  2.7950
 6942SOL    HW232460   0.302   0.159   4.809 -1.0676  0.8689 -0.1601
 6943SOL     OW32461   4.569   3.959   7.977 -0.2013  0.2296  0.1192
 6943SOL    HW132462   4.534   3.955   7.888  1.4240 -1.5886 -0.4234
 6943SOL    HW232463   4.498   3.943   8.040 -0.4898  2.0895  0.2722
 6944SOL     OW32464   3.194   0.559   2.534  0.4243  0.7346 -0.1383
 6944SOL    HW132465   3.162   0.536   2.447  1.1683 -0.3381 -0.1236
 6944SOL    HW232466   3.158   0.647   2.543  1.8103  1.2169  0.8059
 6945SOL     OW32467   0.773   2.933  11.720  0.0624  0.5305 -0.7116
 6945SOL    HW132468   0.696   2.938  11.663 -1.4149  1.0349  1.3519
 6945SOL    HW232469   0.820   3.012  11.692 -1.3752  1.4976 -0.3605
 6946SOL     OW32470   3.073   0.495   1.264 -0.2968 -0.4677 -0.3139
 6946SOL    HW132471   3.039   0.580   1.290  0.1251 -0.3523 -0.1348
 6946SOL    HW232472   3.156   0.492   1.312 -0.3073  2.1219 -0.1336
 6947SOL     OW32473   4.070   4.564   3.968  0.2008  0.7553 -0.6842
 6947SOL    HW132474   4.095   4.655   3.947  0.2770  1.0650  0.7312
 6947SOL    HW232475   4.047   4.529   3.882 -0.4204 -1.9491  0.6024
 6948SOL     OW32476   0.757   2.544   6.415 -1.1323  0.0427 -0.5236
 6948SOL    HW132477   0.783   2.613   6.476  1.3868 -0.4393 -1.0523
 6948SOL    HW232478   0.839   2.523   6.370  0.0296  2.0133  0.6414
 6949SOL     OW32479   0.597   4.625  14.566  0.4344  0.1572  0.3630
 6949SOL    HW132480   0.673   4.625  14.624  1.6615 -1.8779 -1.2511
 6949SOL    HW232481   0.609   4.709  14.522  2.4730 -0.7558 -0.8074
 6950SOL     OW32482   2.770   1.582   7.622  0.5446  0.4077  0.0781
 6950SOL    HW132483   2.697   1.540   7.577  0.4207 -0.2318  0.8848
 6950SOL    HW232484   2.802   1.517   7.685 -0.8969  1.3305  1.7454
 6951SOL     OW32485   1.934   0.041   8.352  1.0966 -0.4363 -0.1436
 6951SOL    HW132486   1.933   0.126   8.396 -1.9909  0.4057 -1.8808
 6951SOL    HW232487   1.900   4.714   8.417  1.1489 -0.4558 -0.1348
 6952SOL     OW32488   1.872   1.105   9.452  0.4022  0.0834  0.2649
 6952SOL    HW132489   1.861   1.141   9.364  2.1091  0.7177  0.3066
 6952SOL    HW232490   1.954   1.057   9.448 -0.0395 -0.6336 -0.1869
 6953SOL     OW32491   3.907   1.601   6.511 -0.3517  0.9452  0.0604
 6953SOL    HW132492   3.937   1.690   6.493  1.8320 -0.0959 -1.4415
 6953SOL    HW232493   3.991   1.562   6.532 -1.4041 -0.2942  1.8950
 6954SOL     OW32494   1.680   4.063  12.275 -0.4905 -0.2643  0.8324
 6954SOL    HW132495   1.608   4.088  12.333  0.7770  0.9816  1.8550
 6954SOL    HW232496   1.644   4.074  12.188  1.2039  0.4971  0.2322
 6955SOL     OW32497   3.032   0.440   8.039  0.4332  0.1541  0.0286
 6955SOL    HW132498   3.101   0.417   8.101 -0.0898 -0.9558  0.2018
 6955SOL    HW232499   3.046   0.534   8.033 -1.2224  0.3955  0.0949
 6956SOL     OW32500   2.016   2.743   1.118  0.1885  0.2945  0.6479
 6956SOL    HW132501   2.076   2.814   1.139  0.1584  0.0962  1.3844
 6956SOL    HW232502   1.940   2.754   1.175 -0.0011  0.7570  0.3130
 6957SOL     OW32503   2.697   2.260   2.528  0.1894  0.0384  0.2840
 6957SOL    HW132504   2.773   2.318   2.529 -0.7626  1.2747  0.5551
 6957SOL    HW232505   2.636   2.309   2.472  0.7126 -0.2197 -0.5087
 6958SOL     OW32506   0.990   0.618   5.321 -0.2092 -0.1465 -0.1416
 6958SOL    HW132507   0.907   0.576   5.338 -0.4788 -0.0865 -1.2878
 6958SOL    HW232508   0.973   0.710   5.342 -1.0372 -0.3001 -0.1548
 6959SOL     OW32509   1.330   1.266  16.833  0.3138  0.3110 -0.1168
 6959SOL    HW132510   1.248   1.314  16.823  1.4151  1.6075 -2.6553
 6959SOL    HW232511   1.322   1.200  16.764  0.1956 -0.4952  0.6536
 6960SOL     OW32512   3.398   0.789   0.801  0.4341  0.4030 -0.6353
 6960SOL    HW132513   3.431   0.737   0.874 -1.3123  0.1898 -0.0003
 6960SOL    HW232514   3.441   0.742   0.730 -0.3300 -0.3695 -0.5875
 6961SOL     OW32515   2.805   0.268   8.145  0.2107 -0.5195 -0.1692
 6961SOL    HW132516   2.860   0.334   8.103 -1.5280  1.6351  1.0161
 6961SOL    HW232517   2.720   0.309   8.133  0.2568  0.4967  3.0374
 6962SOL     OW32518   1.498   2.307   8.242 -0.1153  0.1021  0.1609
 6962SOL    HW132519   1.581   2.353   8.258  0.5119 -0.4108 -1.6480
 6962SOL    HW232520   1.512   2.282   8.151  0.3041  0.0284  0.2418
 6963SOL     OW32521   3.001   1.988   3.253 -0.3333 -0.1205  0.0040
 6963SOL    HW132522   2.916   2.003   3.212 -0.2555 -0.7763 -0.3960
 6963SOL    HW232523   3.004   2.073   3.296 -2.2252  0.6162 -1.3405
 6964SOL     OW32524   4.263   4.294   1.764 -0.5520 -0.0790 -0.4610
 6964SOL    HW132525   4.257   4.345   1.844  1.0548  0.8630 -0.9366
 6964SOL    HW232526   4.245   4.359   1.695 -1.5715  0.6012  0.4494
 6965SOL     OW32527   3.461   3.299   4.816  0.0611 -0.4073  0.5026
 6965SOL    HW132528   3.496   3.289   4.728  0.6848 -3.2595  1.0531
 6965SOL    HW232529   3.429   3.388   4.802  0.6463 -0.0851  1.2066
 6966SOL     OW32530   2.581   3.818   6.160  0.6376  0.0280 -0.0701
 6966SOL    HW132531   2.551   3.737   6.120  1.9701 -0.0383 -0.9428
 6966SOL    HW232532   2.510   3.832   6.222  0.6623 -0.4486  0.0599
 6967SOL     OW32533   2.931   1.369   8.982  0.1877  0.3927 -0.5458
 6967SOL    HW132534   2.836   1.357   8.986 -0.0743  2.7832  0.5493
 6967SOL    HW232535   2.958   1.278   8.976 -0.1037  0.2008  0.9596
 6968SOL     OW32536   0.589   0.382   1.016  0.1439 -0.4389 -0.5188
 6968SOL    HW132537   0.606   0.409   1.106  0.5535 -0.4800 -0.5826
 6968SOL    HW232538   0.521   0.447   0.997 -1.7197 -2.7442 -1.7406
 6969SOL     OW32539   0.603   3.812  13.896 -0.1919 -0.1705 -0.1381
 6969SOL    HW132540   0.655   3.798  13.817 -0.5126  0.4598 -0.4600
 6969SOL    HW232541   0.607   3.907  13.906 -0.1429 -0.4381  2.4590
 6970SOL     OW32542   2.342   3.425   2.949 -0.6874 -0.3250  0.0900
 6970SOL    HW132543   2.356   3.400   3.041 -1.3079 -0.6364  0.1040
 6970SOL    HW232544   2.416   3.480   2.926  1.0236 -2.2450  1.0648
 6971SOL     OW32545   1.603   3.939   5.640  0.0777  0.8311  0.2691
 6971SOL    HW132546   1.598   3.963   5.547  1.4393  0.6573  0.1478
 6971SOL    HW232547   1.696   3.922   5.656 -0.2967 -1.2694  0.1991
 6972SOL     OW32548   1.779   2.819   4.629 -0.3762  0.3489 -0.5406
 6972SOL    HW132549   1.758   2.872   4.552 -2.3705 -0.8757 -0.8416
 6972SOL    HW232550   1.861   2.850   4.667  0.4943 -1.7973 -0.6443
 6973SOL     OW32551   1.709   4.337   1.871 -0.0652 -0.2950 -0.6050
 6973SOL    HW132552   1.617   4.316   1.886  0.1330 -0.4622  0.3903
 6973SOL    HW232553   1.710   4.383   1.787 -1.5709 -1.5648 -1.3306
 6974SOL     OW32554   4.524   3.749   5.446 -0.8625  0.2140  0.0479
 6974SOL    HW132555   4.434   3.779   5.431 -0.7074  0.5260 -0.2666
 6974SOL    HW232556   4.575   3.815   5.398 -1.5380  1.9609  1.7343
 6975SOL     OW32557   3.064   1.392   7.554  0.1245  0.0189  0.1835
 6975SOL    HW132558   2.987   1.346   7.587 -0.4668  0.1150 -1.0512
 6975SOL    HW232559   3.122   1.316   7.549  1.0730  0.7208  0.4928
 6976SOL     OW32560   0.574   1.071   3.972 -0.6658  0.3525  0.1666
 6976SOL    HW132561   0.536   1.120   4.045  1.4358 -2.5424  3.2211
 6976SOL    HW232562   0.490   1.030   3.952  0.7864 -2.3144 -0.4070
 6977SOL     OW32563   3.180   3.479   5.193  0.0842 -0.1796  0.2325
 6977SOL    HW132564   3.085   3.465   5.191  0.2631 -0.7686 -3.7144
 6977SOL    HW232565   3.210   3.437   5.113 -0.0544  1.3540 -0.6369
 6978SOL     OW32566   0.699   4.303   1.345 -0.9091  0.3392  0.2394
 6978SOL    HW132567   0.670   4.264   1.263  0.3932 -0.8400  0.3379
 6978SOL    HW232568   0.786   4.326   1.312 -1.2074 -0.6695 -1.2332
 6979SOL     OW32569   4.038   1.365   3.857 -0.0915 -0.2122  0.1000
 6979SOL    HW132570   3.990   1.292   3.817  2.0700 -1.2842 -0.5460
 6979SOL    HW232571   4.101   1.323   3.916 -1.5328 -1.3698  0.8269
 6980SOL     OW32572   2.857   3.337  13.910  0.7302  0.1491  0.1401
 6980SOL    HW132573   2.782   3.370  13.860  1.0188  1.5555  0.6402
 6980SOL    HW232574   2.894   3.418  13.944  0.0411  1.0697 -1.3373
 6981SOL     OW32575   1.890   0.131  17.388 -0.5921  0.0254  0.2170
 6981SOL    HW132576   1.871   0.223  17.406  1.2322  0.7183 -1.4138
 6981SOL    HW232577   1.983   0.135  17.368 -0.8369 -0.9969 -1.0939
 6982SOL     OW32578   1.672   3.926   2.987 -0.1701  0.4141 -0.2919
 6982SOL    HW132579   1.669   3.962   3.076 -0.7005  0.2715 -0.2541
 6982SOL    HW232580   1.697   4.002   2.934  0.9756 -0.5577 -1.1609
 6983SOL     OW32581   0.515   2.637   5.044 -0.5501  0.4574  0.4336
 6983SOL    HW132582   0.591   2.695   5.043  0.7537 -1.2733 -0.3803
 6983SOL    HW232583   0.453   2.689   4.992 -0.6283 -2.1416 -2.0741
 6984SOL     OW32584   4.286   2.319   3.601 -0.0913 -0.2407  0.0098
 6984SOL    HW132585   4.328   2.263   3.536 -0.5924 -0.6719  0.0538
 6984SOL    HW232586   4.243   2.249   3.651 -0.3536  0.3938  0.6650
 6985SOL     OW32587   1.562   1.520   8.813 -0.8256  0.1445  0.4721
 6985SOL    HW132588   1.554   1.455   8.883  1.2901 -1.6376 -0.9086
 6985SOL    HW232589   1.544   1.601   8.860  0.5566  0.2968  0.7493
 6986SOL     OW32590   3.713   1.941   3.034 -0.0996  0.0446 -0.2240
 6986SOL    HW132591   3.764   1.862   3.051 -0.6591 -0.4841 -0.9898
 6986SOL    HW232592   3.647   1.940   3.104  0.8869 -1.4823  0.6845
 6987SOL     OW32593   0.531   1.930   3.780  0.4722 -0.3839  0.2833
 6987SOL    HW132594   0.525   1.998   3.847  2.2808 -0.5728  0.6176
 6987SOL    HW232595   0.577   1.981   3.714  1.5876  0.0396  1.4000
 6988SOL     OW32596   1.670   1.631  16.673 -0.3118  0.0969 -0.2507
 6988SOL    HW132597   1.687   1.549  16.721 -0.7170 -1.0162 -2.0107
 6988SOL    HW232598   1.664   1.607  16.581 -2.2233  1.4918 -0.4777
 6989SOL     OW32599   2.913   0.975   7.586  0.2922  0.0602 -0.1276
 6989SOL    HW132600   2.840   1.029   7.617  1.0701 -0.1079  1.9891
 6989SOL    HW232601   2.889   0.949   7.497 -2.8949  0.0367  0.7194
 6990SOL     OW32602   1.840   1.425   8.582  0.2436  0.0521  0.1544
 6990SOL    HW132603   1.845   1.402   8.675  1.6778 -0.3748 -0.0274
 6990SOL    HW232604   1.746   1.439   8.571 -0.0776 -0.0892  2.8301
 6991SOL     OW32605   4.341   4.080  11.254 -0.1525 -0.1196  0.4162
 6991SOL    HW132606   4.423   4.117  11.287 -1.0031  1.4783  0.7627
 6991SOL    HW232607   4.314   4.129  11.176  0.4773 -0.1631  0.1783
 6992SOL     OW32608   2.807   4.228  11.089  0.4911 -0.0789  0.3769
 6992SOL    HW132609   2.804   4.147  11.140  1.3192 -0.1301  0.3418
 6992SOL    HW232610   2.892   4.262  11.116  0.5123 -0.8879  1.3652
 6993SOL     OW32611   2.040   2.210   4.149 -0.3079  0.1523  0.1376
 6993SOL    HW132612   2.054   2.303   4.134  1.0776 -0.5555 -3.0101
 6993SOL    HW232613   2.018   2.184   4.059  1.8878 -0.6114 -0.1661
 6994SOL     OW32614   3.945   1.109   4.763  0.2234 -0.3352 -0.1694
 6994SOL    HW132615   3.936   1.109   4.858  1.4954 -1.6574 -0.0614
 6994SOL    HW232616   3.897   1.029   4.739 -0.0220  0.2821 -1.7759
 6995SOL     OW32617   0.008   2.824   1.944  0.4065  0.4348  0.3031
 6995SOL    HW132618   0.097   2.808   1.914  0.3495 -0.8429  0.7935
 6995SOL    HW232619   4.729   2.914   1.973  1.8486  0.6016  0.4708
 6996SOL     OW32620   3.264   4.328   7.288  0.0743  0.3257  0.3561
 6996SOL    HW132621   3.331   4.364   7.230 -0.7575  2.3735  0.6735
 6996SOL    HW232622   3.278   4.380   7.367  1.4846 -1.5154  1.3417
 6997SOL     OW32623   3.451   2.627   4.604  0.0526  0.0380  0.1304
 6997SOL    HW132624   3.406   2.602   4.684  1.3707  0.3144  0.9423
 6997SOL    HW232625   3.536   2.664   4.625  0.7800 -0.5145 -1.7791
 6998SOL     OW32626   3.345   3.097  12.619  0.2298  0.0478 -0.4943
 6998SOL    HW132627   3.322   3.044  12.544 -2.0024 -0.1377  0.3392
 6998SOL    HW232628   3.331   3.183  12.579 -1.0856  0.3776  0.6766
 6999SOL     OW32629   3.971   1.499   1.295 -0.0102 -0.7937  0.1600
 6999SOL    HW132630   3.951   1.525   1.205 -0.6916 -0.9988  0.2512
 6999SOL    HW232631   3.894   1.526   1.346  1.0466 -0.2232  1.4587
 7000SOL     OW32632   3.150   2.737   9.663 -1.2982 -0.2931  0.0368
 7000SOL    HW132633   3.236   2.711   9.696 -1.0333 -1.2260 -1.3897
 7000SOL    HW232634   3.092   2.689   9.722 -0.5339 -1.1941  0.0537
 7001SOL     OW32635   0.181   3.588   6.062  0.3123 -0.0437 -0.3571
 7001SOL    HW132636   0.277   3.586   6.060  0.2573  0.5694 -3.2643
 7001SOL    HW232637   0.160   3.541   5.982 -1.8608 -0.1446  0.2772
 7002SOL     OW32638   2.361   2.166   7.026  0.3356 -0.0274  0.4685
 7002SOL    HW132639   2.304   2.190   6.953 -0.5972 -0.2654  1.1196
 7002SOL    HW232640   2.322   2.216   7.098  1.1298  1.3849 -0.0704
 7003SOL     OW32641   4.016   3.031  17.710  0.8680  0.2526 -0.2018
 7003SOL    HW132642   4.013   3.122   0.002  0.6331 -0.5562  2.1713
 7003SOL    HW232643   4.006   3.047  17.616 -0.0337  0.3695 -0.0847
 7004SOL     OW32644   2.070   4.089   9.493 -0.1809  0.0116 -0.6660
 7004SOL    HW132645   1.982   4.125   9.504  0.0317  0.6147 -0.9260
 7004SOL    HW232646   2.126   4.152   9.538  0.2364 -1.3398  0.7072
 7005SOL     OW32647   0.019   1.978   6.011 -0.1766 -0.0433 -0.2662
 7005SOL    HW132648   0.048   1.890   5.988 -2.0261 -0.4113 -1.1870
 7005SOL    HW232649   0.054   1.988   6.100 -2.3690 -0.3833  0.6414
 7006SOL     OW32650   3.307   0.130   8.165 -0.3780  0.3437  0.3369
 7006SOL    HW132651   3.241   0.062   8.165  0.5048 -0.5110 -0.2751
 7006SOL    HW232652   3.314   0.144   8.070 -0.9277 -0.7379  0.1459
 7007SOL     OW32653   0.130   1.461   8.216  0.4048 -0.3529 -0.0231
 7007SOL    HW132654   0.086   1.535   8.257  1.3123  0.4070 -0.4448
 7007SOL    HW232655   0.057   1.412   8.177  0.2259 -1.1520  1.3047
 7008SOL     OW32656   2.060   2.993  14.942  0.4101  0.5527 -1.0512
 7008SOL    HW132657   2.152   2.983  14.920  0.4323  0.7247 -1.0408
 7008SOL    HW232658   2.016   2.954  14.866  0.9276  1.0468 -1.6122
 7009SOL     OW32659   1.278   0.721   9.065  0.2350 -0.0883 -0.4280
 7009SOL    HW132660   1.196   0.768   9.083 -0.7134 -0.7768 -2.8432
 7009SOL    HW232661   1.318   0.784   9.005  0.2122  0.3698  0.0451
 7010SOL     OW32662   2.008   3.536   1.530  0.7599  0.0467  0.0931
 7010SOL    HW132663   1.942   3.523   1.462  1.5033  0.1807 -0.6643
 7010SOL    HW232664   1.962   3.596   1.588 -1.5890 -0.4098 -1.2891
 7011SOL     OW32665   1.676   0.137   7.009  0.3608  0.0941 -0.3151
 7011SOL    HW132666   1.614   0.115   6.940  2.2901 -0.8935 -1.7234
 7011SOL    HW232667   1.626   0.191   7.071 -0.8618 -0.2256 -1.0224
 7012SOL     OW32668   2.138   3.956   2.520 -0.4789 -0.9218 -0.4092
 7012SOL    HW132669   2.058   3.941   2.470 -0.5475 -1.0934 -0.2476
 7012SOL    HW232670   2.112   4.022   2.584  0.0190 -1.6917  0.5804
 7013SOL     OW32671   3.246   1.945   6.367  0.4737 -0.0742 -0.6983
 7013SOL    HW132672   3.341   1.934   6.364  0.4488 -0.4400 -0.2658
 7013SOL    HW232673   3.238   1.990   6.452 -1.3182 -2.4450  0.3962
 7014SOL     OW32674   2.946   2.338   3.854 -0.0953  0.1412  0.0693
 7014SOL    HW132675   2.855   2.315   3.836  0.4480 -1.0289 -1.2190
 7014SOL    HW232676   2.975   2.258   3.811 -1.4215 -0.2111 -0.1869
 7015SOL     OW32677   1.609   1.505   8.126 -0.1052 -0.1845 -0.0925
 7015SOL    HW132678   1.581   1.581   8.175 -0.0873  0.2642 -0.7760
 7015SOL    HW232679   1.680   1.544   8.075  1.5761  0.3150  2.6200
 7016SOL     OW32680   3.745   4.288   3.074 -0.1399  0.0265  0.0324
 7016SOL    HW132681   3.824   4.341   3.065  0.0748 -0.3751 -0.4287
 7016SOL    HW232682   3.683   4.329   3.014  0.2752  2.0900  1.0119
 7017SOL     OW32683   4.326   3.503   8.903  0.4696 -0.3865 -0.0684
 7017SOL    HW132684   4.331   3.411   8.877  2.2048 -0.5315  0.7859
 7017SOL    HW232685   4.346   3.489   8.995 -0.5410 -3.1773 -0.2638
 7018SOL     OW32686   1.700   0.259  13.332  0.2612 -0.7009 -0.4250
 7018SOL    HW132687   1.676   0.175  13.294 -3.6211  0.9348 -1.5882
 7018SOL    HW232688   1.739   0.216  13.409 -0.9099 -0.5371  0.2617
 7019SOL     OW32689   4.572   1.656   9.112 -0.0125 -0.0248 -0.8374
 7019SOL    HW132690   4.658   1.673   9.074  0.0875 -1.1624 -1.1115
 7019SOL    HW232691   4.524   1.722   9.062  1.2268  1.6401  0.1460
 7020SOL     OW32692   4.345   1.046   4.180 -0.2693  0.0667  0.2514
 7020SOL    HW132693   4.394   0.981   4.232 -2.5397  0.5382  2.9993
 7020SOL    HW232694   4.357   1.118   4.242 -2.1951  0.8187 -0.2584
 7021SOL     OW32695   3.906   1.442   9.801  0.0287 -0.0735  0.1655
 7021SOL    HW132696   3.848   1.367   9.817 -0.4463  0.2231 -0.1922
 7021SOL    HW232697   3.967   1.436   9.875 -0.9104 -1.3941  0.8352
 7022SOL     OW32698   2.805   2.128  14.213  0.3411  0.3118 -0.5500
 7022SOL    HW132699   2.829   2.048  14.166  1.3125 -0.2192  0.8707
 7022SOL    HW232700   2.738   2.109  14.278 -1.2361  0.3309 -2.1641
 7023SOL     OW32701   1.510   2.891   6.978  0.6519 -0.3880 -0.2069
 7023SOL    HW132702   1.512   2.955   7.049 -1.1955 -0.1014 -0.4142
 7023SOL    HW232703   1.600   2.892   6.946  0.9929 -0.5515  0.7695
 7024SOL     OW32704   2.226   4.702   7.946  0.5074  0.2392 -0.0394
 7024SOL    HW132705   2.190   4.728   8.031 -0.8572  0.8734 -0.8194
 7024SOL    HW232706   2.147   4.656   7.918  0.0920 -0.1309  1.7582
 7025SOL     OW32707   1.508   2.166   3.054 -0.0932 -0.1389  0.0914
 7025SOL    HW132708   1.505   2.262   3.049  0.0575 -0.1212  0.3362
 7025SOL    HW232709   1.602   2.151   3.045  0.2170  1.1179  1.1203
 7026SOL     OW32710   2.895   0.992  16.398  0.0847 -0.4527  0.3920
 7026SOL    HW132711   2.831   1.034  16.341  1.8788  1.5405 -0.1474
 7026SOL    HW232712   2.947   0.938  16.339 -0.0053  0.3412 -0.4076
 7027SOL     OW32713   2.192   2.224  10.496  0.2248 -0.1170  0.2960
 7027SOL    HW132714   2.227   2.162  10.559 -3.1993 -1.6451  0.7335
 7027SOL    HW232715   2.147   2.168  10.433  0.6994 -0.1981  0.0292
 7028SOL     OW32716   1.318   2.721   4.144 -0.1890  0.6333 -0.1652
 7028SOL    HW132717   1.232   2.734   4.103 -0.4478  0.2758  0.2589
 7028SOL    HW232718   1.295   2.653   4.207  1.8773  1.1650  1.1576
 7029SOL     OW32719   0.861   4.425   3.818 -0.5093  0.2088 -0.2130
 7029SOL    HW132720   0.922   4.497   3.834 -1.7862  1.1430  0.4118
 7029SOL    HW232721   0.856   4.385   3.905 -2.0577  0.4481 -0.1938
 7030SOL     OW32722   3.529   1.080   3.788 -0.4706 -0.0086  0.4610
 7030SOL    HW132723   3.568   0.996   3.764 -0.2567  0.6770 -1.6353
 7030SOL    HW232724   3.482   1.050   3.865 -1.9594  1.4672  0.1082
 7031SOL     OW32725   3.222   3.515  10.922 -0.0320 -0.9443 -0.3737
 7031SOL    HW132726   3.253   3.531  11.011  0.1550 -2.4169 -0.1642
 7031SOL    HW232727   3.242   3.421  10.921  0.3447 -0.8644 -0.2365
 7032SOL     OW32728   1.787   1.052  14.162 -0.2024 -0.2546  0.2445
 7032SOL    HW132729   1.767   0.959  14.168 -0.1491 -0.3635 -1.1371
 7032SOL    HW232730   1.867   1.059  14.110 -0.6160  0.6821 -0.2725
 7033SOL     OW32731   1.079   2.345   7.093 -0.1353  0.2345 -0.1998
 7033SOL    HW132732   1.021   2.272   7.116  1.4376 -0.8119  0.5070
 7033SOL    HW232733   1.162   2.303   7.068 -2.0055 -3.2855 -0.4450
 7034SOL     OW32734   3.978   0.373   2.362  0.2703 -0.1472  0.1676
 7034SOL    HW132735   4.048   0.312   2.341 -0.2197  0.4768 -3.1844
 7034SOL    HW232736   3.900   0.338   2.318 -0.1631  0.4143  0.4905
 7035SOL     OW32737   2.665   2.887  12.575  0.0201  0.3862 -0.3399
 7035SOL    HW132738   2.598   2.905  12.509 -0.2943 -0.1361 -0.1668
 7035SOL    HW232739   2.735   2.948  12.552  0.4316 -0.4916 -1.3887
 7036SOL     OW32740   4.589   0.616  15.233 -0.0002  0.2531  0.4756
 7036SOL    HW132741   4.547   0.655  15.157  0.1543 -1.3253 -0.4219
 7036SOL    HW232742   4.623   0.684  15.291  1.2653  0.0139  0.0187
 7037SOL     OW32743   2.866   2.498   2.897  0.6100 -0.1884  0.9850
 7037SOL    HW132744   2.946   2.540   2.866 -0.2095  3.4491  3.7398
 7037SOL    HW232745   2.891   2.456   2.979 -0.0199  0.3874  1.4722
 7038SOL     OW32746   2.450   0.531   2.129 -1.1127 -0.1579  0.6657
 7038SOL    HW132747   2.490   0.446   2.112  0.0915  0.9364 -1.9823
 7038SOL    HW232748   2.357   0.519   2.113 -1.1451  0.0866  0.6748
 7039SOL     OW32749   4.118   4.158   5.835 -0.3594  0.1241 -0.2608
 7039SOL    HW132750   4.061   4.180   5.761 -0.7975  1.9649  0.6149
 7039SOL    HW232751   4.045   4.143   5.895  1.2589 -1.1469  1.3918
 7040SOL     OW32752   0.090   0.283  16.782  0.4339  0.3407 -0.3253
 7040SOL    HW132753   4.731   0.278  16.798  0.3909  2.0467 -0.0344
 7040SOL    HW232754   0.090   0.296  16.687  1.9821  0.1749 -0.3504
 7041SOL     OW32755   4.517   3.874   2.984 -0.5179  0.6969 -0.0871
 7041SOL    HW132756   4.439   3.869   2.928  1.3704 -2.2439 -2.4471
 7041SOL    HW232757   4.586   3.838   2.928  0.8127  2.5508  0.3582
 7042SOL     OW32758   0.823   4.041   5.159 -0.2041 -0.2615 -0.1444
 7042SOL    HW132759   0.915   4.038   5.185  0.1245 -0.0146 -1.2769
 7042SOL    HW232760   0.800   4.074   5.246  0.3963 -0.0252 -0.0760
 7043SOL     OW32761   4.553   4.055  16.939 -0.6397 -0.2980  0.1207
 7043SOL    HW132762   4.529   3.971  16.901  1.3864 -0.4575 -0.8156
 7043SOL    HW232763   4.618   4.090  16.878 -0.6692  2.8991  1.9414
 7044SOL     OW32764   0.412   3.571   4.324 -0.1330 -0.0821  0.0100
 7044SOL    HW132765   0.484   3.526   4.281 -1.0602  0.0926 -1.7196
 7044SOL    HW232766   0.444   3.598   4.411 -0.2881  1.0373 -0.2779
 7045SOL     OW32767   1.476   1.144  17.101 -0.2612  0.2827 -0.1958
 7045SOL    HW132768   1.429   1.181  17.026 -1.2323  0.2278  0.3870
 7045SOL    HW232769   1.451   1.053  17.083  1.5054 -0.0873 -0.8023
 7046SOL     OW32770   4.083   0.755   3.591 -0.0331  1.1156 -0.0525
 7046SOL    HW132771   4.038   0.838   3.608  0.4460  1.2958  0.3444
 7046SOL    HW232772   4.115   0.769   3.502  3.3070 -1.5962  0.7060
 7047SOL     OW32773   2.084   2.871   3.257 -0.0285 -0.0551 -0.1030
 7047SOL    HW132774   2.107   2.866   3.164  1.5190 -3.6152  0.4521
 7047SOL    HW232775   2.041   2.955   3.270 -0.5941 -0.7744  2.6344
 7048SOL     OW32776   3.197   3.912   2.794  0.6319 -0.2939  0.6049
 7048SOL    HW132777   3.108   3.902   2.827  0.4057 -2.2844 -0.5964
 7048SOL    HW232778   3.237   3.956   2.868  0.4369  0.1249  0.4606
 7049SOL     OW32779   4.271   0.944   1.844 -0.2858  0.4851 -0.8089
 7049SOL    HW132780   4.212   1.019   1.841  1.1566  1.6759  0.1794
 7049SOL    HW232781   4.214   0.876   1.880  0.0013  1.0040  0.6304
 7050SOL     OW32782   1.534   1.994   9.854  0.0223 -0.0281  0.1529
 7050SOL    HW132783   1.499   1.944   9.928  3.3730 -0.1694  1.6661
 7050SOL    HW232784   1.626   1.994   9.881  0.3087  1.9153 -0.8496
 7051SOL     OW32785   2.663   3.715   8.472  0.4158 -0.0916  0.1601
 7051SOL    HW132786   2.651   3.621   8.484 -0.1993  0.1304  1.3318
 7051SOL    HW232787   2.688   3.749   8.558 -0.3835 -3.0813  1.5759
 7052SOL     OW32788   3.268   2.925  16.037  0.3026  0.4482 -0.2650
 7052SOL    HW132789   3.300   3.013  16.055 -2.7931  1.4655  0.2992
 7052SOL    HW232790   3.188   2.925  16.090  1.9108  1.9873  2.1240
 7053SOL     OW32791   1.608   2.703   7.573 -0.4172  0.5282 -0.0651
 7053SOL    HW132792   1.676   2.636   7.573 -0.2345  0.7214 -1.2116
 7053SOL    HW232793   1.649   2.774   7.523  2.9713 -0.4453  1.3237
 7054SOL     OW32794   1.578   0.938  12.731  0.0501 -0.7650 -0.3168
 7054SOL    HW132795   1.526   1.004  12.685  0.4976 -0.4675 -0.3951
 7054SOL    HW232796   1.615   1.000  12.795 -0.6502  0.2717 -0.9216
 7055SOL     OW32797   4.552   0.840   9.958 -0.5805 -0.2048 -0.3956
 7055SOL    HW132798   4.555   0.838  10.053  0.7422 -0.7023 -0.4502
 7055SOL    HW232799   4.479   0.782   9.938 -0.3808  0.4239 -2.9604
 7056SOL     OW32800   4.576   3.776  14.316 -0.0575  0.0914  0.1933
 7056SOL    HW132801   4.609   3.779  14.226 -0.0137 -0.3003  0.1956
 7056SOL    HW232802   4.515   3.702  14.314  2.9069 -2.2330 -3.7955
 7057SOL     OW32803   0.100   0.193  14.380  0.2538 -0.1693 -0.2024
 7057SOL    HW132804   0.056   0.109  14.381  2.1808 -1.1783 -0.4002
 7057SOL    HW232805   0.056   0.235  14.306  2.6416  0.4269 -1.2879
 7058SOL     OW32806   0.865   3.201   6.698 -0.2978  0.0248 -0.1592
 7058SOL    HW132807   0.848   3.241   6.612  2.2446 -2.2426 -1.7450
 7058SOL    HW232808   0.806   3.126   6.692 -1.1471  0.8979 -2.9462
 7059SOL     OW32809   1.207   3.481   2.460 -0.3047  0.3600 -0.3167
 7059SOL    HW132810   1.201   3.450   2.551  1.9303  1.4459  0.1809
 7059SOL    HW232811   1.239   3.571   2.466  1.9042 -0.2440 -3.3373
 7060SOL     OW32812   2.619   2.850   5.694  0.0151 -0.4756 -0.1004
 7060SOL    HW132813   2.619   2.761   5.659 -1.5532  0.0375 -1.4341
 7060SOL    HW232814   2.697   2.851   5.749  0.2094  2.3462 -0.4107
 7061SOL     OW32815   1.618   1.444   2.274 -0.1777  0.4593 -0.3716
 7061SOL    HW132816   1.621   1.348   2.278  4.5254  0.5814 -0.6823
 7061SOL    HW232817   1.628   1.447   2.179 -2.4481 -0.0702 -0.6312
 7062SOL     OW32818   0.641   0.045  13.273 -0.0709  0.0537  0.1713
 7062SOL    HW132819   0.561   0.098  13.278  0.1030  0.4113 -0.7806
 7062SOL    HW232820   0.655   0.058  13.179 -1.6714 -1.2970 -0.2368
 7063SOL     OW32821   0.351   3.874   4.816  0.6259 -0.7895  0.1445
 7063SOL    HW132822   0.350   3.898   4.723  0.5815  1.8220  0.8159
 7063SOL    HW232823   0.363   3.779   4.809 -1.4140 -1.0574  0.0389
 7064SOL     OW32824   3.786   1.251   3.167  0.3694  0.9131  0.2354
 7064SOL    HW132825   3.775   1.339   3.204 -1.2329  0.5112  0.7441
 7064SOL    HW232826   3.857   1.217   3.221  0.3042 -0.2684 -0.4239
 7065SOL     OW32827   3.284   1.318  14.816  0.6210 -0.5298 -0.0633
 7065SOL    HW132828   3.314   1.233  14.786  1.5182 -0.4917  0.7450
 7065SOL    HW232829   3.332   1.372  14.753 -1.1451  1.3006  0.1486
 7066SOL     OW32830   3.038   3.535  17.054 -0.1161  0.2221 -0.2710
 7066SOL    HW132831   3.016   3.602  16.989  1.6513  0.2217 -0.8566
 7066SOL    HW232832   3.131   3.529  17.034 -0.1183 -0.8664  0.0358
 7067SOL     OW32833   3.615   2.977   5.780  0.1620  0.4312  0.6497
 7067SOL    HW132834   3.668   3.057   5.782  1.3915 -0.3668  0.3990
 7067SOL    HW232835   3.525   3.008   5.781 -0.3619 -1.0267 -1.2106
 7068SOL     OW32836   2.470   1.464  10.612 -0.7221  0.9040 -0.1421
 7068SOL    HW132837   2.475   1.470  10.517 -2.9720 -0.3598 -0.3580
 7068SOL    HW232838   2.486   1.370  10.621  1.0654  1.0809 -1.5692
 7069SOL     OW32839   4.610   2.204   2.053 -0.6314 -0.0354  0.3426
 7069SOL    HW132840   4.652   2.162   2.129  1.8379  1.7370 -0.0299
 7069SOL    HW232841   4.544   2.254   2.101 -0.6332 -0.7471  1.0844
 7070SOL     OW32842   2.594   1.320   2.871 -0.0260  0.5684 -1.0750
 7070SOL    HW132843   2.567   1.286   2.785 -5.1595 -0.5751  0.9455
 7070SOL    HW232844   2.518   1.305   2.928  0.3428 -0.4104 -0.8587
 7071SOL     OW32845   1.053   4.509   8.823  0.3175  0.1994  0.6221
 7071SOL    HW132846   1.067   4.418   8.799  0.6125  0.6533 -0.8975
 7071SOL    HW232847   0.960   4.501   8.845  0.6660  0.2475  2.1733
 7072SOL     OW32848   1.021   1.302   6.539 -0.4464 -0.4603  0.0274
 7072SOL    HW132849   1.080   1.376   6.526  1.7127 -2.1225  0.4509
 7072SOL    HW232850   0.974   1.337   6.614  1.6142 -0.3853  1.2860
 7073SOL     OW32851   1.636   2.142  12.856 -0.2787  0.0113 -0.2760
 7073SOL    HW132852   1.555   2.192  12.848 -0.1705  0.0785 -0.9117
 7073SOL    HW232853   1.674   2.173  12.774 -1.5041  0.4624 -0.6673
 7074SOL     OW32854   0.169   0.231   2.385 -0.7015  0.1520  0.0898
 7074SOL    HW132855   0.092   0.236   2.328  0.4012 -1.8074 -1.5854
 7074SOL    HW232856   0.188   0.138   2.383 -2.2451 -0.1503 -0.9215
 7075SOL     OW32857   3.103   0.750   6.136 -0.1901 -0.4430  0.5450
 7075SOL    HW132858   3.182   0.719   6.093 -0.1385 -1.2554  1.2132
 7075SOL    HW232859   3.148   0.813   6.192 -1.4346 -0.4607  1.5663
 7076SOL     OW32860   0.709   1.285   9.122 -0.0816 -0.3657  0.0954
 7076SOL    HW132861   0.619   1.300   9.152 -0.7045  1.4861 -2.6686
 7076SOL    HW232862   0.699   1.219   9.053 -0.8580  1.2617 -1.3478
 7077SOL     OW32863   3.946   0.513   3.613  0.5085  0.4048 -0.5436
 7077SOL    HW132864   3.982   0.601   3.626 -1.3089  0.9175  1.0673
 7077SOL    HW232865   3.974   0.463   3.690 -1.2971  0.1418 -0.0634
 7078SOL     OW32866   0.244   2.307  12.421 -0.3143 -0.0015 -0.5370
 7078SOL    HW132867   0.160   2.300  12.465 -0.0466 -1.1093 -0.1992
 7078SOL    HW232868   0.296   2.250  12.478 -1.0181  0.2024  0.3040
 7079SOL     OW32869   0.689   4.210   4.134 -0.0338 -0.1952  0.1258
 7079SOL    HW132870   0.596   4.235   4.140 -0.4144 -1.6778  0.4430
 7079SOL    HW232871   0.678   4.125   4.092 -0.1020  0.3585 -0.9890
 7080SOL     OW32872   0.953   3.688   4.111 -0.1849 -0.1894  0.4986
 7080SOL    HW132873   0.929   3.765   4.060 -1.9786 -0.3098  1.1400
 7080SOL    HW232874   1.002   3.632   4.051  1.6351  0.3127  1.5425
 7081SOL     OW32875   1.812   1.344   6.420 -0.3715 -0.2331 -0.2611
 7081SOL    HW132876   1.891   1.352   6.474 -1.0563 -0.7370  0.8154
 7081SOL    HW232877   1.769   1.293   6.489  2.9064 -1.4877  0.8963
 7082SOL     OW32878   2.580   2.351  17.696 -0.0588  0.5944  0.3767
 7082SOL    HW132879   2.509   2.415  17.690 -0.5824  0.0169  0.3957
 7082SOL    HW232880   2.583   2.323  17.605 -0.6613  0.5971  0.3537
 7083SOL     OW32881   4.416   2.212   3.052 -0.0459 -0.3161 -0.3896
 7083SOL    HW132882   4.321   2.216   3.065  0.4622  2.8106  2.1273
 7083SOL    HW232883   4.420   2.116   3.046 -1.6995 -0.3307 -1.4386
 7084SOL     OW32884   0.075   0.636   3.209  0.3939  1.1096  0.4376
 7084SOL    HW132885   0.014   0.609   3.277  0.3302  2.0119  0.7276
 7084SOL    HW232886   0.013   0.637   3.136 -0.2799  0.8212  1.0140
 7085SOL     OW32887   4.326   4.282   0.642 -0.0119 -0.2033  0.6216
 7085SOL    HW132888   4.305   4.193   0.615  1.4120  0.1833 -1.7333
 7085SOL    HW232889   4.399   4.254   0.697 -0.8582 -2.8533  0.4268
 7086SOL     OW32890   3.212   4.519   5.692 -0.2122  0.1051 -0.4978
 7086SOL    HW132891   3.205   4.568   5.610  0.3154 -0.4669 -0.8875
 7086SOL    HW232892   3.137   4.460   5.689  0.2836 -0.4561 -1.9474
 7087SOL     OW32893   1.219   3.357   2.717  0.4596  0.5040 -0.9475
 7087SOL    HW132894   1.170   3.429   2.756  0.5867  0.0995 -0.0554
 7087SOL    HW232895   1.152   3.299   2.681  0.1275 -1.5967  3.1101
 7088SOL     OW32896   3.022   1.622   0.512  0.4827  0.1880 -0.0737
 7088SOL    HW132897   2.948   1.571   0.480  0.3240  0.4932 -0.1985
 7088SOL    HW232898   3.092   1.577   0.464  1.2190  1.2412 -0.0005
 7089SOL     OW32899   1.959   3.087   4.162  0.0685 -0.5782 -0.1239
 7089SOL    HW132900   1.873   3.114   4.195 -0.6689 -1.0903 -1.6069
 7089SOL    HW232901   1.965   3.000   4.202 -0.6168  0.3498  2.0000
 7090SOL     OW32902   2.319   4.294   2.913 -0.2575  0.1976  0.4475
 7090SOL    HW132903   2.306   4.385   2.942  1.1826  0.3711  0.5523
 7090SOL    HW232904   2.313   4.308   2.819 -0.7102  0.4351  0.5094
 7091SOL     OW32905   4.672   3.019  13.382 -0.0467 -0.2890  0.1087
 7091SOL    HW132906   4.686   3.102  13.428  1.5798 -0.1783 -0.5952
 7091SOL    HW232907   4.683   3.029  13.288 -2.2276 -0.5886 -0.1735
 7092SOL     OW32908   1.026   4.557  14.510 -0.0677  0.1121  0.0375
 7092SOL    HW132909   0.965   4.487  14.533 -0.2166  0.4762  0.7552
 7092SOL    HW232910   0.976   4.638  14.524 -0.2626 -0.0655  0.3867
 7093SOL     OW32911   0.976   4.040   8.414  0.1183 -0.0094  0.2934
 7093SOL    HW132912   1.049   4.027   8.475  0.0146 -0.5441  0.2961
 7093SOL    HW232913   0.952   4.131   8.432  0.0842  0.3592 -1.5698
 7094SOL     OW32914   1.551   1.971   1.842 -0.1397  0.5693 -0.3560
 7094SOL    HW132915   1.581   1.881   1.831 -1.8942 -0.2586  1.8164
 7094SOL    HW232916   1.636   2.012   1.857 -0.0109  0.5935 -1.1262
 7095SOL     OW32917   3.245   2.524   7.193 -0.4843  0.2255  0.5146
 7095SOL    HW132918   3.334   2.553   7.171 -0.8008  0.8844  0.0909
 7095SOL    HW232919   3.250   2.506   7.287  0.4494 -1.6431  0.1066
 7096SOL     OW32920   3.370   3.349   5.390  0.2537  0.7549  0.0967
 7096SOL    HW132921   3.322   3.267   5.402 -0.3379  1.0912  0.0280
 7096SOL    HW232922   3.315   3.403   5.333 -0.6785 -0.3555 -0.0496
 7097SOL     OW32923   2.344   0.122   3.488  0.0646  0.4932 -0.2927
 7097SOL    HW132924   2.294   0.204   3.482  0.4291  0.9503  3.0561
 7097SOL    HW232925   2.365   0.120   3.581  3.6241  0.7821 -1.1056
 7098SOL     OW32926   4.406   2.312   2.209  0.4367 -0.4550 -0.0380
 7098SOL    HW132927   4.412   2.273   2.296 -1.3917 -0.0854  0.2691
 7098SOL    HW232928   4.312   2.306   2.193 -0.4292  3.1398  3.4976
 7099SOL     OW32929   4.678   2.814   3.135  0.2403 -0.0075 -0.5740
 7099SOL    HW132930   4.642   2.861   3.059 -1.6846 -0.3291  0.1284
 7099SOL    HW232931   0.028   2.856   3.151 -0.3791  1.4011 -0.9199
 7100SOL     OW32932   2.123   1.000   1.847  0.8795  0.0254 -0.6798
 7100SOL    HW132933   2.039   1.015   1.891  1.5338  0.1050  0.5413
 7100SOL    HW232934   2.152   0.921   1.894  0.0031 -0.1929 -0.5008
 7101SOL     OW32935   4.442   0.381   8.487 -0.2488  0.2962 -0.0677
 7101SOL    HW132936   4.352   0.410   8.498 -0.7527 -1.2073 -0.2672
 7101SOL    HW232937   4.460   0.356   8.578  0.0824 -1.7964 -0.6931
 7102SOL     OW32938   3.213   2.919  13.958 -0.1597 -0.1101 -0.3187
 7102SOL    HW132939   3.192   2.827  13.975 -0.8402  0.0930 -0.0655
 7102SOL    HW232940   3.134   2.973  13.961  0.5180  1.0142 -2.7117
 7103SOL     OW32941   4.574   3.728   8.190  0.4643 -0.2624 -0.4858
 7103SOL    HW132942   4.553   3.763   8.277 -0.7446  0.4270 -1.0541
 7103SOL    HW232943   4.500   3.765   8.142 -1.4700 -0.9954  1.9060
 7104SOL     OW32944   0.748   0.485  17.355 -0.4864  0.0763 -0.4789
 7104SOL    HW132945   0.668   0.523  17.392  0.3380  0.9873  0.3993
 7104SOL    HW232946   0.769   0.543  17.281 -0.5036  0.8514  0.1179
 7105SOL     OW32947   3.897   4.241   5.693  0.0199  0.2496  0.3133
 7105SOL    HW132948   3.825   4.185   5.721 -0.2598  0.8532  0.7917
 7105SOL    HW232949   3.859   4.325   5.718 -2.4700 -0.4903 -1.0011
 7106SOL     OW32950   0.271   4.447   8.956  0.1083  0.5072  0.7006
 7106SOL    HW132951   0.277   4.540   8.932 -0.9674  0.7266  1.3034
 7106SOL    HW232952   0.196   4.456   9.014  0.5187  2.6925  0.9056
 7107SOL     OW32953   4.611   4.342   2.668 -0.1191 -0.3386  0.3193
 7107SOL    HW132954   4.552   4.346   2.743  0.4074  0.6644  0.6680
 7107SOL    HW232955   4.544   4.338   2.599 -0.0369  1.3149  0.1558
 7108SOL     OW32956   2.362   2.205   2.098 -0.6971  0.2107 -0.4866
 7108SOL    HW132957   2.419   2.193   2.023  0.1579  3.0091 -0.3110
 7108SOL    HW232958   2.414   2.265   2.151 -0.4613  0.8979 -1.4860
 7109SOL     OW32959   0.007   4.137   3.093 -0.0643 -0.0986  0.4601
 7109SOL    HW132960   0.051   4.128   3.008 -1.8798 -1.0982 -0.3673
 7109SOL    HW232961   0.057   4.206   3.138  1.1125 -1.3833  1.1085
 7110SOL     OW32962   2.962   0.411  16.979  0.2023  0.4936 -0.8003
 7110SOL    HW132963   3.000   0.450  16.901 -1.0052  0.1722 -1.5422
 7110SOL    HW232964   2.994   0.321  16.970 -1.1237 -0.2424  1.7573
 7111SOL     OW32965   2.144   3.643   1.276  0.4342 -0.1725  0.4986
 7111SOL    HW132966   2.219   3.626   1.334 -1.3616 -1.4352  2.4208
 7111SOL    HW232967   2.095   3.669   1.354  1.1115 -0.0533  0.8872
 7112SOL     OW32968   2.228   0.326   7.621  0.3028 -0.0221  0.0689
 7112SOL    HW132969   2.233   0.369   7.707 -3.4901  0.0226  0.2933
 7112SOL    HW232970   2.244   0.395   7.557  1.0553 -0.9778 -0.7610
 7113SOL     OW32971   1.299   1.924   9.353  0.0300 -0.1241  0.1426
 7113SOL    HW132972   1.300   1.834   9.318 -0.8428 -0.4244  0.8970
 7113SOL    HW232973   1.359   1.928   9.428  0.6563 -1.9686 -0.2579
 7114SOL     OW32974   2.445   2.420   3.488  0.1394 -0.3248 -0.4199
 7114SOL    HW132975   2.375   2.447   3.548  1.8184 -1.4948  2.0582
 7114SOL    HW232976   2.411   2.339   3.450 -2.9122  0.7705 -0.0630
 7115SOL     OW32977   2.068   0.299  16.326  0.2863  0.4470  0.2468
 7115SOL    HW132978   2.097   0.384  16.359 -2.6637  0.4279  2.8829
 7115SOL    HW232979   2.150   0.264  16.290  0.0866 -0.7704  0.9957
 7116SOL     OW32980   3.056   1.977  16.223  0.0949 -0.2326  0.1613
 7116SOL    HW132981   3.043   1.883  16.208  0.3570 -0.3537  0.6835
 7116SOL    HW232982   3.019   1.987  16.311 -1.3987 -1.1333 -0.3609
 7117SOL     OW32983   0.554   4.317   7.717 -0.3930  0.2142 -0.1171
 7117SOL    HW132984   0.484   4.291   7.657 -0.4250 -1.0735  0.4982
 7117SOL    HW232985   0.635   4.306   7.667 -0.2312 -1.0959  0.4360
 7118SOL     OW32986   3.279   2.019   3.788  0.1778 -0.0746  0.0951
 7118SOL    HW132987   3.272   1.967   3.868 -1.3974 -1.1563 -0.7370
 7118SOL    HW232988   3.336   1.963   3.736 -0.2734 -1.1804  0.7824
 7119SOL     OW32989   2.942   4.141   2.254  0.0562  0.6281 -0.1968
 7119SOL    HW132990   2.903   4.225   2.279 -0.3891  0.5700 -0.6943
 7119SOL    HW232991   2.935   4.094   2.336  1.2605 -0.9591 -0.9988
 7120SOL     OW32992   0.684   3.746   7.769  0.2427  0.0618  0.5937
 7120SOL    HW132993   0.733   3.781   7.695 -1.9486  0.6992 -0.5468
 7120SOL    HW232994   0.722   3.664   7.802 -0.5681 -0.7127 -0.3729
 7121SOL     OW32995   0.748   1.135   8.382 -0.2397 -0.0321  0.2234
 7121SOL    HW132996   0.818   1.162   8.441 -1.0832 -0.3754  1.3634
 7121SOL    HW232997   0.777   1.067   8.320  0.1325 -1.0951  1.5655
 7122SOL     OW32998   3.172   0.880   5.358 -0.6308  0.4013  0.0405
 7122SOL    HW132999   3.132   0.965   5.378 -1.0528  0.3156 -0.4419
 7122SOL    HW233000   3.096   0.845   5.311  0.9495 -3.6571  0.5530
 7123SOL     OW33001   1.795   3.002   9.789 -0.3589  0.5365 -0.2061
 7123SOL    HW133002   1.858   3.042   9.729  0.6284  0.3428  0.7042
 7123SOL    HW233003   1.851   2.991   9.866 -0.0274  2.1966 -0.1926
 7124SOL     OW33004   1.899   1.505   1.021  0.0076  0.4422 -0.0905
 7124SOL    HW133005   1.911   1.453   0.942 -0.1096 -1.5377  1.1919
 7124SOL    HW233006   1.859   1.582   0.981  1.3941  2.0473  1.6009
 7125SOL     OW33007   2.430   3.601  16.193 -0.3909  0.1956  0.2507
 7125SOL    HW133008   2.340   3.615  16.163  0.1856  0.8803 -1.1772
 7125SOL    HW233009   2.479   3.665  16.141 -0.2333 -0.0546  0.0905
 7126SOL     OW33010   2.843   4.733   7.775  0.0475  0.0720 -0.3246
 7126SOL    HW133011   2.777   0.066   7.786 -0.3664 -0.4642  0.5668
 7126SOL    HW233012   2.825   4.699   7.688 -0.1849 -2.8955  0.8597
 7127SOL     OW33013   2.089   3.682   7.933 -0.0116 -0.7647  0.2436
 7127SOL    HW133014   2.068   3.724   8.017 -0.1240 -1.1522  0.4110
 7127SOL    HW233015   2.003   3.655   7.900 -0.1703 -1.0966  0.9365
 7128SOL     OW33016   4.191   4.096   3.055  0.5337 -0.8049  0.0263
 7128SOL    HW133017   4.277   4.130   3.030 -0.6094  1.8306 -0.2776
 7128SOL    HW233018   4.155   4.162   3.113  1.1850  0.4927 -1.0458
 7129SOL     OW33019   2.507   2.227   1.847 -0.0940  0.4058  0.2766
 7129SOL    HW133020   2.496   2.235   1.752 -1.8487 -2.5880  0.2142
 7129SOL    HW233021   2.594   2.265   1.854  0.5006 -1.2894  2.1773
 7130SOL     OW33022   3.976   3.632   4.230 -0.1420 -0.1610 -0.1608
 7130SOL    HW133023   4.031   3.606   4.303 -0.7763  1.0198  0.7324
 7130SOL    HW233024   4.043   3.622   4.162 -1.3197 -0.2116 -1.3048
 7131SOL     OW33025   1.553   1.933   6.057 -0.3185 -0.0631  0.2974
 7131SOL    HW133026   1.567   1.999   5.990  3.9978  0.3867  1.6237
 7131SOL    HW233027   1.489   1.974   6.115  0.0505  0.3912  0.3812
 7132SOL     OW33028   3.114   0.402  13.083  0.2639 -0.1613 -0.5486
 7132SOL    HW133029   3.176   0.430  13.150  0.7856  2.1568 -2.0122
 7132SOL    HW233030   3.132   0.311  13.059 -1.2893 -1.0943  1.7379
 7133SOL     OW33031   3.118   1.539   0.786  0.1499  0.0918  0.2597
 7133SOL    HW133032   3.194   1.594   0.801  0.7350 -0.4167 -0.8157
 7133SOL    HW233033   3.077   1.579   0.709 -0.5169 -0.1914  0.4723
 7134SOL     OW33034   3.566   3.255   3.797  0.5910  0.3682  0.4733
 7134SOL    HW133035   3.586   3.177   3.745 -0.5013  0.2467  0.2502
 7134SOL    HW233036   3.640   3.251   3.858  0.1997  0.9752  0.9963
 7135SOL     OW33037   1.347   3.078  16.473 -0.2009  0.2327 -0.6751
 7135SOL    HW133038   1.386   3.003  16.427  0.9664  0.8815 -0.7180
 7135SOL    HW233039   1.423   3.136  16.476  0.3494 -0.4339 -1.5317
 7136SOL     OW33040   0.725   3.466   4.190  0.0688 -0.6190  0.8830
 7136SOL    HW133041   0.778   3.441   4.114  0.4645  1.2344  0.5598
 7136SOL    HW233042   0.642   3.443   4.148  0.2369 -0.2170  0.3306
 7137SOL     OW33043   1.997   1.360   5.945  0.3198 -0.1079  0.2226
 7137SOL    HW133044   2.019   1.316   6.028 -2.6058  0.3886  1.2551
 7137SOL    HW233045   1.914   1.319   5.924 -0.1221  0.8337  0.1356
 7138SOL     OW33046   4.541   3.273   2.221  0.3796 -0.4635  0.3284
 7138SOL    HW133047   4.466   3.331   2.229  1.5257  0.9471  0.8988
 7138SOL    HW233048   4.593   3.337   2.172  0.3901  0.1895  1.1846
 7139SOL     OW33049   0.533   2.323   9.377  0.3765  0.0310 -0.3593
 7139SOL    HW133050   0.524   2.230   9.396  1.7506 -0.3024 -1.3069
 7139SOL    HW233051   0.441   2.346   9.389  0.0630 -1.1431 -0.5253
 7140SOL     OW33052   0.886   3.506   7.316 -0.2362  0.2165 -0.0128
 7140SOL    HW133053   0.826   3.443   7.276 -0.2028  0.1816 -0.0080
 7140SOL    HW233054   0.858   3.590   7.279  2.6945  1.0604 -0.3087
 7141SOL     OW33055   1.418   3.558  10.771  0.7294  0.1025 -0.3441
 7141SOL    HW133056   1.349   3.620  10.793 -0.4818 -2.0942  2.0587
 7141SOL    HW233057   1.381   3.507  10.699 -0.6585  0.0035  0.4444
 7142SOL     OW33058   4.429   1.445   8.522 -0.5869 -0.1875  0.1595
 7142SOL    HW133059   4.395   1.483   8.603  1.1322  1.4336  0.1216
 7142SOL    HW233060   4.517   1.415   8.544 -1.3702 -0.5915  2.7729
 7143SOL     OW33061   0.366   1.218   9.767 -0.2109 -0.2797  0.8754
 7143SOL    HW133062   0.340   1.309   9.781 -2.8432 -1.0349  0.9915
 7143SOL    HW233063   0.448   1.221   9.817  1.2049 -1.1579 -1.3780
 7144SOL     OW33064   3.365   2.954   4.600  0.1204 -0.4252 -0.0761
 7144SOL    HW133065   3.377   3.025   4.536 -1.5797 -1.6092 -1.7241
 7144SOL    HW233066   3.455   2.922   4.607 -0.7954 -2.5211  1.9201
 7145SOL     OW33067   2.224   3.593   6.368 -0.3158 -0.0019 -0.4081
 7145SOL    HW133068   2.201   3.512   6.413 -0.5395 -0.1237 -0.7481
 7145SOL    HW233069   2.209   3.652   6.442 -0.6861 -0.2369 -0.2931
 7146SOL     OW33070   3.136   1.275  11.191 -0.1160 -0.1369  0.1422
 7146SOL    HW133071   3.109   1.366  11.191  1.3830  0.2984  2.6207
 7146SOL    HW233072   3.048   1.243  11.214 -0.6147  0.2569 -1.1977
 7147SOL     OW33073   2.404   3.852  12.321  0.5208 -1.1210  0.0571
 7147SOL    HW133074   2.387   3.865  12.414  0.5106  0.0919 -0.1147
 7147SOL    HW233075   2.352   3.922  12.281  1.0941 -0.7048  0.0372
 7148SOL     OW33076   2.413   2.210   8.183 -0.5036  0.1781 -0.1897
 7148SOL    HW133077   2.324   2.224   8.213  0.0320  2.4627  0.3156
 7148SOL    HW233078   2.450   2.282   8.234  1.2834 -0.0130 -1.2174
 7149SOL     OW33079   1.837   3.131   5.044 -0.0593  0.2123 -0.2037
 7149SOL    HW133080   1.771   3.135   5.112 -1.2402  0.4328 -1.3660
 7149SOL    HW233081   1.778   3.119   4.969  0.1434  0.1926 -0.3633
 7150SOL     OW33082   3.984   1.581   4.382  0.0684 -0.1045  0.2717
 7150SOL    HW133083   3.938   1.665   4.392  0.1704 -0.0301  0.1296
 7150SOL    HW233084   4.005   1.599   4.290  3.0391  1.4087  1.2272
 7151SOL     OW33085   0.388   4.119  17.169 -0.3182  0.0069  0.0665
 7151SOL    HW133086   0.399   4.129  17.263 -0.5875  2.6884 -0.1777
 7151SOL    HW233087   0.305   4.073  17.162  0.1831 -0.7988 -0.5637
 7152SOL     OW33088   2.996   1.112   5.338 -0.2275 -0.2423 -0.4751
 7152SOL    HW133089   2.949   1.181   5.292  2.5123  1.9655  0.0524
 7152SOL    HW233090   3.053   1.162   5.397 -1.2989  0.7108 -0.2498
 7153SOL     OW33091   2.560   3.612   5.351 -0.2783  0.0618 -0.1977
 7153SOL    HW133092   2.601   3.592   5.435 -0.2112  1.1961  0.0282
 7153SOL    HW233093   2.468   3.597   5.374 -0.1668 -1.5865 -0.7959
 7154SOL     OW33094   2.297   2.088   1.131 -0.2731  0.3263 -0.4055
 7154SOL    HW133095   2.295   1.993   1.123  1.1218  0.3467 -0.9921
 7154SOL    HW233096   2.378   2.105   1.083  0.6251  0.7715  1.2674
 7155SOL     OW33097   3.942   0.096  13.308  0.3436  0.1004 -0.0899
 7155SOL    HW133098   3.959   0.176  13.358  1.2818 -1.1479  1.6121
 7155SOL    HW233099   3.910   0.038  13.377  2.8250 -0.5345  0.5553
 7156SOL     OW33100   0.877   3.051   3.607 -0.1734 -0.4616  0.5349
 7156SOL    HW133101   0.894   3.142   3.629 -0.6148 -0.6220  1.5145
 7156SOL    HW233102   0.943   3.002   3.657  0.4945  0.8240  0.9033
 7157SOL     OW33103   2.241   1.557   8.696 -0.2870 -0.0602  0.5956
 7157SOL    HW133104   2.321   1.597   8.730 -0.7500  0.5433  0.9711
 7157SOL    HW233105   2.231   1.475   8.745 -0.4274 -0.0891  0.5185
 7158SOL     OW33106   3.986   4.537   5.628 -0.2763 -0.0146 -0.6820
 7158SOL    HW133107   4.032   4.501   5.704 -3.3394 -2.4776  0.0131
 7158SOL    HW233108   3.896   4.522   5.656 -0.1258  0.2209 -0.0776
 7159SOL     OW33109   4.054   2.035   2.940  0.0446 -0.4490  0.3055
 7159SOL    HW133110   3.959   2.043   2.938  0.1032  0.6821  1.8210
 7159SOL    HW233111   4.074   2.031   3.033 -2.1610 -2.0361  0.7104
 7160SOL     OW33112   2.891   0.818   3.241 -0.3866 -0.5567 -0.2419
 7160SOL    HW133113   2.975   0.774   3.234  0.6491  0.8744  3.2017
 7160SOL    HW233114   2.829   0.749   3.217 -2.0407  0.5516  0.8173
 7161SOL     OW33115   0.534   0.801   9.509 -0.1728  0.1231  0.3147
 7161SOL    HW133116   0.627   0.779   9.507 -0.4459 -1.0573  0.5518
 7161SOL    HW233117   0.546   0.892   9.540  1.6629 -0.1555  0.4551
 7162SOL     OW33118   0.521   1.833   6.473  0.2611  0.2766 -0.0633
 7162SOL    HW133119   0.549   1.818   6.563 -1.0158 -1.1606  0.0812
 7162SOL    HW233120   0.464   1.909   6.481 -1.6200 -1.2251  0.6494
 7163SOL     OW33121   0.538   3.820  13.234 -0.4658  0.2271  0.0351
 7163SOL    HW133122   0.601   3.795  13.166 -1.3218 -3.3262  0.5593
 7163SOL    HW233123   0.522   3.735  13.275 -1.6495  0.3820 -0.1209
 7164SOL     OW33124   2.924   4.189   5.366 -0.3804  0.3389  0.6382
 7164SOL    HW133125   2.923   4.171   5.272  1.5792  1.5466  0.3898
 7164SOL    HW233126   3.011   4.228   5.369 -0.5950  1.0152 -2.1294
 7165SOL     OW33127   4.274   3.265   5.260  0.3000 -0.2968  0.3824
 7165SOL    HW133128   4.222   3.243   5.182  0.4173  0.4256  0.1022
 7165SOL    HW233129   4.223   3.303   5.331  0.2209  2.0858 -0.9689
 7166SOL     OW33130   0.022   0.245   7.123 -0.6969  0.0334 -0.7146
 7166SOL    HW133131   4.689   0.181   7.106  0.4612 -2.1967  2.9978
 7166SOL    HW233132   4.704   0.320   7.148 -3.4035 -1.3596 -2.3082
 7167SOL     OW33133   4.548   4.335   9.502  0.4284  0.2031  0.0771
 7167SOL    HW133134   4.538   4.248   9.464  2.4289  0.2202 -0.4879
 7167SOL    HW233135   4.517   4.321   9.591  0.9926 -0.3692  0.1846
 7168SOL     OW33136   3.346   2.321   4.711  0.1383  0.3209 -0.0536
 7168SOL    HW133137   3.388   2.364   4.785 -0.0982  1.9137 -0.8430
 7168SOL    HW233138   3.265   2.371   4.704 -0.1041  0.0416  0.8557
 7169SOL     OW33139   1.936   0.465   0.558 -0.1635 -0.3660 -0.1312
 7169SOL    HW133140   1.947   0.556   0.586  2.5294 -0.4009 -1.0476
 7169SOL    HW233141   2.030   0.446   0.549  0.3021  0.8894  1.8929
 7170SOL     OW33142   0.033   0.128   4.249 -0.2396 -0.3292  0.3698
 7170SOL    HW133143   4.712   0.198   4.281  0.7980  1.1719 -1.1022
 7170SOL    HW233144   0.118   0.171   4.239 -0.2810 -0.5872 -1.1413
 7171SOL     OW33145   1.142   1.462   2.619  0.3498 -0.1735  0.2405
 7171SOL    HW133146   1.221   1.409   2.630  1.2052  0.9728 -0.3769
 7171SOL    HW233147   1.176   1.533   2.564 -0.7676  1.2617  1.4286
 7172SOL     OW33148   1.020   1.249  15.146  0.3016  0.0826  0.4544
 7172SOL    HW133149   0.980   1.162  15.149  0.2911  0.1057  0.9170
 7172SOL    HW233150   1.105   1.245  15.190  0.7557 -0.2405 -0.4594
 7173SOL     OW33151   1.200   1.026   0.845 -0.0687 -0.4565  0.1248
 7173SOL    HW133152   1.180   0.950   0.899 -0.2426  1.7476  3.1732
 7173SOL    HW233153   1.115   1.069   0.850  0.4785  0.5362  0.9804
 7174SOL     OW33154   0.137   4.661  17.062 -0.3034  0.3696  0.3635
 7174SOL    HW133155   0.155   4.573  17.026 -0.0597  0.2049  0.8933
 7174SOL    HW233156   0.180   4.709  16.991 -0.5348 -0.6551 -0.4803
 7175SOL     OW33157   4.462   3.683   4.023  0.1186  0.3813 -0.0558
 7175SOL    HW133158   4.499   3.639   4.099  0.3769 -0.4592 -0.6652
 7175SOL    HW233159   4.531   3.682   3.957 -0.1817  1.9915 -0.4099
 7176SOL     OW33160   4.217   1.067  13.537  0.1820  0.2106 -0.1647
 7176SOL    HW133161   4.237   1.141  13.594 -0.5959 -1.0399  1.7483
 7176SOL    HW233162   4.122   1.065  13.546  0.0267 -1.9262 -2.1139
 7177SOL     OW33163   2.518   2.121  15.182 -0.1912 -0.2437  0.5872
 7177SOL    HW133164   2.473   2.079  15.108  3.3303 -0.6564 -1.2962
 7177SOL    HW233165   2.609   2.110  15.157  0.3540  2.7423  1.3624
 7178SOL     OW33166   0.799   2.200   2.510 -0.4133 -0.0792 -0.1023
 7178SOL    HW133167   0.782   2.187   2.416  0.2594 -1.9427  0.0208
 7178SOL    HW233168   0.725   2.172   2.563 -0.1670 -0.1417  0.2109
 7179SOL     OW33169   2.912   4.009   7.495 -0.0685 -0.0174  0.2998
 7179SOL    HW133170   2.996   4.019   7.450 -0.8241 -1.5861 -1.4628
 7179SOL    HW233171   2.936   3.959   7.573 -2.0923 -0.3738  0.6701
 7180SOL     OW33172   1.544   0.861   1.082 -0.4623  0.4290 -0.2407
 7180SOL    HW133173   1.616   0.802   1.058  1.3479  2.0258  1.2223
 7180SOL    HW233174   1.472   0.809   1.046 -0.7468  0.8452 -0.2667
 7181SOL     OW33175   2.783   4.434  13.825 -0.0580  0.6837  0.0385
 7181SOL    HW133176   2.847   4.407  13.758 -0.6722 -1.4432  0.3100
 7181SOL    HW233177   2.704   4.448  13.773 -0.2204  0.5445  0.2509
 7182SOL     OW33178   3.254   4.625   3.657 -0.8591  0.4749  0.0551
 7182SOL    HW133179   3.234   4.579   3.576 -0.3219 -0.1332  0.2777
 7182SOL    HW233180   3.330   4.573   3.683 -1.5386 -1.6886 -2.3314
 7183SOL     OW33181   4.651   1.469   5.102  0.3541 -0.2292 -0.0211
 7183SOL    HW133182   4.618   1.390   5.059  0.6481 -1.3062  1.7181
 7183SOL    HW233183   4.674   1.431   5.187  0.1530  0.7143  0.4565
 7184SOL     OW33184   3.517   3.908   7.576  0.4145  0.3272  0.2152
 7184SOL    HW133185   3.575   3.907   7.653 -0.4557 -1.7024  0.8491
 7184SOL    HW233186   3.568   3.965   7.519 -0.3877 -0.2398 -1.0583
 7185SOL     OW33187   4.645   0.918   5.170  0.7135 -0.6748  0.3844
 7185SOL    HW133188   4.658   0.998   5.221 -0.2397  0.2173 -0.7674
 7185SOL    HW233189   4.734   0.897   5.142  1.4974 -1.2167  3.2710
 7186SOL     OW33190   0.395   1.055   7.036 -0.0650 -0.0421 -0.9271
 7186SOL    HW133191   0.409   1.047   7.130 -2.1956 -2.4305 -0.8085
 7186SOL    HW233192   0.455   0.988   7.003 -0.2546 -1.0333  0.7518
 7187SOL     OW33193   3.382   0.113   8.528  0.1156 -0.2022 -0.0293
 7187SOL    HW133194   3.419   0.049   8.467 -0.2483 -0.0690 -0.3911
 7187SOL    HW233195   3.420   0.193   8.490 -2.2649 -0.2312 -2.5025
 7188SOL     OW33196   4.018   1.542   8.366  0.1218  0.2584 -0.1831
 7188SOL    HW133197   4.090   1.604   8.378  1.4223 -1.5522  1.2338
 7188SOL    HW233198   4.060   1.458   8.349 -0.0242  0.7560 -3.1078
 7189SOL     OW33199   0.438   0.238   0.129  0.5654  0.0086 -0.1794
 7189SOL    HW133200   0.389   0.303   0.078 -0.2044 -1.0129 -0.7553
 7189SOL    HW233201   0.370   0.195   0.182  1.4302  2.7840  3.1241
 7190SOL     OW33202   1.172   3.244   3.654  0.0851  0.1845 -0.4811
 7190SOL    HW133203   1.224   3.166   3.673  0.0612  0.1290 -0.6490
 7190SOL    HW233204   1.235   3.310   3.626  2.5447 -0.9349  2.3573
 7191SOL     OW33205   0.570   4.301   5.022  0.0535 -0.3598 -0.3940
 7191SOL    HW133206   0.526   4.216   5.015  2.1558 -1.4358 -0.4299
 7191SOL    HW233207   0.540   4.338   4.940 -0.4336  0.9882  0.3948
 7192SOL     OW33208   4.506   4.192   4.996 -0.1453  0.2135  0.5821
 7192SOL    HW133209   4.536   4.175   5.085 -0.1175  0.4887  0.6241
 7192SOL    HW233210   4.564   4.136   4.943 -2.1813 -2.2828  0.9814
 7193SOL     OW33211   3.417   4.581   1.706  0.5423 -0.2672  0.0943
 7193SOL    HW133212   3.402   4.675   1.698 -0.6763 -0.2492  2.6890
 7193SOL    HW233213   3.375   4.543   1.628  2.4165 -0.4658 -0.8146
 7194SOL     OW33214   1.608   1.745   4.903 -0.0457  0.2019 -0.1361
 7194SOL    HW133215   1.672   1.806   4.866  0.7020 -1.1442 -1.0983
 7194SOL    HW233216   1.530   1.780   4.862  0.1020  2.8385  1.8311
 7195SOL     OW33217   2.261   2.043   2.971  0.8951  0.1085 -0.0422
 7195SOL    HW133218   2.307   2.125   2.988  0.4459  0.0306  1.5418
 7195SOL    HW233219   2.210   2.060   2.892  0.0596 -0.9328  0.2748
 7196SOL     OW33220   4.649   0.793   8.984 -0.5379  0.6758 -0.0160
 7196SOL    HW133221   4.696   0.781   9.066 -1.1895  1.6822  0.5154
 7196SOL    HW233222   4.706   0.860   8.946  0.8633  0.1683  1.2001
 7197SOL     OW33223   2.111   0.195   7.262 -0.2219 -0.7826  0.0753
 7197SOL    HW133224   2.051   0.267   7.246  0.0876 -0.2626  1.1898
 7197SOL    HW233225   2.148   0.184   7.175  2.0373  0.8654  0.8206
 7198SOL     OW33226   3.131   2.848  11.523 -0.2448  0.1974 -0.3238
 7198SOL    HW133227   3.126   2.760  11.485 -2.0583  0.0332  0.2892
 7198SOL    HW233228   3.179   2.887  11.449 -0.2183 -1.3531 -1.1318
 7199SOL     OW33229   1.413   2.036   4.500  0.2671 -0.0440 -0.5899
 7199SOL    HW133230   1.422   2.102   4.432  0.4820 -0.0798 -0.5945
 7199SOL    HW233231   1.485   2.052   4.562 -1.5546 -0.1752  1.5726
 7200SOL     OW33232   3.691   3.108   7.340  0.2868 -0.1794  0.2768
 7200SOL    HW133233   3.748   3.035   7.319 -0.6233 -0.7308 -0.2728
 7200SOL    HW233234   3.638   3.063   7.405 -0.8041 -0.4186 -0.7786
 7201SOL     OW33235   1.929   0.613  14.116 -0.1730  0.4852 -0.1313
 7201SOL    HW133236   1.887   0.698  14.131 -0.8360  0.0430  0.5409
 7201SOL    HW233237   1.930   0.573  14.203  0.3265  1.5136  0.3342
 7202SOL     OW33238   1.711   1.931   4.164  0.1333  0.0260 -0.0015
 7202SOL    HW133239   1.721   1.960   4.073 -1.3762  1.2740  0.2332
 7202SOL    HW233240   1.659   1.852   4.147  2.0932 -1.2907  0.1774
 7203SOL     OW33241   2.102   4.278   6.989 -0.2029 -0.6216  0.6326
 7203SOL    HW133242   2.072   4.243   7.072 -0.6468 -1.4574  0.1195
 7203SOL    HW233243   2.047   4.354   6.971  0.8699 -0.1464 -0.6288
 7204SOL     OW33244   1.978   1.490   0.453 -0.0812  0.4302 -0.4522
 7204SOL    HW133245   2.069   1.471   0.478  0.3362  2.6147 -0.3790
 7204SOL    HW233246   1.990   1.506   0.360  1.7119 -0.1081 -0.3257
 7205SOL     OW33247   3.815   2.525   7.496 -0.6224  0.1313  0.0606
 7205SOL    HW133248   3.733   2.476   7.495 -1.0720  0.8688  2.1659
 7205SOL    HW233249   3.772   2.609   7.513 -0.8348  0.3920 -1.7561
 7206SOL     OW33250   1.690   0.794  14.149 -0.1984  0.1927 -0.4689
 7206SOL    HW133251   1.614   0.823  14.099  0.4350  0.4042 -1.3119
 7206SOL    HW233252   1.653   0.711  14.180  1.2723 -0.4177 -0.3598
 7207SOL     OW33253   1.808   1.337  11.333 -0.1568  0.7989 -0.2401
 7207SOL    HW133254   1.729   1.378  11.298 -0.8074 -0.5087 -0.3306
 7207SOL    HW233255   1.811   1.369  11.423  0.7985 -0.7545  0.2882
 7208SOL     OW33256   3.241   1.617   8.457  0.1984  0.0540  0.3070
 7208SOL    HW133257   3.300   1.543   8.465  1.2173  0.7877 -0.3380
 7208SOL    HW233258   3.274   1.678   8.523  3.1104  0.8702 -1.8826
 7209SOL     OW33259   0.354   0.523   5.398 -0.3991 -0.2512  0.0886
 7209SOL    HW133260   0.282   0.472   5.360 -0.5356 -1.0370  1.3807
 7209SOL    HW233261   0.429   0.471   5.367 -0.4366 -0.7096  0.7727
 7210SOL     OW33262   2.227   2.835   8.461  1.0480 -0.2828 -0.3579
 7210SOL    HW133263   2.228   2.917   8.412  0.6435 -1.6074 -2.5964
 7210SOL    HW233264   2.321   2.821   8.453  1.5494  1.4966  2.4138
 7211SOL     OW33265   0.824   1.872   6.595  0.4933 -0.1764  0.0364
 7211SOL    HW133266   0.907   1.882   6.547  0.1026  3.0118  0.0159
 7211SOL    HW233267   0.798   1.786   6.563  2.3792  0.1309 -2.3214
 7212SOL     OW33268   0.608   3.974   4.029  0.1509 -0.1284  0.3415
 7212SOL    HW133269   0.566   3.889   4.043  0.1285 -0.1625  0.0688
 7212SOL    HW233270   0.555   4.010   3.958 -0.1429 -0.0930  0.5847
 7213SOL     OW33271   0.373   4.043   7.776  0.4680  0.0845 -0.1828
 7213SOL    HW133272   0.419   3.998   7.847  2.1707  0.1962 -1.2046
 7213SOL    HW233273   0.430   4.036   7.699 -1.2509 -0.2059 -1.4464
 7214SOL     OW33274   4.096   4.178  14.903 -0.4434  0.2521 -0.0648
 7214SOL    HW133275   4.073   4.265  14.870  2.2310  1.6614  1.7984
 7214SOL    HW233276   4.186   4.187  14.935  0.4636 -3.7267 -1.5326
 7215SOL     OW33277   0.075   3.996   8.425 -0.0492 -0.3070 -0.2899
 7215SOL    HW133278   0.099   3.921   8.370  1.0083  1.7047 -2.5822
 7215SOL    HW233279   4.715   3.987   8.437 -0.0357 -0.6447 -0.4172
 7216SOL     OW33280   3.015   1.619  12.263 -0.0418  0.2339  0.1683
 7216SOL    HW133281   3.106   1.641  12.242  0.2368 -0.9177  0.1717
 7216SOL    HW233282   2.992   1.544  12.209  1.1949 -1.2149  1.6422
 7217SOL     OW33283   2.234   4.160   2.386 -0.3346  0.1741  0.1188
 7217SOL    HW133284   2.155   4.125   2.427  1.0018 -2.5988  0.3250
 7217SOL    HW233285   2.203   4.227   2.324 -1.6359 -0.2851  0.2752
 7218SOL     OW33286   4.118   1.380   0.707 -0.8412 -0.1428  0.2870
 7218SOL    HW133287   4.189   1.333   0.750  0.3023 -0.1857 -1.6831
 7218SOL    HW233288   4.089   1.438   0.778 -0.5332  0.2622  0.0829
 7219SOL     OW33289   2.850   1.150  12.363  0.2894  0.4654 -0.1689
 7219SOL    HW133290   2.942   1.140  12.386  0.8199 -0.8135 -2.8551
 7219SOL    HW233291   2.848   1.091  12.288  1.7113 -0.2107  0.3462
 7220SOL     OW33292   1.226   1.669   0.172 -0.2601 -0.8085  0.0093
 7220SOL    HW133293   1.315   1.650   0.201  0.1670  0.1761 -0.6630
 7220SOL    HW233294   1.229   1.625   0.087 -1.0677  1.4687 -1.2072
 7221SOL     OW33295   0.858   4.552  17.548 -0.8018  0.4903  0.4414
 7221SOL    HW133296   0.802   4.629  17.560  1.1593  1.0919  5.6639
 7221SOL    HW233297   0.936   4.597  17.580  0.1550  0.0550 -1.3056
 7222SOL     OW33298   4.547   1.206   0.473  0.0011  0.7046 -0.5187
 7222SOL    HW133299   4.571   1.149   0.400  2.8634  1.2197  0.0170
 7222SOL    HW233300   4.541   1.145   0.546 -2.1330  0.7382 -0.6694
 7223SOL     OW33301   1.136   3.643   6.017  0.6487  0.4557  0.6396
 7223SOL    HW133302   1.231   3.651   6.024  0.5620  2.1704  0.0096
 7223SOL    HW233303   1.120   3.561   6.063  0.1452  0.5023  0.5559
 7224SOL     OW33304   0.623   3.912  16.143  0.4247 -0.8237 -0.1285
 7224SOL    HW133305   0.641   3.996  16.101  0.6099  1.6771  4.8961
 7224SOL    HW233306   0.534   3.924  16.175  0.9602  1.8273  0.3571
 7225SOL     OW33307   4.142   0.372   7.391  0.3805 -0.2841 -0.0987
 7225SOL    HW133308   4.222   0.339   7.350 -0.6964 -2.9689 -0.0151
 7225SOL    HW233309   4.099   0.290   7.413  0.6116 -0.9469 -2.0593
 7226SOL     OW33310   2.341   4.132   7.148 -0.1214 -0.2787 -0.7316
 7226SOL    HW133311   2.252   4.100   7.164  0.1484  0.8930  3.3191
 7226SOL    HW233312   2.381   4.115   7.234 -3.0912 -1.4072  0.4275
 7227SOL     OW33313   4.404   1.434   1.880  0.6916  0.2499  0.1701
 7227SOL    HW133314   4.491   1.425   1.842  1.8269  0.1504  2.7544
 7227SOL    HW233315   4.349   1.390   1.815 -0.4265  2.8369 -0.6329
 7228SOL     OW33316   0.085   3.928   7.482 -0.3401 -0.4321  0.1811
 7228SOL    HW133317   0.083   3.834   7.468  3.0572 -0.4263 -0.2227
 7228SOL    HW233318   0.073   3.931   7.577 -0.1433 -0.4921  0.2073
 7229SOL     OW33319   4.046   3.269   2.692 -0.0913  0.0631 -0.2540
 7229SOL    HW133320   4.058   3.229   2.778  0.3083  0.2074 -0.2442
 7229SOL    HW233321   4.132   3.307   2.674  0.5217 -1.2033  0.0334
 7230SOL     OW33322   2.509   1.485   6.052 -0.2036  0.0632 -0.0925
 7230SOL    HW133323   2.444   1.524   6.110 -0.2247  0.7991 -0.6206
 7230SOL    HW233324   2.535   1.557   5.995 -1.2552 -0.8270 -1.6813
 7231SOL     OW33325   4.442   4.239  17.363  0.1684  0.1402  0.5073
 7231SOL    HW133326   4.476   4.328  17.364 -1.4173  0.7248  1.2180
 7231SOL    HW233327   4.351   4.255  17.385 -0.0723  2.7041 -2.3443
 7232SOL     OW33328   2.819   2.398   6.979 -0.4714 -0.0116  0.4443
 7232SOL    HW133329   2.883   2.383   7.048 -0.3974  0.5348  0.4952
 7232SOL    HW233330   2.801   2.491   6.995  3.2450  0.7908 -0.1845
 7233SOL     OW33331   3.116   0.569  15.441  0.7231 -0.2003 -0.2567
 7233SOL    HW133332   3.084   0.658  15.426 -0.7383 -0.4253  1.6149
 7233SOL    HW233333   3.193   0.593  15.493  0.1421 -0.3762  0.6911
 7234SOL     OW33334   0.015   2.896   4.698 -0.0590 -0.5852 -0.2096
 7234SOL    HW133335   0.078   2.939   4.641 -1.3514  0.6703 -0.7044
 7234SOL    HW233336   4.684   2.964   4.712 -0.6322 -1.4575  1.2998
 7235SOL     OW33337   4.605   3.531   0.957 -0.1155  0.2432 -0.0457
 7235SOL    HW133338   4.583   3.441   0.983 -0.8814  0.7426  1.0563
 7235SOL    HW233339   4.644   3.575   1.032  0.3359  2.0004 -1.3173
 7236SOL     OW33340   0.602   1.799   4.066 -0.3776  0.1750 -0.1493
 7236SOL    HW133341   0.665   1.841   4.124  1.5286 -3.7287  0.5526
 7236SOL    HW233342   0.629   1.707   4.071 -2.9543 -0.3964  3.2558
 7237SOL     OW33343   3.594   1.281   1.544 -0.8066  0.0547  0.0671
 7237SOL    HW133344   3.601   1.374   1.570 -0.3161 -0.0143  0.1927
 7237SOL    HW233345   3.606   1.290   1.450 -1.4007 -0.9040 -0.0945
 7238SOL     OW33346   3.281   3.225   7.201  0.3862 -0.1699  0.1612
 7238SOL    HW133347   3.257   3.291   7.266  0.8636 -1.3259  1.5169
 7238SOL    HW233348   3.287   3.143   7.251  1.0699 -0.2271 -0.0215
 7239SOL     OW33349   3.995   1.147   3.363  0.0013  0.3775 -0.1613
 7239SOL    HW133350   3.947   1.067   3.344  1.6195 -0.1336 -2.0623
 7239SOL    HW233351   4.082   1.132   3.327  0.7637  3.3274  0.4437
 7240SOL     OW33352   4.357   4.461   5.375  0.4481  0.5026 -0.4552
 7240SOL    HW133353   4.378   4.453   5.468  0.8411  0.6005 -0.5354
 7240SOL    HW233354   4.396   4.546   5.352 -1.1680  1.5371  0.5938
 7241SOL     OW33355   3.149   1.525   2.469  0.3589 -0.1947  0.0565
 7241SOL    HW133356   3.138   1.578   2.548  0.0696 -0.2599  0.0605
 7241SOL    HW233357   3.065   1.535   2.425  1.5938  2.8352 -1.6312
 7242SOL     OW33358   0.466   3.279   6.397  0.1750 -0.6140 -0.7380
 7242SOL    HW133359   0.403   3.208   6.410 -1.1821  0.6820 -0.1555
 7242SOL    HW233360   0.544   3.224   6.399  0.6749  0.1990  2.6776
 7243SOL     OW33361   2.386   2.419   5.852  0.0797 -0.1537  0.0924
 7243SOL    HW133362   2.342   2.401   5.769 -4.1626  0.3434  2.2668
 7243SOL    HW233363   2.378   2.514   5.861 -0.2264 -0.2354  0.6362
 7244SOL     OW33364   2.891   0.470   2.542  0.1211 -0.0582 -0.6896
 7244SOL    HW133365   2.830   0.540   2.565 -0.2904 -0.6155 -0.0681
 7244SOL    HW233366   2.924   0.497   2.456  1.0061  0.0203 -0.3282
 7245SOL     OW33367   2.285   3.093   3.392 -0.1365 -0.3530  0.2989
 7245SOL    HW133368   2.343   3.069   3.464 -0.7835 -0.1138  0.8943
 7245SOL    HW233369   2.335   3.081   3.310  0.9529  1.7892  0.6508
 7246SOL     OW33370   0.112   0.696   2.661 -0.3563  0.3637 -0.0993
 7246SOL    HW133371   0.165   0.634   2.610 -0.1439  0.1066  0.4342
 7246SOL    HW233372   0.038   0.646   2.695  0.7148 -1.8606 -1.0449
 7247SOL     OW33373   2.966   1.065   6.272  0.3258 -0.2556  0.1397
 7247SOL    HW133374   2.977   1.119   6.350  2.6934 -0.4286 -0.0949
 7247SOL    HW233375   3.047   1.016   6.272 -1.0333 -2.4946 -0.3575
 7248SOL     OW33376   3.003   3.573   4.132 -0.4228  0.2073 -0.1202
 7248SOL    HW133377   3.096   3.564   4.152 -0.1784  0.8874 -0.9788
 7248SOL    HW233378   2.969   3.640   4.192  0.3667 -0.6253  1.2561
 7249SOL     OW33379   2.369   3.805   4.790  0.0080 -0.2410  0.1870
 7249SOL    HW133380   2.335   3.806   4.700  0.7044  1.1946 -0.0500
 7249SOL    HW233381   2.443   3.744   4.776  2.0839  1.9643  1.5905
 7250SOL     OW33382   1.974   4.612   1.639  0.0940 -0.0111  0.3537
 7250SOL    HW133383   2.057   4.643   1.604  0.5544 -2.1535 -0.3951
 7250SOL    HW233384   1.919   4.691   1.635 -1.9287 -1.3965  1.2072
 7251SOL     OW33385   1.275   2.387   5.691  0.1909  0.0904 -0.1059
 7251SOL    HW133386   1.366   2.416   5.702 -0.2155  0.9239  0.9616
 7251SOL    HW233387   1.245   2.356   5.776 -0.3528  2.2980  0.4967
 7252SOL     OW33388   4.385   0.889   8.241 -0.4594 -0.0904  0.2653
 7252SOL    HW133389   4.300   0.920   8.272 -1.9708 -0.9068 -2.9932
 7252SOL    HW233390   4.394   0.927   8.154 -1.5776  0.0274  0.2076
 7253SOL     OW33391   3.627   1.592  16.418  0.2724 -0.1965 -0.1379
 7253SOL    HW133392   3.662   1.670  16.376  0.2887 -0.2562 -0.2334
 7253SOL    HW233393   3.640   1.527  16.349  1.8508 -0.6361  0.5575
 7254SOL     OW33394   1.002   4.435   5.025  0.4694 -0.1276  0.3386
 7254SOL    HW133395   0.962   4.513   4.986  0.3686 -1.1940 -1.7146
 7254SOL    HW233396   0.962   4.437   5.112 -1.1185 -1.6038 -0.3526
 7255SOL     OW33397   1.854   3.889   7.982 -0.1629  0.4599 -0.1345
 7255SOL    HW133398   1.816   3.820   7.928  0.6533 -0.3991  0.3879
 7255SOL    HW233399   1.846   3.840   8.065  0.4656  1.7296  0.6750
 7256SOL     OW33400   2.120   3.087   5.971  0.4290 -0.4970 -0.1256
 7256SOL    HW133401   2.046   3.064   6.028 -0.6055  3.4279  0.1086
 7256SOL    HW233402   2.192   3.066   6.031 -0.1606 -0.9614  0.4174
 7257SOL     OW33403   4.085   1.088   2.568 -0.2827  0.4256 -0.4075
 7257SOL    HW133404   4.115   1.139   2.493  0.3329 -0.0105 -0.4575
 7257SOL    HW233405   4.116   1.138   2.643  1.6230 -1.3730  0.0181
 7258SOL     OW33406   4.070   3.288   5.079  0.1736 -0.1567 -0.7630
 7258SOL    HW133407   4.099   3.322   4.995  0.9008  2.2096  0.4478
 7258SOL    HW233408   4.001   3.353   5.096  1.2255  0.9414 -0.6849
 7259SOL     OW33409   1.235   1.802  14.594  0.1182  0.4973  0.3830
 7259SOL    HW133410   1.241   1.817  14.689  0.2328 -0.3263  0.5007
 7259SOL    HW233411   1.326   1.783  14.571  0.4903  3.9271 -0.9970
 7260SOL     OW33412   4.482   0.891  16.725 -0.2141 -0.0498 -0.0200
 7260SOL    HW133413   4.472   0.800  16.696  0.5756  0.7485 -2.7576
 7260SOL    HW233414   4.555   0.874  16.784 -1.9582 -0.7292  1.9618
 7261SOL     OW33415   1.597   1.853   8.575 -0.3855 -0.2093 -0.0926
 7261SOL    HW133416   1.655   1.841   8.499 -0.4625  0.1089 -0.2006
 7261SOL    HW233417   1.642   1.794   8.636  2.9254  1.4569 -0.9447
 7262SOL     OW33418   0.281   3.581  10.936 -0.0393 -0.5332 -0.3666
 7262SOL    HW133419   0.271   3.633  11.016  0.1497  0.2501 -0.8480
 7262SOL    HW233420   0.372   3.583  10.907 -0.2866  1.3081 -1.0506
 7263SOL     OW33421   3.032   2.554   9.845 -0.1091  0.2999 -0.2186
 7263SOL    HW133422   3.070   2.518   9.925 -1.2737  0.2448  0.2995
 7263SOL    HW233423   2.988   2.477   9.811 -0.1732  0.5107 -0.6107
 7264SOL     OW33424   4.709   3.386   3.127 -0.2928 -0.2405 -0.2219
 7264SOL    HW133425   4.622   3.403   3.163 -0.1472  2.1932 -0.9617
 7264SOL    HW233426   0.020   3.450   3.182 -1.8479  0.8299 -0.1667
 7265SOL     OW33427   2.799   3.760   8.715 -0.4078 -0.6754 -0.8929
 7265SOL    HW133428   2.889   3.748   8.685  0.5803  2.4761  0.9309
 7265SOL    HW233429   2.798   3.687   8.777 -0.6741 -0.1938 -0.3311
 7266SOL     OW33430   0.911   2.661   6.587  0.4441  0.2128 -1.0090
 7266SOL    HW133431   0.952   2.587   6.632 -2.0359 -0.5982 -0.0846
 7266SOL    HW233432   0.970   2.735   6.594  0.1283  0.4299 -0.6514
 7267SOL     OW33433   0.530   0.879   8.620  0.1872  0.0854 -0.1806
 7267SOL    HW133434   0.559   0.867   8.711 -0.5037 -1.4597 -0.1673
 7267SOL    HW233435   0.612   0.855   8.578 -1.3334 -1.9111 -1.9983
 7268SOL     OW33436   1.559   2.185   7.506  0.4087  0.2570 -0.1683
 7268SOL    HW133437   1.594   2.147   7.425  0.4401 -1.2196  0.5220
 7268SOL    HW233438   1.581   2.120   7.574  1.1314 -1.1355 -1.7450
 7269SOL     OW33439   3.696   4.335  11.924 -0.2338  0.3494  0.2671
 7269SOL    HW133440   3.739   4.367  12.004  1.6519  0.6995 -0.9006
 7269SOL    HW233441   3.671   4.417  11.881  0.6881  0.8464  0.6797
 7270SOL     OW33442   1.416   1.576  17.304  0.4352 -0.1606  0.4196
 7270SOL    HW133443   1.355   1.625  17.359  0.6601  1.4910 -0.7827
 7270SOL    HW233444   1.458   1.525  17.373 -0.0128 -0.2492  0.6303
 7271SOL     OW33445   2.516   1.123  15.367  0.1885 -0.2364  0.5759
 7271SOL    HW133446   2.481   1.113  15.279 -3.5202 -0.7139  2.1137
 7271SOL    HW233447   2.475   1.208  15.382  0.1754 -0.0488 -0.5330
 7272SOL     OW33448   1.773   2.004   2.434  0.1537 -0.4138 -0.4873
 7272SOL    HW133449   1.700   2.059   2.462 -1.5449 -2.6460 -0.4871
 7272SOL    HW233450   1.775   1.941   2.506 -3.6346 -0.3321 -0.3069
 7273SOL     OW33451   0.126   1.464   7.043  0.0458  0.1495 -0.6138
 7273SOL    HW133452   0.102   1.486   7.134 -0.8094 -1.4806 -0.4444
 7273SOL    HW233453   0.137   1.551   7.005  0.4133  0.9323  1.2371
 7274SOL     OW33454   0.928   4.626   2.462 -0.0646 -0.3007 -0.1624
 7274SOL    HW133455   1.024   4.630   2.466 -0.0754  1.4199 -1.2721
 7274SOL    HW233456   0.895   4.707   2.502 -2.9861 -1.2445 -0.6716
 7275SOL     OW33457   3.195   2.179  15.533  0.1792 -0.5310  0.1214
 7275SOL    HW133458   3.228   2.253  15.483 -0.0652 -0.5763 -0.1038
 7275SOL    HW233459   3.183   2.207  15.624  0.1932 -0.6461  0.1591
 7276SOL     OW33460   4.000   0.885   6.220  0.4761  0.0909  0.7427
 7276SOL    HW133461   4.067   0.830   6.180 -1.3680  0.5419 -2.9071
 7276SOL    HW233462   4.004   0.967   6.172 -0.6962 -0.9732 -1.1448
 7277SOL     OW33463   2.152   3.462   0.438 -0.4067  0.6409 -0.0384
 7277SOL    HW133464   2.205   3.383   0.451 -1.0090 -0.0313 -1.8009
 7277SOL    HW233465   2.138   3.459   0.344  1.5344 -0.8787 -0.2978
 7278SOL     OW33466   1.979   1.781  10.187 -0.0113 -0.2327 -0.3199
 7278SOL    HW133467   1.982   1.761  10.093 -1.9867 -3.5868  0.3631
 7278SOL    HW233468   1.996   1.698  10.232  1.5803  0.0487 -0.3819
 7279SOL     OW33469   3.744   3.047   6.531 -0.4555 -0.6445  0.5791
 7279SOL    HW133470   3.821   3.008   6.490  1.3823 -0.3874  3.8055
 7279SOL    HW233471   3.720   3.105   6.459 -0.8021 -2.5770 -0.8690
 7280SOL     OW33472   3.884   3.264   7.199  0.7398 -0.1726  0.4736
 7280SOL    HW133473   3.831   3.235   7.273 -0.1106  0.0927 -0.0364
 7280SOL    HW233474   3.851   3.206   7.130  0.3335  0.1974  0.3555
 7281SOL     OW33475   2.495   1.690   8.766  0.1114  0.3935 -0.4771
 7281SOL    HW133476   2.478   1.784   8.770 -0.6262  0.2077  0.8589
 7281SOL    HW233477   2.569   1.690   8.826 -0.5814 -1.1039  0.3884
 7282SOL     OW33478   0.469   0.519   6.729 -0.0508 -0.3053 -0.1013
 7282SOL    HW133479   0.381   0.483   6.717  0.4293 -1.0098 -1.5046
 7282SOL    HW233480   0.506   0.499   6.643 -2.2077 -0.8529 -0.9072
 7283SOL     OW33481   0.558   1.562  11.948 -0.1273 -0.6016  0.1417
 7283SOL    HW133482   0.584   1.480  11.990 -3.6491 -0.7729  1.9743
 7283SOL    HW233483   0.578   1.615  12.025  0.7286 -0.9307  0.1527
 7284SOL     OW33484   1.258   1.602   8.748  0.2787 -0.0628 -0.3794
 7284SOL    HW133485   1.235   1.521   8.794 -0.9906 -0.1822 -1.2206
 7284SOL    HW233486   1.187   1.662   8.766  0.7711 -0.2433  2.2094
 7285SOL     OW33487   3.808   3.973  14.045  0.7024  0.6796 -0.2027
 7285SOL    HW133488   3.805   4.041  13.977  0.7962 -0.8512 -1.7385
 7285SOL    HW233489   3.775   4.020  14.121 -0.6795  0.3621 -0.6075
 7286SOL     OW33490   4.346   2.815   6.840  0.6878 -0.3097  0.3394
 7286SOL    HW133491   4.366   2.909   6.831 -1.4192  0.0164 -1.2412
 7286SOL    HW233492   4.311   2.798   6.752  1.2345  1.3999 -0.2071
 7287SOL     OW33493   2.430   0.439   8.251  0.0367 -0.4351 -0.1805
 7287SOL    HW133494   2.493   0.418   8.320  1.0201  1.9203 -0.3639
 7287SOL    HW233495   2.490   0.469   8.182  1.7148  0.1510  1.5550
 7288SOL     OW33496   3.957   2.401  15.710 -0.3224 -0.0403 -0.6697
 7288SOL    HW133497   3.944   2.493  15.689  1.4684  0.0853 -1.2463
 7288SOL    HW233498   4.052   2.389  15.701 -0.7138 -3.1359 -0.5979
 7289SOL     OW33499   2.098   4.561   6.101 -0.3020 -0.3998  0.3951
 7289SOL    HW133500   2.093   4.466   6.095  2.0462 -0.4285 -1.1647
 7289SOL    HW233501   2.015   4.586   6.141 -0.3708  1.4527 -0.8784
 7290SOL     OW33502   1.298   0.375   6.820 -0.0886 -0.5362  0.0423
 7290SOL    HW133503   1.235   0.368   6.748  0.3606  0.2733 -0.4290
 7290SOL    HW233504   1.253   0.415   6.895  1.9703  0.5977  0.6561
 7291SOL     OW33505   0.329   1.527   5.868 -0.5124 -0.0965 -0.0120
 7291SOL    HW133506   0.329   1.537   5.963 -1.0825  2.9384 -0.3422
 7291SOL    HW233507   0.419   1.499   5.848 -1.1745 -1.7414 -0.7007
 7292SOL     OW33508   4.714   3.278   4.426  0.3162  0.1420  0.0073
 7292SOL    HW133509   0.048   3.240   4.480  0.2302  0.1903  0.1527
 7292SOL    HW233510   4.676   3.350   4.476 -0.1199  1.4932 -2.2512
 7293SOL     OW33511   3.828   0.333   7.039  0.6595 -0.0072 -0.5277
 7293SOL    HW133512   3.834   0.384   6.958  0.2784  0.9438  0.0448
 7293SOL    HW233513   3.737   0.305   7.044  0.3430  1.1029 -0.0294
 7294SOL     OW33514   3.955   2.399  15.994 -0.2848 -0.0743 -0.3657
 7294SOL    HW133515   3.963   2.451  15.914 -1.3691  1.0731  0.2752
 7294SOL    HW233516   3.945   2.473  16.054  1.1856  0.0718 -0.3019
 7295SOL     OW33517   2.391   3.330   3.743  1.1483 -0.3209 -0.2088
 7295SOL    HW133518   2.416   3.283   3.823  2.8681  0.5217 -0.2643
 7295SOL    HW233519   2.321   3.273   3.710  1.5516  0.0668 -1.7119
 7296SOL     OW33520   0.924   3.124   7.715  0.4940 -0.4365  0.3074
 7296SOL    HW133521   0.888   3.159   7.634 -1.1621  0.3623  1.4047
 7296SOL    HW233522   0.841   3.118   7.761  1.2136 -1.1719  1.5188
 7297SOL     OW33523   3.933   4.597  13.580 -0.3650 -0.2275 -0.2119
 7297SOL    HW133524   4.002   4.656  13.607 -0.4061  1.9804 -4.9757
 7297SOL    HW233525   3.977   4.513  13.595 -1.1003 -0.8778 -1.6993
 7298SOL     OW33526   0.393   3.261   9.185 -0.2630 -0.1411  0.5119
 7298SOL    HW133527   0.340   3.339   9.168 -0.4170 -0.0179  1.5285
 7298SOL    HW233528   0.412   3.283   9.277  1.4503 -1.8037  0.5532
 7299SOL     OW33529   1.381   3.081   3.755  0.6225  0.1959 -0.3031
 7299SOL    HW133530   1.401   3.134   3.831 -0.6903 -0.0599  0.2208
 7299SOL    HW233531   1.424   2.997   3.771  1.4911  0.9799  1.4301
 7300SOL     OW33532   0.304   1.884   6.866  0.5677  0.2630 -0.0572
 7300SOL    HW133533   0.289   1.968   6.910  1.1937  0.7241 -0.7227
 7300SOL    HW233534   0.398   1.873   6.852  0.2676 -0.0817 -1.7286
 7301SOL     OW33535   2.577   2.778   3.380  0.3591 -0.1704  0.5245
 7301SOL    HW133536   2.609   2.796   3.291 -2.2999  0.5330 -0.2725
 7301SOL    HW233537   2.485   2.802   3.377  0.2319 -0.7486 -0.2070
 7302SOL     OW33538   2.304   2.706   8.774  0.5319  0.0638  0.1584
 7302SOL    HW133539   2.377   2.751   8.731  0.9623 -1.0754 -0.2873
 7302SOL    HW233540   2.316   2.619   8.738  0.9862 -0.4130  1.4619
 7303SOL     OW33541   0.641   4.245   8.386 -0.3180 -0.0438 -0.2996
 7303SOL    HW133542   0.609   4.288   8.307  1.8889  2.4479  0.1683
 7303SOL    HW233543   0.676   4.172   8.335 -0.5087 -0.6748  0.4756
 7304SOL     OW33544   1.066   1.612   9.103  0.1193  0.3475  0.2386
 7304SOL    HW133545   1.000   1.675   9.076  1.7498  2.2847  0.7835
 7304SOL    HW233546   1.010   1.559   9.160  0.3828 -1.8103 -1.5073
 7305SOL     OW33547   2.283   4.652   2.307  0.0596  0.3783  0.3215
 7305SOL    HW133548   2.203   4.702   2.292  0.0717  0.5704  0.8845
 7305SOL    HW233549   2.351   4.719   2.300  0.2159 -0.0220 -1.7991
 7306SOL     OW33550   1.132   0.449   1.314 -0.2391  0.2105 -0.5294
 7306SOL    HW133551   1.133   0.544   1.304 -0.7321  0.4856  2.0650
 7306SOL    HW233552   1.163   0.413   1.230 -2.7160  0.2223 -1.4324
 7307SOL     OW33553   3.537   3.861  12.268  0.3699  0.6213 -0.2388
 7307SOL    HW133554   3.478   3.886  12.198 -0.8911  1.3370  1.0858
 7307SOL    HW233555   3.497   3.781  12.302  0.2829  0.9004  0.3085
 7308SOL     OW33556   2.577   3.429  14.741  0.8196 -0.2939  0.2943
 7308SOL    HW133557   2.598   3.347  14.697 -1.4226 -1.2394  1.0430
 7308SOL    HW233558   2.665   3.464  14.728  0.5123  0.0049 -1.0396
 7309SOL     OW33559   2.122   0.380  10.284  0.1865 -0.3683  0.3531
 7309SOL    HW133560   2.121   0.365  10.378 -0.4989 -1.3460  0.1892
 7309SOL    HW233561   2.045   0.334  10.250  0.5653 -2.1668  1.9120
 7310SOL     OW33562   2.418   4.033   3.244  0.4337 -0.5866 -0.1529
 7310SOL    HW133563   2.492   4.022   3.305 -2.0532 -1.5392  2.7163
 7310SOL    HW233564   2.463   4.071   3.169  0.6320  0.3389  0.4376
 7311SOL     OW33565   4.219   2.894  15.164 -0.5364 -0.1275  0.5534
 7311SOL    HW133566   4.210   2.988  15.147  0.6625  0.1028  1.2047
 7311SOL    HW233567   4.131   2.865  15.186 -1.2216  1.6593  0.1771
 7312SOL     OW33568   2.183   3.576   7.171 -0.3899  0.3385  0.3534
 7312SOL    HW133569   2.211   3.485   7.187 -0.8525  0.4720  1.8847
 7312SOL    HW233570   2.250   3.609   7.111  1.4558 -1.0878  1.6533
 7313SOL     OW33571   1.803   1.875   6.828  0.1319  0.1863 -0.0402
 7313SOL    HW133572   1.821   1.911   6.741 -1.5175  3.0485  0.8159
 7313SOL    HW233573   1.748   1.944   6.865  1.4148  0.2878  1.7259
 7314SOL     OW33574   3.066   3.111  12.112  0.0654 -0.7496  0.7685
 7314SOL    HW133575   3.045   3.091  12.203  1.5448  1.1962  1.5575
 7314SOL    HW233576   3.114   3.192  12.132  1.2417 -1.4004  0.5809
 7315SOL     OW33577   3.336   2.689   3.019  0.2966 -0.0800  0.3701
 7315SOL    HW133578   3.402   2.667   2.953  0.6776 -1.2930  1.1723
 7315SOL    HW233579   3.336   2.785   3.015  1.1922 -0.0865  0.1664
 7316SOL     OW33580   0.024   3.930   6.476 -0.3796 -0.1316  0.2524
 7316SOL    HW133581   0.018   4.023   6.453 -1.3790 -0.7976 -2.1768
 7316SOL    HW233582   0.087   3.898   6.413 -0.8272  1.0863 -0.8223
 7317SOL     OW33583   0.950   2.092   3.211 -0.0637  0.0189 -0.4728
 7317SOL    HW133584   1.031   2.079   3.259 -0.1111  2.5028  0.2879
 7317SOL    HW233585   0.892   2.056   3.277  0.5191  0.4988  0.3048
 7318SOL     OW33586   4.157   4.319   6.771 -0.3527 -0.5113 -0.1567
 7318SOL    HW133587   4.136   4.357   6.686 -1.0899 -1.5431 -0.4284
 7318SOL    HW233588   4.102   4.379   6.821 -0.5169  0.2335 -1.2518
 7319SOL     OW33589   1.830   0.128   1.640  0.1762  0.3873  0.3677
 7319SOL    HW133590   1.750   0.078   1.650  1.9446 -1.5228  4.7204
 7319SOL    HW233591   1.808   0.206   1.691 -1.0167 -0.4996  1.1679
 7320SOL     OW33592   1.098   1.868   0.305 -1.0473 -0.3904  0.6338
 7320SOL    HW133593   1.090   1.829   0.392 -0.3975  0.3453  1.0224
 7320SOL    HW233594   1.135   1.796   0.254  2.6137  2.4366 -0.6636
 7321SOL     OW33595   3.408   3.958   9.838 -0.0836  0.2289  0.1836
 7321SOL    HW133596   3.329   3.932   9.791  0.1352 -0.3082  0.1010
 7321SOL    HW233597   3.385   3.942   9.930  0.4163  0.7198  0.3921
 7322SOL     OW33598   3.521   4.151   3.700 -0.1578 -0.6279  0.6887
 7322SOL    HW133599   3.507   4.063   3.664  0.9475  0.1094 -1.5085
 7322SOL    HW233600   3.438   4.191   3.675  0.5312  0.2108 -0.2520
 7323SOL     OW33601   3.595   1.199  16.737 -0.2489 -0.2374  0.1310
 7323SOL    HW133602   3.582   1.215  16.643  1.9292 -2.9033 -0.6380
 7323SOL    HW233603   3.688   1.178  16.746  0.0792  1.5408  1.0196
 7324SOL     OW33604   1.039   2.562   1.952  0.0755 -0.7011  0.1235
 7324SOL    HW133605   1.045   2.467   1.940 -1.0638 -0.8459  0.6981
 7324SOL    HW233606   1.131   2.578   1.929  0.0816 -0.8752  0.0274
 7325SOL     OW33607   1.921   1.193   8.476  0.2088 -0.4913  0.0867
 7325SOL    HW133608   1.905   1.276   8.522  0.9292 -0.8860  1.0418
 7325SOL    HW233609   1.925   1.220   8.384  0.8513 -0.8665  0.0067
 7326SOL     OW33610   2.118   2.379   8.488  0.4349  0.3123 -0.1076
 7326SOL    HW133611   2.060   2.308   8.461  1.7814 -1.4077  1.5102
 7326SOL    HW233612   2.137   2.413   8.401 -1.7444 -1.4478 -1.2732
 7327SOL     OW33613   3.864   1.803  13.236  0.0336 -0.5109  0.3024
 7327SOL    HW133614   3.903   1.743  13.299  1.7530 -1.5280 -1.7288
 7327SOL    HW233615   3.784   1.820  13.286  0.1705  0.0758  0.3182
 7328SOL     OW33616   2.218   1.151   4.531  0.0164 -0.0682  0.5824
 7328SOL    HW133617   2.253   1.193   4.453  0.1883 -1.4094 -0.0718
 7328SOL    HW233618   2.125   1.133   4.517  0.6203 -1.1122 -2.1199
 7329SOL     OW33619   4.347   1.333   8.972  0.8047 -0.5570  0.0671
 7329SOL    HW133620   4.324   1.349   9.063 -0.1233  1.0191 -0.4567
 7329SOL    HW233621   4.293   1.400   8.931  1.9560  0.1358 -0.3118
 7330SOL     OW33622   1.321   1.434   6.816  0.0452 -0.0739  0.0498
 7330SOL    HW133623   1.358   1.516   6.784 -1.8377  0.0285 -1.8221
 7330SOL    HW233624   1.409   1.401   6.838  0.0001  0.1043  0.4866
 7331SOL     OW33625   1.483   4.728   8.412  0.2059  0.2422 -0.5665
 7331SOL    HW133626   1.418   4.727   8.342 -0.5614 -1.3475  0.1565
 7331SOL    HW233627   1.524   0.077   8.393 -1.8526  1.2348 -0.6007
 7332SOL     OW33628   2.744   1.381   6.462 -0.4205 -0.3348  0.2479
 7332SOL    HW133629   2.788   1.462   6.436 -2.2483  0.5918  0.0431
 7332SOL    HW233630   2.688   1.364   6.386 -0.7825  1.3826  0.1340
 7333SOL     OW33631   0.291   4.184  14.286  0.5784 -0.5019 -0.2361
 7333SOL    HW133632   0.341   4.257  14.249 -0.1408  0.4397  0.6444
 7333SOL    HW233633   0.310   4.181  14.380 -3.0688  1.4268  0.5342
 7334SOL     OW33634   4.486   2.459   5.678 -0.4990 -0.5555  0.1808
 7334SOL    HW133635   4.503   2.443   5.586  1.0076  1.3218  0.1457
 7334SOL    HW233636   4.430   2.391   5.717 -0.0381  1.0541  3.6977
 7335SOL     OW33637   1.153   4.102   7.531 -0.5345 -0.4410  0.0265
 7335SOL    HW133638   1.089   4.168   7.505 -0.1676 -0.3616 -0.6899
 7335SOL    HW233639   1.227   4.161   7.545  0.0729 -1.2466  0.2293
 7336SOL     OW33640   0.033   3.369  14.646 -0.0705 -0.6766 -0.1409
 7336SOL    HW133641   0.112   3.387  14.595  0.2525  0.9205  0.8980
 7336SOL    HW233642   0.008   3.460  14.661 -0.4748 -0.7731 -0.2235
 7337SOL     OW33643   0.293   0.938   2.250  0.2144 -0.3415  0.2360
 7337SOL    HW133644   0.339   1.015   2.217 -0.3311  0.8614  2.2699
 7337SOL    HW233645   0.258   0.968   2.334  0.7173 -0.7038  0.5704
 7338SOL     OW33646   3.230   2.368   5.243  0.1567  0.2640 -0.0065
 7338SOL    HW133647   3.287   2.363   5.320 -1.0514  1.4304  0.9602
 7338SOL    HW233648   3.275   2.434   5.190 -0.2438 -1.0507 -1.9829
 7339SOL     OW33649   3.582   4.148   7.834 -0.2256  0.4269 -0.2416
 7339SOL    HW133650   3.626   4.084   7.891 -1.8850 -0.9206 -0.4814
 7339SOL    HW233651   3.496   4.154   7.876 -0.7040 -2.7632 -0.7724
 7340SOL     OW33652   0.499   4.085   0.906 -0.2540 -0.3693 -0.1353
 7340SOL    HW133653   0.458   4.000   0.920  0.4221 -0.0814  3.5222
 7340SOL    HW233654   0.428   4.110   0.848 -0.8755  0.0634  0.8132
 7341SOL     OW33655   2.386   4.233   5.834  0.2425  0.0294  0.1884
 7341SOL    HW133656   2.479   4.256   5.842  0.4374 -0.7550  0.1888
 7341SOL    HW233657   2.391   4.138   5.844 -0.5052 -0.1575 -1.3722
 7342SOL     OW33658   3.069   0.249   4.378  0.0722  0.2514  0.1524
 7342SOL    HW133659   2.987   0.255   4.328  0.3940  1.0619 -0.2878
 7342SOL    HW233660   3.130   0.209   4.315  1.6720  1.6039  0.8336
 7343SOL     OW33661   3.868   1.252   5.920  0.1183  0.1711  0.0811
 7343SOL    HW133662   3.902   1.168   5.951 -0.8518  0.7433  2.6996
 7343SOL    HW233663   3.895   1.249   5.828 -0.6610  1.5884 -0.1928
 7344SOL     OW33664   2.638   3.647   3.504  0.0821 -0.3823  0.0085
 7344SOL    HW133665   2.594   3.717   3.552  1.7525 -0.9391  2.3270
 7344SOL    HW233666   2.562   3.589   3.493  0.7243 -0.9485 -1.4981
 7345SOL     OW33667   4.419   2.405   0.053  0.0095 -0.2676  0.6574
 7345SOL    HW133668   4.464   2.490   0.047  0.1290 -0.3939 -0.2579
 7345SOL    HW233669   4.376   2.409   0.138  1.4883 -0.7957  1.4346
 7346SOL     OW33670   3.536   1.089   3.027  0.3860  0.2537 -0.2183
 7346SOL    HW133671   3.536   1.043   2.944 -0.2247  0.7548 -0.5010
 7346SOL    HW233672   3.625   1.123   3.025 -0.5159  2.5845 -1.5639
 7347SOL     OW33673   4.409   0.460   6.482 -0.8123  0.0316  0.5147
 7347SOL    HW133674   4.416   0.372   6.519 -1.4456 -1.4767 -2.9312
 7347SOL    HW233675   4.376   0.509   6.557  1.0953  2.8703 -0.5386
 7348SOL     OW33676   2.826   3.402   7.822  0.2237 -0.8374 -0.3662
 7348SOL    HW133677   2.819   3.484   7.870  1.5465 -1.4123  0.8082
 7348SOL    HW233678   2.911   3.410   7.778 -0.4978  2.5666 -1.1791
 7349SOL     OW33679   3.346   0.375  14.900 -0.2498  0.3022  0.2398
 7349SOL    HW133680   3.333   0.351  14.992  0.9990  0.8398  0.5439
 7349SOL    HW233681   3.339   0.290  14.856  0.2262  0.8106 -0.8074
 7350SOL     OW33682   3.738   4.333  12.285 -0.3572 -0.3091  0.0375
 7350SOL    HW133683   3.714   4.241  12.290  0.3569 -0.5186 -0.4855
 7350SOL    HW233684   3.820   4.335  12.236 -1.7365  0.8931 -2.2092
 7351SOL     OW33685   2.289   1.684   7.259  0.3223  0.1648 -0.0848
 7351SOL    HW133686   2.320   1.598   7.287 -2.5078 -1.7083 -2.5988
 7351SOL    HW233687   2.372   1.730   7.248 -0.3521  1.4391  0.1132
 7352SOL     OW33688   1.253   2.177   8.230  0.1616 -0.1106 -0.0896
 7352SOL    HW133689   1.333   2.230   8.226  0.8205 -0.8906  2.8116
 7352SOL    HW233690   1.286   2.091   8.254 -0.1008 -1.0475 -3.0782
 7353SOL     OW33691   2.370   4.605  16.100 -0.2170 -0.2013 -0.4152
 7353SOL    HW133692   2.359   4.534  16.037  1.9853 -1.0834  0.1879
 7353SOL    HW233693   2.333   4.676  16.047  0.8997 -1.5656 -3.0316
 7354SOL     OW33694   0.397   0.985   3.185 -0.1149  0.4948  0.5037
 7354SOL    HW133695   0.333   0.914   3.188  0.8406 -0.2780  3.0471
 7354SOL    HW233696   0.470   0.942   3.230  0.2405  1.1438  0.5378
 7355SOL     OW33697   3.615   2.980   2.600  0.2777 -0.0881  0.3212
 7355SOL    HW133698   3.681   2.914   2.581  1.1425  1.4409 -1.9258
 7355SOL    HW233699   3.670   3.058   2.599  1.7737 -1.1385  0.2947
 7356SOL     OW33700   3.106   0.214  16.843  0.4795 -0.1050  0.3006
 7356SOL    HW133701   3.110   0.189  16.751  1.7541  0.8548  0.0965
 7356SOL    HW233702   3.143   0.138  16.889  0.5588 -0.3881 -0.2253
 7357SOL     OW33703   1.558   0.730  17.433 -0.2370  0.4300 -0.1240
 7357SOL    HW133704   1.648   0.699  17.427 -0.2855  0.3530 -0.4993
 7357SOL    HW233705   1.571   0.825  17.440  0.1779  0.3938 -0.4127
 7358SOL     OW33706   2.135   0.441   8.968  0.0110 -0.5231  0.4447
 7358SOL    HW133707   2.167   0.493   8.894  1.0283 -1.0027  0.5496
 7358SOL    HW233708   2.049   0.481   8.982  1.4892  2.3740  1.2303
 7359SOL     OW33709   2.617   0.008   4.529 -0.1209 -0.0493 -0.4235
 7359SOL    HW133710   2.538   4.714   4.576  0.5725  0.6672  1.2035
 7359SOL    HW233711   2.686   4.720   4.591 -2.2085 -2.5399  0.9874
 7360SOL     OW33712   1.804   3.917   6.514 -0.0730  0.2531 -0.2107
 7360SOL    HW133713   1.863   3.991   6.528  1.7879 -1.3222  0.3498
 7360SOL    HW233714   1.774   3.908   6.605  1.0003  0.5906  0.1829
 7361SOL     OW33715   2.137   1.311   3.272  0.1088 -1.2314  0.5066
 7361SOL    HW133716   2.208   1.265   3.228  1.1963 -1.1007  2.1363
 7361SOL    HW233717   2.085   1.356   3.205 -0.8231  0.8559  2.5930
 7362SOL     OW33718   1.142   0.173   3.736  0.1718  0.0489  0.5051
 7362SOL    HW133719   1.120   0.263   3.760 -3.6545 -0.6199 -0.5360
 7362SOL    HW233720   1.160   0.191   3.644  0.5169 -2.7430  0.0097
 7363SOL     OW33721   3.533   1.623   3.102  0.1391  0.4235  0.0521
 7363SOL    HW133722   3.504   1.707   3.137 -2.9883 -1.2351  1.3886
 7363SOL    HW233723   3.452   1.607   3.054 -0.1889 -0.5441  0.9235
 7364SOL     OW33724   0.265   4.275  14.754 -0.5120  0.2269 -0.1139
 7364SOL    HW133725   0.229   4.191  14.727 -2.3481  0.3605  1.9207
 7364SOL    HW233726   0.326   4.281  14.681  1.6408  1.3704  1.7603
 7365SOL     OW33727   3.269   0.157   5.016  0.2941 -0.2297  0.5996
 7365SOL    HW133728   3.180   0.182   4.991  0.4483 -0.6658 -0.3845
 7365SOL    HW233729   3.328   0.227   4.986 -1.0801  0.0731 -1.3281
 7366SOL     OW33730   3.509   2.614  16.851  0.3955 -0.6119 -0.8122
 7366SOL    HW133731   3.599   2.627  16.882 -0.6103  1.6125  1.1463
 7366SOL    HW233732   3.464   2.696  16.874  0.8919 -0.0800 -1.7260
 7367SOL     OW33733   1.734   2.294   3.970 -0.1606 -0.4162  0.4101
 7367SOL    HW133734   1.691   2.297   3.884  0.9657 -0.8886 -0.1602
 7367SOL    HW233735   1.810   2.242   3.944 -0.7359 -0.6293 -0.8617
 7368SOL     OW33736   4.147   1.305  15.140 -0.5217 -0.0978 -0.2427
 7368SOL    HW133737   4.175   1.323  15.050 -1.1509  0.0722 -0.4012
 7368SOL    HW233738   4.055   1.283  15.131 -0.6368 -0.2037  1.2219
 7369SOL     OW33739   3.200   2.245   2.063  0.2350  0.0537  0.8207
 7369SOL    HW133740   3.107   2.259   2.049  0.2983  0.4715  0.8258
 7369SOL    HW233741   3.233   2.332   2.039  0.1914  0.3527  1.8503
 7370SOL     OW33742   0.706   0.883   4.843 -0.1469 -0.2694  0.0565
 7370SOL    HW133743   0.622   0.839   4.855 -1.2258  1.9913  0.8549
 7370SOL    HW233744   0.695   0.899   4.750 -3.4668 -1.4558  0.2286
 7371SOL     OW33745   1.277   2.023  15.975  0.5456  0.3497  0.3258
 7371SOL    HW133746   1.365   2.053  15.997  1.2948 -2.3288  0.9884
 7371SOL    HW233747   1.256   2.070  15.895 -0.8914 -0.5957  0.1501
 7372SOL     OW33748   1.754   1.594  14.685  0.3996 -0.8624  0.1221
 7372SOL    HW133749   1.760   1.624  14.594  0.3107  1.9793  1.0588
 7372SOL    HW233750   1.794   1.507  14.679  2.0216 -0.1546  0.6122
 7373SOL     OW33751   4.409   1.001   7.358  0.3911  0.0858  0.0244
 7373SOL    HW133752   4.329   0.991   7.411  2.0736 -0.8453  2.4127
 7373SOL    HW233753   4.451   1.073   7.406  0.0688  0.2081  0.1262
 7374SOL     OW33754   1.951   1.308   8.846  0.0002  0.0747 -0.5714
 7374SOL    HW133755   1.958   1.361   8.926  0.5219 -2.5323  1.0995
 7374SOL    HW233756   2.041   1.303   8.814 -0.3910  0.4424 -1.7202
 7375SOL     OW33757   1.248   2.463   3.229 -0.2433 -0.0923  0.9372
 7375SOL    HW133758   1.294   2.453   3.312 -0.3213 -0.7499  0.8990
 7375SOL    HW233759   1.169   2.420   3.260 -0.0073 -0.4819  1.0002
 7376SOL     OW33760   4.434   2.477   9.366  0.2518  0.1760 -0.2100
 7376SOL    HW133761   4.501   2.467   9.434  1.7409  0.7117 -1.5887
 7376SOL    HW233762   4.474   2.425   9.296  0.9953 -0.6745  0.8586
 7377SOL     OW33763   1.999   3.634   8.550  0.3631 -0.2607  0.2641
 7377SOL    HW133764   1.947   3.570   8.502 -1.6556  1.8066 -0.3091
 7377SOL    HW233765   2.050   3.570   8.598 -0.4550 -1.2000 -0.1272
 7378SOL     OW33766   3.572   0.017   5.546  0.0172  0.2464 -0.1470
 7378SOL    HW133767   3.516   0.077   5.596  0.3260 -0.9915  1.6919
 7378SOL    HW233768   3.575   4.680   5.609  2.5910  0.1353 -0.3914
 7379SOL     OW33769   4.362   3.312   7.905  0.4933 -0.2436  0.8015
 7379SOL    HW133770   4.334   3.403   7.894 -1.4248 -0.7533  1.4225
 7379SOL    HW233771   4.443   3.299   7.856 -1.0266 -0.4079 -1.6400
 7380SOL     OW33772   0.782   2.631   8.540 -0.3219 -0.0514 -0.0239
 7380SOL    HW133773   0.736   2.662   8.618  0.0128  1.3322 -0.3764
 7380SOL    HW233774   0.873   2.662   8.543  0.1839 -1.4611 -0.5129
 7381SOL     OW33775   0.167   0.922   7.682 -0.5216  0.6325 -0.2871
 7381SOL    HW133776   0.210   0.978   7.617  1.8617 -0.6854  0.1589
 7381SOL    HW233777   0.241   0.864   7.698  0.7301  2.1326 -0.5435
 7382SOL     OW33778   1.141   3.451   3.902 -0.4555 -0.4192 -0.2503
 7382SOL    HW133779   1.114   3.526   3.850  1.3000  1.0135  0.9290
 7382SOL    HW233780   1.151   3.379   3.839 -0.3131  0.4805 -1.2586
 7383SOL     OW33781   1.492   1.339   6.530  0.1801  0.4197 -0.3873
 7383SOL    HW133782   1.497   1.255   6.483 -0.4893  1.5429 -2.4504
 7383SOL    HW233783   1.514   1.331   6.623 -0.6481  1.4642 -0.1016
 7384SOL     OW33784   1.862   2.307   9.172  0.5328  0.2224  0.0082
 7384SOL    HW133785   1.916   2.385   9.159  3.1657 -1.6277 -0.2358
 7384SOL    HW233786   1.784   2.338   9.218  0.5166 -0.1476  0.2256
 7385SOL     OW33787   0.500   1.164   7.704 -0.0197 -0.5804  0.2512
 7385SOL    HW133788   0.463   1.134   7.787  1.2840 -0.4694  0.8744
 7385SOL    HW233789   0.587   1.130   7.726  0.4410  1.6642  1.8197
 7386SOL     OW33790   1.811   4.241   9.497  0.2704  0.3354 -0.0344
 7386SOL    HW133791   1.865   4.288   9.434  0.5101 -0.5499 -0.4910
 7386SOL    HW233792   1.725   4.271   9.467  1.0799  1.0316 -1.6604
 7387SOL     OW33793   1.997   1.476   9.521 -0.2119  0.3204 -0.1049
 7387SOL    HW133794   2.033   1.473   9.610  0.8276  2.2063 -0.4660
 7387SOL    HW233795   2.059   1.441   9.458 -1.0786  2.2022 -2.0088
 7388SOL     OW33796   3.107   2.262   3.051 -0.6427 -0.5387 -0.3263
 7388SOL    HW133797   3.189   2.292   3.012 -0.1365 -3.0497 -1.1741
 7388SOL    HW233798   3.078   2.346   3.088  2.5012 -0.6071  2.3658
 7389SOL     OW33799   4.403   0.694   2.543  0.2934  0.3357 -0.0394
 7389SOL    HW133800   4.311   0.668   2.545  1.0492 -2.2102  2.4749
 7389SOL    HW233801   4.443   0.628   2.486 -0.4119 -0.6208  0.5623
 7390SOL     OW33802   0.865   2.260   4.396 -0.3238  0.0250  0.6312
 7390SOL    HW133803   0.878   2.281   4.489  1.0576  0.1883  0.4101
 7390SOL    HW233804   0.922   2.184   4.378 -0.2516  0.1695  0.2626
 7391SOL     OW33805   0.198   2.985   4.513 -0.3605  0.3343 -0.5573
 7391SOL    HW133806   0.293   2.972   4.506 -0.3075 -1.5430  3.3494
 7391SOL    HW233807   0.168   2.982   4.422 -0.6605 -2.8498 -0.3665
 7392SOL     OW33808   0.694   1.098   5.069  0.1775  0.6536 -0.0698
 7392SOL    HW133809   0.612   1.072   5.110  1.4500 -1.5794  1.0374
 7392SOL    HW233810   0.708   1.022   5.012 -0.7959 -0.3756  1.0542
 7393SOL     OW33811   0.732   3.780   7.031 -0.1216  0.1082  0.0832
 7393SOL    HW133812   0.752   3.692   6.999  0.1398  0.4396 -0.6905
 7393SOL    HW233813   0.676   3.797   6.955  1.0568  0.0973 -0.8009
 7394SOL     OW33814   4.121   2.221   9.414  0.2070 -0.3592 -0.3417
 7394SOL    HW133815   4.069   2.202   9.492  2.7936 -0.1241  1.4493
 7394SOL    HW233816   4.204   2.182   9.442 -0.1517  0.8803  2.5351
 7395SOL     OW33817   1.448   1.011   3.053  0.1867  0.6561 -0.2792
 7395SOL    HW133818   1.356   1.023   3.076  0.3670  1.1076  0.1974
 7395SOL    HW233819   1.482   0.943   3.111 -0.2036 -0.3445 -1.2117
 7396SOL     OW33820   1.815   2.266   2.821  0.4635 -0.0148  0.1634
 7396SOL    HW133821   1.763   2.189   2.797 -0.3246  0.2815  0.8942
 7396SOL    HW233822   1.796   2.332   2.754 -1.9319 -2.0087 -1.1004
 7397SOL     OW33823   0.897   0.740   2.471 -0.1063  0.0252 -0.1927
 7397SOL    HW133824   0.844   0.660   2.475 -1.4507  0.8182 -2.0873
 7397SOL    HW233825   0.882   0.775   2.384  2.6790  1.5532 -0.0524
 7398SOL     OW33826   3.226   0.546  11.217 -0.2088  0.0535  0.0526
 7398SOL    HW133827   3.220   0.546  11.313 -0.4233 -1.5759  0.0397
 7398SOL    HW233828   3.257   0.457  11.202  0.1363 -0.5314  4.1045
 7399SOL     OW33829   3.553   0.889   8.692 -0.2447 -0.0831 -0.3011
 7399SOL    HW133830   3.602   0.816   8.654 -1.9069 -2.6645  2.4022
 7399SOL    HW233831   3.562   0.963   8.633 -2.7764  2.0260  1.9727
 7400SOL     OW33832   1.103   3.221   6.580 -0.4866 -0.0125 -0.1115
 7400SOL    HW133833   1.076   3.297   6.527  0.4908  0.1050 -0.4356
 7400SOL    HW233834   1.026   3.218   6.638  0.6371 -0.6812  1.3459
 7401SOL     OW33835   4.446   2.474   7.186  0.0886  0.3895  0.7349
 7401SOL    HW133836   4.443   2.532   7.111  1.0195 -0.6128 -0.0795
 7401SOL    HW233837   4.534   2.436   7.180 -0.4133 -0.4935 -0.9217
 7402SOL     OW33838   4.326   4.380   2.806  0.1292 -0.1280 -0.6623
 7402SOL    HW133839   4.289   4.409   2.889  2.7746  1.9667 -0.1998
 7402SOL    HW233840   4.308   4.286   2.808 -1.6631  0.2619  2.3081
 7403SOL     OW33841   0.947   3.336  12.032 -0.4177  0.0715  0.1395
 7403SOL    HW133842   0.868   3.294  11.998 -0.3100 -0.6626  0.8010
 7403SOL    HW233843   1.010   3.277  11.992 -0.6746 -1.3094  1.7676
 7404SOL     OW33844   3.287   1.274   5.304  0.2477 -0.2464  0.3668
 7404SOL    HW133845   3.316   1.364   5.319  1.4664 -0.7553  1.0871
 7404SOL    HW233846   3.229   1.266   5.380 -0.4064 -0.3789 -0.1488
 7405SOL     OW33847   2.294   4.337   9.927 -0.1283  0.0276  0.6073
 7405SOL    HW133848   2.277   4.311  10.017 -0.6569  1.3571  0.8822
 7405SOL    HW233849   2.249   4.421   9.934 -0.3748 -0.0804  0.3164
 7406SOL     OW33850   3.645   3.912   8.061 -0.7138  0.1977  0.5935
 7406SOL    HW133851   3.657   3.906   8.156  1.2281 -1.9294  0.2030
 7406SOL    HW233852   3.550   3.923   8.050 -0.6463 -1.7732 -1.9093
 7407SOL     OW33853   4.366   4.058   5.860  0.3806 -0.3379  0.3940
 7407SOL    HW133854   4.425   4.122   5.820  1.0377 -0.7184  0.7477
 7407SOL    HW233855   4.277   4.091   5.851  0.0376 -1.0176  1.2842
 7408SOL     OW33856   3.710   1.805   7.511  0.5668 -0.2046 -0.9929
 7408SOL    HW133857   3.623   1.844   7.515  0.4488 -0.7318  2.0351
 7408SOL    HW233858   3.757   1.883   7.541 -2.3637  0.9324  0.6428
 7409SOL     OW33859   2.517   4.226  12.326  0.2256  0.6516  0.2348
 7409SOL    HW133860   2.482   4.260  12.408  0.2125 -0.0177  0.5081
 7409SOL    HW233861   2.434   4.222  12.280  0.9003 -0.9233 -0.8364
 7410SOL     OW33862   0.436   3.460   6.031  0.6162 -0.0500  0.2259
 7410SOL    HW133863   0.371   3.434   5.966 -1.4833 -0.6080  2.5393
 7410SOL    HW233864   0.469   3.539   5.989  0.0625 -0.2750 -0.6199
 7411SOL     OW33865   0.947   2.697  10.875 -0.1329 -0.5925  0.3901
 7411SOL    HW133866   1.020   2.712  10.815 -0.8002 -1.0094 -0.5245
 7411SOL    HW233867   0.953   2.602  10.884  1.9677 -0.7313 -2.4399
 7412SOL     OW33868   0.358   1.486  11.789 -0.4009  0.1048  0.3494
 7412SOL    HW133869   0.427   1.496  11.854  0.7963 -0.4589 -0.8272
 7412SOL    HW233870   0.284   1.456  11.843  1.3283  0.6279  2.9853
 7413SOL     OW33871   1.291   0.156   3.956  0.2730 -0.2040 -0.6014
 7413SOL    HW133872   1.309   0.063   3.969  1.2208 -0.0718 -1.0395
 7413SOL    HW233873   1.228   0.157   3.884 -0.7180  0.0821  0.2578
 7414SOL     OW33874   1.940   4.274  12.414 -0.2207  0.1415  0.5929
 7414SOL    HW133875   1.848   4.290  12.435 -0.7678 -1.6339 -0.4595
 7414SOL    HW233876   1.972   4.355  12.376 -2.1714  2.3519  3.6661
 7415SOL     OW33877   1.565   2.160   5.500  0.7421  0.2675 -0.0376
 7415SOL    HW133878   1.633   2.196   5.557  0.8360 -3.2599  2.1486
 7415SOL    HW233879   1.606   2.083   5.460  2.5230  1.3944 -0.3628
 7416SOL     OW33880   0.098   4.111  14.575  0.1140 -0.5372  0.3090
 7416SOL    HW133881   0.107   4.180  14.509  1.5720 -0.9843  0.0490
 7416SOL    HW233882   0.040   4.149  14.642 -0.9415 -0.4410 -0.6716
 7417SOL     OW33883   1.565   1.658   1.438  0.1083 -0.1860 -0.4567
 7417SOL    HW133884   1.647   1.665   1.486 -0.9700 -0.9162  1.4851
 7417SOL    HW233885   1.580   1.574   1.395 -0.7295 -0.8572  0.5428
 7418SOL     OW33886   2.969   1.802   4.353  0.4382 -0.0271 -0.0223
 7418SOL    HW133887   2.990   1.784   4.262 -0.9403 -0.7873 -0.1945
 7418SOL    HW233888   2.951   1.712   4.381 -1.2757  0.2512 -0.1975
 7419SOL     OW33889   0.155   3.463   6.849  0.7239 -0.0380  0.7373
 7419SOL    HW133890   0.171   3.502   6.763 -0.0808  0.8060  0.9808
 7419SOL    HW233891   0.235   3.474   6.901  1.3945 -0.0412 -0.2867
 7420SOL     OW33892   4.263   1.511   1.368 -0.2090  0.6136 -0.5450
 7420SOL    HW133893   4.280   1.556   1.286  0.4968 -0.0674 -0.7743
 7420SOL    HW233894   4.168   1.508   1.356 -0.5709 -1.0960  2.8400
 7421SOL     OW33895   1.578   0.147   1.479  0.8747 -0.1119 -0.6643
 7421SOL    HW133896   1.566   0.239   1.457 -0.6210 -0.4000 -1.0295
 7421SOL    HW233897   1.665   0.132   1.444  0.4567 -0.7435 -1.4278
 7422SOL     OW33898   0.025   3.941  16.243  0.0910 -0.6297 -0.1527
 7422SOL    HW133899   0.027   3.881  16.169  0.1420  1.7195 -2.0527
 7422SOL    HW233900   4.673   3.979  16.229 -0.8203 -3.0878 -1.1755
 7423SOL     OW33901   3.816   3.234   7.865 -0.3338  0.5236  0.0813
 7423SOL    HW133902   3.897   3.207   7.823 -0.4149 -1.0009  0.8895
 7423SOL    HW233903   3.840   3.255   7.956 -0.2284  1.1296 -0.0856
 7424SOL     OW33904   2.111   3.197   3.705 -0.5113  0.4115 -0.2518
 7424SOL    HW133905   2.156   3.113   3.705 -0.4309  0.4542 -0.4202
 7424SOL    HW233906   2.058   3.175   3.782 -1.2578  2.0436 -0.2949
 7425SOL     OW33907   3.453   0.086  16.415  1.2512  0.1607  0.8954
 7425SOL    HW133908   3.402   0.011  16.387  2.9620 -0.1800 -1.3295
 7425SOL    HW233909   3.395   0.153  16.451  0.8724 -0.3126  1.1706
 7426SOL     OW33910   0.344   1.220   0.881  0.4967  0.1954  0.1008
 7426SOL    HW133911   0.314   1.311   0.878  2.2395  0.7866  0.7079
 7426SOL    HW233912   0.400   1.214   0.958  0.8299 -2.6485 -0.3959
 7427SOL     OW33913   2.254   1.031   4.146 -0.4509  0.2841 -0.4202
 7427SOL    HW133914   2.345   1.000   4.140 -0.4113  0.4244 -0.5468
 7427SOL    HW233915   2.215   0.991   4.224 -0.2462 -1.7036 -1.3270
 7428SOL     OW33916   3.778   4.201   4.377 -0.3598 -0.4330 -0.1410
 7428SOL    HW133917   3.816   4.248   4.303 -1.0438  0.6485  0.1956
 7428SOL    HW233918   3.819   4.249   4.449  0.4930 -1.9509  0.3890
 7429SOL     OW33919   2.129   2.473  12.402 -0.2369 -0.1347  0.0279
 7429SOL    HW133920   2.077   2.428  12.469 -1.8112  0.8491 -0.5188
 7429SOL    HW233921   2.148   2.551  12.454 -2.6316 -0.1277  0.8808
 7430SOL     OW33922   4.445   0.368  15.397  1.0114 -0.0915 -0.3215
 7430SOL    HW133923   4.526   0.381  15.348  1.6809 -0.7088  0.6463
 7430SOL    HW233924   4.406   0.292  15.355 -2.1464  0.1051  2.2754
 7431SOL     OW33925   1.713   2.147   3.347  0.2521 -0.5571  0.2027
 7431SOL    HW133926   1.742   2.160   3.257 -3.4183 -0.2828 -0.9289
 7431SOL    HW233927   1.700   2.052   3.348  0.7169 -0.6315 -1.3999
 7432SOL     OW33928   0.953   0.651   6.512 -0.3677  0.5059 -0.0500
 7432SOL    HW133929   0.997   0.733   6.494  0.3262 -0.1735 -1.4653
 7432SOL    HW233930   0.991   0.629   6.597 -1.8850  4.1032  1.5517
 7433SOL     OW33931   1.793   3.239  10.892  0.5480  0.0219  0.2074
 7433SOL    HW133932   1.701   3.252  10.870 -0.4117 -0.7654  3.8506
 7433SOL    HW233933   1.833   3.232  10.805 -1.0041  0.6957 -0.5563
 7434SOL     OW33934   0.467   4.618  16.011 -0.4239  0.0506 -0.9542
 7434SOL    HW133935   0.541   4.571  15.973 -0.1304 -1.7934  1.8831
 7434SOL    HW233936   0.392   4.573  15.972  0.2384 -0.0062 -2.1573
 7435SOL     OW33937   2.644   0.421   5.936 -0.0439 -0.0936 -0.4947
 7435SOL    HW133938   2.627   0.442   6.028 -2.6689 -0.2079 -0.9636
 7435SOL    HW233939   2.717   0.474   5.905  0.6683 -0.0915  1.2157
 7436SOL     OW33940   0.238   2.935   5.630  0.1756  0.1096 -0.4849
 7436SOL    HW133941   0.157   2.986   5.644 -0.6068 -0.8973 -1.3340
 7436SOL    HW233942   0.296   2.999   5.671  1.4502 -1.6139  0.3650
 7437SOL     OW33943   2.264   3.339   8.842 -0.3514  0.5391  0.1921
 7437SOL    HW133944   2.211   3.397   8.896  1.2135  1.2278  0.9756
 7437SOL    HW233945   2.345   3.324   8.889 -1.1401  2.4037  2.1404
 7438SOL     OW33946   3.405   3.714   7.422  0.0988  1.0657 -0.5160
 7438SOL    HW133947   3.358   3.771   7.361 -1.4477  1.3998  0.9883
 7438SOL    HW233948   3.458   3.777   7.471  2.2907 -1.7282  0.6555
 7439SOL     OW33949   3.468   2.078   2.781 -0.2559 -0.0911  0.0196
 7439SOL    HW133950   3.444   1.990   2.807 -0.0588 -0.0731  0.2666
 7439SOL    HW233951   3.541   2.054   2.724  0.1094 -1.4412  1.0606
 7440SOL     OW33952   0.356   1.821  14.037 -0.4257 -0.0998  0.4000
 7440SOL    HW133953   0.343   1.902  14.086 -0.5755  1.3538 -2.0892
 7440SOL    HW233954   0.451   1.830  14.030 -0.7699  1.0333 -2.9053
 7441SOL     OW33955   4.669   1.877  13.668 -0.3018 -1.0465 -0.5588
 7441SOL    HW133956   4.673   1.791  13.626 -2.4725 -0.9638 -0.9749
 7441SOL    HW233957   4.721   1.860  13.746 -0.6810 -2.0328 -0.5220
 7442SOL     OW33958   3.353   0.298   4.566 -0.0184 -0.4271  0.1503
 7442SOL    HW133959   3.353   0.370   4.503  0.9122 -1.1066 -0.6061
 7442SOL    HW233960   3.264   0.267   4.548 -0.1778  0.3647 -0.4265
 7443SOL     OW33961   1.033   2.516   7.688 -0.0278  0.4383 -0.4508
 7443SOL    HW133962   0.948   2.473   7.691 -1.5337  3.6456  2.5476
 7443SOL    HW233963   1.059   2.500   7.597 -4.2759 -2.2201 -1.2026
 7444SOL     OW33964   0.492   3.166   8.933  0.1457 -0.8817  0.5331
 7444SOL    HW133965   0.456   3.217   8.860 -0.2571 -0.4257  1.0468
 7444SOL    HW233966   0.456   3.216   9.007 -0.3005 -3.2966  1.9301
 7445SOL     OW33967   2.337   3.273   0.503 -0.0757  0.0594 -0.3570
 7445SOL    HW133968   2.396   3.342   0.534  0.9921 -1.1749  0.3662
 7445SOL    HW233969   2.375   3.264   0.416  0.6674  3.1886 -0.3469
 7446SOL     OW33970   4.449   0.482  16.382 -0.2932  0.0177 -0.0350
 7446SOL    HW133971   4.484   0.528  16.306  1.5637  1.1269  1.4856
 7446SOL    HW233972   4.384   0.544  16.413 -0.1188 -0.4553  1.3099
 7447SOL     OW33973   3.605   2.089   3.508 -0.0969  0.3715  0.0355
 7447SOL    HW133974   3.607   2.166   3.565 -0.0827  0.4126 -0.0204
 7447SOL    HW233975   3.516   2.107   3.477  0.2525 -1.2763 -1.9634
 7448SOL     OW33976   1.957   3.518   4.575 -0.8404  0.5415  0.4421
 7448SOL    HW133977   1.936   3.561   4.493  1.2079 -0.1867 -0.4578
 7448SOL    HW233978   1.973   3.596   4.629 -0.6549 -0.4187  1.7731
 7449SOL     OW33979   2.175   4.108   5.278 -0.0533 -1.3138 -0.7482
 7449SOL    HW133980   2.083   4.097   5.257  0.1522  0.9900 -2.8660
 7449SOL    HW233981   2.208   4.019   5.273 -0.2900 -1.3872 -0.9862
 7450SOL     OW33982   4.184   0.569   6.319  0.0045 -0.6149  0.3823
 7450SOL    HW133983   4.259   0.568   6.378  0.3127  1.9970  0.0064
 7450SOL    HW233984   4.214   0.515   6.246 -0.8922 -0.4631 -0.0982
 7451SOL     OW33985   0.618   4.625   4.150  0.4058 -0.1555  0.4503
 7451SOL    HW133986   0.544   4.637   4.210  0.8569  0.4810  0.8806
 7451SOL    HW233987   0.637   4.710   4.110 -0.3594  0.2585  0.9616
 7452SOL     OW33988   0.525   4.356   4.748  0.2427 -0.1624 -0.2016
 7452SOL    HW133989   0.436   4.321   4.753  0.2641 -0.3166 -0.9344
 7452SOL    HW233990   0.545   4.313   4.665 -0.6504 -1.3462  0.1873
 7453SOL     OW33991   4.046   4.441  15.418 -0.1481 -0.2262  0.3198
 7453SOL    HW133992   4.108   4.371  15.442 -0.2974 -0.3972  0.2008
 7453SOL    HW233993   3.985   4.443  15.492  1.5633  1.3154  1.7077
 7454SOL     OW33994   1.171   0.091   6.340 -0.0922  0.4809  0.1546
 7454SOL    HW133995   1.159   0.170   6.287  0.2202  0.7303  0.4569
 7454SOL    HW233996   1.085   0.049   6.336  1.4400 -2.5968 -0.5126
 7455SOL     OW33997   4.184   0.967  14.986 -0.0496  0.3187 -0.1257
 7455SOL    HW133998   4.113   0.959  14.923 -0.5192  1.7569  0.2210
 7455SOL    HW233999   4.149   0.906  15.051 -0.2296  0.9442  0.3587
 7456SOL     OW34000   3.404   0.266   6.866  0.0212  0.7361  0.0148
 7456SOL    HW134001   3.440   0.346   6.828  0.5589  1.1982  1.4866
 7456SOL    HW234002   3.343   0.237   6.797  0.6647 -0.5797 -0.0062
 7457SOL     OW34003   2.288   1.064   7.667 -0.6923  0.6709 -0.2841
 7457SOL    HW134004   2.251   1.113   7.594  2.3858 -0.4264 -2.5900
 7457SOL    HW234005   2.369   1.032   7.627 -0.2774 -0.3300  1.3744
 7458SOL     OW34006   2.281   1.890   3.524  0.4792 -0.1475 -0.5764
 7458SOL    HW134007   2.266   1.819   3.586  1.4557  0.3609  0.2401
 7458SOL    HW234008   2.190   1.900   3.495 -0.2209  0.3445  1.7977
 7459SOL     OW34009   1.847   1.521   1.547  0.4264 -0.1617  0.1050
 7459SOL    HW134010   1.903   1.587   1.587  0.3850 -1.3698  2.1773
 7459SOL    HW234011   1.907   1.473   1.489 -1.5682 -0.8998 -1.3557
 7460SOL     OW34012   1.019   2.156   5.078 -0.7630  0.6945 -0.2238
 7460SOL    HW134013   0.968   2.235   5.091 -2.0067 -0.5043  2.1140
 7460SOL    HW234014   1.093   2.184   5.131 -0.6649  0.3778 -0.1904
 7461SOL     OW34015   3.258   2.704   5.668 -0.3453  0.0114 -0.0377
 7461SOL    HW134016   3.350   2.726   5.654 -0.5726  1.9356  1.5516
 7461SOL    HW234017   3.227   2.777   5.721 -0.4708 -0.1351  0.0893
 7462SOL     OW34018   3.784   2.146  10.740  0.0095 -0.2050 -0.6255
 7462SOL    HW134019   3.737   2.227  10.717  0.4017  0.2470  0.1660
 7462SOL    HW234020   3.792   2.165  10.833 -0.4465 -0.1229 -0.6035
 7463SOL     OW34021   1.387   1.819  16.404 -0.5622  0.7470 -0.0933
 7463SOL    HW134022   1.322   1.862  16.348 -2.8795 -2.2081  0.3074
 7463SOL    HW234023   1.345   1.823  16.490 -1.4204  0.8806 -0.5164
 7464SOL     OW34024   1.571   1.063  16.125  0.4690 -0.1710 -0.1178
 7464SOL    HW134025   1.576   1.071  16.220 -0.4525  0.0599 -0.0937
 7464SOL    HW234026   1.477   1.076  16.109  0.4104 -2.7737 -1.8761
 7465SOL     OW34027   0.404   2.294  13.063 -0.4062 -0.1047  0.0126
 7465SOL    HW134028   0.403   2.228  12.993 -1.4741  1.1824 -1.1953
 7465SOL    HW234029   0.460   2.249  13.127  0.2027  0.1657 -0.3227
 7466SOL     OW34030   4.521   1.985   5.862  0.2638  0.7100 -0.4070
 7466SOL    HW134031   4.569   2.017   5.785 -0.2271  2.8685  0.1873
 7466SOL    HW234032   4.594   1.972   5.923 -0.4680 -2.6026 -0.2474
 7467SOL     OW34033   0.714   2.448   7.572  0.2280  0.3407  0.1578
 7467SOL    HW134034   0.724   2.523   7.631 -1.0600 -1.5005  2.7351
 7467SOL    HW234035   0.649   2.393   7.615 -0.5386  1.5696  0.6003
 7468SOL     OW34036   3.430   1.327  16.915 -0.0580  0.1425  0.1398
 7468SOL    HW134037   3.487   1.283  16.852 -1.6603 -0.8297 -0.6062
 7468SOL    HW234038   3.417   1.414  16.877 -3.0248 -1.3996 -2.3012
 7469SOL     OW34039   2.476   4.234  15.409 -0.2729  0.0617 -0.0921
 7469SOL    HW134040   2.436   4.147  15.406  0.0292 -0.1330  1.3595
 7469SOL    HW234041   2.429   4.281  15.341 -1.0782  0.3688  0.6786
 7470SOL     OW34042   2.055   0.561   9.816 -0.8025 -0.0302 -0.6685
 7470SOL    HW134043   2.007   0.624   9.870  1.9200  0.6118  0.9997
 7470SOL    HW234044   2.093   0.505   9.884  0.1178  0.3719 -0.8666
 7471SOL     OW34045   2.613   0.864   7.946 -0.2348 -0.2630  0.2252
 7471SOL    HW134046   2.668   0.789   7.969  0.0657  0.3348  1.4482
 7471SOL    HW234047   2.584   0.832   7.861 -0.1494 -0.3534  0.2302
 7472SOL     OW34048   4.720   0.829   4.055  0.0654 -0.4734 -0.4518
 7472SOL    HW134049   0.042   0.906   4.043 -1.7181  0.9825  0.3837
 7472SOL    HW234050   4.637   0.876   4.051 -0.0262 -0.4700  1.2095
 7473SOL     OW34051   1.975   0.100   2.647 -0.0581 -0.2597 -0.1107
 7473SOL    HW134052   1.965   0.086   2.741  2.4351 -0.9840  0.0249
 7473SOL    HW234053   1.980   0.009   2.617 -2.1176 -0.2403 -0.5784
 7474SOL     OW34054   3.670   1.797   2.083 -0.4841  0.1520  0.0598
 7474SOL    HW134055   3.652   1.847   2.163  0.7576  0.9161 -0.1328
 7474SOL    HW234056   3.580   1.797   2.052 -0.2390  1.7469 -0.6805
 7475SOL     OW34057   0.479   3.338   7.704 -0.3534  0.6641  0.5074
 7475SOL    HW134058   0.487   3.432   7.722 -2.4953  1.1233 -0.9394
 7475SOL    HW234059   0.485   3.326   7.609  1.1694  0.4283  0.6343
 7476SOL     OW34060   2.911   2.304   6.749 -0.3803 -0.1310  0.7967
 7476SOL    HW134061   2.963   2.233   6.786 -1.2792 -0.8871  0.5965
 7476SOL    HW234062   2.870   2.339   6.827  0.5817 -0.4895  1.4645
 7477SOL     OW34063   4.049   4.016  15.433 -0.0198  0.1744 -0.8489
 7477SOL    HW134064   4.099   4.085  15.477  1.4786 -0.6729 -1.2210
 7477SOL    HW234065   3.969   4.063  15.411  0.2621  1.1346  0.1546
 7478SOL     OW34066   2.587   3.090   2.787  0.1600 -0.2432  0.2137
 7478SOL    HW134067   2.608   3.062   2.876  0.9956 -0.6276 -0.1001
 7478SOL    HW234068   2.492   3.097   2.796  0.3376  0.1794  1.6929
 7479SOL     OW34069   3.958   2.333   3.850  0.8606  0.6680 -0.9249
 7479SOL    HW134070   4.019   2.264   3.825  0.2471 -1.0246  2.2495
 7479SOL    HW234071   3.899   2.288   3.911  0.4577  0.3115 -1.5746
 7480SOL     OW34072   3.739   0.394   2.963  0.2621  0.0170  0.1239
 7480SOL    HW134073   3.666   0.445   2.929 -1.3112 -0.8568  2.1972
 7480SOL    HW234074   3.777   0.451   3.030  0.2885  0.2713 -0.1058
 7481SOL     OW34075   1.977   1.954   5.764 -0.4639  0.4087 -0.4786
 7481SOL    HW134076   2.046   2.020   5.756 -0.2132  0.2659  0.4917
 7481SOL    HW234077   1.958   1.938   5.672  1.7613  2.0760 -1.2195
 7482SOL     OW34078   1.125   4.201   9.656  0.8357  0.3370  0.0727
 7482SOL    HW134079   1.064   4.274   9.643  0.8267  0.3580  0.2316
 7482SOL    HW234080   1.082   4.163   9.733  0.6750  0.1386 -0.1125
 7483SOL     OW34081   2.908   3.331  11.693 -0.3634 -0.0113 -0.4435
 7483SOL    HW134082   2.929   3.253  11.744  0.2360  1.4240  1.5436
 7483SOL    HW234083   2.922   3.404  11.754 -0.6822  1.9673 -2.7279
 7484SOL     OW34084   4.510   4.390   3.320 -0.2282  0.3837  0.7182
 7484SOL    HW134085   4.533   4.306   3.359 -0.4433  0.5851  1.2836
 7484SOL    HW234086   4.589   4.440   3.339 -1.3929  3.4237 -2.4157
 7485SOL     OW34087   4.408   2.809   5.514  0.5502 -0.1016  0.1803
 7485SOL    HW134088   4.396   2.738   5.451  0.5733 -0.2892  0.3859
 7485SOL    HW234089   4.335   2.865   5.489 -0.9494 -1.8850  0.6150
 7486SOL     OW34090   4.302   1.465   4.168 -0.4213 -0.3427 -0.2061
 7486SOL    HW134091   4.326   1.485   4.259  0.6991  2.0934 -1.0553
 7486SOL    HW234092   4.371   1.402   4.148 -1.1413 -1.8122  1.8840
 7487SOL     OW34093   4.023   3.444   2.954  0.2508  0.1585  0.2093
 7487SOL    HW134094   3.972   3.480   3.026  0.8659  0.6947  0.3798
 7487SOL    HW234095   4.009   3.505   2.882 -0.4313  0.3173  0.4807
 7488SOL     OW34096   1.823   2.456  12.222 -0.3338 -0.8132  0.0392
 7488SOL    HW134097   1.817   2.361  12.233  0.3041 -0.7428  1.0658
 7488SOL    HW234098   1.769   2.492  12.293  4.0392  1.2010  2.3711
 7489SOL     OW34099   3.793   3.174   2.559 -0.0548  0.3514 -0.0460
 7489SOL    HW134100   3.798   3.260   2.517 -0.1756  0.6526  0.5640
 7489SOL    HW234101   3.849   3.183   2.636 -1.3320  0.2323  0.8919
 7490SOL     OW34102   3.476   4.690  16.700  0.3673 -0.0743 -0.3039
 7490SOL    HW134103   3.487   4.685  16.605  0.3520 -2.0627 -0.1879
 7490SOL    HW234104   3.567   4.680  16.729  0.4766 -1.7460 -1.2366
 7491SOL     OW34105   2.855   3.259   6.015 -0.0898 -0.4183  0.6066
 7491SOL    HW134106   2.829   3.202   5.943  0.6964 -1.0220  0.8060
 7491SOL    HW234107   2.805   3.219   6.086 -2.1106  0.0566 -0.5578
 7492SOL     OW34108   2.521   1.133   6.790 -0.0290  0.1223 -0.9235
 7492SOL    HW134109   2.458   1.139   6.718 -2.2831  0.5798  1.0969
 7492SOL    HW234110   2.529   1.039   6.777  2.3747  0.3499 -1.1032
 7493SOL     OW34111   2.984   3.443   1.186  0.2555  0.0041  0.2828
 7493SOL    HW134112   2.900   3.405   1.160 -0.2574  0.0354  1.8628
 7493SOL    HW234113   2.961   3.535   1.175  1.5295  0.0127 -2.2199
 7494SOL     OW34114   0.508   4.107   6.551 -0.0685  0.0351  0.2856
 7494SOL    HW134115   0.556   4.157   6.484 -0.4136 -3.0083 -2.2472
 7494SOL    HW234116   0.414   4.115   6.533 -0.4950 -2.7182  1.3211
 7495SOL     OW34117   1.013   3.171   7.411  0.0537  0.8410  0.3046
 7495SOL    HW134118   1.092   3.224   7.422  0.0316  1.2975 -1.7057
 7495SOL    HW234119   1.049   3.084   7.429 -0.0990  1.0730  1.6885
 7496SOL     OW34120   0.667   4.474  15.878  0.2542 -0.2774  0.4971
 7496SOL    HW134121   0.680   4.414  15.951  0.4292  2.1467  2.4531
 7496SOL    HW234122   0.758   4.474  15.849 -0.4209 -0.1989 -1.6182
 7497SOL     OW34123   2.257   0.245  13.287  0.0815 -0.3920 -0.4763
 7497SOL    HW134124   2.232   0.187  13.216  0.3441 -1.3141  0.1711
 7497SOL    HW234125   2.182   0.303  13.286  0.7798  0.5133 -0.3193
 7498SOL     OW34126   1.535   0.343   6.633  0.5853 -0.0731 -0.0992
 7498SOL    HW134127   1.473   0.296   6.577 -0.6333 -1.7284  2.6613
 7498SOL    HW234128   1.486   0.362   6.712  3.6089  1.9328  1.2617
 7499SOL     OW34129   1.532   4.545   5.441 -0.3262 -0.1794  0.7117
 7499SOL    HW134130   1.550   4.464   5.489 -1.0108 -2.7510 -3.4135
 7499SOL    HW234131   1.447   4.532   5.398  0.1933  1.8849 -0.9105
 7500SOL     OW34132   1.291   1.812   4.389  0.3964  0.2686 -0.5557
 7500SOL    HW134133   1.233   1.815   4.465  1.8535  2.3367  0.4848
 7500SOL    HW234134   1.335   1.896   4.404  0.7281 -0.0482  0.2823
 7501SOL     OW34135   2.373   2.740   5.512  0.3502 -0.2897 -0.1003
 7501SOL    HW134136   2.457   2.732   5.468 -0.5054 -1.0887 -1.6092
 7501SOL    HW234137   2.352   2.833   5.507 -1.9493 -0.7229  1.2584
 7502SOL     OW34138   3.408   1.002   7.795 -0.7568  0.8058 -0.0970
 7502SOL    HW134139   3.471   1.027   7.728  0.4614 -1.8573  0.0399
 7502SOL    HW234140   3.406   1.083   7.846 -0.9967  0.3590  0.6129
 7503SOL     OW34141   1.161   0.987   3.473  0.0457  0.2765  0.4493
 7503SOL    HW134142   1.115   0.904   3.463  0.8980  0.0624 -1.5738
 7503SOL    HW234143   1.176   0.992   3.568 -0.6953 -0.0208  0.5823
 7504SOL     OW34144   2.230   0.501   4.473 -0.0122  0.3540  0.2428
 7504SOL    HW134145   2.265   0.424   4.518  0.7247  0.3455 -0.3571
 7504SOL    HW234146   2.138   0.476   4.477 -0.0008 -0.0723 -2.8537
 7505SOL     OW34147   2.497   3.030  16.196  0.9116  0.1706 -0.7135
 7505SOL    HW134148   2.560   3.091  16.236 -0.0507  0.9863 -0.4288
 7505SOL    HW234149   2.540   3.035  16.111  1.6575  1.2239 -0.2852
 7506SOL     OW34150   1.886   2.249   8.125  0.3841 -0.1418  0.0071
 7506SOL    HW134151   1.817   2.301   8.166 -0.5588 -2.2320  1.0515
 7506SOL    HW234152   1.932   2.239   8.209 -1.7227  2.1074  1.4055
 7507SOL     OW34153   1.099   0.242   9.679 -0.6991 -0.1193 -0.6114
 7507SOL    HW134154   1.114   0.336   9.665  1.2393 -0.2806  0.5390
 7507SOL    HW234155   1.143   0.212   9.599  2.2345  0.3265  0.8513
 7508SOL     OW34156   4.311   2.789   3.616  0.0918  0.7392 -0.4039
 7508SOL    HW134157   4.384   2.767   3.675 -0.6501  2.1545  1.0546
 7508SOL    HW234158   4.360   2.807   3.536 -0.9832  1.5370 -0.8709
 7509SOL     OW34159   3.547   1.678   2.422  0.6749  0.0497  0.2741
 7509SOL    HW134160   3.556   1.678   2.517 -0.5784 -1.2493  0.4018
 7509SOL    HW234161   3.626   1.719   2.388  0.4798 -0.2970 -0.5951
 7510SOL     OW34162   0.123   1.367   8.500 -0.3372 -0.2504 -0.3705
 7510SOL    HW134163   0.118   1.278   8.466 -0.8080 -0.6583  0.7966
 7510SOL    HW234164   0.200   1.400   8.453 -1.0831  1.9002 -0.0894
 7511SOL     OW34165   3.913   4.190  15.233  0.0083 -0.1596  0.2406
 7511SOL    HW134166   3.923   4.274  15.188 -0.4553 -1.6880 -2.7610
 7511SOL    HW234167   3.895   4.209  15.325 -0.8679  0.2973 -0.0248
 7512SOL     OW34168   4.633   1.016   0.277  0.1246 -0.1381 -0.0956
 7512SOL    HW134169   4.677   1.046   0.198  2.1041 -1.0219  0.6757
 7512SOL    HW234170   4.655   0.924   0.263 -0.5421 -0.4560  0.9899
 7513SOL     OW34171   2.102   4.039  15.639  0.9577 -0.0975 -0.0478
 7513SOL    HW134172   2.131   4.102  15.573 -4.5588 -0.5396 -2.8933
 7513SOL    HW234173   2.150   4.068  15.717  0.7058  0.9645 -0.2805
 7514SOL     OW34174   0.303   3.524  13.430  0.2165  0.0493  0.1831
 7514SOL    HW134175   0.318   3.545  13.337 -1.8173  1.0417  0.0677
 7514SOL    HW234176   0.388   3.546  13.467  1.6066 -3.4289 -0.9199
 7515SOL     OW34177   2.962   3.504   8.582  0.2623  0.3819 -0.8860
 7515SOL    HW134178   2.913   3.422   8.572 -1.3767  0.7754  4.2764
 7515SOL    HW234179   3.000   3.530   8.498  0.1338  1.5519 -0.5743
 7516SOL     OW34180   0.982   3.946   5.950 -0.7638 -0.5715  0.0318
 7516SOL    HW134181   1.046   3.971   6.016 -2.1275  0.4302  0.9763
 7516SOL    HW234182   0.899   3.983   5.980 -0.7773  0.4377 -1.2232
 7517SOL     OW34183   3.813   1.871   3.558  0.1933 -0.1790  0.0004
 7517SOL    HW134184   3.753   1.835   3.624 -1.3149  0.8497 -0.7973
 7517SOL    HW234185   3.757   1.948   3.545 -1.3496 -1.1666  0.6937
 7518SOL     OW34186   2.292   1.149  17.113 -0.5714  0.2320 -0.3391
 7518SOL    HW134187   2.388   1.151  17.107 -0.4309  0.6665  2.2115
 7518SOL    HW234188   2.279   1.221  17.174  2.2255  0.6171 -0.1836
 7519SOL     OW34189   2.904   1.517  14.195 -0.0339  0.0855  0.3277
 7519SOL    HW134190   2.983   1.568  14.214 -0.9681  1.0727  1.5626
 7519SOL    HW234191   2.846   1.592  14.206  0.9891  0.7865  0.9529
 7520SOL     OW34192   4.313   3.006  17.072 -0.2311  0.1876  0.3597
 7520SOL    HW134193   4.231   3.052  17.055 -0.0369 -0.4526 -2.1765
 7520SOL    HW234194   4.303   2.924  17.024 -0.3011  0.1635  0.4159
 7521SOL     OW34195   0.115   1.416   4.451  0.1099 -0.0281 -0.9649
 7521SOL    HW134196   0.125   1.462   4.367  0.3877 -0.1380 -0.9924
 7521SOL    HW234197   0.028   1.450   4.469  0.3092  0.4219 -0.8359
 7522SOL     OW34198   2.162   3.310  14.291 -0.0805 -0.1310  0.0651
 7522SOL    HW134199   2.152   3.366  14.214 -1.1160  0.9097  0.9454
 7522SOL    HW234200   2.098   3.245  14.265 -1.0673  0.9672 -0.2436
 7523SOL     OW34201   1.683   1.126   3.056 -0.0173  0.1375  0.4308
 7523SOL    HW134202   1.645   1.209   3.087  0.8754  1.5545 -2.2334
 7523SOL    HW234203   1.602   1.077   3.043  0.2892 -0.1000 -0.5792
 7524SOL     OW34204   2.329   2.709   5.007 -0.4702  0.2164  0.1091
 7524SOL    HW134205   2.266   2.704   4.935  0.2297 -1.9263 -0.3567
 7524SOL    HW234206   2.261   2.720   5.074 -0.0722 -1.6644  0.8215
 7525SOL     OW34207   0.614   0.327   0.303 -0.1264  0.3456 -0.5828
 7525SOL    HW134208   0.562   0.298   0.228  0.3329 -1.3404 -0.2492
 7525SOL    HW234209   0.676   0.384   0.256  2.9508 -1.9915  0.5957
 7526SOL     OW34210   0.476   3.585   3.172  0.4135 -0.8660 -0.3325
 7526SOL    HW134211   0.551   3.537   3.209 -0.3994 -0.1475  2.2448
 7526SOL    HW234212   0.485   3.576   3.077 -4.4374  0.8336 -0.9315
 7527SOL     OW34213   2.444   1.958   8.798  0.4981  0.1807  0.2691
 7527SOL    HW134214   2.365   2.004   8.770 -0.6938 -0.5869  2.3453
 7527SOL    HW234215   2.450   1.978   8.892 -0.5610  1.9392 -0.0307
 7528SOL     OW34216   2.825   1.548   3.525  0.3243  1.1186 -0.2654
 7528SOL    HW134217   2.820   1.471   3.468 -0.8304  0.8487  0.2060
 7528SOL    HW234218   2.920   1.562   3.526  0.5256 -0.2166  0.4347
 7529SOL     OW34219   1.160   3.626   3.040 -0.1431 -0.7905 -0.0398
 7529SOL    HW134220   1.109   3.551   3.069 -0.8308 -0.8718 -1.4227
 7529SOL    HW234221   1.153   3.625   2.944 -1.1118 -1.2702  0.0388
 7530SOL     OW34222   0.478   1.075   6.332  0.5286  0.2226  0.6108
 7530SOL    HW134223   0.557   1.021   6.323  1.2807  1.3060  0.6047
 7530SOL    HW234224   0.433   1.032   6.405  2.1830 -0.5982  1.1482
 7531SOL     OW34225   4.098   3.918   7.556 -0.8750 -0.1115  0.7967
 7531SOL    HW134226   4.039   3.980   7.599 -3.1791 -0.0551 -2.4714
 7531SOL    HW234227   4.143   3.968   7.489 -2.1011 -1.7819 -1.2752
 7532SOL     OW34228   0.345   0.515   8.898 -0.2164  0.0944 -0.2448
 7532SOL    HW134229   0.273   0.500   8.959 -0.3904  1.9208  0.0041
 7532SOL    HW234230   0.355   0.426   8.864 -1.7835 -0.8724  1.8167
 7533SOL     OW34231   3.032   4.540  10.882  0.3611 -0.4366 -0.0785
 7533SOL    HW134232   3.055   4.454  10.848 -2.8387 -0.9202 -1.0065
 7533SOL    HW234233   3.118   4.580  10.892 -0.7061  1.8484 -0.0324
 7534SOL     OW34234   0.304   3.313   4.380 -0.0101 -0.8469 -0.5280
 7534SOL    HW134235   0.359   3.360   4.444 -0.2344 -0.1188 -0.8723
 7534SOL    HW234236   0.303   3.373   4.306  0.2846 -0.3309 -0.1102
 7535SOL     OW34237   0.063   2.772   8.350  0.0098 -0.4745 -0.0540
 7535SOL    HW134238   0.036   2.786   8.259  2.2100  0.1823 -0.6155
 7535SOL    HW234239   0.153   2.806   8.349 -0.0761 -0.1366  3.1803
 7536SOL     OW34240   0.470   0.018   8.262  0.7441  0.1211 -0.2051
 7536SOL    HW134241   0.459   4.718   8.174  3.1581  0.3843 -0.6171
 7536SOL    HW234242   0.565   0.032   8.266  0.4699  2.9085 -3.6818
 7537SOL     OW34243   4.115   2.840   7.734  0.3126 -0.1211  0.9778
 7537SOL    HW134244   4.119   2.789   7.815 -1.0194 -1.1676  0.3934
 7537SOL    HW234245   4.078   2.783   7.667  4.2530 -2.3206  0.6586
 7538SOL     OW34246   1.160   1.806   3.685 -0.1113 -0.2554 -0.1788
 7538SOL    HW134247   1.125   1.725   3.647  1.4005 -1.2374  0.5402
 7538SOL    HW234248   1.097   1.866   3.645  1.1415  1.5871  0.6296
 7539SOL     OW34249   2.601   3.040   6.924  0.4759 -0.4988  0.4308
 7539SOL    HW134250   2.688   3.015   6.955  1.5101  0.6190 -1.6320
 7539SOL    HW234251   2.562   2.952   6.924  0.4653 -0.4960  0.6587
 7540SOL     OW34252   2.935   1.783   8.818  0.1403 -0.1435  0.0101
 7540SOL    HW134253   2.975   1.697   8.821 -1.0128 -0.7053 -0.5365
 7540SOL    HW234254   3.011   1.835   8.792  1.8433 -3.1191 -0.9235
 7541SOL     OW34255   2.830   3.437  15.885 -0.0829 -0.0826 -0.1113
 7541SOL    HW134256   2.795   3.354  15.854  0.5686 -0.1800 -0.5901
 7541SOL    HW234257   2.743   3.476  15.885  0.2489  0.6652  0.7073
 7542SOL     OW34258   3.423   4.431   1.069 -0.2260  0.2753 -0.0753
 7542SOL    HW134259   3.389   4.462   0.985  1.8413  1.8056 -0.3554
 7542SOL    HW234260   3.480   4.503   1.098  0.5200 -0.3362 -0.0408
 7543SOL     OW34261   4.658   2.734   2.526  0.2890  0.6074  0.1254
 7543SOL    HW134262   4.632   2.710   2.438  0.8487 -0.9948  0.3996
 7543SOL    HW234263   4.581   2.783   2.558 -0.1135 -0.1620  0.3274
 7544SOL     OW34264   3.325   1.033  10.769 -0.1657  0.0348  0.0460
 7544SOL    HW134265   3.261   0.962  10.763 -1.2805  1.0229  0.3535
 7544SOL    HW234266   3.270   1.101  10.808 -0.6258 -0.7801  0.8199
 7545SOL     OW34267   2.301   3.253  15.944 -0.4445  0.2155  0.2529
 7545SOL    HW134268   2.353   3.294  16.012  0.4732  0.0730 -0.3616
 7545SOL    HW234269   2.274   3.169  15.981 -0.9764 -0.2520 -1.1628
 7546SOL     OW34270   3.571   0.120  17.137  0.6412 -0.6377 -0.0401
 7546SOL    HW134271   3.606   0.153  17.054  0.7863  1.6446  0.9127
 7546SOL    HW234272   3.544   0.202  17.179 -1.0962 -0.6740 -1.0740
 7547SOL     OW34273   2.877   2.984  11.600  0.1468  0.5247 -0.1356
 7547SOL    HW134274   2.919   2.907  11.639 -1.3980 -0.7151 -0.9370
 7547SOL    HW234275   2.934   3.002  11.526  1.3158 -2.6530 -0.0079
 7548SOL     OW34276   4.188   2.049   2.492 -0.1070  0.1416  0.0891
 7548SOL    HW134277   4.164   2.014   2.578 -1.5900  2.4902  0.6328
 7548SOL    HW234278   4.123   2.005   2.437  2.1291  0.3470 -2.6931
 7549SOL     OW34279   0.945   2.325  15.529 -0.2142  0.1177  0.0686
 7549SOL    HW134280   0.906   2.367  15.452  1.5185  0.3277 -0.6921
 7549SOL    HW234281   0.982   2.399  15.576 -1.0675  0.9020 -0.5097
 7550SOL     OW34282   3.155   2.187   8.970  0.1674  0.2500 -0.2665
 7550SOL    HW134283   3.076   2.240   8.965 -0.4220 -0.5023  0.9718
 7550SOL    HW234284   3.213   2.247   8.924  0.5308  0.3890  0.3799
 7551SOL     OW34285   0.254   2.958   3.520  0.0175 -0.0290 -0.3558
 7551SOL    HW134286   0.310   3.029   3.489 -0.5693  0.2362 -0.8175
 7551SOL    HW234287   0.250   2.967   3.615  3.4240  0.9225 -0.3112
 7552SOL     OW34288   4.414   0.052   9.421 -0.1753  0.9763 -0.1262
 7552SOL    HW134289   4.330   0.029   9.460 -0.0977  0.4578 -0.2659
 7552SOL    HW234290   4.435   0.122   9.483 -1.0516  1.8224 -0.7971
 7553SOL     OW34291   3.728   1.392   3.403  0.0994  0.4184 -0.2107
 7553SOL    HW134292   3.638   1.408   3.374 -0.0702 -1.0122 -0.4291
 7553SOL    HW234293   3.734   1.441   3.485  1.1492 -0.2699  0.1221
 7554SOL     OW34294   0.924   2.313   4.644  0.6358  0.0633 -0.4298
 7554SOL    HW134295   0.923   2.228   4.687 -2.4682  0.1624 -0.2668
 7554SOL    HW234296   0.909   2.374   4.717  1.3154 -0.5299  0.2017
 7555SOL     OW34297   0.588   3.083   2.591 -0.4681 -0.1845 -0.2754
 7555SOL    HW134298   0.528   3.154   2.571 -0.0344  0.4413  0.6159
 7555SOL    HW234299   0.550   3.002   2.558 -1.0551 -1.2227  2.9045
 7556SOL     OW34300   1.283   1.844   7.917 -0.0661  0.2533 -0.4426
 7556SOL    HW134301   1.202   1.833   7.866 -1.0003 -0.5390  1.2114
 7556SOL    HW234302   1.289   1.939   7.924  1.5304  0.0232  1.3388
 7557SOL     OW34303   1.488   2.646   6.237  0.7982 -0.3335 -0.5736
 7557SOL    HW134304   1.399   2.624   6.210  0.8880 -3.1368  1.4250
 7557SOL    HW234305   1.480   2.625   6.330 -1.6571  0.2395 -0.6525
 7558SOL     OW34306   4.150   3.838   4.554  0.0270 -0.6967  0.0868
 7558SOL    HW134307   4.164   3.904   4.485 -3.3222 -2.9793 -2.7248
 7558SOL    HW234308   4.226   3.863   4.607 -0.4520 -2.2321  1.4819
 7559SOL     OW34309   3.745   1.096   1.324 -0.1803 -0.3191  0.6635
 7559SOL    HW134310   3.662   1.061   1.356 -0.2918 -0.3321  0.3600
 7559SOL    HW234311   3.804   1.078   1.398 -0.7436  3.5084  2.0667
 7560SOL     OW34312   2.051   3.356   2.367  0.7588 -0.4447  0.1841
 7560SOL    HW134313   2.055   3.273   2.320  2.0892  0.2685 -0.9640
 7560SOL    HW234314   1.971   3.345   2.419  0.8706  2.1821  0.9313
 7561SOL     OW34315   2.264   4.617   6.911  0.2888 -0.0651 -0.4962
 7561SOL    HW134316   2.270   4.643   7.003  1.1342  3.3689 -1.5302
 7561SOL    HW234317   2.202   4.680   6.874  1.5470  0.4345 -1.7156
 7562SOL     OW34318   1.251   4.367   3.440  0.2543  0.1457  0.0426
 7562SOL    HW134319   1.293   4.425   3.503 -1.1018 -0.4265  1.4490
 7562SOL    HW234320   1.179   4.423   3.411 -0.6975 -0.4238  1.3284
 7563SOL     OW34321   1.329   1.925  17.105 -0.4123  0.8833  0.2850
 7563SOL    HW134322   1.303   1.835  17.125 -1.6489  0.9236 -1.1624
 7563SOL    HW234323   1.259   1.981  17.139  1.1819  0.6581  4.0057
 7564SOL     OW34324   2.040   3.282   8.292  0.2647 -0.6195 -0.1849
 7564SOL    HW134325   1.993   3.324   8.364 -0.4745  0.4061 -1.2694
 7564SOL    HW234326   1.974   3.260   8.227 -0.9171  1.3696  0.3457
 7565SOL     OW34327   2.735   0.219  10.480  0.8816 -0.1189  0.1523
 7565SOL    HW134328   2.771   0.157  10.544  0.4739  1.2742  1.7224
 7565SOL    HW234329   2.660   0.245  10.533 -0.0062  0.4324 -1.3767
 7566SOL     OW34330   0.653   4.624   6.135  0.1244  0.2432  0.4627
 7566SOL    HW134331   0.607   4.673   6.204 -0.8336 -0.0396  0.0308
 7566SOL    HW234332   0.639   4.679   6.059  3.7447  0.0976 -0.2824
 7567SOL     OW34333   1.758   4.191  15.002  1.1896 -0.2228 -0.0833
 7567SOL    HW134334   1.818   4.261  14.977 -0.4244  0.2322 -2.6301
 7567SOL    HW234335   1.748   4.146  14.919 -2.1089 -0.7917  0.6282
 7568SOL     OW34336   0.531   1.860   5.109 -0.3401 -0.0404 -0.3361
 7568SOL    HW134337   0.543   1.810   5.189  1.5323  2.2151  0.7939
 7568SOL    HW234338   0.473   1.802   5.058 -0.0263 -0.3112 -0.3863
 7569SOL     OW34339   3.492   4.281   4.905  0.1964 -0.2511 -0.2543
 7569SOL    HW134340   3.493   4.187   4.927  0.0542 -0.0273  0.7221
 7569SOL    HW234341   3.556   4.308   4.972 -0.7705  0.7053  0.2768
 7570SOL     OW34342   1.534   4.117   7.778  0.0994  0.7217  0.7542
 7570SOL    HW134343   1.447   4.086   7.753  1.3379 -1.4700 -0.8534
 7570SOL    HW234344   1.590   4.052   7.735 -0.7132 -0.0432  0.8475
 7571SOL     OW34345   2.664   4.650   2.249 -0.1482 -0.5371  0.5497
 7571SOL    HW134346   2.644   4.584   2.315  0.2325 -1.0438  0.1583
 7571SOL    HW234347   2.759   4.647   2.243 -0.1830 -0.2221 -0.3373
 7572SOL     OW34348   1.373   4.650   6.340 -0.4444 -0.5289 -0.1291
 7572SOL    HW134349   1.322   4.729   6.357  0.2872 -0.6375  2.4800
 7572SOL    HW234350   1.310   4.588   6.303 -1.3212  0.5303 -0.4032
 7573SOL     OW34351   2.177   2.066   5.330  0.7979 -0.2488  0.0267
 7573SOL    HW134352   2.204   2.155   5.307  1.4504 -0.0310  1.6567
 7573SOL    HW234353   2.257   2.019   5.351  1.8099  0.6524 -1.7983
 7574SOL     OW34354   3.936   4.142   5.066  0.3456 -0.0379 -0.0866
 7574SOL    HW134355   4.024   4.142   5.028  0.5786 -2.5336  0.4341
 7574SOL    HW234356   3.902   4.231   5.070  0.7100  0.2927 -4.3915
 7575SOL     OW34357   4.074   3.628   4.961  0.0936  0.1751 -0.7955
 7575SOL    HW134358   3.985   3.602   4.985  0.2020 -0.6210 -1.2627
 7575SOL    HW234359   4.066   3.709   4.911 -2.5734 -0.5946 -1.6149
 7576SOL     OW34360   4.622   4.520   9.691  0.2698 -0.1187  0.4039
 7576SOL    HW134361   4.598   4.511   9.599  0.6407  1.1339  0.1747
 7576SOL    HW234362   4.544   4.573   9.713 -0.0388 -0.1228 -0.6929
 7577SOL     OW34363   2.871   2.522   7.370 -0.3064 -0.3719 -0.5072
 7577SOL    HW134364   2.904   2.515   7.460 -2.0818  0.8353  0.2404
 7577SOL    HW234365   2.797   2.582   7.378  0.5138  0.6824 -0.7071
 7578SOL     OW34366   0.579   2.961  17.505 -0.6392 -0.1948  0.1498
 7578SOL    HW134367   0.547   3.045  17.472  0.0141 -0.9390 -2.3665
 7578SOL    HW234368   0.601   2.984  17.596 -0.0325  0.2589 -0.1108
 7579SOL     OW34369   0.962   2.817   7.364  0.0120  0.8350 -0.1746
 7579SOL    HW134370   0.897   2.759   7.324  1.3774 -1.5098  1.0637
 7579SOL    HW234371   1.022   2.823   7.290  0.0888  2.1348 -0.0136
 7580SOL     OW34372   4.166   3.970   6.178  0.3665 -0.6434  0.3450
 7580SOL    HW134373   4.133   3.948   6.091  1.7609  0.0243 -0.3496
 7580SOL    HW234374   4.213   4.051   6.159 -0.6398  0.3906  2.2204
 7581SOL     OW34375   3.074   0.535  13.837 -0.1777 -0.0559 -0.3773
 7581SOL    HW134376   3.127   0.530  13.757 -0.0416 -1.0197 -0.2266
 7581SOL    HW234377   3.081   0.442  13.860 -0.2003  0.1824  0.5581
 7582SOL     OW34378   1.358   4.417   3.172  0.0726 -0.0386  0.1753
 7582SOL    HW134379   1.307   4.336   3.177  1.0591 -0.6119  1.0646
 7582SOL    HW234380   1.360   4.445   3.264  0.9690  0.7995 -0.0995
 7583SOL     OW34381   4.123   2.912   4.165 -1.1681 -0.1207 -0.4739
 7583SOL    HW134382   4.111   2.819   4.147 -2.4485  0.0197 -0.3842
 7583SOL    HW234383   4.196   2.892   4.223 -1.9373 -0.0351  0.5213
 7584SOL     OW34384   3.054   1.194  17.469 -0.0202 -0.1625  0.0194
 7584SOL    HW134385   3.111   1.141  17.524 -0.4042  0.3514  0.9088
 7584SOL    HW234386   3.094   1.279  17.483  2.2859 -1.4518  1.2184
 7585SOL     OW34387   0.307   2.842   7.381  0.0399 -0.0670  0.2730
 7585SOL    HW134388   0.265   2.901   7.319 -0.9910 -0.0716  0.9726
 7585SOL    HW234389   0.275   2.758   7.348 -3.0278  1.9913 -1.9905
 7586SOL     OW34390   3.473   0.218   2.941 -0.1659 -0.3988  0.8924
 7586SOL    HW134391   3.392   0.267   2.957 -0.7056 -0.3881 -1.8740
 7586SOL    HW234392   3.473   0.225   2.846 -1.3238 -1.8061  0.7979
 7587SOL     OW34393   4.395   1.070   0.122 -0.4653  0.8250 -0.1750
 7587SOL    HW134394   4.402   0.979   0.095  0.5121  0.3308  1.8196
 7587SOL    HW234395   4.472   1.068   0.179  0.0954 -0.0969 -0.9617
 7588SOL     OW34396   0.425   2.314   2.729  0.0520  0.2892  0.1374
 7588SOL    HW134397   0.463   2.361   2.804 -0.1902 -1.5256  1.3811
 7588SOL    HW234398   0.332   2.312   2.751 -0.2305 -1.8637 -1.2933
 7589SOL     OW34399   2.231   3.721   9.101 -0.1324 -0.2110  0.6732
 7589SOL    HW134400   2.313   3.713   9.054 -0.4357 -0.5125  0.1979
 7589SOL    HW234401   2.255   3.797   9.156  0.4368 -0.3684  0.6409
 7590SOL     OW34402   4.110   4.075   0.491 -0.1257 -0.0529 -0.3620
 7590SOL    HW134403   4.198   4.056   0.458 -0.4622 -1.6568 -0.3318
 7590SOL    HW234404   4.117   4.031   0.575 -2.5799  1.9624  0.9081
 7591SOL     OW34405   4.427   3.745   5.015  0.4618 -0.1225 -0.5989
 7591SOL    HW134406   4.416   3.834   5.047  0.0433 -0.8662  1.3188
 7591SOL    HW234407   4.505   3.720   5.064  1.2660  0.6586 -1.4869
 7592SOL     OW34408   0.183   1.025   3.822 -0.4519  0.2525  0.0390
 7592SOL    HW134409   0.232   0.963   3.768 -0.4658 -1.6731  2.2466
 7592SOL    HW234410   0.119   1.059   3.759 -0.1696  0.3506 -0.1972
 7593SOL     OW34411   0.066   0.228  10.135 -0.2363 -0.4615 -0.5014
 7593SOL    HW134412   0.062   0.179  10.053 -3.6703 -1.0867  0.0177
 7593SOL    HW234413   4.729   0.199  10.191 -0.1250 -1.3014 -0.7950
 7594SOL     OW34414   0.587   1.916  13.675 -0.3162 -0.0567  0.0523
 7594SOL    HW134415   0.539   1.998  13.659  2.4248  1.2500 -1.5213
 7594SOL    HW234416   0.601   1.922  13.769  1.5735  0.7891 -0.2868
 7595SOL     OW34417   0.831   1.503  11.518  0.0999  0.7903  0.4302
 7595SOL    HW134418   0.858   1.584  11.563 -1.3450  1.2168  0.5178
 7595SOL    HW234419   0.776   1.468  11.588 -2.7114 -0.1559 -2.2564
 7596SOL     OW34420   2.965   2.770  11.994 -0.1022 -0.2255  0.5513
 7596SOL    HW134421   2.919   2.785  12.076 -0.2728  2.9199 -0.1364
 7596SOL    HW234422   2.994   2.860  11.980  3.7198 -1.0165  3.5611
 7597SOL     OW34423   0.327   1.122   8.923 -0.4272 -0.0505  0.1479
 7597SOL    HW134424   0.298   1.195   8.868 -1.2100 -0.2350  0.3183
 7597SOL    HW234425   0.253   1.062   8.917 -0.4300 -0.0125 -0.2385
 7598SOL     OW34426   3.657   3.973   3.378  0.3425 -0.1047  0.2698
 7598SOL    HW134427   3.567   3.946   3.397  0.8571 -2.7318 -1.1532
 7598SOL    HW234428   3.709   3.917   3.435 -1.0915  0.3477  2.0143
 7599SOL     OW34429   2.108   2.394   3.480  0.2434 -0.0108  0.1430
 7599SOL    HW134430   2.154   2.424   3.402 -1.1000 -2.0780 -1.4610
 7599SOL    HW234431   2.015   2.394   3.455  0.0084  0.2402  1.0182
 7600SOL     OW34432   2.895   3.300   5.243 -0.1810  0.4353  0.2798
 7600SOL    HW134433   2.913   3.218   5.290  0.4664  0.4754  0.1030
 7600SOL    HW234434   2.874   3.367   5.307 -2.2468 -2.4266  2.6363
 7601SOL     OW34435   2.623   0.234   1.728  0.0297  0.6037 -0.3099
 7601SOL    HW134436   2.530   0.237   1.702 -0.4131 -1.2024  1.0493
 7601SOL    HW234437   2.607   0.202   1.817  0.5558 -1.6415 -1.0266
 7602SOL     OW34438   2.694   4.487   3.025 -0.3899  0.1630  0.1184
 7602SOL    HW134439   2.655   4.563   3.069 -0.0687  0.0009  0.6947
 7602SOL    HW234440   2.771   4.526   2.984 -0.4152  1.4073  1.2160
 7603SOL     OW34441   3.684   2.399   7.061 -0.0460 -0.1261 -0.2854
 7603SOL    HW134442   3.722   2.314   7.037  0.2452 -0.2690  0.6808
 7603SOL    HW234443   3.758   2.451   7.092 -0.8531  1.4545 -1.0204
 7604SOL     OW34444   1.446   1.189   1.520 -1.1673 -0.7317 -0.3777
 7604SOL    HW134445   1.522   1.201   1.462 -1.1980 -2.2373 -0.7479
 7604SOL    HW234446   1.390   1.122   1.480 -0.2272 -0.5731 -1.9561
 7605SOL     OW34447   3.018   3.603   7.430  0.5282 -0.2414  0.4202
 7605SOL    HW134448   3.111   3.596   7.410  0.8264  0.8372  1.4504
 7605SOL    HW234449   2.977   3.529   7.384  0.4050  0.2117 -0.1972
 7606SOL     OW34450   1.817   2.235   3.099  0.3304  0.3523 -0.2103
 7606SOL    HW134451   1.797   2.253   3.007 -1.1003 -0.1367 -0.0023
 7606SOL    HW234452   1.884   2.299   3.122 -0.4357  2.0505 -2.6315
 7607SOL     OW34453   3.488   3.784   4.141 -0.6431  0.0331 -0.0249
 7607SOL    HW134454   3.550   3.814   4.207 -1.1360  0.4163  0.2710
 7607SOL    HW234455   3.530   3.802   4.057  0.1951 -0.0240  0.3826
 7608SOL     OW34456   2.834   2.677  12.703  0.1219 -0.3964 -0.1431
 7608SOL    HW134457   2.775   2.747  12.676  0.8140 -0.0672 -0.7805
 7608SOL    HW234458   2.789   2.596  12.679  0.4179 -0.2794 -1.0680
 7609SOL     OW34459   1.992   3.125   3.349 -0.6243 -0.2457 -0.2978
 7609SOL    HW134460   2.086   3.133   3.369 -0.7618  1.3777 -0.3272
 7609SOL    HW234461   1.956   3.177   3.421 -1.5895  1.0641 -1.7432
 7610SOL     OW34462   3.458   0.612   8.072  0.0132  0.1689  0.3094
 7610SOL    HW134463   3.501   0.668   8.006 -0.8445 -0.8716 -1.1407
 7610SOL    HW234464   3.376   0.660   8.077 -0.0267  0.3230 -1.7383
 7611SOL     OW34465   2.852   3.258   8.622  0.1211 -0.4623 -0.1564
 7611SOL    HW134466   2.882   3.179   8.666 -0.0754 -0.4326  0.0303
 7611SOL    HW234467   2.813   3.215   8.546  1.1402  0.4844 -1.2069
 7612SOL     OW34468   2.962   2.783   6.924 -0.3129 -0.1019  0.0911
 7612SOL    HW134469   3.013   2.858   6.896 -0.1269  0.2083  1.2710
 7612SOL    HW234470   2.942   2.731   6.846  2.5702  0.4197 -0.9755
 7613SOL     OW34471   2.718   2.097  12.602  0.2549  0.1699 -0.2677
 7613SOL    HW134472   2.643   2.152  12.622  0.5033  0.6213 -0.5726
 7613SOL    HW234473   2.756   2.090  12.689  0.3298  0.7976 -0.2531
 7614SOL     OW34474   3.521   3.864   5.149  0.7114 -0.2119  0.4885
 7614SOL    HW134475   3.534   3.941   5.205  0.4936  1.2486 -1.4504
 7614SOL    HW234476   3.446   3.814   5.181  0.9793 -0.1379  1.2229
 7615SOL     OW34477   4.255   1.152   1.449 -0.1039 -0.4058 -0.2658
 7615SOL    HW134478   4.251   1.149   1.353  0.4153  1.4682 -0.3366
 7615SOL    HW234479   4.248   1.061   1.478 -1.0856 -0.4422 -0.6159
 7616SOL     OW34480   0.960   1.447   1.924 -0.1987 -0.8074  0.3558
 7616SOL    HW134481   1.019   1.420   1.854  0.3832  0.9842  0.1577
 7616SOL    HW234482   0.984   1.396   2.001 -0.1738 -0.9207  0.2717
 7617SOL     OW34483   3.755   3.187  15.522 -0.1007  0.8465  0.0045
 7617SOL    HW134484   3.765   3.206  15.429  1.1029  1.0230  0.1721
 7617SOL    HW234485   3.772   3.273  15.560  0.3818  0.1744  1.3315
 7618SOL     OW34486   4.332   0.165  10.691 -0.0583  0.0452  0.6582
 7618SOL    HW134487   4.393   0.131  10.756  0.3307 -3.5745 -1.6231
 7618SOL    HW234488   4.256   0.188  10.746  0.0652  1.0133  0.4236
 7619SOL     OW34489   3.479   1.598  17.091  0.7249  0.3944 -0.5697
 7619SOL    HW134490   3.495   1.667  17.027  1.9592  0.3870 -0.2639
 7619SOL    HW234491   3.563   1.577  17.132  1.4082  1.5071 -1.4052
 7620SOL     OW34492   0.817   1.601   6.533  0.1757 -0.2013  0.0525
 7620SOL    HW134493   0.821   1.578   6.440 -1.4297  2.2770 -0.6105
 7620SOL    HW234494   0.791   1.517   6.570  1.1529 -0.3545  0.3935
 7621SOL     OW34495   2.096   2.307   9.450 -0.3079  0.0734  0.2510
 7621SOL    HW134496   2.089   2.362   9.373 -0.9863 -0.3089  0.0385
 7621SOL    HW234497   2.057   2.359   9.521 -0.5526 -0.2154  0.3250
 7622SOL     OW34498   3.830   0.701   0.570 -0.0535  0.6558 -0.2088
 7622SOL    HW134499   3.807   0.792   0.592 -0.3244  0.1106  1.7722
 7622SOL    HW234500   3.922   0.690   0.593 -0.4548 -1.2664  0.5065
 7623SOL     OW34501   3.186   1.607   4.816 -0.3101 -0.1255 -0.4438
 7623SOL    HW134502   3.144   1.648   4.892  0.7740  0.1424 -0.0034
 7623SOL    HW234503   3.154   1.517   4.824 -0.4382  0.0347  0.8083
 7624SOL     OW34504   1.359   3.437   3.671  0.1090  0.0338  0.1698
 7624SOL    HW134505   1.391   3.402   3.754  1.9065  2.0864  0.3402
 7624SOL    HW234506   1.402   3.523   3.674  0.8542 -0.2921 -0.9679
 7625SOL     OW34507   2.640   0.977   2.794  0.5347 -0.2893  0.1926
 7625SOL    HW134508   2.572   0.980   2.726 -1.0210  0.7072  1.7979
 7625SOL    HW234509   2.706   1.031   2.749 -0.0229 -0.9278 -1.3960
 7626SOL     OW34510   3.753   3.238   3.385  0.3765  0.2610 -0.4578
 7626SOL    HW134511   3.837   3.244   3.430 -0.1433  0.8823  0.4239
 7626SOL    HW234512   3.714   3.324   3.399  0.0386  0.1826 -0.9087
 7627SOL     OW34513   0.996   2.869   7.638  0.5694  0.4872 -0.0674
 7627SOL    HW134514   0.981   2.849   7.546  1.4078  0.7031 -0.2488
 7627SOL    HW234515   0.968   2.961   7.636  1.2562  0.6729 -1.2699
 7628SOL     OW34516   0.356   2.125   5.139  0.3941  0.3767  0.2527
 7628SOL    HW134517   0.368   2.161   5.051 -3.0222  0.3304 -0.2292
 7628SOL    HW234518   0.435   2.072   5.150  0.5653  0.6038  0.1245
 7629SOL     OW34519   0.607   2.769   5.551 -0.3813  0.4241  0.1295
 7629SOL    HW134520   0.580   2.763   5.643  0.3943  0.3340  0.3539
 7629SOL    HW234521   0.608   2.676   5.530 -2.1519  0.6327 -0.8877
 7630SOL     OW34522   1.741   0.489   1.665  0.4482 -0.0896 -0.0331
 7630SOL    HW134523   1.738   0.578   1.701  1.5702  0.0850 -0.3691
 7630SOL    HW234524   1.757   0.428   1.737 -1.2172 -0.9675 -0.3890
 7631SOL     OW34525   4.081   2.015   8.334  0.9977  0.3539  0.7206
 7631SOL    HW134526   4.015   1.947   8.348 -0.6156  1.9227  0.7984
 7631SOL    HW234527   4.139   2.009   8.410  0.2755 -1.4643  1.1462
 7632SOL     OW34528   3.754   0.125   8.831 -0.1371 -0.4519  0.1556
 7632SOL    HW134529   3.748   0.094   8.741 -2.4451  2.1307 -0.5974
 7632SOL    HW234530   3.843   0.160   8.833  0.0213 -0.8942  0.7024
 7633SOL     OW34531   2.372   3.100   7.057 -0.0854 -0.1414 -0.3698
 7633SOL    HW134532   2.429   3.100   6.980  2.2410 -0.4461  1.3832
 7633SOL    HW234533   2.378   3.005   7.068  0.7377 -0.4524 -3.3623
 7634SOL     OW34534   2.512   0.488   8.785 -0.0389  0.2586  0.0926
 7634SOL    HW134535   2.442   0.552   8.797 -1.2886 -0.5935 -2.6235
 7634SOL    HW234536   2.481   0.417   8.841  2.3678 -0.0067  1.1147
 7635SOL     OW34537   0.115   1.828  14.713 -0.1495 -0.4554 -0.1156
 7635SOL    HW134538   0.086   1.803  14.801 -1.6233 -0.8580 -0.7307
 7635SOL    HW234539   0.203   1.859  14.734 -1.3731  2.3096  0.8580
 7636SOL     OW34540   0.154   4.081   4.305  0.1577 -0.3393  0.5057
 7636SOL    HW134541   0.101   4.094   4.226  0.6129  2.1031  0.5853
 7636SOL    HW234542   0.160   3.986   4.302 -0.5564 -0.3939  0.7161
 7637SOL     OW34543   0.665   1.440   4.512  0.2093 -0.4664 -0.7030
 7637SOL    HW134544   0.729   1.487   4.459  0.3664  0.4591  0.3232
 7637SOL    HW234545   0.595   1.424   4.448  0.7318 -0.2189 -1.3348
 7638SOL     OW34546   4.245   3.975   4.780  0.3016  0.0413  0.0008
 7638SOL    HW134547   4.176   4.038   4.759  1.0135  0.4272 -1.2138
 7638SOL    HW234548   4.220   3.956   4.870 -0.9232 -2.3572 -0.8586
 7639SOL     OW34549   3.812   3.799   7.464  0.0899  0.2303 -0.5640
 7639SOL    HW134550   3.768   3.880   7.440  0.3735  0.2436 -1.0457
 7639SOL    HW234551   3.833   3.768   7.376  1.5087 -0.5768  0.0527
 7640SOL     OW34552   1.261   2.722   2.158  0.0029  0.2236  0.4801
 7640SOL    HW134553   1.302   2.746   2.241 -0.1343  0.0969  0.5847
 7640SOL    HW234554   1.198   2.655   2.184 -0.0914  1.5184  3.5688
 7641SOL     OW34555   4.424   2.051   4.087 -0.1017 -0.2446 -0.3728
 7641SOL    HW134556   4.332   2.072   4.102 -0.2777 -1.2632  0.0233
 7641SOL    HW234557   4.414   1.957   4.102  2.4637 -0.4255  0.3526
 7642SOL     OW34558   1.538   1.014  15.375  0.0339 -0.2455 -0.1161
 7642SOL    HW134559   1.563   1.102  15.347 -2.3109  1.1663  2.2310
 7642SOL    HW234560   1.617   0.969  15.346  0.8806  1.6297 -0.7707
 7643SOL     OW34561   0.785   3.263  10.676 -0.5223 -0.7261  0.0152
 7643SOL    HW134562   0.718   3.198  10.694 -0.5383 -1.1604 -1.5635
 7643SOL    HW234563   0.797   3.243  10.583  1.0503 -1.2400  0.3294
 7644SOL     OW34564   3.266   1.173   6.423 -0.2187 -0.1456  0.6480
 7644SOL    HW134565   3.242   1.263   6.400  0.8139  0.0573  0.3857
 7644SOL    HW234566   3.290   1.180   6.515 -1.6559  2.5543  0.8292
 7645SOL     OW34567   1.916   2.358  16.347 -0.4781  0.0743 -0.2297
 7645SOL    HW134568   1.907   2.370  16.252 -0.6875  0.7599 -0.1166
 7645SOL    HW234569   2.005   2.324  16.354 -0.2396  0.6287 -0.5812
 7646SOL     OW34570   1.908   2.397   7.367 -0.1849  0.3025  0.9162
 7646SOL    HW134571   1.820   2.400   7.329 -0.1023  0.8946  0.7731
 7646SOL    HW234572   1.946   2.343   7.297 -0.9629  1.4933 -0.4273
 7647SOL     OW34573   1.184   3.774   6.316  0.1175  0.2451  0.2113
 7647SOL    HW134574   1.100   3.728   6.310 -0.0200  0.5597 -0.3081
 7647SOL    HW234575   1.252   3.707   6.318 -0.5727 -0.4768 -0.2308
 7648SOL     OW34576   0.375   1.703  11.620 -0.0354 -0.2661  0.5026
 7648SOL    HW134577   0.351   1.627  11.672 -1.8792 -0.0692 -0.0797
 7648SOL    HW234578   0.343   1.675  11.534  0.8196 -0.3064  0.1946
 7649SOL     OW34579   2.310   1.790   3.272  0.2393 -0.4778 -0.6633
 7649SOL    HW134580   2.235   1.736   3.298 -0.9416  0.3745 -2.3152
 7649SOL    HW234581   2.339   1.812   3.360 -1.1490  0.3348 -0.4097
 7650SOL     OW34582   2.072   3.541   3.028  0.2946  0.4662  0.4640
 7650SOL    HW134583   2.156   3.501   3.007 -1.3840 -1.4427 -2.6074
 7650SOL    HW234584   2.094   3.634   3.016 -1.0348  0.7199 -0.0780
 7651SOL     OW34585   4.322   4.207  16.760 -0.0247  0.6998  0.1274
 7651SOL    HW134586   4.350   4.265  16.689 -1.2385 -0.2930 -1.1595
 7651SOL    HW234587   4.390   4.140  16.761 -1.0131 -0.3163 -0.1535
 7652SOL     OW34588   1.746   2.443  17.517 -0.0803  0.9391  0.2528
 7652SOL    HW134589   1.802   2.504  17.469 -2.6663  1.7120 -1.7772
 7652SOL    HW234590   1.791   2.359  17.510 -3.8814 -1.0888  0.1234
 7653SOL     OW34591   4.498   1.368  17.529  0.2398  0.1027  0.1625
 7653SOL    HW134592   4.458   1.426  17.594  0.7053 -1.6664  2.0112
 7653SOL    HW234593   4.459   1.408  17.452 -0.4829 -0.9832 -0.0340
 7654SOL     OW34594   3.065   0.455  13.568  0.0453  0.0449  0.2021
 7654SOL    HW134595   3.070   0.360  13.574  1.2262  0.1992  1.7995
 7654SOL    HW234596   2.982   0.454  13.520  0.1537  2.0355 -0.0599
 7655SOL     OW34597   2.638   4.372   5.795  0.5752 -0.3553  0.2850
 7655SOL    HW134598   2.666   4.353   5.705  0.7660 -2.4675  0.7871
 7655SOL    HW234599   2.701   4.440   5.820 -3.2978  2.9277  1.1112
 7656SOL     OW34600   4.181   0.834   0.904 -0.0407 -0.4383  0.3465
 7656SOL    HW134601   4.251   0.898   0.913 -1.9391  1.6414  0.4345
 7656SOL    HW234602   4.169   0.801   0.994  2.0546  2.5645  1.7147
 7657SOL     OW34603   2.072   3.887   7.472 -0.1551 -0.5208  0.0730
 7657SOL    HW134604   2.002   3.864   7.533 -0.1677  2.6664  1.2892
 7657SOL    HW234605   2.128   3.946   7.523 -2.2380  2.5047 -1.0742
 7658SOL     OW34606   4.605   3.643  17.702  0.0229 -0.0907 -0.2761
 7658SOL    HW134607   4.599   3.549  17.691 -0.8910 -0.1620  0.7771
 7658SOL    HW234608   4.581   3.647   0.056  0.0140 -1.0680 -0.2438
 7659SOL     OW34609   1.648   1.291   6.158 -0.2602 -0.0402 -1.1308
 7659SOL    HW134610   1.693   1.373   6.139  0.3924  0.2266  1.5166
 7659SOL    HW234611   1.662   1.276   6.252 -2.2929  1.3806 -0.6092
 7660SOL     OW34612   3.131   3.799   3.406  0.0950 -0.1653  0.5269
 7660SOL    HW134613   3.138   3.747   3.486  0.1240 -0.4652  0.3274
 7660SOL    HW234614   3.042   3.777   3.380  1.1493  0.2380 -3.4298
 7661SOL     OW34615   2.464   4.710   0.706  0.1979  0.0549 -0.1615
 7661SOL    HW134616   2.476   4.683   0.797  1.2324 -1.0333 -0.6172
 7661SOL    HW234617   2.398   4.645   0.682 -1.0307  1.4634 -0.6191
 7662SOL     OW34618   0.597   0.038   7.606  0.9592  0.2858 -0.1446
 7662SOL    HW134619   0.549   4.715   7.666  1.1185  0.4421  0.1373
 7662SOL    HW234620   0.575   0.124   7.643  0.7750 -0.6499  1.9135
 7663SOL     OW34621   2.630   3.261   7.719  0.4548  0.0203  0.2838
 7663SOL    HW134622   2.578   3.341   7.712  3.6116  1.8621 -2.8699
 7663SOL    HW234623   2.716   3.301   7.732  0.3580  0.1648  0.4669
 7664SOL     OW34624   1.988   1.760  11.623 -0.1365 -0.0095  0.2001
 7664SOL    HW134625   2.082   1.742  11.610 -0.9465 -0.9885 -4.3781
 7664SOL    HW234626   1.942   1.743  11.541 -1.1831  2.3913  0.2914
 7665SOL     OW34627   1.147   3.592  12.557 -0.3885 -0.4904 -0.0714
 7665SOL    HW134628   1.105   3.538  12.489 -0.9235 -2.8573  2.1385
 7665SOL    HW234629   1.238   3.562  12.560 -0.0614  0.6017  0.6401
 7666SOL     OW34630   2.425   1.961   7.379  0.9433 -0.3479  0.2608
 7666SOL    HW134631   2.474   1.886   7.345 -1.8991 -1.3290 -1.7044
 7666SOL    HW234632   2.368   1.930   7.450  1.7594 -2.1748  0.0944
 7667SOL     OW34633   2.239   1.541   9.163 -0.1030 -0.2481 -0.3360
 7667SOL    HW134634   2.207   1.517   9.250  0.1034  0.5814 -0.0325
 7667SOL    HW234635   2.251   1.636   9.170  0.8126 -0.3190 -0.9692
 7668SOL     OW34636   1.240   3.765  10.263 -0.4229  0.2162  0.0535
 7668SOL    HW134637   1.278   3.700  10.204 -0.5830  0.0399  0.1436
 7668SOL    HW234638   1.172   3.712  10.305  1.3690 -1.8798  0.2749
 7669SOL     OW34639   3.157   0.718   5.583  0.1901 -0.1387  0.2063
 7669SOL    HW134640   3.064   0.740   5.590  0.2594  0.3574 -0.4902
 7669SOL    HW234641   3.176   0.784   5.516 -2.0656  0.0335 -0.2510
 7670SOL     OW34642   0.665   0.697   3.493  0.5763  0.1000 -0.1457
 7670SOL    HW134643   0.664   0.642   3.415 -0.6383 -1.2253  0.8096
 7670SOL    HW234644   0.637   0.779   3.453 -1.7859 -1.1016 -0.9600
 7671SOL     OW34645   3.121   1.631   1.211 -0.0192  0.0348 -0.2873
 7671SOL    HW134646   3.090   1.554   1.163 -1.6261 -0.5186  1.6079
 7671SOL    HW234647   3.179   1.673   1.147 -0.2252  0.1884 -0.3719
 7672SOL     OW34648   3.506   3.038   7.530 -0.0702  0.1848 -0.9121
 7672SOL    HW134649   3.506   3.112   7.590 -2.0663  0.3330 -1.1040
 7672SOL    HW234650   3.502   2.975   7.602 -0.1391  0.8485 -0.3346
 7673SOL     OW34651   3.356   1.502   8.858 -0.4457  0.4118  0.6380
 7673SOL    HW134652   3.264   1.522   8.839 -0.5310 -0.6469 -0.0515
 7673SOL    HW234653   3.365   1.408   8.846  3.1490  0.8475  0.0528
 7674SOL     OW34654   1.938   3.066  11.469 -0.0025  0.2124  0.1531
 7674SOL    HW134655   2.033   3.061  11.462  0.2364  1.2448  2.6942
 7674SOL    HW234656   1.920   3.157  11.445 -0.1855 -0.1524 -1.1094
 7675SOL     OW34657   1.086   0.030   8.736  0.6663 -0.3118 -0.1740
 7675SOL    HW134658   1.175   0.059   8.753  1.1050 -2.1200  0.5848
 7675SOL    HW234659   1.090   4.674   8.764 -2.6917  0.4117  2.7304
 7676SOL     OW34660   2.354   3.720  11.944  0.3652 -0.0662 -0.2214
 7676SOL    HW134661   2.376   3.631  11.916 -0.6253  0.1036 -1.5946
 7676SOL    HW234662   2.333   3.708  12.036  0.8947  1.3569  0.0851
 7677SOL     OW34663   1.526   2.857   3.789 -0.0922  0.1307 -0.0976
 7677SOL    HW134664   1.608   2.858   3.738 -0.9543  0.7639 -1.4620
 7677SOL    HW234665   1.566   2.831   3.872 -1.6093  2.3382  1.3171
 7678SOL     OW34666   1.968   3.604   5.880 -0.1053 -0.2249 -0.1040
 7678SOL    HW134667   2.021   3.531   5.847  1.1456  0.6620 -0.0516
 7678SOL    HW234668   1.988   3.599   5.973 -1.7228  0.1787  0.2634
 7679SOL     OW34669   3.508   4.577   0.646 -0.3010  0.1428 -0.4642
 7679SOL    HW134670   3.586   4.604   0.695 -0.4336  0.1786 -0.2733
 7679SOL    HW234671   3.490   4.656   0.595 -1.2383 -0.5199 -1.1421
 7680SOL     OW34672   0.506   0.074   3.483  0.3349  0.5152  0.3674
 7680SOL    HW134673   0.536   0.162   3.508  2.8866 -0.2230 -0.1350
 7680SOL    HW234674   0.498   0.093   3.389 -0.3195 -0.3077  0.2600
 7681SOL     OW34675   0.074   4.637  14.061 -0.3855 -0.1644 -0.2333
 7681SOL    HW134676   0.075   4.711  14.000  0.3412 -2.5558 -3.1298
 7681SOL    HW234677   4.719   4.646  14.091 -0.4310  0.1488 -0.4607
 7682SOL     OW34678   1.275   3.342   7.111  0.9137  0.3250 -0.6779
 7682SOL    HW134679   1.299   3.429   7.080  1.2231 -0.5324 -2.7982
 7682SOL    HW234680   1.262   3.294   7.029 -0.0499  1.5696 -1.2566
 7683SOL     OW34681   0.920   0.345  11.171  0.4526  0.0915 -0.3533
 7683SOL    HW134682   0.866   0.415  11.136 -0.3627  0.2780  1.2802
 7683SOL    HW234683   0.861   0.287  11.219  0.9980 -2.4389 -2.7550
 7684SOL     OW34684   4.642   2.403   2.418  0.1940  0.3364  0.4453
 7684SOL    HW134685   4.552   2.370   2.415  0.6496 -0.8042 -0.7753
 7684SOL    HW234686   4.653   2.454   2.338  0.6373  0.1648  0.3966
 7685SOL     OW34687   3.500   3.989  15.922 -0.0330 -0.3805  0.3597
 7685SOL    HW134688   3.491   3.927  15.850  0.9161  2.1856 -2.0100
 7685SOL    HW234689   3.441   3.952  15.988  0.1719 -1.0838  0.1444
 7686SOL     OW34690   4.055   0.171   8.058 -0.1801 -0.3607  0.0850
 7686SOL    HW134691   4.142   0.135   8.071 -1.1708 -3.0652 -0.7701
 7686SOL    HW234692   4.024   0.110   7.992  0.3413  0.4364 -0.8940
 7687SOL     OW34693   4.156   1.412   6.004  0.2226 -0.1439  0.4023
 7687SOL    HW134694   4.157   1.508   6.012 -2.3710  0.0384 -1.4676
 7687SOL    HW234695   4.206   1.400   5.924 -1.2689  1.2810 -0.7405
 7688SOL     OW34696   1.349   1.036  16.688 -0.0306 -0.6035 -0.0716
 7688SOL    HW134697   1.373   1.080  16.606 -1.4797 -0.7242 -0.5750
 7688SOL    HW234698   1.370   0.943  16.679 -0.7225 -0.8797  1.1775
 7689SOL     OW34699   3.666   4.528   4.531  0.0600  0.3977 -0.3369
 7689SOL    HW134700   3.629   4.515   4.619  1.2608  1.4979  0.3275
 7689SOL    HW234701   3.707   4.613   4.540  1.0101 -0.1582  0.5466
 7690SOL     OW34702   1.809   0.321   6.591 -0.6028  1.1911 -0.1547
 7690SOL    HW134703   1.722   0.359   6.601 -0.3817  1.4063  0.9772
 7690SOL    HW234704   1.828   0.287   6.679  1.1680  2.3102 -0.1137
 7691SOL     OW34705   2.279   1.620  11.097  0.8581  0.0864 -1.0465
 7691SOL    HW134706   2.275   1.531  11.062  1.0180  0.0857 -1.0631
 7691SOL    HW234707   2.189   1.647  11.080 -0.3608 -1.5721  2.7289
 7692SOL     OW34708   3.797   3.102   2.240 -0.3268 -0.1701  0.5714
 7692SOL    HW134709   3.830   3.176   2.291 -1.8144  1.5974 -1.0490
 7692SOL    HW234710   3.845   3.031   2.284  0.9697 -0.1961 -0.8675
 7693SOL     OW34711   2.637   0.068   4.251 -0.1336  0.2155 -0.1880
 7693SOL    HW134712   2.722   0.030   4.226 -0.7925 -1.0946 -0.4249
 7693SOL    HW234713   2.639   0.047   4.344  0.4875  2.3208  0.2740
 7694SOL     OW34714   1.573   2.800   4.073  0.6946 -0.1430  0.3630
 7694SOL    HW134715   1.561   2.850   4.154 -2.3711  1.3354 -1.0132
 7694SOL    HW234716   1.490   2.753   4.077  0.8636 -0.1097  3.7891
 7695SOL     OW34717   3.576   0.350   6.467 -0.4087 -0.2664 -0.6451
 7695SOL    HW134718   3.580   0.307   6.381 -0.6594 -0.3271 -0.6277
 7695SOL    HW234719   3.653   0.312   6.508 -1.5870  0.5520  2.3480
 7696SOL     OW34720   3.339   2.972   6.494  0.4640 -0.7218  0.0055
 7696SOL    HW134721   3.344   2.928   6.409  0.5560 -1.2165  0.2670
 7696SOL    HW234722   3.286   2.904   6.535 -0.4791 -0.7367 -1.2277
 7697SOL     OW34723   0.838   3.191  15.294  0.5717 -0.0603  0.3899
 7697SOL    HW134724   0.791   3.260  15.341  0.0628 -0.6857  0.7913
 7697SOL    HW234725   0.930   3.217  15.300  0.4219  0.2396  1.3928
 7698SOL     OW34726   0.262   2.028  15.301  0.2157  0.3884  0.4200
 7698SOL    HW134727   0.245   2.122  15.296  2.7642  0.7320 -1.5031
 7698SOL    HW234728   0.169   2.003  15.306  0.5669 -0.7976  1.1022
 7699SOL     OW34729   1.925   2.111   3.898  0.0925  0.4623 -0.8182
 7699SOL    HW134730   1.914   2.128   3.804 -3.7935 -0.4552 -0.5245
 7699SOL    HW234731   1.993   2.044   3.889 -0.4465 -0.3709  1.3799
 7700SOL     OW34732   2.981   4.621  13.228  0.7468 -0.9560  0.0038
 7700SOL    HW134733   3.016   4.672  13.155  1.8746  0.0151  1.2241
 7700SOL    HW234734   2.923   4.684  13.271  0.0524 -1.0910 -0.7277
 7701SOL     OW34735   4.239   4.462   0.448 -0.7816  0.5303  0.1924
 7701SOL    HW134736   4.269   4.416   0.526 -0.3088 -0.6482 -0.6794
 7701SOL    HW234737   4.228   4.386   0.390  1.1148 -0.9329  1.7396
 7702SOL     OW34738   0.170   0.147  17.219 -0.3536  0.2481  0.0440
 7702SOL    HW134739   0.151   0.057  17.191  1.4794  0.4253 -1.7073
 7702SOL    HW234740   0.183   0.185  17.133 -2.2148  0.6691 -0.0649
 7703SOL     OW34741   0.919   4.698   3.430 -0.4547 -0.2445  0.0955
 7703SOL    HW134742   0.993   4.718   3.488 -0.5500 -1.9881  0.8032
 7703SOL    HW234743   0.926   0.022   3.355 -0.9157 -1.7631 -1.1491
 7704SOL     OW34744   3.668   0.532   3.546  0.5856 -0.7478 -0.4632
 7704SOL    HW134745   3.760   0.532   3.572  0.9985 -0.3590 -1.9140
 7704SOL    HW234746   3.660   0.626   3.529  0.3553 -0.6863 -0.0141
 7705SOL     OW34747   2.810   4.270  14.468  0.0335 -0.6384  0.4580
 7705SOL    HW134748   2.898   4.241  14.492 -0.9207 -4.3588 -0.4281
 7705SOL    HW234749   2.829   4.283  14.375  0.5429  0.4508  0.7207
 7706SOL     OW34750   3.463   4.013   4.937  0.0707  0.5686 -0.1301
 7706SOL    HW134751   3.470   3.956   5.014 -1.2207 -0.8838 -1.0623
 7706SOL    HW234752   3.533   3.983   4.879 -0.3580 -0.9345  0.1162
 7707SOL     OW34753   1.066   1.158  12.749 -0.7814 -0.7935 -0.1353
 7707SOL    HW134754   1.054   1.205  12.667 -0.2653  2.0957  1.4632
 7707SOL    HW234755   1.021   1.216  12.810 -1.2408 -1.5109  0.2180
 7708SOL     OW34756   3.523   1.498   0.829  0.7914  0.2405  0.7113
 7708SOL    HW134757   3.451   1.439   0.849  1.8534 -1.7714 -1.4086
 7708SOL    HW234758   3.598   1.438   0.831  0.3066 -0.3647  0.4180
 7709SOL     OW34759   0.824   1.573   4.346 -0.5938 -0.5420 -0.1991
 7709SOL    HW134760   0.843   1.634   4.274 -0.2471  0.9622  1.1711
 7709SOL    HW234761   0.906   1.524   4.350 -0.5228 -0.5781 -1.7898
 7710SOL     OW34762   4.447   2.369   6.386 -0.0042 -0.5775 -0.1793
 7710SOL    HW134763   4.540   2.380   6.404 -0.0967  1.0315 -0.7263
 7710SOL    HW234764   4.402   2.380   6.469 -0.1040  0.8082 -0.4201
 7711SOL     OW34765   0.977   3.753  12.663 -0.0076  0.1155  0.2650
 7711SOL    HW134766   1.050   3.706  12.622  0.6070  1.0700  0.2755
 7711SOL    HW234767   0.954   3.677  12.717 -1.1390 -0.9573 -1.7443
 7712SOL     OW34768   0.278   3.611   0.380  0.0855 -0.1158  0.3524
 7712SOL    HW134769   0.285   3.577   0.291 -1.5788 -1.5771  0.7781
 7712SOL    HW234770   0.217   3.551   0.422  0.1169 -0.7686 -0.5391
 7713SOL     OW34771   0.873   2.303   3.029  0.3711  0.0094  0.3231
 7713SOL    HW134772   0.889   2.228   3.087 -3.6540 -0.5451  0.7418
 7713SOL    HW234773   0.961   2.313   2.994  0.4488  0.0089  0.5147
 7714SOL     OW34774   0.999   0.775   9.128 -0.0275 -0.1022  0.6472
 7714SOL    HW134775   0.916   0.817   9.151  0.8280  1.6168  0.6322
 7714SOL    HW234776   0.967   0.691   9.096 -1.7290  0.6189  0.4586
 7715SOL     OW34777   2.268   2.913   3.001 -0.1627 -0.1372  0.2895
 7715SOL    HW134778   2.309   2.871   2.925  0.0155  0.1076  0.2514
 7715SOL    HW234779   2.221   2.981   2.953 -0.6522 -2.1657 -2.1469
 7716SOL     OW34780   3.719   0.142  13.955  0.5877 -0.3039 -0.1679
 7716SOL    HW134781   3.738   0.057  13.916  0.4900  0.0370 -0.9655
 7716SOL    HW234782   3.805   0.157  13.994  0.1376 -0.4599  0.8844
 7717SOL     OW34783   2.296   3.221   1.792 -0.2266 -0.0961  0.0120
 7717SOL    HW134784   2.305   3.268   1.875  0.1607 -0.7984  0.3699
 7717SOL    HW234785   2.331   3.134   1.810 -1.6591 -0.8886 -1.0195
 7718SOL     OW34786   3.008   2.929  16.095  0.6393  0.2257  0.5343
 7718SOL    HW134787   2.971   2.840  16.100  2.1271 -0.5106 -1.6028
 7718SOL    HW234788   2.955   2.978  16.158  2.3477 -0.9305  2.8463
 7719SOL     OW34789   1.951   0.788   9.146  0.8225  0.1444  0.4633
 7719SOL    HW134790   1.907   0.719   9.197 -1.6415  0.8754 -0.7291
 7719SOL    HW234791   2.037   0.780   9.188  1.5236  1.1485 -0.7907
 7720SOL     OW34792   1.153   4.006   6.160  0.1052 -0.1459  0.0336
 7720SOL    HW134793   1.161   3.927   6.214 -1.9889 -0.8906 -0.7557
 7720SOL    HW234794   1.247   4.021   6.149 -0.4278  1.2182 -2.5356
 7721SOL     OW34795   0.022   0.018   2.049 -0.3511 -0.4554 -0.2973
 7721SOL    HW134796   0.031   4.662   2.078 -0.2507 -0.5901 -0.7451
 7721SOL    HW234797   0.065   0.009   1.963  0.5942 -0.0902  0.1290
 7722SOL     OW34798   2.364   0.934   2.430 -0.0932  0.1422  0.0901
 7722SOL    HW134799   2.430   1.000   2.450  1.3100 -1.0716 -0.4755
 7722SOL    HW234800   2.428   0.868   2.402 -1.4813 -1.6803  1.1883
 7723SOL     OW34801   3.940   4.470   6.881  0.3942 -0.2591 -0.7085
 7723SOL    HW134802   3.897   4.545   6.922 -1.9364 -2.2880  0.5508
 7723SOL    HW234803   3.937   4.408   6.954 -2.3714 -1.5833 -1.9538
 7724SOL     OW34804   0.404   0.455   5.680 -0.3811  0.3578 -0.0636
 7724SOL    HW134805   0.312   0.479   5.694 -1.0198 -1.6630 -0.8632
 7724SOL    HW234806   0.405   0.478   5.587 -1.0368  0.0448 -0.1446
 7725SOL     OW34807   3.468   3.758   6.770  0.2472  0.7922  0.0339
 7725SOL    HW134808   3.452   3.784   6.679  0.0771  0.2667 -0.0873
 7725SOL    HW234809   3.562   3.737   6.770  0.0222 -0.2166 -0.2999
 7726SOL     OW34810   0.535   2.547   2.157  0.1249  0.6761 -0.1583
 7726SOL    HW134811   0.579   2.570   2.238  0.5447 -2.2383  0.4271
 7726SOL    HW234812   0.621   2.535   2.116 -0.7386 -1.7740 -1.2231
 7727SOL     OW34813   3.557   3.596  16.281  0.1667  0.3480 -0.9550
 7727SOL    HW134814   3.505   3.588  16.201 -2.2911 -0.3524  0.7119
 7727SOL    HW234815   3.486   3.624  16.339  1.1930 -2.0920  1.4814
 7728SOL     OW34816   1.975   2.289   2.190  0.1086  0.5975  0.3937
 7728SOL    HW134817   2.022   2.208   2.171  0.3036  1.3678 -2.2684
 7728SOL    HW234818   2.008   2.342   2.118 -1.2260  0.7275 -0.1150
 7729SOL     OW34819   4.240   1.848   4.436 -0.0546 -0.1322  0.0926
 7729SOL    HW134820   4.214   1.940   4.441  1.6854  0.3038  1.3244
 7729SOL    HW234821   4.162   1.818   4.482  1.2769 -3.1934  0.3118
 7730SOL     OW34822   1.967   1.189   6.182 -0.1208  0.1095 -0.2954
 7730SOL    HW134823   1.918   1.256   6.231 -1.9579 -2.7869  1.8630
 7730SOL    HW234824   1.938   1.119   6.241  1.2958  0.0270  0.3018
 7731SOL     OW34825   4.723   2.667   7.751 -0.0949 -0.3101 -0.2661
 7731SOL    HW134826   4.635   2.638   7.729  0.2665 -1.6681  0.0643
 7731SOL    HW234827   0.026   2.581   7.771  0.8833 -0.0982 -1.2408
 7732SOL     OW34828   1.270   3.366   4.406  0.2376 -0.2080  0.2073
 7732SOL    HW134829   1.210   3.373   4.331  0.5192  0.3903  0.0309
 7732SOL    HW234830   1.242   3.441   4.459  0.8173 -0.3861  0.7674
 7733SOL     OW34831   4.730   2.400   5.352 -0.2134 -0.5556 -0.2721
 7733SOL    HW134832   0.038   2.364   5.430  1.6133  1.0444 -0.5404
 7733SOL    HW234833   0.041   2.345   5.289 -0.1018 -0.0994 -0.5806
 7734SOL     OW34834   2.118   4.436   8.713  0.3122 -0.2227 -0.5680
 7734SOL    HW134835   2.186   4.379   8.748  0.4481  0.6159  0.5363
 7734SOL    HW234836   2.159   4.522   8.717  0.6900 -0.3366 -2.1987
 7735SOL     OW34837   4.581   1.641  12.164  0.2140  0.3488 -0.5815
 7735SOL    HW134838   4.555   1.722  12.207 -0.3971  0.2480 -0.7635
 7735SOL    HW234839   4.665   1.622  12.207  0.6998  2.5449 -0.5932
 7736SOL     OW34840   2.656   0.813   6.490 -0.2721 -0.6641 -0.5451
 7736SOL    HW134841   2.690   0.848   6.408  0.3247 -1.0743 -0.4765
 7736SOL    HW234842   2.566   0.795   6.464 -0.6144  1.1670 -0.6079
 7737SOL     OW34843   3.753   4.225   7.609 -0.2756 -0.8124  0.3484
 7737SOL    HW134844   3.690   4.237   7.680  1.0856  0.3940  1.3508
 7737SOL    HW234845   3.826   4.177   7.647  0.6529  0.2818 -0.0524
 7738SOL     OW34846   2.638   2.830  11.226 -0.0746  0.0027  0.1476
 7738SOL    HW134847   2.714   2.864  11.273 -1.0256  0.8435  1.0645
 7738SOL    HW234848   2.622   2.743  11.264  0.5500  0.2782  1.0330
 7739SOL     OW34849   4.677   4.492   5.651  0.2300  0.4177  0.1574
 7739SOL    HW134850   4.668   4.408   5.605 -0.7269 -0.7252  2.4744
 7739SOL    HW234851   4.698   4.541   5.571 -2.1981 -0.0881 -0.8130
 7740SOL     OW34852   1.226   3.658  12.250 -0.2617 -0.5273  0.0471
 7740SOL    HW134853   1.271   3.576  12.233 -1.0689 -0.4545 -2.5003
 7740SOL    HW234854   1.139   3.630  12.279 -0.7906  1.9742  0.8850
 7741SOL     OW34855   0.562   0.457   8.204  0.0567  0.2558  0.3946
 7741SOL    HW134856   0.540   0.524   8.139  0.6952  1.2579  1.2150
 7741SOL    HW234857   0.650   0.440   8.168 -0.5683 -1.4763 -0.3266
 7742SOL     OW34858   4.224   0.253   2.450  0.3122  0.0762 -0.0580
 7742SOL    HW134859   4.251   0.206   2.372 -2.6683 -1.3921 -0.2102
 7742SOL    HW234860   4.302   0.257   2.504  0.4286  0.3909 -0.2526
 7743SOL     OW34861   3.306   3.078   1.927 -0.2720 -0.0268 -0.0672
 7743SOL    HW134862   3.296   3.172   1.943  2.0507 -0.2386  2.6683
 7743SOL    HW234863   3.399   3.072   1.950  0.0572 -0.8900 -1.6542
 7744SOL     OW34864   1.554   2.391   4.891  0.5779  0.1815  0.1931
 7744SOL    HW134865   1.595   2.478   4.892  0.6316  0.1710 -0.5235
 7744SOL    HW234866   1.634   2.350   4.857  0.5975  1.4545 -1.3004
 7745SOL     OW34867   0.162   3.271   5.027  0.3481  0.0534 -0.0537
 7745SOL    HW134868   0.123   3.187   5.003  2.4552 -1.0544  0.3867
 7745SOL    HW234869   0.233   3.249   5.088  0.1268 -1.3857 -0.3193
 7746SOL     OW34870   3.785   1.230   5.137  0.1055  0.1398 -0.1507
 7746SOL    HW134871   3.706   1.201   5.182  1.0073  1.7498  2.4961
 7746SOL    HW234872   3.812   1.154   5.087 -3.8112 -1.6698  0.4921
 7747SOL     OW34873   0.775   2.712   5.084  0.1632 -0.1531  0.4898
 7747SOL    HW134874   0.831   2.693   5.009 -1.2627 -1.0473 -0.3459
 7747SOL    HW234875   0.780   2.636   5.143 -0.9864 -1.1935 -0.7538
 7748SOL     OW34876   2.811   2.774   6.206 -0.1296  0.1203  0.0058
 7748SOL    HW134877   2.868   2.710   6.163  1.3878  0.3863  1.6348
 7748SOL    HW234878   2.876   2.828   6.250  0.2086 -1.2920  1.2375
 7749SOL     OW34879   2.614   3.849   5.218 -0.3248  0.0912  0.7792
 7749SOL    HW134880   2.526   3.875   5.193 -0.3908  0.5665  1.5240
 7749SOL    HW234881   2.609   3.762   5.257  2.1451 -0.4656 -0.1511
 7750SOL     OW34882   4.534   3.027   6.539  0.0443 -0.1161 -0.1692
 7750SOL    HW134883   4.608   3.081   6.564 -0.3704  0.4464 -0.1590
 7750SOL    HW234884   4.474   3.049   6.611  2.8088 -1.5326  2.5690
 7751SOL     OW34885   0.214   0.278   9.863  0.0747  0.0047 -0.0485
 7751SOL    HW134886   0.257   0.211   9.915 -0.3184  0.5239  0.9334
 7751SOL    HW234887   0.255   0.264   9.777  1.1595  1.4189  0.2326
 7752SOL     OW34888   0.293   2.652  11.428  0.1623 -0.2281  0.1562
 7752SOL    HW134889   0.305   2.707  11.506  0.7322 -0.9507  0.5887
 7752SOL    HW234890   0.283   2.710  11.353  1.1408  1.1078  1.0581
 7753SOL     OW34891   3.083   2.460  15.290 -0.0934  0.1441 -0.3788
 7753SOL    HW134892   3.128   2.532  15.246  0.2424  0.5542  0.6352
 7753SOL    HW234893   3.117   2.376  15.257 -0.7630 -0.2045 -0.1811
 7754SOL     OW34894   0.695   2.262   2.046  0.1084 -0.1380  0.2869
 7754SOL    HW134895   0.674   2.264   1.952 -0.1426  0.3247  0.3517
 7754SOL    HW234896   0.781   2.304   2.047 -0.5648  1.2105  1.5283
 7755SOL     OW34897   3.840   4.717   0.493  0.0364  0.0510 -1.0484
 7755SOL    HW134898   3.935   4.726   0.500  0.1610 -1.0697 -1.3996
 7755SOL    HW234899   3.821   4.707   0.586 -1.1496  1.7948 -1.1049
 7756SOL     OW34900   3.500   2.402   3.395 -0.8028 -0.4662 -0.2707
 7756SOL    HW134901   3.474   2.387   3.305 -0.3841  0.7292 -0.5974
 7756SOL    HW234902   3.437   2.345   3.438  0.8999 -1.9039  0.3452
 7757SOL     OW34903   0.590   3.827   5.606 -0.0234  0.3552 -0.2668
 7757SOL    HW134904   0.542   3.746   5.590 -0.3198  0.4806 -0.0082
 7757SOL    HW234905   0.672   3.817   5.558  0.7640  1.5007  0.8255
 7758SOL     OW34906   0.048   0.474  15.595 -0.0889  0.1720 -0.4214
 7758SOL    HW134907   0.068   0.390  15.552 -0.6376 -0.2619  0.1728
 7758SOL    HW234908   0.075   0.531  15.523  1.3512 -0.3608 -0.3039
 7759SOL     OW34909   4.308   0.922  16.076  0.0636  0.3268 -0.2171
 7759SOL    HW134910   4.367   0.864  16.028  1.0960  2.1729 -1.1743
 7759SOL    HW234911   4.301   0.876  16.160  1.6021  1.9048  0.7568
 7760SOL     OW34912   0.857   4.368   9.377 -0.2599 -0.1070  0.7998
 7760SOL    HW134913   0.866   4.283   9.335  1.6079 -0.3295  1.6169
 7760SOL    HW234914   0.812   4.414   9.306  2.9880  2.2093  0.2047
 7761SOL     OW34915   2.783   1.020   4.190  0.3143 -0.1401  0.4784
 7761SOL    HW134916   2.690   1.037   4.174  0.2127 -0.4753  0.7059
 7761SOL    HW234917   2.818   1.097   4.145 -0.4189  0.1791  0.4477
 7762SOL     OW34918   4.078   3.125   2.457 -0.1732  0.2693 -0.1073
 7762SOL    HW134919   4.113   3.190   2.397  0.0930 -0.7455 -1.0407
 7762SOL    HW234920   4.065   3.184   2.532 -1.6818  2.5343 -2.1378
 7763SOL     OW34921   0.044   0.504   4.906 -0.0608  0.1566  0.1325
 7763SOL    HW134922   0.078   0.427   4.859 -0.7969 -0.0816 -0.0043
 7763SOL    HW234923   0.120   0.527   4.960  0.2282 -2.3845  0.7927
 7764SOL     OW34924   2.483   2.099  13.829 -0.1147  0.5821 -0.0792
 7764SOL    HW134925   2.452   2.186  13.854 -0.6315  0.4471 -0.2456
 7764SOL    HW234926   2.416   2.042  13.868 -0.2717  0.1527 -0.9797
 7765SOL     OW34927   3.780   4.294   5.420  0.2696 -0.3687 -0.5048
 7765SOL    HW134928   3.860   4.330   5.381  0.7409 -1.3332 -0.4214
 7765SOL    HW234929   3.815   4.248   5.495  0.0408 -0.9131 -0.7327
 7766SOL     OW34930   4.693   1.908   7.074  0.1307  0.2773 -0.3812
 7766SOL    HW134931   4.598   1.898   7.069  0.0279  1.5319 -0.8477
 7766SOL    HW234932   4.700   1.878   7.165 -0.8293  1.5914  0.1194
 7767SOL     OW34933   1.643   3.406   7.517 -0.5649  0.0208 -0.7689
 7767SOL    HW134934   1.729   3.430   7.552 -1.3821  1.3725  0.2949
 7767SOL    HW234935   1.623   3.335   7.578 -0.9560  0.5213 -0.3183
 7768SOL     OW34936   0.026   1.961  11.091  0.1884 -0.2146 -0.4461
 7768SOL    HW134937   4.689   1.922  11.140 -0.0833  0.0054 -0.6701
 7768SOL    HW234938   0.056   2.030  11.151  0.2227  0.6788 -1.4809
 7769SOL     OW34939   4.191   0.757   3.888  0.0539  0.2101 -0.1152
 7769SOL    HW134940   4.122   0.765   3.822 -0.7942  1.5221  0.9226
 7769SOL    HW234941   4.262   0.807   3.847  1.5257 -0.6742  1.3508
 7770SOL     OW34942   2.520   1.481   8.390  1.0121 -0.2242  0.1638
 7770SOL    HW134943   2.608   1.494   8.426  0.6436 -0.4892  1.1869
 7770SOL    HW234944   2.488   1.571   8.396  0.2143 -0.4835 -0.2438
 7771SOL     OW34945   0.882   4.537   7.343  0.2809 -0.3814 -0.0704
 7771SOL    HW134946   0.822   4.510   7.273 -0.1886  1.7583 -0.5066
 7771SOL    HW234947   0.967   4.558   7.306  1.1198 -0.9693  1.5526
 7772SOL     OW34948   2.845   2.090   7.413 -0.4364 -0.2185  0.0327
 7772SOL    HW134949   2.920   2.116   7.360 -1.8769  0.4280 -1.6670
 7772SOL    HW234950   2.866   2.124   7.500  1.8062 -1.1234 -0.1734
 7773SOL     OW34951   2.154   2.594   5.552 -0.2583 -0.0373  0.1606
 7773SOL    HW134952   2.085   2.660   5.562 -0.2497  0.0292 -0.2060
 7773SOL    HW234953   2.232   2.646   5.537  1.3890 -2.4321  0.4807
 7774SOL     OW34954   0.751   1.677  11.825  0.7178 -0.0389  0.0722
 7774SOL    HW134955   0.664   1.655  11.858  0.3226  0.8422 -0.3821
 7774SOL    HW234956   0.720   1.746  11.765 -0.6992 -0.5020  0.2868
 7775SOL     OW34957   3.941   1.676   0.102  0.0975  0.3702  0.0242
 7775SOL    HW134958   4.001   1.601   0.103  0.5996  0.7518 -1.8245
 7775SOL    HW234959   3.945   1.712   0.190 -0.4044  1.8342 -0.5619
 7776SOL     OW34960   2.289   1.869  10.023  0.1868  0.6719 -0.0007
 7776SOL    HW134961   2.361   1.930  10.043  2.5027 -1.7493 -0.9423
 7776SOL    HW234962   2.255   1.929   9.957  2.0864  2.1326  0.3328
 7777SOL     OW34963   4.443   3.341   1.685  0.5032  0.2673  0.0670
 7777SOL    HW134964   4.532   3.351   1.651  0.4742 -2.0167 -0.7181
 7777SOL    HW234965   4.399   3.299   1.611  0.9433 -1.4938  0.8020
 7778SOL     OW34966   2.496   4.607  12.454  0.3357 -0.5024 -0.0257
 7778SOL    HW134967   2.438   4.645  12.520 -1.2145  0.9578 -2.2597
 7778SOL    HW234968   2.543   4.686  12.428 -0.2403 -1.1909 -3.1503
 7779SOL     OW34969   3.980   0.265  14.188 -0.3358  0.0227  0.4513
 7779SOL    HW134970   3.936   0.193  14.232 -1.8183 -0.2074 -1.4432
 7779SOL    HW234971   3.929   0.341  14.218 -0.6132 -0.5839  1.4949
 7780SOL     OW34972   0.401   0.926   4.744  0.1920  0.7780  0.8487
 7780SOL    HW134973   0.417   0.931   4.838  0.0125  0.7725  0.8786
 7780SOL    HW234974   0.418   1.018   4.724 -1.6060  0.8277 -0.3955
 7781SOL     OW34975   0.756   1.457   7.225 -0.1316  0.0239  0.8081
 7781SOL    HW134976   0.691   1.414   7.281  0.4655 -0.9928  0.7365
 7781SOL    HW234977   0.720   1.450   7.137  1.7646 -0.4404  0.0707
 7782SOL     OW34978   1.432   0.943   0.412 -0.0988  0.2988 -0.0965
 7782SOL    HW134979   1.420   0.984   0.497 -0.2767 -0.4954  0.2553
 7782SOL    HW234980   1.477   0.861   0.431  0.2901  1.0036  1.9735
 7783SOL     OW34981   1.961   4.107   6.655 -0.2753 -0.0333 -0.1203
 7783SOL    HW134982   1.899   4.132   6.723  2.0425  2.8364  0.9098
 7783SOL    HW234983   2.045   4.126   6.696 -1.5929  1.2953  1.9721
 7784SOL     OW34984   3.122   2.814   3.513 -0.3940 -0.3161 -0.2475
 7784SOL    HW134985   3.215   2.828   3.530 -0.4327 -1.2445  0.6911
 7784SOL    HW234986   3.083   2.828   3.600  0.7808 -4.0947  0.8616
 7785SOL     OW34987   4.043   2.298   7.354 -0.2348  0.2341  0.0413
 7785SOL    HW134988   4.003   2.383   7.371  0.3018  0.3687  0.6083
 7785SOL    HW234989   4.075   2.309   7.265  0.6308 -1.0399  0.2036
 7786SOL     OW34990   4.325   1.484   5.779 -0.0695  0.3188 -0.6522
 7786SOL    HW134991   4.377   1.463   5.701  1.4978  0.6631  0.3019
 7786SOL    HW234992   4.387   1.541   5.824 -1.4691  3.7503 -3.0363
 7787SOL     OW34993   2.940   4.353  13.631 -0.0161 -0.2800  0.1460
 7787SOL    HW134994   2.961   4.365  13.539 -3.1099 -1.6795 -0.7067
 7787SOL    HW234995   2.900   4.266  13.627  1.8456 -1.2398  1.8735
 7788SOL     OW34996   2.794   1.704  13.453 -0.1505 -0.1262 -0.0487
 7788SOL    HW134997   2.762   1.702  13.544 -0.0759 -0.6677 -0.0351
 7788SOL    HW234998   2.783   1.616  13.418  0.7005 -0.1197 -0.3260
 7789SOL     OW34999   1.566   2.079   8.701  0.1377 -0.0051 -0.3999
 7789SOL    HW135000   1.620   2.062   8.778  1.0950  1.2962 -0.7688
 7789SOL    HW235001   1.573   2.004   8.642  1.4679 -0.4350  0.3065
 7790SOL     OW35002   1.172   0.809   2.889  0.2004  0.1001 -0.3122
 7790SOL    HW135003   1.125   0.797   2.806 -0.5981 -1.0770  0.3096
 7790SOL    HW235004   1.098   0.799   2.949  2.2641 -0.2018  2.1659
 7791SOL     OW35005   2.478   0.558   3.421 -0.1147 -0.5904 -0.1495
 7791SOL    HW135006   2.415   0.500   3.463 -0.3271  1.3048  2.1686
 7791SOL    HW235007   2.421   0.608   3.363 -1.4016 -1.1103  0.6621
 7792SOL     OW35008   0.238   0.100   3.561  0.1640  0.1125 -0.4516
 7792SOL    HW135009   0.325   0.072   3.532  1.6480  2.3488  1.8321
 7792SOL    HW235010   0.223   0.177   3.506  2.0443 -0.2573 -1.5001
 7793SOL     OW35011   1.371   0.259   7.582  0.1183 -0.0256  0.2100
 7793SOL    HW135012   1.332   0.196   7.642  0.6312  0.1736  0.7520
 7793SOL    HW235013   1.350   0.348   7.610 -1.0750 -0.8964  2.0893
 7794SOL     OW35014   0.524   1.153   8.553  0.2992 -0.1884 -0.0796
 7794SOL    HW135015   0.606   1.122   8.515  0.7733 -0.8321  1.4646
 7794SOL    HW235016   0.474   1.075   8.574  1.5300 -0.4131  2.0021
 7795SOL     OW35017   0.030   2.115  16.666  0.2462  0.4238  0.1056
 7795SOL    HW135018   4.674   2.128  16.692  0.1944  1.1047 -0.4217
 7795SOL    HW235019   0.063   2.200  16.637 -0.4839  0.9834  0.9427
 7796SOL     OW35020   4.372   1.499   3.548 -0.3875 -0.2941  0.1865
 7796SOL    HW135021   4.304   1.565   3.562 -0.0020 -0.0698  1.0350
 7796SOL    HW235022   4.325   1.437   3.492 -0.8429 -1.9644  2.4127
 7797SOL     OW35023   3.610   1.296   5.739 -0.6145  0.5218  0.1255
 7797SOL    HW135024   3.702   1.314   5.757 -0.5310 -0.8043  1.0208
 7797SOL    HW235025   3.603   1.200   5.744  2.4739  0.4092  1.7201
 7798SOL     OW35026   1.831   3.315   7.901  0.1213  0.5974  0.4470
 7798SOL    HW135027   1.791   3.258   7.967 -1.4094 -0.9023 -1.7353
 7798SOL    HW235028   1.922   3.303   7.925 -0.5700 -3.1187  1.3417
 7799SOL     OW35029   4.078   3.419   5.430 -0.2418 -0.0306 -0.1632
 7799SOL    HW135030   4.106   3.501   5.391 -0.3237 -0.4372 -1.0936
 7799SOL    HW235031   4.131   3.427   5.509  1.4772 -0.4320 -1.2657
 7800SOL     OW35032   2.649   0.690   4.641 -0.8111  0.0884 -0.3098
 7800SOL    HW135033   2.564   0.658   4.671  0.0681 -0.1460  1.9132
 7800SOL    HW235034   2.709   0.668   4.712 -0.3295  0.5802 -0.5621
 7801SOL     OW35035   1.621   0.785   5.380  0.2253  0.3232 -0.4251
 7801SOL    HW135036   1.565   0.713   5.408  2.3264 -0.9929  0.3755
 7801SOL    HW235037   1.632   0.775   5.286  2.5265  0.0374 -0.1352
 7802SOL     OW35038   3.847   1.143   0.717 -0.3022 -0.3239  0.1377
 7802SOL    HW135039   3.860   1.048   0.718 -0.1764 -0.2951  1.4137
 7802SOL    HW235040   3.927   1.169   0.761  0.4299  0.4091 -1.6344
 7803SOL     OW35041   3.364   2.266   2.972 -0.3380 -0.1830 -0.4049
 7803SOL    HW135042   3.445   2.248   3.020 -0.0161 -2.0937 -1.6961
 7803SOL    HW235043   3.386   2.225   2.889 -1.1894  1.8810 -1.6710
 7804SOL     OW35044   1.276   4.197   9.934  0.3841  0.2589 -0.3461
 7804SOL    HW135045   1.272   4.241  10.019 -0.9392  0.3654 -0.4554
 7804SOL    HW235046   1.241   4.110   9.955 -0.9495  0.8832  0.0573
 7805SOL     OW35047   1.523   1.361  12.092 -0.0676 -0.0006  0.4255
 7805SOL    HW135048   1.597   1.420  12.075  0.2794 -0.5118  0.1722
 7805SOL    HW235049   1.448   1.419  12.073  0.2052 -0.3391 -1.6847
 7806SOL     OW35050   2.686   1.494   1.220 -0.3089 -0.7380  0.1378
 7806SOL    HW135051   2.660   1.470   1.131 -0.1256  1.1063 -0.4063
 7806SOL    HW235052   2.636   1.429   1.270 -0.4752 -0.2416  0.6215
 7807SOL     OW35053   1.204   2.780   6.473 -0.6631  0.3401  0.4201
 7807SOL    HW135054   1.208   2.708   6.537 -0.5511 -1.7545 -1.9437
 7807SOL    HW235055   1.148   2.845   6.514 -2.0643 -0.9632  0.5794
 7808SOL     OW35056   0.802   2.300  12.359  0.9394  0.1513 -0.0573
 7808SOL    HW135057   0.742   2.352  12.306  0.5344 -1.9771 -1.6678
 7808SOL    HW235058   0.757   2.216  12.348 -0.6532  1.1670 -1.2338
 7809SOL     OW35059   0.721   3.258   5.472 -0.1105 -0.3020  0.1795
 7809SOL    HW135060   0.680   3.266   5.558  0.6509 -0.2695  0.5430
 7809SOL    HW235061   0.777   3.182   5.490  1.0861  0.5626  0.1409
 7810SOL     OW35062   4.095   1.784   6.288  0.3745  0.6305  0.2665
 7810SOL    HW135063   4.133   1.840   6.356  1.9491 -0.4677  0.3077
 7810SOL    HW235064   4.017   1.829   6.256  1.3601  1.7866 -0.4943
 7811SOL     OW35065   1.639   2.920   0.581  0.1286 -0.0019 -0.1610
 7811SOL    HW135066   1.607   2.944   0.668 -2.2164 -0.4456 -0.9175
 7811SOL    HW235067   1.731   2.949   0.578 -0.1278  0.8019 -0.3968
 7812SOL     OW35068   1.426   3.783   2.301 -0.2671  0.5380 -0.3041
 7812SOL    HW135069   1.411   3.813   2.211  0.2620  0.5874 -0.3717
 7812SOL    HW235070   1.387   3.855   2.350  0.7249  1.3179 -0.6608
 7813SOL     OW35071   3.006   1.312   2.127 -0.2232  0.2610 -0.3155
 7813SOL    HW135072   2.924   1.279   2.163 -0.5493  1.0959 -0.3011
 7813SOL    HW235073   3.074   1.257   2.167 -0.6311  1.5189  2.0739
 7814SOL     OW35074   3.210   0.333   2.947 -0.0549 -0.3096  0.3722
 7814SOL    HW135075   3.164   0.355   3.029 -1.2356 -0.3181 -0.2790
 7814SOL    HW235076   3.136   0.328   2.886  0.0458  1.5023  0.1065
 7815SOL     OW35077   1.367   2.813   2.392 -0.6607  0.0172  0.4233
 7815SOL    HW135078   1.433   2.812   2.461  0.3843  0.0545 -0.5980
 7815SOL    HW235079   1.281   2.813   2.434 -0.0888  0.5216  1.5907
 7816SOL     OW35080   3.953   1.123  16.077  0.1547  0.2627 -0.5243
 7816SOL    HW135081   4.040   1.085  16.069 -1.1385 -2.6258 -0.7825
 7816SOL    HW235082   3.910   1.092  15.996  1.0917 -1.3160 -0.4061
 7817SOL     OW35083   0.102   2.443   4.092  0.3478  0.6472  0.3382
 7817SOL    HW135084   0.022   2.396   4.115  0.5717  0.3060  0.4243
 7817SOL    HW235085   0.108   2.482   4.179  1.5582  1.2636 -0.0228
 7818SOL     OW35086   3.930   0.919   1.191  0.5869 -0.3611 -0.1624
 7818SOL    HW135087   3.975   1.003   1.191 -1.2081  0.6135 -1.9094
 7818SOL    HW235088   3.841   0.943   1.219  1.7682  0.8650  2.4680
 7819SOL     OW35089   4.196   4.377  15.994 -0.6125  0.2605  0.2299
 7819SOL    HW135090   4.253   4.391  15.918  0.8125 -0.7347  1.1143
 7819SOL    HW235091   4.164   4.292  15.961  0.3596  0.5681 -1.5258
 7820SOL     OW35092   0.628   2.386  13.646  0.1101 -0.0600 -0.3671
 7820SOL    HW135093   0.702   2.358  13.593  0.8568 -0.7717  1.0261
 7820SOL    HW235094   0.666   2.450  13.707  1.0712 -0.8553 -0.1410
 7821SOL     OW35095   1.403   4.598   5.806  0.7490  0.2379 -0.0915
 7821SOL    HW135096   1.394   4.527   5.743 -1.7528 -0.3066  0.8966
 7821SOL    HW235097   1.324   4.649   5.817  0.8178  0.2587  0.3402
 7822SOL     OW35098   1.356   3.335  16.248 -0.2150  1.1488  0.0339
 7822SOL    HW135099   1.361   3.418  16.295 -0.3491  0.9938  0.3280
 7822SOL    HW235100   1.447   3.335  16.216  0.7895  0.4107  2.8584
 7823SOL     OW35101   2.001   1.452   9.060 -0.1911  0.3539  0.0113
 7823SOL    HW135102   1.956   1.535   9.042  1.1962  0.9086 -0.9521
 7823SOL    HW235103   2.090   1.484   9.073 -0.3123  1.4493 -1.8885
 7824SOL     OW35104   4.600   3.570   4.303 -0.1600  0.2517  0.0072
 7824SOL    HW135105   4.694   3.560   4.317 -0.3746  0.4491  1.5808
 7824SOL    HW235106   4.582   3.503   4.237 -2.2462 -1.4249  2.2563
 7825SOL     OW35107   1.594   4.270   3.149 -0.0568 -0.0677 -0.2025
 7825SOL    HW135108   1.598   4.335   3.219 -1.1737  0.4427 -0.6086
 7825SOL    HW235109   1.499   4.264   3.136  0.0609 -3.6517  0.7579
 7826SOL     OW35110   4.551   0.150  15.549  1.1081 -0.1645 -0.4024
 7826SOL    HW135111   4.506   0.235  15.556  2.6093  0.7193 -1.3841
 7826SOL    HW235112   4.491   0.097  15.602  1.8833  0.1628  0.8090
 7827SOL     OW35113   4.258   0.942   4.469  0.2258 -0.2324 -0.2579
 7827SOL    HW135114   4.272   0.852   4.439 -1.0370 -0.5174  0.0241
 7827SOL    HW235115   4.165   0.952   4.452  0.8574  3.5043 -1.3354
 7828SOL     OW35116   0.815   0.383  11.823 -0.6536 -0.2441  0.3888
 7828SOL    HW135117   0.794   0.468  11.861  0.8848  0.4630 -0.3540
 7828SOL    HW235118   0.889   0.357  11.878  2.2214  0.5886 -3.0938
 7829SOL     OW35119   0.227   2.691   2.634 -0.6208  0.1431 -0.0292
 7829SOL    HW135120   0.246   2.664   2.545  1.0853 -0.6710  0.5740
 7829SOL    HW235121   0.145   2.647   2.657  0.4309 -2.2551 -0.8755
 7830SOL     OW35122   4.390   3.606   4.496 -0.0635  0.3088 -0.1612
 7830SOL    HW135123   4.412   3.647   4.579 -1.9596 -0.1622  0.5823
 7830SOL    HW235124   4.470   3.609   4.443  0.2389  0.6696  0.3266
 7831SOL     OW35125   4.338   0.190   0.938 -0.3297 -0.1209 -0.3317
 7831SOL    HW135126   4.377   0.103   0.942 -0.9332 -0.3493  0.7051
 7831SOL    HW235127   4.290   0.185   0.856 -0.1134  2.0448 -0.5976
 7832SOL     OW35128   2.458   0.080   5.278  0.0414  0.2527  0.1835
 7832SOL    HW135129   2.467   4.729   5.237  2.5332  1.4880 -1.8333
 7832SOL    HW235130   2.542   0.123   5.265 -2.1716  3.6749 -2.5759
 7833SOL     OW35131   2.451   4.069   2.031 -0.0342  0.3859 -0.0282
 7833SOL    HW135132   2.356   4.061   2.024  0.0629 -0.8366  0.0979
 7833SOL    HW235133   2.460   4.097   2.122 -1.0494 -0.1947  0.2476
 7834SOL     OW35134   1.508   3.530   9.291 -0.3857  0.4983 -0.1649
 7834SOL    HW135135   1.598   3.545   9.261  0.2542 -2.5369  0.2220
 7834SOL    HW235136   1.478   3.476   9.217  0.2334  0.9908 -0.7794
 7835SOL     OW35137   3.835   0.867   3.228 -0.7737 -0.0348 -0.7408
 7835SOL    HW135138   3.818   0.777   3.199  1.1947 -0.8341  0.5630
 7835SOL    HW235139   3.819   0.905   3.142 -0.0427 -0.3965 -1.0453
 7836SOL     OW35140   2.931   0.182   9.211  0.1654 -0.5106  0.2147
 7836SOL    HW135141   2.867   0.236   9.163  1.2878  0.9398  0.3536
 7836SOL    HW235142   2.963   0.242   9.278  1.7431 -1.7204  0.5321
 7837SOL     OW35143   3.455   4.704   5.794 -0.1259 -0.0496  0.7241
 7837SOL    HW135144   3.389   4.735   5.856 -0.0823  0.7068  0.3916
 7837SOL    HW235145   3.406   4.632   5.753  1.9046 -0.8708 -0.2663
 7838SOL     OW35146   3.342   2.887   3.843  0.5093 -0.2840 -0.3629
 7838SOL    HW135147   3.376   2.858   3.928  0.3104 -0.4537 -0.3407
 7838SOL    HW235148   3.421   2.867   3.793  0.4325  2.2063 -1.5023
 7839SOL     OW35149   0.007   3.225   7.080 -0.1605 -0.2469  0.0152
 7839SOL    HW135150   0.100   3.215   7.100 -0.2894 -1.5766 -0.0393
 7839SOL    HW235151   4.713   3.261   7.164 -0.6292 -1.0724  0.2103
 7840SOL     OW35152   0.211   2.169   3.818  0.2918  0.1513  0.4011
 7840SOL    HW135153   0.162   2.249   3.800  1.8160  1.3103  1.3847
 7840SOL    HW235154   0.142   2.106   3.798  0.9550 -0.9443  1.5246
 7841SOL     OW35155   1.464   4.232  12.006 -0.3590  0.4874 -0.1102
 7841SOL    HW135156   1.445   4.267  12.093 -0.7391 -0.3880  0.1627
 7841SOL    HW235157   1.464   4.138  12.025  1.4105  0.4742 -0.2429
 7842SOL     OW35158   4.656   1.053   2.212  0.4683  0.1444  0.5209
 7842SOL    HW135159   4.683   0.998   2.286  0.9436  1.9680  1.6958
 7842SOL    HW235160   4.693   1.139   2.233 -0.3761  0.5731  0.2575
 7843SOL     OW35161   3.718   2.789   7.578 -0.5988 -0.3946  0.2261
 7843SOL    HW135162   3.755   2.854   7.638  0.0658  0.9186 -1.6062
 7843SOL    HW235163   3.624   2.778   7.595 -0.6787 -0.0243  0.0387
 7844SOL     OW35164   1.483   3.506   1.101  0.4950 -0.1598 -0.2799
 7844SOL    HW135165   1.530   3.470   1.177  1.2511  0.1528 -0.6073
 7844SOL    HW235166   1.394   3.503   1.137 -0.8170 -1.9570 -3.7426
 7845SOL     OW35167   0.829   0.978   3.689 -0.0523  0.0067 -0.0975
 7845SOL    HW135168   0.744   0.936   3.701  0.6416 -1.1368  0.7117
 7845SOL    HW235169   0.865   0.941   3.608  1.4826  0.7786  0.2330
 7846SOL     OW35170   3.303   3.986   2.543 -0.0643  0.8232  0.1721
 7846SOL    HW135171   3.275   3.944   2.625 -1.8375 -0.3957 -1.0341
 7846SOL    HW235172   3.242   3.944   2.482  0.8536 -0.1237 -0.1004
 7847SOL     OW35173   1.331   3.807   4.244 -0.0661 -0.1130  0.2190
 7847SOL    HW135174   1.326   3.790   4.338  1.1443 -0.5202  0.2031
 7847SOL    HW235175   1.261   3.868   4.219  0.0129 -0.0741  0.0945
 7848SOL     OW35176   1.297   1.976   5.759  0.3647  0.5109  0.0254
 7848SOL    HW135177   1.305   1.931   5.675  2.5149  1.0886 -0.0802
 7848SOL    HW235178   1.388   2.003   5.772 -0.0811  1.5696  0.8764
 7849SOL     OW35179   4.586   3.619   9.162  0.6014  0.6004  0.1960
 7849SOL    HW135180   4.549   3.667   9.237  2.4717  0.0383  1.4710
 7849SOL    HW235181   4.529   3.542   9.157  1.2139  0.1282  0.5438
 7850SOL     OW35182   2.844   1.353   7.223  0.0736 -0.1510  0.6316
 7850SOL    HW135183   2.783   1.412   7.179  2.2407 -0.5686 -2.9380
 7850SOL    HW235184   2.924   1.404   7.224  0.1334 -0.2157 -0.6853
 7851SOL     OW35185   0.653   1.358   8.234 -0.2394 -0.2420  0.1163
 7851SOL    HW135186   0.668   1.294   8.304  3.8202  0.7211  0.0913
 7851SOL    HW235187   0.726   1.348   8.173  1.7785  2.1278  2.1488
 7852SOL     OW35188   0.023   2.316   7.023 -0.2151 -0.3032  0.0247
 7852SOL    HW135189   0.068   2.273   7.096  1.8554 -1.5289 -1.9778
 7852SOL    HW235190   0.093   2.365   6.980 -0.4187 -1.7339 -1.9310
 7853SOL     OW35191   3.810   0.745   6.902  0.0667 -0.2949 -0.7711
 7853SOL    HW135192   3.852   0.679   6.846 -0.4825 -1.0670 -0.2764
 7853SOL    HW235193   3.726   0.755   6.857 -0.4349 -0.4936  0.1150
 7854SOL     OW35194   2.751   4.281   4.277 -0.8697 -0.2785  0.2950
 7854SOL    HW135195   2.751   4.280   4.373  0.4078 -0.6715  0.2959
 7854SOL    HW235196   2.674   4.226   4.262  0.5346 -2.3335  0.5834
 7855SOL     OW35197   2.046   4.585   7.432 -0.2439  0.2373  0.3123
 7855SOL    HW135198   2.113   4.572   7.365 -0.0148  4.3010 -0.2586
 7855SOL    HW235199   2.087   4.654   7.484  0.2412  0.3056 -0.1535
 7856SOL     OW35200   2.990   3.548   3.862  0.1124  0.0271  0.0163
 7856SOL    HW135201   2.993   3.454   3.881  0.4728  0.1645  0.6477
 7856SOL    HW235202   3.026   3.575   3.947  0.4530 -1.6107  0.3910
 7857SOL     OW35203   2.051   4.263  15.109 -0.1416 -0.0789 -0.3826
 7857SOL    HW135204   2.020   4.294  15.024  0.8315  0.3570 -0.5711
 7857SOL    HW235205   2.029   4.341  15.160  0.6510  0.0589 -0.2499
 7858SOL     OW35206   1.835   0.565   9.312  0.7400 -0.0326 -0.0435
 7858SOL    HW135207   1.865   0.606   9.392 -1.1979  0.8845  0.2259
 7858SOL    HW235208   1.777   0.496   9.343 -1.5990  2.2808  0.8358
 7859SOL     OW35209   4.299   4.202  11.743  0.0750  0.3683 -0.2551
 7859SOL    HW135210   4.356   4.189  11.668  2.4905  0.5625  1.5673
 7859SOL    HW235211   4.367   4.244  11.796 -0.5236  1.6668 -0.4974
 7860SOL     OW35212   2.033   0.375  13.242  0.2876 -0.0775 -0.3057
 7860SOL    HW135213   2.004   0.426  13.317 -0.7297 -0.1502 -0.6412
 7860SOL    HW235214   1.953   0.322  13.235  0.2391  0.0820 -1.0009
 7861SOL     OW35215   2.482   3.019   2.183 -0.6544  0.6810 -0.1407
 7861SOL    HW135216   2.560   3.032   2.129  0.4122 -0.3230  1.1190
 7861SOL    HW235217   2.430   2.957   2.133  2.4145 -0.3912 -1.9873
 7862SOL     OW35218   0.764   1.786   4.510  0.1804 -0.3886  0.4162
 7862SOL    HW135219   0.774   1.708   4.455  0.4500 -1.3931  1.8752
 7862SOL    HW235220   0.850   1.785   4.553  0.3898  0.5575  0.0278
 7863SOL     OW35221   2.032   0.417   4.716  0.2866 -0.7452  0.3910
 7863SOL    HW135222   2.023   0.435   4.810  1.3612  0.4405  0.2604
 7863SOL    HW235223   2.103   0.354   4.715  1.6363  0.7771 -0.1825
 7864SOL     OW35224   2.119   3.509  14.104  0.6276 -0.2906  0.3440
 7864SOL    HW135225   2.193   3.562  14.074  2.1767 -1.5477  2.0005
 7864SOL    HW235226   2.057   3.531  14.034  0.5203  1.3458  0.9642
 7865SOL     OW35227   4.703   3.493   0.261 -0.7820  0.0696  0.0142
 7865SOL    HW135228   4.666   3.437   0.192 -1.0912 -3.0868  2.7131
 7865SOL    HW235229   0.054   3.492   0.220 -1.2484  1.9838 -0.9761
 7866SOL     OW35230   2.723   4.291   5.546 -0.6157 -0.9685 -0.2251
 7866SOL    HW135231   2.789   4.229   5.514 -0.0245 -0.6316  0.3690
 7866SOL    HW235232   2.720   4.350   5.471 -0.0844 -0.7981 -0.1088
 7867SOL     OW35233   3.511   3.978   0.188 -0.3627  0.1578  0.0517
 7867SOL    HW135234   3.537   4.037   0.258  2.6053 -1.5724  0.4440
 7867SOL    HW235235   3.599   3.942   0.176 -0.1277  0.9035 -0.4923
 7868SOL     OW35236   1.644   2.708  12.813 -0.4243  0.1760  0.3634
 7868SOL    HW135237   1.694   2.686  12.892  0.1595 -0.3057 -0.1381
 7868SOL    HW235238   1.705   2.735  12.744  0.8993  2.3212  2.3758
 7869SOL     OW35239   2.662   4.040  12.750  0.2758 -0.4295  0.4392
 7869SOL    HW135240   2.699   3.959  12.714 -3.4917 -1.6804 -0.6449
 7869SOL    HW235241   2.607   4.013  12.824  0.9680 -3.5051 -0.1593
 7870SOL     OW35242   3.667   3.942   4.790  0.1971  0.1538 -0.1707
 7870SOL    HW135243   3.699   3.865   4.743  2.1983  0.7134  0.2633
 7870SOL    HW235244   3.740   3.945   4.852  0.3577  0.8517 -0.3980
 7871SOL     OW35245   0.367   0.629   1.238  0.3524  0.0461 -0.0720
 7871SOL    HW135246   0.359   0.609   1.144 -2.2344  0.5090  0.0307
 7871SOL    HW235247   0.350   0.541   1.271  4.3809 -2.0009 -3.4193
 7872SOL     OW35248   0.017   2.948  17.049 -0.3242  0.1846 -0.2558
 7872SOL    HW135249   4.713   2.924  17.133  1.7936 -0.8373  0.4367
 7872SOL    HW235250   0.098   2.897  17.056 -0.8490 -0.3374  2.0716
 7873SOL     OW35251   3.805   4.415  10.501  0.3508  0.6179 -0.1164
 7873SOL    HW135252   3.796   4.466  10.421  1.1201 -1.8735 -1.8132
 7873SOL    HW235253   3.716   4.427  10.532  0.4966 -0.0305  0.5756
 7874SOL     OW35254   0.608   1.858  13.974 -0.1066 -0.2535 -0.5534
 7874SOL    HW135255   0.598   1.943  14.016 -0.1914  0.0339 -1.1433
 7874SOL    HW235256   0.696   1.867  13.938  0.1701  2.2393  0.8311
 7875SOL     OW35257   4.518   3.379   5.235  0.5598 -0.6053  0.8904
 7875SOL    HW135258   4.449   3.318   5.261 -0.2176  0.6637  1.7938
 7875SOL    HW235259   4.476   3.440   5.174 -0.3609 -2.1025  0.0168
 7876SOL     OW35260   1.057   0.257  15.497  0.0028  0.1512  0.0898
 7876SOL    HW135261   1.113   0.325  15.460 -2.2207  1.5984 -0.6021
 7876SOL    HW235262   1.095   0.236  15.582  0.6723  0.6634 -0.0810
 7877SOL     OW35263   1.880   3.360   1.816  0.6293 -0.2227  0.4142
 7877SOL    HW135264   1.810   3.379   1.878 -0.6494 -0.9773 -0.7769
 7877SOL    HW235265   1.934   3.438   1.816  1.0235 -0.4885 -0.8229
 7878SOL     OW35266   2.600   3.580   4.705 -0.2646  0.3146  0.7098
 7878SOL    HW135267   2.548   3.506   4.736 -1.0798  1.7486  2.7480
 7878SOL    HW235268   2.646   3.596   4.787 -0.1233  4.3594 -0.1265
 7879SOL     OW35269   1.989   0.295   5.348  0.0947 -0.0037 -0.0313
 7879SOL    HW135270   2.083   0.278   5.352 -0.0382 -0.4428  1.2662
 7879SOL    HW235271   1.971   0.297   5.442  0.3800  0.0470  0.0240
 7880SOL     OW35272   0.765   0.293  10.487  0.4378  0.0013  0.2344
 7880SOL    HW135273   0.815   0.373  10.501 -0.2847  0.2408  1.4683
 7880SOL    HW235274   0.692   0.316  10.545  1.2182 -2.9182  2.3432
 7881SOL     OW35275   4.598   3.160   3.502 -0.1447  0.3350 -0.5676
 7881SOL    HW135276   4.587   3.114   3.585  0.2209  0.3271 -0.5269
 7881SOL    HW235277   4.642   3.094   3.449 -2.1964 -1.1897 -0.4069
 7882SOL     OW35278   0.172   2.593   7.321 -0.1995 -0.4849 -0.1802
 7882SOL    HW135279   0.085   2.588   7.360  0.0972  0.6106  0.6144
 7882SOL    HW235280   0.226   2.516   7.340  0.5004  0.0664  0.0328
 7883SOL     OW35281   4.338   2.355   6.152 -0.2014 -0.2304 -0.1725
 7883SOL    HW135282   4.325   2.260   6.155 -3.1709  0.1596 -0.1209
 7883SOL    HW235283   4.385   2.365   6.235 -0.2733 -0.4145 -0.1095
 7884SOL     OW35284   3.122   2.832   9.363  0.4130 -0.6509 -0.2726
 7884SOL    HW135285   3.122   2.783   9.445  2.5464  0.8341  0.5984
 7884SOL    HW235286   3.037   2.874   9.374  2.1765  2.4920  1.1046
 7885SOL     OW35287   0.587   1.909  16.466  0.3898 -0.3144  0.0290
 7885SOL    HW135288   0.639   1.877  16.391  1.9801  1.1432  0.5045
 7885SOL    HW235289   0.608   1.836  16.524 -0.7521 -0.5173  0.1819
 7886SOL     OW35290   3.338   3.843  16.112 -0.3272 -0.1696 -0.2376
 7886SOL    HW135291   3.341   3.887  16.197 -0.5706 -1.0051  0.2042
 7886SOL    HW235292   3.332   3.751  16.135 -2.7397 -0.2081 -1.0970
 7887SOL     OW35293   2.727   0.618   1.415  0.0039 -0.3395 -0.2952
 7887SOL    HW135294   2.653   0.611   1.474  2.2574 -0.2113  2.5344
 7887SOL    HW235295   2.695   0.556   1.350 -0.9905  2.9038 -2.9471
 7888SOL     OW35296   2.661   2.555   5.926  0.2610  0.1755  0.2103
 7888SOL    HW135297   2.708   2.531   5.847 -0.3321  0.9430 -0.3763
 7888SOL    HW235298   2.728   2.563   5.994 -0.4205  1.0994  0.7918
 7889SOL     OW35299   3.210   4.409   1.225 -0.1373  0.0272  0.4177
 7889SOL    HW135300   3.288   4.375   1.182 -0.6941  0.7704 -1.1858
 7889SOL    HW235301   3.228   4.498   1.257 -0.5824  0.2962 -0.0804
 7890SOL     OW35302   3.792   2.310  17.139 -0.4423 -0.1663 -0.5838
 7890SOL    HW135303   3.712   2.279  17.097 -0.6836 -1.1038  0.5530
 7890SOL    HW235304   3.850   2.266  17.078 -1.0024 -2.9712  0.8871
 7891SOL     OW35305   0.922   1.214   5.771  0.5028 -0.0084  0.0365
 7891SOL    HW135306   0.873   1.195   5.851  0.0931  1.7065  0.1890
 7891SOL    HW235307   0.848   1.239   5.716  1.3839  0.3401 -1.0056
 7892SOL     OW35308   0.333   1.787   7.377  0.1393  0.1400  0.4726
 7892SOL    HW135309   0.303   1.696   7.375  1.7191 -0.4014  1.6617
 7892SOL    HW235310   0.384   1.791   7.297 -0.1268 -0.1145  0.2879
 7893SOL     OW35311   4.604   3.695   2.167  0.9407 -0.1757 -0.1936
 7893SOL    HW135312   4.577   3.627   2.105 -1.4536  0.2020  0.4250
 7893SOL    HW235313   4.644   3.647   2.240  0.7404  1.7881  1.2077
 7894SOL     OW35314   2.503   4.426  13.156  1.4697 -0.0518  0.5333
 7894SOL    HW135315   2.528   4.512  13.123 -0.1893  0.1690 -0.1429
 7894SOL    HW235316   2.570   4.363  13.130  0.4345 -0.3771 -1.2999
 7895SOL     OW35317   4.629   0.875   9.688 -0.0970  0.1055  0.2463
 7895SOL    HW135318   4.630   0.856   9.782  0.8794  2.0599  0.6463
 7895SOL    HW235319   4.556   0.817   9.669 -0.6783  0.9147 -0.0151
 7896SOL     OW35320   2.807   3.162   2.636  0.0384 -0.2979 -0.0935
 7896SOL    HW135321   2.745   3.138   2.705 -0.7225 -0.7073 -0.9168
 7896SOL    HW235322   2.759   3.231   2.590  0.8223 -1.0177 -1.9822
 7897SOL     OW35323   4.310   4.382  13.456 -0.6231  0.0242  0.3609
 7897SOL    HW135324   4.317   4.327  13.378  0.3170 -1.5437  1.5424
 7897SOL    HW235325   4.215   4.386  13.458 -0.6270 -0.2467  0.8235
 7898SOL     OW35326   3.751   4.414   8.145 -0.1973 -0.0642  0.1829
 7898SOL    HW135327   3.738   4.324   8.173  2.0614 -1.2173 -2.4397
 7898SOL    HW235328   3.664   4.453   8.138 -0.1671 -0.3910 -1.8124
 7899SOL     OW35329   2.437   2.467   9.216  0.8180 -0.3233 -0.1712
 7899SOL    HW135330   2.489   2.526   9.162  1.4053  0.6612  1.4713
 7899SOL    HW235331   2.421   2.514   9.298  1.8882  0.1256 -0.2167
 7900SOL     OW35332   0.659   0.100  12.015  0.2564  0.1971 -0.1797
 7900SOL    HW135333   0.685   0.169  12.075  0.7419 -0.4740  0.3856
 7900SOL    HW235334   0.565   0.100  12.031  0.1301 -0.5038 -0.9208
 7901SOL     OW35335   4.633   2.237   4.065 -0.5482 -0.3878  0.3692
 7901SOL    HW135336   4.555   2.182   4.069 -1.6115  0.9870 -1.2992
 7901SOL    HW235337   4.690   2.177   4.113  0.7068 -0.3760 -1.1291
 7902SOL     OW35338   2.551   1.518   3.595 -0.7121  0.3284 -0.1871
 7902SOL    HW135339   2.554   1.441   3.652  1.0755  0.0714 -0.6523
 7902SOL    HW235340   2.642   1.541   3.578 -0.1870 -1.3642  0.3114
 7903SOL     OW35341   1.412   2.150   6.181 -0.5748  0.4672 -0.3493
 7903SOL    HW135342   1.448   2.218   6.124 -0.7558  1.1381  0.3520
 7903SOL    HW235343   1.335   2.197   6.215 -0.0801 -0.7145  2.3635
 7904SOL     OW35344   4.632   2.735  15.795 -0.3894  0.9175 -0.2264
 7904SOL    HW135345   4.691   2.802  15.760  0.6755  0.1297  0.0968
 7904SOL    HW235346   4.653   2.660  15.740  2.8742  1.6093  0.1158
 7905SOL     OW35347   3.603   2.840   5.466  0.2626  0.0370  0.1341
 7905SOL    HW135348   3.683   2.880   5.434  0.8154  0.1885  1.6927
 7905SOL    HW235349   3.582   2.881   5.550 -0.3161 -0.6975  0.3519
 7906SOL     OW35350   1.992   4.315   0.091  0.1168 -0.3012  0.9420
 7906SOL    HW135351   1.932   4.380   0.055  1.3206  0.4782  0.3417
 7906SOL    HW235352   1.941   4.288   0.167  0.1252 -1.8090  0.4197
 7907SOL     OW35353   2.179   1.473   6.108 -0.4290 -0.5194 -0.8629
 7907SOL    HW135354   2.236   1.548   6.093  0.0931 -0.6316  0.5023
 7907SOL    HW235355   2.133   1.459   6.026 -3.4007 -1.1824  0.9069
 7908SOL     OW35356   1.654   0.034   4.027 -0.0199  0.1455  0.0588
 7908SOL    HW135357   1.631   4.676   4.029 -1.2016  0.3995 -2.0398
 7908SOL    HW235358   1.598   0.068   4.097 -2.4437 -0.7479 -1.4551
 7909SOL     OW35359   0.997   2.992   3.029  0.1307  0.6203 -0.4816
 7909SOL    HW135360   0.987   2.925   3.097  0.4165 -0.0942 -1.1407
 7909SOL    HW235361   0.930   3.050   3.064  1.0417  1.6603 -0.4888
 7910SOL     OW35362   1.166   3.063   9.593  0.1351  0.3147  0.1050
 7910SOL    HW135363   1.156   3.123   9.519 -1.4181 -0.2672 -0.1588
 7910SOL    HW235364   1.175   2.971   9.568  4.5441  0.6690  0.4078
 7911SOL     OW35365   3.362   4.395  14.534  0.1740 -0.3938  0.1616
 7911SOL    HW135366   3.337   4.487  14.525  2.6971  0.1346 -1.3735
 7911SOL    HW235367   3.321   4.385  14.620 -0.1216  1.2854  0.2224
 7912SOL     OW35368   0.217   1.539   5.022  0.4239 -0.1270 -0.0521
 7912SOL    HW135369   0.186   1.558   5.110  1.9384 -0.2356  0.5158
 7912SOL    HW235370   0.138   1.551   4.970 -0.3687  1.4648  1.5740
 7913SOL     OW35371   0.362   1.299   8.203 -0.0600  0.1307 -0.7683
 7913SOL    HW135372   0.302   1.371   8.220 -1.5358 -1.0508 -0.9246
 7913SOL    HW235373   0.444   1.346   8.216  0.3442 -1.0777  0.9896
 7914SOL     OW35374   0.394   2.119  12.223 -0.0845 -0.3952 -0.2208
 7914SOL    HW135375   0.342   2.185  12.270  1.2487  1.9770 -2.1111
 7914SOL    HW235376   0.421   2.160  12.141 -0.6797  1.6216  0.5862
 7915SOL     OW35377   0.344   2.934   2.437 -0.4289 -0.1589  0.1951
 7915SOL    HW135378   0.288   3.000   2.397  0.3004  0.4442  0.1653
 7915SOL    HW235379   0.304   2.857   2.396  1.8346 -1.3659  0.2747
 7916SOL     OW35380   1.797   2.704  13.088  0.3337  0.0100  0.1053
 7916SOL    HW135381   1.868   2.672  13.145  0.9517 -1.6425 -1.6005
 7916SOL    HW235382   1.840   2.777  13.043 -2.9428  1.2655 -0.9759
 7917SOL     OW35383   3.471   2.616  13.790 -0.4741 -0.0799 -0.1648
 7917SOL    HW135384   3.400   2.554  13.809 -0.1405 -0.2663  0.4830
 7917SOL    HW235385   3.423   2.678  13.736 -0.9496 -1.4901 -1.3627
 7918SOL     OW35386   0.552   0.509   2.406 -0.2812 -0.1875 -0.2825
 7918SOL    HW135387   0.467   0.525   2.366  0.2161 -1.5256 -1.8656
 7918SOL    HW235388   0.571   0.576   2.471 -1.2444  0.9806 -1.2209
 7919SOL     OW35389   3.809   3.077   7.019 -0.4958  0.2710 -0.0520
 7919SOL    HW135390   3.785   2.987   6.998 -0.7818  0.5284 -0.8421
 7919SOL    HW235391   3.897   3.091   6.985 -0.3360  2.6739  1.3237
 7920SOL     OW35392   1.658   3.394   3.441 -0.2875 -0.3001 -0.0709
 7920SOL    HW135393   1.729   3.401   3.377 -0.3186 -2.9459 -0.4076
 7920SOL    HW235394   1.709   3.341   3.502  1.5778  1.5136 -0.0614
 7921SOL     OW35395   2.830   4.652   4.682 -0.2959  0.0749  0.7405
 7921SOL    HW135396   2.891   4.612   4.619 -0.6681  0.4124  0.1689
 7921SOL    HW235397   2.894   4.656   4.753  1.2164  0.0978 -0.6164
 7922SOL     OW35398   3.764   0.869   5.698  0.1712 -0.5571  0.3595
 7922SOL    HW135399   3.751   0.926   5.622 -0.9949 -0.5304  0.5826
 7922SOL    HW235400   3.757   0.787   5.648 -2.0284  0.2040 -0.5886
 7923SOL     OW35401   4.528   0.134   8.099  0.1157  0.4572  0.3515
 7923SOL    HW135402   4.531   0.113   8.006  1.1449  1.3117  0.1999
 7923SOL    HW235403   4.584   0.212   8.106 -1.0723  1.3574 -0.1299
 7924SOL     OW35404   1.028   1.874  17.639 -0.2659 -0.4973  0.1656
 7924SOL    HW135405   1.068   1.917  17.563  2.3398 -0.7738  1.3642
 7924SOL    HW235406   0.968   1.808  17.605  0.3217 -1.7742  1.6552
 7925SOL     OW35407   3.952   1.030   5.038 -0.7010 -0.4092 -0.3131
 7925SOL    HW135408   3.947   0.935   5.033 -1.8334 -0.2701 -1.6912
 7925SOL    HW235409   4.036   1.031   5.084  0.6041  0.0447 -2.7610
 7926SOL     OW35410   1.347   0.777  12.866  0.1258  0.9172 -0.3461
 7926SOL    HW135411   1.432   0.816  12.845  0.9390  0.8560  2.8270
 7926SOL    HW235412   1.315   0.742  12.783  0.6202 -1.3519  0.4258
 7927SOL     OW35413   1.787   3.643   4.211  0.1345  0.3893  0.4672
 7927SOL    HW135414   1.699   3.615   4.238  0.6573 -0.8416  0.8982
 7927SOL    HW235415   1.790   3.727   4.257  1.6907  1.9210 -2.4466
 7928SOL     OW35416   0.136   1.661   5.284  0.4257 -0.1451  0.4296
 7928SOL    HW135417   0.114   1.726   5.217  1.3794  0.8647  1.1033
 7928SOL    HW235418   0.193   1.717   5.337 -0.4729  2.1518 -1.0420
 7929SOL     OW35419   2.516   3.634  16.454 -0.1066  0.3907 -0.6017
 7929SOL    HW135420   2.592   3.585  16.426  0.7718 -0.0985  2.6113
 7929SOL    HW235421   2.451   3.631  16.384 -0.9387  0.9464  0.1451
 7930SOL     OW35422   3.167   2.945   7.694 -0.4220 -0.0521 -0.1906
 7930SOL    HW135423   3.152   2.897   7.613  0.2769  0.3851 -0.5708
 7930SOL    HW235424   3.217   2.880   7.742  1.9183  0.1419 -2.4129
 7931SOL     OW35425   2.085   1.418   4.421 -0.0038 -0.2771 -0.7627
 7931SOL    HW135426   2.164   1.426   4.368 -0.3132 -1.4890 -1.4221
 7931SOL    HW235427   2.042   1.346   4.373 -1.6572  1.2456 -1.5539
 7932SOL     OW35428   1.361   1.228   1.788 -0.3156  0.0197 -0.1872
 7932SOL    HW135429   1.278   1.270   1.768  0.5255  1.8467  0.1528
 7932SOL    HW235430   1.409   1.228   1.705 -0.5585  0.0313 -0.3255
 7933SOL     OW35431   0.452   4.278   3.285  0.0553 -0.0518  0.1497
 7933SOL    HW135432   0.537   4.248   3.251 -1.2688 -3.4978 -0.1611
 7933SOL    HW235433   0.400   4.198   3.274  0.8733 -0.4094 -1.1012
 7934SOL     OW35434   1.241   2.569   6.614 -0.0152 -0.1166 -0.3527
 7934SOL    HW135435   1.167   2.534   6.664 -1.9420  1.7158 -1.9077
 7934SOL    HW235436   1.302   2.496   6.607 -3.4920 -3.1360  0.8003
 7935SOL     OW35437   0.578   0.697   5.618 -0.2809 -0.1510  0.6774
 7935SOL    HW135438   0.483   0.695   5.632 -0.7612 -0.3333 -2.6664
 7935SOL    HW235439   0.602   0.788   5.637 -1.4632 -0.0071  1.4864
 7936SOL     OW35440   2.924   4.012   8.165 -0.0381  0.1138 -0.4679
 7936SOL    HW135441   2.896   4.081   8.105 -0.2636  0.7940  0.4116
 7936SOL    HW235442   2.882   4.032   8.249  1.5032 -0.2100  0.3901
 7937SOL     OW35443   0.493   1.586  14.008  0.2960 -0.6359 -0.4722
 7937SOL    HW135444   0.510   1.640  13.930  0.8142  1.6139  1.2021
 7937SOL    HW235445   0.408   1.620  14.033  0.0683 -1.8554  0.3950
 7938SOL     OW35446   4.199   0.598   3.197  0.2829  0.2881 -0.1593
 7938SOL    HW135447   4.271   0.547   3.160 -0.3100 -1.1920  0.7298
 7938SOL    HW235448   4.164   0.534   3.259 -0.7048  2.0445  1.0890
 7939SOL     OW35449   2.657   2.194   8.024  0.1136 -0.2817  0.5214
 7939SOL    HW135450   2.581   2.177   8.080  0.2914 -1.9564  0.2588
 7939SOL    HW235451   2.624   2.153   7.944 -0.5366 -0.2249  0.7580
 7940SOL     OW35452   0.376   2.515   5.528  0.2998 -0.0466 -0.0097
 7940SOL    HW135453   0.391   2.469   5.445 -0.7583 -1.9104  0.8436
 7940SOL    HW235454   0.344   2.601   5.502 -0.1489 -0.8203 -2.0138
 7941SOL     OW35455   0.059   1.924   3.797  0.7600  0.6548 -0.2173
 7941SOL    HW135456   0.151   1.901   3.790  1.3698  2.5597  1.4907
 7941SOL    HW235457   0.029   1.888   3.714  2.4682 -0.6950 -0.2514
 7942SOL     OW35458   1.764   2.991  17.690 -0.4760  0.0632 -0.1012
 7942SOL    HW135459   1.788   3.066   0.004 -0.5632  0.4874 -0.6505
 7942SOL    HW235460   1.774   2.918   0.012  3.9273  1.2920  0.6236
 7943SOL     OW35461   0.438   4.395   8.661  0.1140 -0.0794  0.4370
 7943SOL    HW135462   0.443   4.484   8.627  2.1999 -0.4846 -0.3212
 7943SOL    HW235463   0.343   4.382   8.663  0.1394 -0.4681 -1.1567
 7944SOL     OW35464   1.534   3.517   0.828  0.1052 -0.0456  0.0920
 7944SOL    HW135465   1.524   3.506   0.922  0.3353  0.1104  0.1337
 7944SOL    HW235466   1.629   3.534   0.825  0.1866 -0.6691 -0.9214
 7945SOL     OW35467   4.617   1.571   2.801  0.0222  0.2716 -0.5936
 7945SOL    HW135468   4.682   1.641   2.810 -0.4622  0.6517 -0.0122
 7945SOL    HW235469   4.535   1.610   2.832  1.6043  1.7984  1.6703
 7946SOL     OW35470   4.033   0.887  15.362 -0.4784 -0.0749  0.5611
 7946SOL    HW135471   3.941   0.904  15.384 -0.0311 -0.3903  2.6667
 7946SOL    HW235472   4.056   0.979  15.349 -1.4701  0.0350 -0.4898
 7947SOL     OW35473   1.137   1.058   2.565  0.5070 -0.3415 -0.2912
 7947SOL    HW135474   1.215   1.073   2.618 -0.8961  1.2882  1.3038
 7947SOL    HW235475   1.150   0.969   2.533  2.0727 -0.7744  1.5484
 7948SOL     OW35476   1.175   2.822  14.207  0.7446  0.2935 -0.4049
 7948SOL    HW135477   1.207   2.908  14.180 -1.6232  1.1061 -0.6271
 7948SOL    HW235478   1.254   2.771  14.190  0.0264 -0.1731 -2.3064
 7949SOL     OW35479   4.359   4.034   0.415 -0.6551 -0.1030  0.9277
 7949SOL    HW135480   4.429   3.970   0.398 -2.7249 -2.3452  0.9677
 7949SOL    HW235481   4.410   4.113   0.400  0.8830 -1.2570 -0.0043
 7950SOL     OW35482   1.770   1.308   9.597  0.1771 -0.5334  0.1344
 7950SOL    HW135483   1.811   1.238   9.546 -0.7860 -0.7888 -0.3029
 7950SOL    HW235484   1.828   1.378   9.570 -0.8151  0.3057  0.1675
 7951SOL     OW35485   1.384   1.659   1.720  0.2637  0.1404 -0.1343
 7951SOL    HW135486   1.438   1.682   1.645  0.7683 -0.2150  0.1186
 7951SOL    HW235487   1.294   1.655   1.688  0.6321 -1.3876 -1.0184
 7952SOL     OW35488   3.236   2.024   5.625  0.1414  0.0144  0.5329
 7952SOL    HW135489   3.214   2.102   5.676 -0.2141  1.7242 -2.1633
 7952SOL    HW235490   3.329   2.017   5.644  0.0993 -0.3805  0.5751
 7953SOL     OW35491   2.196   2.829   2.325  0.4118 -0.1668  0.1292
 7953SOL    HW135492   2.142   2.863   2.396  0.0748  0.1395 -0.2755
 7953SOL    HW235493   2.187   2.896   2.258 -0.6601 -0.3938  0.0611
 7954SOL     OW35494   0.495   1.915   7.589 -0.6670 -0.0687  0.0056
 7954SOL    HW135495   0.437   1.883   7.520 -0.3885 -0.5029 -0.0258
 7954SOL    HW235496   0.543   1.981   7.539 -0.1658  0.4899  1.2091
 7955SOL     OW35497   4.124   2.777  14.839 -0.5108  0.9041 -0.1224
 7955SOL    HW135498   4.142   2.685  14.819  0.2952  1.1620 -0.5991
 7955SOL    HW235499   4.203   2.819  14.805 -1.5933  1.1710 -2.3256
 7956SOL     OW35500   1.987   2.576   5.786 -0.1588  0.2702 -0.4369
 7956SOL    HW135501   1.921   2.531   5.840  1.1771 -0.9933  0.1553
 7956SOL    HW235502   2.039   2.501   5.758 -1.1715  0.0314 -1.6644
 7957SOL     OW35503   2.590   1.157  13.885  0.2609 -0.0064  0.0510
 7957SOL    HW135504   2.574   1.161  13.979 -2.4063 -0.9198 -0.3698
 7957SOL    HW235505   2.661   1.093  13.879  0.5559  0.4156 -1.0174
 7958SOL     OW35506   2.362   4.530   3.712 -0.0154  0.3154  0.1466
 7958SOL    HW135507   2.401   4.531   3.625  0.6001  0.9572  0.4340
 7958SOL    HW235508   2.368   4.441   3.748 -2.2882 -0.6272 -1.7858
 7959SOL     OW35509   1.176   0.261   9.230  0.5727  0.2252  0.2359
 7959SOL    HW135510   1.171   0.166   9.236  0.4204  0.2306  0.1790
 7959SOL    HW235511   1.081   0.273   9.227  0.9755  3.4753  0.2170
 7960SOL     OW35512   0.130   2.982   6.270  0.2871  0.1475 -0.2791
 7960SOL    HW135513   0.188   2.906   6.278  0.3314  0.1289 -0.7743
 7960SOL    HW235514   0.114   2.979   6.175 -0.6018 -0.7420 -0.1017
 7961SOL     OW35515   2.445   3.370   2.363 -0.5873 -0.0157 -0.9243
 7961SOL    HW135516   2.430   3.432   2.434  1.9603  0.9173 -1.2074
 7961SOL    HW235517   2.540   3.362   2.370 -0.6135  0.1258 -0.4045
 7962SOL     OW35518   1.053   1.607   6.974 -0.5458  0.3244  0.1309
 7962SOL    HW135519   1.123   1.543   6.984  0.0386  0.4747 -2.9634
 7962SOL    HW235520   1.038   1.603   6.880  2.3170 -0.7566 -0.2573
 7963SOL     OW35521   4.723   0.154   7.715  0.1246  0.4929 -0.1191
 7963SOL    HW135522   4.640   0.190   7.745  0.5722  1.3812  0.0567
 7963SOL    HW235523   0.053   0.217   7.746 -1.3560  2.1529 -0.4312
 7964SOL     OW35524   3.545   0.361  12.689  0.0784 -0.0851 -0.5138
 7964SOL    HW135525   3.545   0.416  12.611 -0.5892  0.2683 -0.2644
 7964SOL    HW235526   3.637   0.354  12.714  0.8077 -2.3496 -3.8052
 7965SOL     OW35527   0.598   2.739  10.232  0.5767  1.0947 -0.2363
 7965SOL    HW135528   0.531   2.799  10.200  0.4231  0.5207 -0.9854
 7965SOL    HW235529   0.673   2.769  10.181  1.5749 -0.7585  0.1495
 7966SOL     OW35530   4.157   0.861   1.514 -0.0460 -0.1752  0.3434
 7966SOL    HW135531   4.207   0.806   1.575 -0.7929 -0.1329  0.9991
 7966SOL    HW235532   4.202   0.842   1.432  0.0492 -0.9209  0.5676
 7967SOL     OW35533   0.898   0.332   3.405 -0.7815 -0.1984  0.0635
 7967SOL    HW135534   0.988   0.310   3.429  0.4312  2.7204 -1.7195
 7967SOL    HW235535   0.900   0.275   3.328  0.6427 -1.7063  1.2201
 7968SOL     OW35536   2.535   3.554   5.992  0.0868 -0.1193 -0.4323
 7968SOL    HW135537   2.472   3.620   5.963  0.0905  0.8805  1.8112
 7968SOL    HW235538   2.475   3.510   6.051  0.2470  1.5169  0.9716
 7969SOL     OW35539   1.964   2.419  10.553  0.7813  0.6915 -0.2201
 7969SOL    HW135540   1.918   2.394  10.474  2.1729  1.8248 -1.3871
 7969SOL    HW235541   2.052   2.392  10.527  0.6321  1.1820 -1.2220
 7970SOL     OW35542   2.348   2.572   3.024 -0.5677  0.3999  0.4402
 7970SOL    HW135543   2.365   2.632   2.952 -0.9969 -0.7128 -0.5777
 7970SOL    HW235544   2.439   2.546   3.042  0.1562  0.6238 -3.0054
 7971SOL     OW35545   3.946   0.481   2.749 -0.7106  0.0070  0.2572
 7971SOL    HW135546   3.918   0.405   2.799  2.3304 -1.2650  0.0281
 7971SOL    HW235547   3.969   0.532   2.826  1.9667  0.3297 -0.7313
 7972SOL     OW35548   0.510   0.415   8.635 -0.3096 -0.1241 -0.6464
 7972SOL    HW135549   0.581   0.380   8.689 -0.0804  1.6771  0.2408
 7972SOL    HW235550   0.468   0.341   8.591  0.5973 -0.4126 -1.0124
 7973SOL     OW35551   2.954   4.071   5.703 -0.2291 -0.1041  0.3048
 7973SOL    HW135552   2.891   4.027   5.647 -1.2096  0.2031  1.1737
 7973SOL    HW235553   2.934   4.033   5.789  0.3892  2.0371  1.4120
 7974SOL     OW35554   2.352   4.102  10.659  0.1201  0.2418 -0.2476
 7974SOL    HW135555   2.446   4.101  10.642  0.3921  1.2111  1.2106
 7974SOL    HW235556   2.347   4.176  10.719  1.7966 -0.4353  0.7325
 7975SOL     OW35557   1.221   0.997  12.594  0.2236  0.1881 -0.1672
 7975SOL    HW135558   1.164   1.039  12.659  0.0015  1.5800 -1.2614
 7975SOL    HW235559   1.217   0.906  12.622  0.1532  0.2973  0.1836
 7976SOL     OW35560   1.194   3.226   3.342  0.1943  0.8462 -0.0389
 7976SOL    HW135561   1.176   3.159   3.408  0.5834  2.8541  2.0966
 7976SOL    HW235562   1.286   3.206   3.327 -0.2147 -0.3043 -0.9688
 7977SOL     OW35563   3.469   2.771   7.692 -0.6379 -0.1318 -0.1180
 7977SOL    HW135564   3.465   2.847   7.751 -1.2825  0.1466 -0.5300
 7977SOL    HW235565   3.408   2.718   7.743  0.5902 -0.1378  1.3488
 7978SOL     OW35566   0.651   0.526   5.822 -0.0265  0.1034  0.4555
 7978SOL    HW135567   0.658   0.585   5.747  0.4635 -1.3174 -0.6193
 7978SOL    HW235568   0.581   0.472   5.787 -0.1846 -0.1091  1.0896
 7979SOL     OW35569   3.394   3.725  13.374  0.1215  0.3423  0.3917
 7979SOL    HW135570   3.317   3.673  13.350  0.2491 -0.2208  1.1900
 7979SOL    HW235571   3.440   3.723  13.290 -0.5534  0.1307  0.0244
 7980SOL     OW35572   1.869   2.172   5.976 -0.3283 -0.3843 -0.0386
 7980SOL    HW135573   1.886   2.154   6.069 -2.5714  0.1344  0.4775
 7980SOL    HW235574   1.949   2.136   5.936  0.2286 -0.2611  0.9672
 7981SOL     OW35575   1.188   1.680   8.292  0.1923  0.3014 -0.1604
 7981SOL    HW135576   1.256   1.690   8.226  0.8668  2.2857  0.8562
 7981SOL    HW235577   1.142   1.764   8.293 -0.2834  0.0553 -0.9452
 7982SOL     OW35578   3.038   2.990  14.966  0.6191  0.3250  0.0425
 7982SOL    HW135579   3.007   2.967  14.879 -2.0858  1.2518  0.7704
 7982SOL    HW235580   2.983   2.933  15.020 -0.6819 -0.8557 -2.5256
 7983SOL     OW35581   1.542   3.123   2.507  0.0594  0.3638  0.3056
 7983SOL    HW135582   1.505   3.058   2.567 -0.3842  0.3334 -0.0024
 7983SOL    HW235583   1.525   3.203   2.557 -0.8746 -0.5883  1.5011
 7984SOL     OW35584   4.026   4.407  11.006  0.0357 -0.4396 -0.8779
 7984SOL    HW135585   4.111   4.376  10.975 -1.6422 -0.6512 -5.1463
 7984SOL    HW235586   3.965   4.401  10.933 -1.6746  1.4640  0.3831
 7985SOL     OW35587   0.282   4.113   6.240 -0.3148 -0.5061 -0.2730
 7985SOL    HW135588   0.194   4.150   6.238 -0.5620 -1.0650  0.0872
 7985SOL    HW235589   0.271   4.020   6.262 -0.8554 -0.6815 -1.2679
 7986SOL     OW35590   2.856   0.293   4.241 -0.7059 -0.1906  0.2905
 7986SOL    HW135591   2.789   0.351   4.205 -1.0400 -0.0564  1.1157
 7986SOL    HW235592   2.905   0.281   4.160 -1.9812 -1.7301 -0.2628
 7987SOL     OW35593   1.754   4.724   1.922  0.5516  0.1083 -0.2527
 7987SOL    HW135594   1.706   0.068   1.899 -1.2639 -1.7027 -2.7522
 7987SOL    HW235595   1.730   4.670   1.847 -1.1437 -1.2794  1.3084
 7988SOL     OW35596   3.285   3.487  16.937 -0.0843  0.3879  0.4849
 7988SOL    HW135597   3.341   3.433  16.993 -1.1622 -1.2076  0.0405
 7988SOL    HW235598   3.289   3.454  16.847 -1.7260 -1.1490  0.9880
 7989SOL     OW35599   1.542   3.600   4.269  0.0878  0.3318 -0.1583
 7989SOL    HW135600   1.512   3.658   4.199 -1.4959 -1.2342 -0.7656
 7989SOL    HW235601   1.506   3.651   4.341  2.6379 -1.3538  2.3125
 7990SOL     OW35602   3.224   0.193  12.891  0.3319  0.1877 -0.4638
 7990SOL    HW135603   3.304   0.159  12.932  0.6862  2.6720  0.9466
 7990SOL    HW235604   3.244   0.189  12.798  0.2731 -0.6471 -0.4410
 7991SOL     OW35605   3.854   1.802   2.402 -0.0209  0.3466  0.1592
 7991SOL    HW135606   3.924   1.793   2.338  0.7071  1.9296  0.7472
 7991SOL    HW235607   3.852   1.897   2.411 -0.2034  0.4872 -1.3680
 7992SOL     OW35608   0.209   1.517  12.604  0.2749 -0.3895  0.4212
 7992SOL    HW135609   0.299   1.546  12.594  0.3652 -0.8010  0.0190
 7992SOL    HW235610   0.169   1.596  12.639 -0.5071  0.0056 -1.3380
 7993SOL     OW35611   0.138   4.697   8.546  0.2960  0.1031  0.3052
 7993SOL    HW135612   0.156   4.607   8.574 -0.7290 -0.2504 -0.1527
 7993SOL    HW235613   0.124   4.684   8.452  2.3620  1.8062 -0.2461
 7994SOL     OW35614   1.777   4.664   9.633 -0.0525  0.5525  0.0778
 7994SOL    HW135615   1.693   4.681   9.676 -0.6993  1.0637 -1.3703
 7994SOL    HW235616   1.839   4.664   9.706  0.3472 -2.7917 -0.2738
 7995SOL     OW35617   2.590   1.681   1.506 -0.3709  0.1465  0.0478
 7995SOL    HW135618   2.605   1.770   1.474  0.2470 -0.5528 -1.5827
 7995SOL    HW235619   2.602   1.633   1.424 -2.0437  0.5174 -0.4220
 7996SOL     OW35620   0.486   3.188   3.173 -0.3807  0.4290 -0.7055
 7996SOL    HW135621   0.551   3.121   3.191  0.7283  1.6790 -0.0813
 7996SOL    HW235622   0.443   3.157   3.093  2.5403 -2.2386 -1.2221
 7997SOL     OW35623   1.467   2.693  13.746  0.0829 -0.0525  0.0314
 7997SOL    HW135624   1.430   2.653  13.667  1.0645 -0.2105 -0.3634
 7997SOL    HW235625   1.408   2.766  13.762  2.7654  1.7838  1.6386
 7998SOL     OW35626   2.873   4.541  12.409  0.4333 -0.0448  0.3890
 7998SOL    HW135627   2.869   4.524  12.315 -1.2468  0.2306  0.4133
 7998SOL    HW235628   2.789   4.585  12.418  0.1666 -1.0815  2.8971
 7999SOL     OW35629   0.332   2.040   3.001  0.3150  0.0879 -0.2072
 7999SOL    HW135630   0.248   2.069   2.965  0.3915  0.1315 -0.3512
 7999SOL    HW235631   0.373   2.123   3.024 -0.1535  0.0795  0.6680
 8000SOL     OW35632   3.432   2.359   5.452 -0.8219 -0.3568  0.6031
 8000SOL    HW135633   3.447   2.453   5.453  0.3239 -0.5388  1.1244
 8000SOL    HW235634   3.466   2.332   5.537 -1.4928  0.4198  1.1148
 8001SOL     OW35635   2.878   1.581   2.397  0.1335 -0.1817  1.3279
 8001SOL    HW135636   2.807   1.632   2.358 -1.1865 -2.0694  1.2776
 8001SOL    HW235637   2.884   1.600   2.491  3.3125 -0.7335  1.2246
 8002SOL     OW35638   4.722   2.656  13.038  0.1834 -0.3240 -0.2969
 8002SOL    HW135639   0.012   2.617  12.954 -0.8015 -0.7883 -0.3742
 8002SOL    HW235640   4.639   2.698  13.013  1.3810  1.3906 -1.4250
 8003SOL     OW35641   4.489   4.180  11.528  1.1527 -0.3696  0.2662
 8003SOL    HW135642   4.505   4.131  11.447  1.9658  1.4184 -0.6777
 8003SOL    HW235643   4.526   4.266  11.507 -0.8307  0.1704 -1.0087
 8004SOL     OW35644   3.168   3.407   3.162 -0.0637 -0.1901  0.9926
 8004SOL    HW135645   3.092   3.432   3.213  0.4360  0.1387  1.5758
 8004SOL    HW235646   3.232   3.470   3.195  2.2276 -1.5109 -0.9123
 8005SOL     OW35647   1.121   3.401   6.185 -0.4458 -0.2825  0.2745
 8005SOL    HW135648   1.203   3.396   6.233 -0.5406  1.4078  0.5999
 8005SOL    HW235649   1.118   3.314   6.146 -1.5351  0.3470 -1.0675
 8006SOL     OW35650   3.325   0.519  11.570 -0.3134  0.0826 -0.3259
 8006SOL    HW135651   3.263   0.463  11.617  0.2052 -0.1512  0.0744
 8006SOL    HW235652   3.288   0.604  11.594  3.0997  1.8296 -1.3719
 8007SOL     OW35653   0.358   3.389   7.387  0.4122 -0.0200  0.6254
 8007SOL    HW135654   0.263   3.390   7.374  0.5264 -0.3226 -0.2336
 8007SOL    HW235655   0.391   3.301   7.366 -1.3918  0.2002 -3.2116
 8008SOL     OW35656   2.814   2.356   4.629  0.6597  0.3445 -0.2833
 8008SOL    HW135657   2.747   2.332   4.693 -0.7545 -0.1242 -1.9266
 8008SOL    HW235658   2.884   2.313   4.678  2.1738  3.9369  0.6620
 8009SOL     OW35659   1.540   4.436   1.093 -0.2324 -0.2726  0.0550
 8009SOL    HW135660   1.480   4.392   1.033  2.4130 -1.0986 -1.9587
 8009SOL    HW235661   1.615   4.386   1.061  0.7084  1.4315 -0.3587
 8010SOL     OW35662   1.012   2.660   3.169  0.1841 -0.1803  0.1077
 8010SOL    HW135663   1.043   2.718   3.238 -1.4085 -0.0972  0.7634
 8010SOL    HW235664   1.036   2.579   3.215  0.4921  0.4818  1.1214
 8011SOL     OW35665   1.311   4.233   5.409  0.0819 -0.1220  0.6807
 8011SOL    HW135666   1.283   4.149   5.372  0.7203  0.1627 -0.4529
 8011SOL    HW235667   1.284   4.296   5.341  1.9511  0.3067  0.3286
 8012SOL     OW35668   2.777   1.588  14.930  0.0698  0.2132 -0.5771
 8012SOL    HW135669   2.829   1.640  14.991  2.0149 -3.5698  0.9444
 8012SOL    HW235670   2.828   1.604  14.850  0.7243 -2.0753 -0.6065
 8013SOL     OW35671   0.276   4.239   4.722  0.3807  0.2494 -0.1573
 8013SOL    HW135672   0.219   4.185   4.776  0.3535  0.4690  0.0350
 8013SOL    HW235673   0.226   4.228   4.642 -0.1069  3.3671 -0.3017
 8014SOL     OW35674   3.255   0.389   1.690 -0.3737  0.1707  0.2650
 8014SOL    HW135675   3.261   0.417   1.598 -0.8311  0.7357  0.4093
 8014SOL    HW235676   3.170   0.429   1.710 -0.2633 -0.3940  1.8259
 8015SOL     OW35677   2.023   3.156   1.923  0.1002  0.3794 -0.5299
 8015SOL    HW135678   1.994   3.234   1.877 -1.4524  0.3882  0.4894
 8015SOL    HW235679   2.090   3.123   1.863 -0.5195 -1.1204 -0.3908
 8016SOL     OW35680   0.114   3.647   9.416 -0.2694 -0.5802  0.1312
 8016SOL    HW135681   0.131   3.725   9.470 -0.4301 -0.3224 -0.1877
 8016SOL    HW235682   0.031   3.674   9.377  0.1375  1.6491  0.7819
 8017SOL     OW35683   0.234   2.699   6.246  0.0294  0.2452  0.1077
 8017SOL    HW135684   0.172   2.626   6.248 -2.0864  2.0239  0.1423
 8017SOL    HW235685   0.318   2.665   6.276  0.1095  1.2045  0.9468
 8018SOL     OW35686   2.669   0.296   0.475 -0.3407 -0.3672  0.4265
 8018SOL    HW135687   2.738   0.361   0.464  0.8532 -1.8090 -0.5658
 8018SOL    HW235688   2.677   0.269   0.567  0.9705 -1.0182  0.1222
 8019SOL     OW35689   4.023   1.508   7.115  0.1405 -0.2666 -0.1800
 8019SOL    HW135690   3.943   1.460   7.138 -0.0081  0.1572  0.1700
 8019SOL    HW235691   3.986   1.591   7.142  3.6464  1.6791 -1.2878
 8020SOL     OW35692   2.229   2.027   4.833  0.7699  0.5883  0.3424
 8020SOL    HW135693   2.150   2.013   4.884  1.1239  1.4914  1.1314
 8020SOL    HW235694   2.295   1.976   4.881 -0.1654 -0.6727  0.2902
 8021SOL     OW35695   1.887   3.156   6.550  0.8636  0.5026  0.2560
 8021SOL    HW135696   1.964   3.183   6.601 -0.4230  1.2973  1.7657
 8021SOL    HW235697   1.823   3.144   6.620 -0.2038 -1.3793 -1.0730
 8022SOL     OW35698   4.471   2.898  11.887 -0.3642  0.0805 -0.2513
 8022SOL    HW135699   4.543   2.931  11.833 -0.0482  1.3237  0.9118
 8022SOL    HW235700   4.485   2.805  11.904 -1.6847 -0.3794 -1.6433
 8023SOL     OW35701   1.730   1.152  12.505  0.0929 -0.6647  0.0461
 8023SOL    HW135702   1.640   1.135  12.533 -0.8705  1.0706 -2.0421
 8023SOL    HW235703   1.714   1.235  12.460  2.5523  0.2412  0.8328
 8024SOL     OW35704   3.283   4.258   3.959 -0.2801 -0.0770 -0.1312
 8024SOL    HW135705   3.335   4.240   4.037 -1.0347  0.7890  0.5750
 8024SOL    HW235706   3.269   4.167   3.934  1.0786 -0.8296  1.8238
 8025SOL     OW35707   3.909   3.017   3.253 -0.1276  0.1719 -0.0732
 8025SOL    HW135708   3.845   3.061   3.309  1.5279 -0.4756  2.3148
 8025SOL    HW235709   3.871   2.929   3.245  2.0061 -0.5311 -2.7204
 8026SOL     OW35710   3.370   2.177   4.485  0.4827  0.6259  0.0240
 8026SOL    HW135711   3.464   2.164   4.494  0.4082 -0.0228 -0.1303
 8026SOL    HW235712   3.355   2.211   4.574 -0.3094  2.3734 -0.7665
 8027SOL     OW35713   0.185   2.430  11.929 -0.1518 -0.6414 -0.5263
 8027SOL    HW135714   0.243   2.491  11.975 -0.6907  0.9425 -1.9273
 8027SOL    HW235715   0.126   2.410  12.002  0.0215 -0.6650 -0.3911
 8028SOL     OW35716   0.313   4.113   0.729  0.8871 -0.0074  0.4176
 8028SOL    HW135717   0.219   4.122   0.710  0.7964 -0.9820  0.3996
 8028SOL    HW235718   0.349   4.162   0.655  0.1175  0.2893  0.2321
 8029SOL     OW35719   2.833   2.435   3.209  0.7065 -0.1486 -0.3300
 8029SOL    HW135720   2.768   2.451   3.277  0.5180 -2.9537  0.1497
 8029SOL    HW235721   2.914   2.464   3.251 -0.4011  1.4615  0.7210
 8030SOL     OW35722   3.122   3.210   6.113  0.5054 -0.2576 -0.7802
 8030SOL    HW135723   3.055   3.255   6.061  1.2128  0.8002 -0.7760
 8030SOL    HW235724   3.089   3.120   6.110  1.0923 -0.4895 -0.3892
 8031SOL     OW35725   4.464   2.024   5.105 -0.4137  0.4905  0.6123
 8031SOL    HW135726   4.544   1.983   5.074 -0.9360  0.0942 -0.2104
 8031SOL    HW235727   4.492   2.114   5.088 -1.4068  0.5875 -0.4689
 8032SOL     OW35728   2.141   2.373   6.369 -0.0907 -0.5256  0.0487
 8032SOL    HW135729   2.173   2.460   6.391 -0.5194 -0.3244 -0.1334
 8032SOL    HW235730   2.192   2.355   6.290 -0.1892  1.8063 -0.5544
 8033SOL     OW35731   0.141   4.358   3.180  0.5248 -0.0313  0.3310
 8033SOL    HW135732   0.077   4.413   3.224  0.8320  1.6917 -1.4306
 8033SOL    HW235733   0.218   4.373   3.235 -0.0222  0.0844  1.0690
 8034SOL     OW35734   4.306   0.990   3.423 -0.6839  0.1389 -0.2277
 8034SOL    HW135735   4.393   0.982   3.382 -0.1841  2.7734  0.3126
 8034SOL    HW235736   4.244   0.952   3.361 -1.0549 -0.6237  0.6250
 8035SOL     OW35737   2.729   3.180   6.261 -0.6022 -0.4895 -0.3963
 8035SOL    HW135738   2.796   3.147   6.321 -1.0110 -0.1226  0.2636
 8035SOL    HW235739   2.659   3.114   6.268 -0.3411 -0.7423 -0.1654
 8036SOL     OW35740   3.577   0.590   2.881  0.1982 -0.4525 -0.4648
 8036SOL    HW135741   3.536   0.610   2.797 -0.4346 -0.9339 -0.2775
 8036SOL    HW235742   3.614   0.676   2.902 -1.9202  0.3234  0.1181
 8037SOL     OW35743   0.602   1.244   7.322 -0.5366  0.4000 -0.5203
 8037SOL    HW135744   0.689   1.204   7.327 -0.1367  1.4328  0.8441
 8037SOL    HW235745   0.551   1.165   7.306 -0.1795 -0.3631  2.1220
 8038SOL     OW35746   1.087   0.089  11.967  0.3795  0.4539  0.2480
 8038SOL    HW135747   1.065   0.075  11.874 -2.3538 -2.2470  1.2837
 8038SOL    HW235748   1.051   0.176  11.984 -2.0222 -0.9006  2.1231
 8039SOL     OW35749   0.343   0.118   2.644  0.4079 -0.3768 -0.1519
 8039SOL    HW135750   0.265   0.170   2.663  1.8451  1.5580  0.5277
 8039SOL    HW235751   0.307   0.062   2.576 -1.7815 -0.0197  0.7126
 8040SOL     OW35752   1.685   4.438   7.977  0.1543  0.4808 -0.0134
 8040SOL    HW135753   1.741   4.488   8.035 -0.2355 -0.0833  0.8390
 8040SOL    HW235754   1.598   4.478   7.986 -0.3625 -1.0096  1.5435
 8041SOL     OW35755   2.064   0.354   2.625  0.6747  0.1900  0.1243
 8041SOL    HW135756   2.035   0.263   2.630 -0.0586  0.3642 -0.9205
 8041SOL    HW235757   1.995   0.405   2.583  1.9405  0.7181 -1.2982
 8042SOL     OW35758   0.223   1.036   6.140 -0.1124  0.5086 -0.2860
 8042SOL    HW135759   0.301   0.992   6.174 -0.0798  0.4429 -0.4429
 8042SOL    HW235760   0.164   1.009   6.210 -0.2496  2.9242  0.5220
 8043SOL     OW35761   3.771   4.509   7.483 -0.2245  0.1280 -0.1179
 8043SOL    HW135762   3.855   4.464   7.481  0.4724  1.4658 -1.1786
 8043SOL    HW235763   3.749   4.488   7.574  0.9495  1.2510  0.4311
 8044SOL     OW35764   2.129   3.351   5.024  0.0932 -0.3655 -0.0862
 8044SOL    HW135765   2.205   3.368   4.968  0.3690  0.7674  0.6225
 8044SOL    HW235766   2.057   3.354   4.962 -1.1088 -1.3413  1.2738
 8045SOL     OW35767   0.312   0.202   9.119 -0.3677 -0.2520  0.5240
 8045SOL    HW135768   0.222   0.226   9.093  0.2207 -0.4036 -1.6864
 8045SOL    HW235769   0.306   0.168   9.208 -0.9675  1.0473  0.9888
 8046SOL     OW35770   0.746   1.756   2.285 -0.8082  0.0300  0.0636
 8046SOL    HW135771   0.706   1.754   2.372 -0.2648  0.2920  0.3228
 8046SOL    HW235772   0.832   1.798   2.295  0.2924 -1.5640 -2.8177
 8047SOL     OW35773   2.194   2.761   4.474  0.5017 -0.1513  0.5785
 8047SOL    HW135774   2.265   2.707   4.439 -2.0063 -2.2143 -1.3482
 8047SOL    HW235775   2.248   2.829   4.515  0.4793  0.8718 -1.0659
 8048SOL     OW35776   2.527   4.205   2.593 -0.0481 -0.5221  0.0106
 8048SOL    HW135777   2.439   4.244   2.596  0.6328  0.9832  0.3652
 8048SOL    HW235778   2.560   4.227   2.680  0.3699 -1.3130  0.0484
 8049SOL     OW35779   0.825   0.239   7.713  0.3137 -0.8152  1.0687
 8049SOL    HW135780   0.794   0.242   7.804 -1.1310  2.0119  0.4666
 8049SOL    HW235781   0.898   0.178   7.722 -0.2503 -1.7384 -0.6264
 8050SOL     OW35782   0.117   3.026  10.767 -1.1985 -0.0138  0.2785
 8050SOL    HW135783   0.134   3.074  10.849  2.3269  1.8813 -1.5346
 8050SOL    HW235784   0.127   3.082  10.690 -0.3044  1.9333  1.8133
 8051SOL     OW35785   2.280   0.435   5.133  0.2327 -0.1150  0.7050
 8051SOL    HW135786   2.304   0.377   5.061  1.8138  0.8964  0.4345
 8051SOL    HW235787   2.265   0.370   5.202 -3.0233 -0.4317 -0.2808
 8052SOL     OW35788   0.144   1.092   6.689 -0.2954 -0.1558 -0.3691
 8052SOL    HW135789   0.122   1.173   6.734  4.2097 -0.0388  1.6716
 8052SOL    HW235790   0.077   1.082   6.622 -0.2085  0.8717 -0.6009
 8053SOL     OW35791   0.092   0.829   5.446  0.2193  0.2306  0.1567
 8053SOL    HW135792   0.022   0.772   5.413  0.4536 -0.1654  0.3427
 8053SOL    HW235793   0.063   0.918   5.426  1.5160  0.6166  0.0218
 8054SOL     OW35794   4.231   4.285   4.151  0.4689  0.1765 -0.1665
 8054SOL    HW135795   4.317   4.257   4.183  1.5877  0.0932 -3.2842
 8054SOL    HW235796   4.253   4.370   4.112  0.9320 -0.3162 -0.9774
 8055SOL     OW35797   1.609   4.425   1.422  0.0709  0.0222  0.2191
 8055SOL    HW135798   1.564   4.349   1.386 -1.9091  1.4617 -0.3019
 8055SOL    HW235799   1.542   4.452   1.484 -1.0345  1.5062 -1.6393
 8056SOL     OW35800   1.606   0.981   7.581 -0.1326 -0.4647  0.0479
 8056SOL    HW135801   1.676   0.957   7.520 -0.8938 -1.8348 -0.2944
 8056SOL    HW235802   1.641   1.058   7.626  0.6984 -0.9679  0.2549
 8057SOL     OW35803   3.922   3.046   5.651 -0.4360 -0.0688 -0.0012
 8057SOL    HW135804   3.835   3.066   5.616 -0.0159  1.3008 -0.2780
 8057SOL    HW235805   3.982   3.081   5.585  0.1720 -2.4617 -0.7055
 8058SOL     OW35806   4.155   1.184   2.807  0.0019  0.4265  0.2054
 8058SOL    HW135807   4.102   1.173   2.886  2.0503 -0.9918  1.3852
 8058SOL    HW235808   4.236   1.227   2.835  1.3414 -0.7647 -1.8624
 8059SOL     OW35809   3.631   1.713   4.663  0.5306  0.1868  0.2549
 8059SOL    HW135810   3.543   1.697   4.629 -0.4187  1.1967  2.2569
 8059SOL    HW235811   3.615   1.779   4.731  0.8482 -2.0038  2.4221
 8060SOL     OW35812   4.173   3.879  15.169  0.0901  0.0044  0.6129
 8060SOL    HW135813   4.099   3.876  15.107  0.8540  1.4626 -0.3671
 8060SOL    HW235814   4.136   3.930  15.241  4.0298  2.2871  1.0022
 8061SOL     OW35815   4.699   4.232   5.562 -0.2302 -0.2166 -0.2932
 8061SOL    HW135816   4.686   4.275   5.477  0.2133 -0.0102 -0.2556
 8061SOL    HW235817   0.049   4.189   5.556  0.0896  0.0057  3.0959
 8062SOL     OW35818   1.998   0.838   4.752  0.1507 -0.2855 -0.9493
 8062SOL    HW135819   2.083   0.864   4.716  1.0874 -1.2623  0.5240
 8062SOL    HW235820   2.020   0.745   4.759  2.3383  0.3932  1.4141
 8063SOL     OW35821   3.127   1.240   5.540  0.3517  0.0240  0.1818
 8063SOL    HW135822   3.211   1.248   5.585  1.1296 -0.2529 -1.2109
 8063SOL    HW235823   3.076   1.183   5.598 -1.7094  1.2286 -0.4431
 8064SOL     OW35824   2.836   1.375   1.763  0.1937 -0.2821 -0.1498
 8064SOL    HW135825   2.922   1.409   1.790  0.1889 -0.3455 -0.0528
 8064SOL    HW235826   2.816   1.432   1.689  2.8897  1.0554  0.1597
 8065SOL     OW35827   0.263   0.870   9.541  0.5611 -0.3603 -0.2565
 8065SOL    HW135828   0.355   0.846   9.531  0.2928 -2.2937  2.0407
 8065SOL    HW235829   0.277   0.927   9.616 -0.5013  0.5892 -0.7719
 8066SOL     OW35830   3.818   2.861   7.331 -0.5838 -0.0670  0.2458
 8066SOL    HW135831   3.912   2.856   7.345 -0.5811 -1.7395 -0.3952
 8066SOL    HW235832   3.784   2.840   7.418  0.1005  1.8404  0.9684
 8067SOL     OW35833   2.175   2.149   1.401 -0.0299  0.0235  0.4502
 8067SOL    HW135834   2.200   2.125   1.312  0.3807  0.4784  0.4413
 8067SOL    HW235835   2.081   2.133   1.388 -0.0275 -0.4798  1.0817
 8068SOL     OW35836   1.568   1.424   1.259 -0.4044  0.3302 -0.1781
 8068SOL    HW135837   1.655   1.387   1.241 -0.9751 -0.3592 -1.5786
 8068SOL    HW235838   1.537   1.360   1.323 -0.4737  0.4675 -0.0741
 8069SOL     OW35839   1.683   3.820   6.772  0.7094 -0.0700  0.0839
 8069SOL    HW135840   1.628   3.745   6.749 -0.8513  0.2804  2.6515
 8069SOL    HW235841   1.772   3.789   6.756  0.1334 -1.7723  0.1730
 8070SOL     OW35842   2.785   1.159   2.194  0.2574 -0.4279  0.3625
 8070SOL    HW135843   2.694   1.176   2.170  0.5363 -1.5682 -1.5072
 8070SOL    HW235844   2.828   1.122   2.117 -2.6000 -2.1873 -0.3639
 8071SOL     OW35845   1.767   4.128   9.733 -0.3868  0.0180 -0.3317
 8071SOL    HW135846   1.703   4.194   9.760  0.1942 -0.4477  2.1818
 8071SOL    HW235847   1.774   4.165   9.645 -0.5723  2.7779  0.8236
 8072SOL     OW35848   0.991   1.276   8.512  0.0342 -0.1554 -0.7217
 8072SOL    HW135849   1.004   1.370   8.507  0.8070 -0.3043 -1.5261
 8072SOL    HW235850   1.080   1.250   8.485  0.4084 -0.6327  0.9511
 8073SOL     OW35851   1.759   0.283   8.085 -0.3580 -1.1612  0.4648
 8073SOL    HW135852   1.734   0.337   8.010  0.0463  1.3351  2.1353
 8073SOL    HW235853   1.845   0.255   8.055 -0.8566 -0.3093 -1.8205
 8074SOL     OW35854   1.171   1.521   4.088  0.0733 -0.1755 -0.2514
 8074SOL    HW135855   1.089   1.472   4.098 -0.1156 -0.4418 -3.3722
 8074SOL    HW235856   1.159   1.589   4.022 -1.7259  0.2236  0.4894
 8075SOL     OW35857   3.318   4.683   2.021 -0.0870 -0.6931 -0.2431
 8075SOL    HW135858   3.369   4.609   1.990 -0.4612 -1.6066  1.3218
 8075SOL    HW235859   3.262   4.642   2.086 -2.5394 -0.7994 -2.3907
 8076SOL     OW35860   3.301   0.293  15.146  0.2612 -0.7308  0.0690
 8076SOL    HW135861   3.217   0.248  15.154  1.6169 -3.2616  0.1265
 8076SOL    HW235862   3.354   0.226  15.191  0.3477 -0.3597  0.5147
 8077SOL     OW35863   2.380   4.084   8.743 -0.1126  0.3012 -0.0802
 8077SOL    HW135864   2.470   4.073   8.772 -1.4990  1.2900  4.7253
 8077SOL    HW235865   2.382   4.036   8.661 -1.9149  0.4297 -0.2120
 8078SOL     OW35866   3.834   2.401  14.028 -0.5617 -0.1203 -0.4726
 8078SOL    HW135867   3.768   2.418  13.961  1.4376  1.0050 -2.1752
 8078SOL    HW235868   3.900   2.367  13.967 -1.7259 -2.5677 -0.3758
 8079SOL     OW35869   2.392   1.978   1.535  0.4237  0.1018 -0.2904
 8079SOL    HW135870   2.352   1.931   1.609  0.3608 -0.7602 -0.8742
 8079SOL    HW235871   2.310   2.020   1.508  0.0734  0.9773  2.0990
 8080SOL     OW35872   3.593   3.685  15.007 -0.2085 -0.0698 -0.8363
 8080SOL    HW135873   3.526   3.750  14.986 -1.0685 -0.4051  0.9228
 8080SOL    HW235874   3.663   3.748  14.985 -0.0593 -0.0711 -0.3525
 8081SOL     OW35875   3.129   4.229   8.882 -0.4422 -0.2010  0.3109
 8081SOL    HW135876   3.169   4.249   8.797  0.2510 -0.7756  0.5026
 8081SOL    HW235877   3.145   4.316   8.918 -0.4397 -0.1614  0.2160
 8082SOL     OW35878   3.005   3.849  11.043  0.4578 -0.8071  0.2493
 8082SOL    HW135879   2.944   3.797  10.990 -1.8669  0.9953  1.1840
 8082SOL    HW235880   3.047   3.779  11.093  2.6078 -0.3020 -0.8159
 8083SOL     OW35881   1.602   2.011  15.578 -0.1941 -0.3009 -0.2770
 8083SOL    HW135882   1.638   2.020  15.490 -1.2970 -0.6544 -0.7551
 8083SOL    HW235883   1.683   1.982  15.622  0.5157 -0.0433 -1.4214
 8084SOL     OW35884   2.012   3.896  16.466 -0.0469 -0.4620 -0.3837
 8084SOL    HW135885   1.938   3.892  16.528 -0.6770 -0.8982 -1.1607
 8084SOL    HW235886   2.079   3.849  16.515  1.8157 -0.0705 -2.5700
 8085SOL     OW35887   3.721   0.769   6.210 -0.4822  0.1592 -0.7279
 8085SOL    HW135888   3.799   0.824   6.213 -0.9628  0.9335 -2.1853
 8085SOL    HW235889   3.734   0.724   6.293  0.6540 -0.5434 -1.2839
 8086SOL     OW35890   2.191   3.669   2.515 -0.4790 -0.3751 -0.2660
 8086SOL    HW135891   2.284   3.648   2.521 -0.2497 -0.0692 -2.7947
 8086SOL    HW235892   2.192   3.763   2.498  1.8609 -0.6171 -1.5482
 8087SOL     OW35893   4.265   0.274   1.727  0.1222  0.0267 -0.6387
 8087SOL    HW135894   4.288   0.227   1.808 -3.9549  0.6021  0.8622
 8087SOL    HW235895   4.242   0.361   1.760  0.8965 -0.0890  0.2344
 8088SOL     OW35896   1.915   3.987   5.230 -0.2948 -0.6795  0.2953
 8088SOL    HW135897   1.957   3.906   5.201 -0.3523  0.0804 -1.9641
 8088SOL    HW235898   1.848   3.959   5.292 -1.8215 -0.0316 -1.0646
 8089SOL     OW35899   2.180   2.938   1.841 -0.2651  0.1866 -0.1578
 8089SOL    HW135900   2.223   2.919   1.924 -0.8832 -0.3124  0.0484
 8089SOL    HW235901   2.110   2.872   1.836 -1.2718  1.3310 -1.2411
 8090SOL     OW35902   2.566   3.770  16.033 -0.0533 -0.3893 -0.1573
 8090SOL    HW135903   2.656   3.790  16.060 -0.6406 -0.3976  1.8520
 8090SOL    HW235904   2.551   3.839  15.969  1.1912  0.5294  0.5377
 8091SOL     OW35905   2.696   2.140   1.042  0.1867 -0.5562 -0.1792
 8091SOL    HW135906   2.683   2.217   1.098 -1.3143 -0.9153 -0.0353
 8091SOL    HW235907   2.784   2.163   1.014 -0.6923  0.9768 -1.6144
 8092SOL     OW35908   3.689   1.592   7.874  0.1565 -0.1705 -0.2866
 8092SOL    HW135909   3.748   1.519   7.891 -0.5573 -0.3968  1.2781
 8092SOL    HW235910   3.629   1.550   7.812  3.3221 -1.4801 -2.4231
 8093SOL     OW35911   2.653   3.499   6.942 -0.2962  0.1070 -0.4390
 8093SOL    HW135912   2.662   3.553   7.021  1.7714 -1.7910  0.6194
 8093SOL    HW235913   2.646   3.414   6.986  2.0531 -0.9427 -2.0214
 8094SOL     OW35914   1.319   0.155  13.044 -0.5438  0.0131 -0.4943
 8094SOL    HW135915   1.317   0.077  12.988 -5.3066 -1.0849  1.2320
 8094SOL    HW235916   1.388   0.138  13.109  0.8049  1.0804 -1.6494
 8095SOL     OW35917   2.777   0.933  13.908 -0.5479 -0.5347  0.0923
 8095SOL    HW135918   2.861   0.887  13.916 -0.8897 -1.5008 -1.9006
 8095SOL    HW235919   2.718   0.858  13.894  1.3590 -2.1775  0.8644
 8096SOL     OW35920   1.417   0.500   3.134 -0.4346 -0.4467 -0.1689
 8096SOL    HW135921   1.456   0.520   3.048  1.0175  1.1497  0.8440
 8096SOL    HW235922   1.326   0.491   3.104 -1.0841  0.0601  1.6927
 8097SOL     OW35923   4.537   4.191   6.569  0.2011  0.1451 -0.2138
 8097SOL    HW135924   4.495   4.147   6.643  2.0539 -0.3871  0.5240
 8097SOL    HW235925   4.455   4.198   6.520 -0.1891 -0.9677  0.2651
 8098SOL     OW35926   3.753   0.646   5.519  0.0392 -0.1644 -0.1982
 8098SOL    HW135927   3.785   0.560   5.545 -2.5364 -1.1928 -0.3718
 8098SOL    HW235928   3.812   0.680   5.452 -1.6202 -0.0394 -1.5971
 8099SOL     OW35929   0.932   3.241   4.738  0.1925  0.0989  0.1089
 8099SOL    HW135930   0.850   3.241   4.788  1.6686 -0.0989  2.5255
 8099SOL    HW235931   0.992   3.280   4.802 -0.6778  0.0538  0.9620
 8100SOL     OW35932   1.272   1.514  12.708  0.3761 -0.8139  0.5958
 8100SOL    HW135933   1.324   1.485  12.633 -0.8268  1.1807 -0.9965
 8100SOL    HW235934   1.335   1.502  12.779 -1.1203 -1.8144  1.7464
 8101SOL     OW35935   4.207   0.473   1.231  0.2342 -0.2179  0.8027
 8101SOL    HW135936   4.144   0.540   1.206 -1.5669 -2.1415  0.2718
 8101SOL    HW235937   4.152   0.417   1.285 -1.5739  1.0842  0.3145
 8102SOL     OW35938   0.329   0.508   9.295 -0.0050  0.0037  0.6588
 8102SOL    HW135939   0.252   0.489   9.242 -0.6875 -0.1419  1.7082
 8102SOL    HW235940   0.364   0.589   9.257 -0.4124  1.4290  3.2519
 8103SOL     OW35941   2.238   2.352   2.524  0.0597  0.0418 -0.3503
 8103SOL    HW135942   2.252   2.439   2.487  0.0845 -0.3146 -1.1677
 8103SOL    HW235943   2.295   2.353   2.601  2.2068  0.7170 -1.9474
 8104SOL     OW35944   2.198   3.903   2.225  1.0349  0.3177 -0.2974
 8104SOL    HW135945   2.160   3.971   2.169 -0.8653  0.5473  1.2872
 8104SOL    HW235946   2.123   3.844   2.221  0.0742  1.5459 -0.5823
 8105SOL     OW35947   2.330   4.667   8.969  0.0280 -0.1768 -0.7603
 8105SOL    HW135948   2.346   4.716   8.888 -2.3135 -0.2906 -1.2943
 8105SOL    HW235949   2.260   4.719   9.009  1.3874 -0.1619  1.5976
 8106SOL     OW35950   0.982   1.990   4.285 -0.1208  0.0574 -0.1907
 8106SOL    HW135951   1.041   1.933   4.236  0.3818  0.4214 -0.0103
 8106SOL    HW235952   0.986   1.963   4.376 -0.1863 -0.8621 -0.4587
 8107SOL     OW35953   2.984   0.338   6.029 -0.1568  0.8174  0.0149
 8107SOL    HW135954   3.066   0.363   6.071 -0.7875 -0.1509  1.8261
 8107SOL    HW235955   2.934   0.319   6.108 -1.0691 -0.0913 -0.7745
 8108SOL     OW35956   1.677   2.412  16.730 -0.0512 -0.1689 -0.0926
 8108SOL    HW135957   1.587   2.380  16.723 -0.4062  1.0239 -1.0227
 8108SOL    HW235958   1.703   2.385  16.641  2.8838 -0.9249  0.9686
 8109SOL     OW35959   1.867   0.918   0.192 -0.6886 -0.3833 -0.5050
 8109SOL    HW135960   1.947   0.936   0.142 -0.2020 -1.7812 -0.2485
 8109SOL    HW235961   1.812   0.992   0.167  1.1946  0.7444 -1.3392
 8110SOL     OW35962   3.516   1.865   0.356  0.4476 -0.5361  0.0943
 8110SOL    HW135963   3.434   1.897   0.394  1.3112  0.7407  0.8624
 8110SOL    HW235964   3.523   1.924   0.281 -1.3935 -0.5327 -0.0871
 8111SOL     OW35965   0.742   1.294   0.904 -0.2689  0.7061 -0.0990
 8111SOL    HW135966   0.695   1.305   0.987  1.6733 -0.2807  1.1238
 8111SOL    HW235967   0.682   1.230   0.865 -0.7484  1.8094 -1.1993
 8112SOL     OW35968   0.748   2.596   4.512  0.1811  0.6502 -0.1308
 8112SOL    HW135969   0.795   2.633   4.437 -1.6016  1.0021 -1.0707
 8112SOL    HW235970   0.826   2.581   4.565  0.2253  1.7892  0.1259
 8113SOL     OW35971   2.576   1.443  10.917 -0.3141  0.6421  0.2770
 8113SOL    HW135972   2.585   1.373  10.982 -0.5201 -0.3145 -0.7229
 8113SOL    HW235973   2.481   1.455  10.918 -0.3184  0.5811  0.9252
 8114SOL     OW35974   3.657   3.498  14.781 -0.1987 -0.1205 -0.1989
 8114SOL    HW135975   3.748   3.472  14.765 -0.4347 -2.5290  2.5245
 8114SOL    HW235976   3.667   3.576  14.835 -3.8436 -0.5709  1.0751
 8115SOL     OW35977   0.089   4.582   9.138  0.3200  0.0403  0.4521
 8115SOL    HW135978   0.051   4.658   9.095 -0.3655  0.7739  2.3495
 8115SOL    HW235979   0.010   4.538   9.168  1.1239 -1.7718 -0.0695
 8116SOL     OW35980   3.525   1.626   1.573 -0.2057 -0.1906 -0.2262
 8116SOL    HW135981   3.565   1.598   1.491  1.6384  1.0494  0.2385
 8116SOL    HW235982   3.447   1.674   1.545 -0.7894 -1.8839 -1.5143
 8117SOL     OW35983   0.849   4.283   9.897  0.0713  0.0925 -0.1277
 8117SOL    HW135984   0.874   4.191   9.890 -1.0350 -0.2194  0.0962
 8117SOL    HW235985   0.853   4.311   9.805  1.1058  0.7164  0.1039
 8118SOL     OW35986   2.890   3.445   1.817  0.1097 -0.0212 -0.1663
 8118SOL    HW135987   2.950   3.520   1.810  2.5837 -1.8603  1.5189
 8118SOL    HW235988   2.956   3.384   1.785  1.6327  0.4844  1.9690
 8119SOL     OW35989   3.925   4.350   7.105  0.1653  0.7479 -0.0154
 8119SOL    HW135990   3.943   4.274   7.161  1.1099  0.4386 -0.7298
 8119SOL    HW235991   3.840   4.383   7.133  0.5937  0.5509  1.5364
 8120SOL     OW35992   1.297   2.312   4.848 -0.3358 -0.0339 -0.5200
 8120SOL    HW135993   1.378   2.361   4.866  0.5334 -1.6109 -0.1717
 8120SOL    HW235994   1.266   2.311   4.938 -1.0585 -2.1523 -0.7992
 8121SOL     OW35995   0.942   1.764  14.527 -0.4675  0.3547 -0.1369
 8121SOL    HW135996   1.037   1.762  14.515 -0.4283 -1.1006  0.3775
 8121SOL    HW235997   0.935   1.729  14.616 -2.4243  1.0989  0.0031
 8122SOL     OW35998   1.117   0.550   7.474  0.3207 -0.1413  0.5585
 8122SOL    HW135999   1.179   0.519   7.539  0.5743  0.5348  0.6331
 8122SOL    HW236000   1.074   0.471   7.440  1.2609 -0.1372 -0.6358
 8123SOL     OW36001   4.149   4.573   7.068  0.3442  0.1362  0.5828
 8123SOL    HW136002   4.102   4.490   7.060 -2.0809  1.5506  0.2127
 8123SOL    HW236003   4.101   4.609   7.143  1.6012  0.4261  1.2491
 8124SOL     OW36004   1.724   4.567   4.375 -0.2131 -0.1405  0.2266
 8124SOL    HW136005   1.818   4.568   4.391 -0.0927  0.6593 -0.5565
 8124SOL    HW236006   1.704   4.651   4.417  1.1169 -0.1491  0.8674
 8125SOL     OW36007   0.238   0.143   9.385 -0.0712 -0.0147 -0.0004
 8125SOL    HW136008   0.233   0.101   9.471  1.7126 -0.2170  0.0162
 8125SOL    HW236009   0.174   0.214   9.395  1.0762  1.2331 -1.5058
 8126SOL     OW36010   4.372   2.890   5.822  0.1819  0.1501 -0.4109
 8126SOL    HW136011   4.313   2.815   5.828 -0.8601  0.9647 -0.3841
 8126SOL    HW236012   4.338   2.940   5.747  2.6185  2.9776  0.3705
 8127SOL     OW36013   3.696   0.830   3.451  0.6600 -0.0717 -0.0384
 8127SOL    HW136014   3.673   0.922   3.468 -1.7676 -0.7325  0.1296
 8127SOL    HW236015   3.740   0.843   3.367 -0.1950  0.3085 -0.4249
 8128SOL     OW36016   4.141   1.572  16.739 -0.1856  0.2353  0.4258
 8128SOL    HW136017   4.196   1.650  16.731  2.0189 -1.3777 -0.3576
 8128SOL    HW236018   4.133   1.543  16.648 -1.3052  1.0784  0.2581
 8129SOL     OW36019   1.809   1.610  17.618  0.5274 -0.3534 -0.5745
 8129SOL    HW136020   1.841   1.673  17.553 -0.6943 -2.4843 -3.2366
 8129SOL    HW236021   1.731   1.659  17.644 -1.4822 -2.5716 -2.5023
 8130SOL     OW36022   0.957   2.682  14.279  0.0698  0.0460 -0.0792
 8130SOL    HW136023   1.042   2.723  14.260 -0.2084  0.5531 -0.2200
 8130SOL    HW236024   0.971   2.648  14.367  0.9187 -2.1501 -1.0281
 8131SOL     OW36025   0.861   1.179   1.627 -0.0660  0.2174  0.2078
 8131SOL    HW136026   0.952   1.155   1.614 -0.1798 -0.5912  0.9151
 8131SOL    HW236027   0.853   1.233   1.549 -1.0279  1.0231  0.8593
 8132SOL     OW36028   1.596   0.401   1.445 -0.2162 -0.1853 -0.2810
 8132SOL    HW136029   1.645   0.457   1.504  0.0946  0.8514 -1.5124
 8132SOL    HW236030   1.507   0.401   1.480 -0.5114  1.3342 -1.0355
 8133SOL     OW36031   2.633   3.438   6.315 -0.4572 -0.1544  0.3136
 8133SOL    HW136032   2.677   3.354   6.299  0.0325  0.0291  0.7218
 8133SOL    HW236033   2.702   3.495   6.282 -2.1429  1.0014 -1.2728
 8134SOL     OW36034   4.470   0.535   4.256  0.0772  0.0426 -0.0272
 8134SOL    HW136035   4.386   0.553   4.297 -0.9252  1.6211 -2.7692
 8134SOL    HW236036   4.451   0.501   4.169  1.4769 -3.2993  0.9688
 8135SOL     OW36037   2.746   4.593   7.252  0.2452 -0.0232 -0.7557
 8135SOL    HW136038   2.753   4.604   7.347 -0.2680  3.4464 -1.1306
 8135SOL    HW236039   2.792   4.675   7.235 -1.7028  1.3734  0.6625
 8136SOL     OW36040   2.607   4.037   4.498 -0.0563 -0.1997  0.4682
 8136SOL    HW136041   2.572   4.033   4.587 -1.6106  1.7775 -0.0396
 8136SOL    HW236042   2.687   3.986   4.508  1.2580  1.7876  0.2716
 8137SOL     OW36043   3.108   2.033   0.651  0.3028 -0.4392 -0.4278
 8137SOL    HW136044   3.157   2.079   0.719  1.1616 -0.1189 -1.2725
 8137SOL    HW236045   3.055   2.102   0.610 -2.2223 -1.2676  1.4140
 8138SOL     OW36046   1.132   0.334  13.005 -0.6840 -0.1165 -0.1732
 8138SOL    HW136047   1.195   0.406  13.006 -1.9379  0.9665  1.2826
 8138SOL    HW236048   1.191   0.263  13.029 -0.3266  1.2260  2.9327
 8139SOL     OW36049   1.462   2.601   8.710  0.1786 -0.2097  0.0247
 8139SOL    HW136050   1.441   2.523   8.659  1.2186  0.1399 -0.9399
 8139SOL    HW236051   1.556   2.590   8.700  0.4441  2.6778 -0.7419
 8140SOL     OW36052   0.816   2.382   4.880 -0.7337 -0.0025 -0.5217
 8140SOL    HW136053   0.799   2.297   4.922  0.1844  0.6753  1.2293
 8140SOL    HW236054   0.730   2.394   4.840 -0.5854 -1.9755 -1.4350
 8141SOL     OW36055   1.177   0.950  17.106  0.6242  0.0476 -0.0837
 8141SOL    HW136056   1.209   0.944  17.196  2.1233 -1.4791 -0.7190
 8141SOL    HW236057   1.256   0.929  17.057  0.4626  0.1169 -0.3766
 8142SOL     OW36058   2.761   1.756   3.087  0.9243 -0.0220  0.7232
 8142SOL    HW136059   2.672   1.723   3.102  0.6352  0.6140  0.3831
 8142SOL    HW236060   2.752   1.843   3.047  0.0641 -1.2318 -1.6859
 8143SOL     OW36061   2.938   4.108   5.114  0.7225 -0.2154 -0.1746
 8143SOL    HW136062   3.006   4.107   5.047 -0.0933  2.1139 -1.0638
 8143SOL    HW236063   2.887   4.035   5.079 -1.5084  0.4035  1.7694
 8144SOL     OW36064   0.955   0.898   7.797 -0.2295 -0.6986 -0.4537
 8144SOL    HW136065   1.039   0.945   7.802 -0.4451 -0.4720  1.0323
 8144SOL    HW236066   0.977   0.829   7.734  1.9694  1.2696 -1.8670
 8145SOL     OW36067   1.900   2.585   2.425 -0.4112 -0.3022  0.1615
 8145SOL    HW136068   1.882   2.678   2.438 -0.4272 -0.0158 -1.8097
 8145SOL    HW236069   1.933   2.570   2.514  2.4374  1.7512 -0.5299
 8146SOL     OW36070   1.218   2.000   8.738 -0.2489 -0.9079  0.0518
 8146SOL    HW136071   1.281   1.999   8.809 -0.9858  1.7813  0.7349
 8146SOL    HW236072   1.189   2.090   8.723  2.0371 -0.0715  0.7425
 8147SOL     OW36073   4.104   3.683  17.144 -0.7228 -0.2710  0.2577
 8147SOL    HW136074   4.149   3.703  17.061 -0.4428 -3.0855 -0.2908
 8147SOL    HW236075   4.104   3.587  17.144  0.3867 -0.2801 -0.8895
 8148SOL     OW36076   2.891   2.746   2.357 -0.5628  0.4171  0.1988
 8148SOL    HW136077   2.796   2.746   2.368 -0.4879  0.1861  0.8394
 8148SOL    HW236078   2.916   2.833   2.387  0.6670 -0.1164  0.7279
 8149SOL     OW36079   4.115   4.705   5.229  0.1662 -0.6023 -0.1703
 8149SOL    HW136080   4.208   4.728   5.223 -0.4131  2.5211  2.8782
 8149SOL    HW236081   4.066   0.052   5.218  0.8299 -0.2641 -0.6248
 8150SOL     OW36082   1.054   3.471  10.261  0.3631  0.1171 -0.4819
 8150SOL    HW136083   1.028   3.530  10.190  1.0396  1.4454  0.3822
 8150SOL    HW236084   1.001   3.510  10.330  0.1979 -2.1190  0.6494
 8151SOL     OW36085   0.124   2.051   2.505  0.4075 -0.1340 -0.7790
 8151SOL    HW136086   0.207   2.076   2.465  1.1277  0.0104  0.7857
 8151SOL    HW236087   0.144   2.073   2.596 -0.4260  1.9934 -1.1022
 8152SOL     OW36088   3.921   2.847   5.858 -0.3181 -0.3198  0.3053
 8152SOL    HW136089   3.912   2.792   5.781  0.0074 -0.3399  0.2826
 8152SOL    HW236090   3.921   2.928   5.807 -0.0963  0.3935  1.4219
 8153SOL     OW36091   1.848   0.867  16.344 -0.1700 -0.2311 -0.3905
 8153SOL    HW136092   1.838   0.879  16.249 -1.6963 -1.6199 -0.4236
 8153SOL    HW236093   1.939   0.891  16.360  0.2205 -1.7989 -0.2227
 8154SOL     OW36094   2.551   2.997   4.644 -0.0773 -0.3483 -0.1101
 8154SOL    HW136095   2.618   2.960   4.702 -1.6359 -2.2057  0.5303
 8154SOL    HW236096   2.577   3.088   4.630 -2.1051  0.4413  1.2281
 8155SOL     OW36097   2.714   3.243   0.412  0.2898  0.2204  0.1290
 8155SOL    HW136098   2.771   3.248   0.336 -0.4948 -0.7095 -0.5161
 8155SOL    HW236099   2.726   3.332   0.446 -1.0525  0.2426  0.5509
 8156SOL     OW36100   2.834   1.845   5.497  0.0368 -0.1426 -0.1473
 8156SOL    HW136101   2.887   1.784   5.549 -0.9473 -1.0756 -0.2436
 8156SOL    HW236102   2.910   1.888   5.456  0.4890  0.8724  1.7280
 8157SOL     OW36103   2.279   1.808   4.468 -0.1367  0.1607 -0.1085
 8157SOL    HW136104   2.308   1.891   4.507 -0.0044  1.1145 -2.2193
 8157SOL    HW236105   2.301   1.828   4.377 -2.6971 -0.4447 -0.8475
 8158SOL     OW36106   1.999   4.294   7.285 -0.0092 -0.1313  0.6375
 8158SOL    HW136107   2.075   4.268   7.337  0.6992  1.2791  0.3031
 8158SOL    HW236108   1.965   4.369   7.335 -1.5563  0.0597 -0.7181
 8159SOL     OW36109   3.739   3.090   0.077  0.9815 -0.1123 -0.1014
 8159SOL    HW136110   3.829   3.100   0.048  0.5947 -0.7456 -1.4877
 8159SOL    HW236111   3.751   3.046   0.162  2.1439 -0.4140 -0.4295
 8160SOL     OW36112   3.660   3.358   5.324  0.4621 -0.4155  0.6513
 8160SOL    HW136113   3.565   3.353   5.323  0.4655  0.3291 -2.5296
 8160SOL    HW236114   3.677   3.440   5.371 -0.3296  0.1200 -0.0124
 8161SOL     OW36115   2.933   4.256  10.268  0.0944  1.0059 -0.5385
 8161SOL    HW136116   2.838   4.248  10.273  0.3693 -1.0156  1.2140
 8161SOL    HW236117   2.933   4.323  10.200 -0.7384 -0.6798 -2.2271
 8162SOL     OW36118   3.202   2.144   7.495 -0.1720 -0.3155 -0.1422
 8162SOL    HW136119   3.182   2.058   7.532 -0.6589 -0.0010  0.3206
 8162SOL    HW236120   3.132   2.143   7.430  0.0049  0.0995 -0.3339
 8163SOL     OW36121   3.751   1.153   7.346  0.5330 -0.3570 -0.6832
 8163SOL    HW136122   3.715   1.184   7.263  0.3820 -3.3375 -1.7403
 8163SOL    HW236123   3.810   1.226   7.364  0.9756 -0.5013 -1.5486
 8164SOL     OW36124   1.480   0.397  13.224 -0.2266  0.1862  0.4102
 8164SOL    HW136125   1.417   0.336  13.262  1.6248 -1.2654  1.1277
 8164SOL    HW236126   1.566   0.370  13.255  0.9720  0.7923 -2.4095
 8165SOL     OW36127   1.326   0.739   6.677  0.3187  0.6500  0.4470
 8165SOL    HW136128   1.389   0.791   6.727  0.6019  2.7095 -2.0601
 8165SOL    HW236129   1.379   0.715   6.602  0.7511  0.0793  0.9348
 8166SOL     OW36130   1.048   1.986   3.520 -0.3172  0.2870 -0.4841
 8166SOL    HW136131   0.971   2.039   3.541 -1.0710 -0.3771 -1.5899
 8166SOL    HW236132   1.113   2.056   3.517  0.5297 -0.5403 -1.2710
 8167SOL     OW36133   3.157   3.586   8.745  0.0324 -0.0186  0.3813
 8167SOL    HW136134   3.122   3.608   8.832 -1.6216 -0.0967 -0.2730
 8167SOL    HW236135   3.086   3.529   8.717 -0.4503 -0.1428  1.8633
 8168SOL     OW36136   2.664   0.731   5.388 -0.2314  0.1369  0.1396
 8168SOL    HW136137   2.702   0.819   5.390  1.1739 -0.4559 -1.3372
 8168SOL    HW236138   2.578   0.745   5.427  1.1667 -0.4618  3.4580
 8169SOL     OW36139   1.467   0.217  12.757  0.1379  0.8201 -0.2388
 8169SOL    HW136140   1.372   0.203  12.758  0.1994  0.4168 -0.0630
 8169SOL    HW236141   1.481   0.277  12.831  0.8487 -0.1345  0.3975
 8170SOL     OW36142   2.015   4.216   2.615  0.5415  0.1848  0.4160
 8170SOL    HW136143   2.011   4.171   2.699  0.7870 -1.2482 -0.3398
 8170SOL    HW236144   1.930   4.261   2.617  0.3996 -0.2269  3.4021
 8171SOL     OW36145   4.284   0.938  16.904 -0.3056 -0.4194  0.0776
 8171SOL    HW136146   4.365   0.956  16.856 -0.3284  2.1261  1.0231
 8171SOL    HW236147   4.288   0.991  16.984 -0.8723 -0.8685  0.4004
 8172SOL     OW36148   3.881   2.077   2.409 -0.2344 -0.3954 -0.4133
 8172SOL    HW136149   3.822   2.118   2.472  0.5080  0.1680 -0.0966
 8172SOL    HW236150   3.894   2.145   2.343 -0.5177  1.2743  1.2543
 8173SOL     OW36151   3.184   4.071   4.985 -0.2692 -0.3717 -0.3080
 8173SOL    HW136152   3.268   4.054   4.942 -0.1397  1.0579 -0.6381
 8173SOL    HW236153   3.140   3.996   4.945 -1.4814 -0.7125  1.6867
 8174SOL     OW36154   2.122   3.118   0.557  0.1078  0.3248 -0.5553
 8174SOL    HW136155   2.207   3.159   0.541  1.5463 -1.1813  3.3767
 8174SOL    HW236156   2.115   3.110   0.652  1.2289  0.6419 -0.4419
 8175SOL     OW36157   3.564   3.141   1.423 -0.0353 -0.3180 -0.2033
 8175SOL    HW136158   3.651   3.124   1.461  0.4439 -1.1554 -1.6917
 8175SOL    HW236159   3.573   3.105   1.335  0.1490  1.0737 -0.7407
 8176SOL     OW36160   4.726   1.870   3.546 -0.4824  0.1736 -0.3528
 8176SOL    HW136161   0.061   1.858   3.482 -0.3414  2.4034 -0.5828
 8176SOL    HW236162   4.707   1.963   3.534  2.5767  0.7350 -0.8941
 8177SOL     OW36163   3.512   1.712   8.866 -0.0087 -0.2879  0.2926
 8177SOL    HW136164   3.468   1.755   8.939 -0.6135 -0.6541  0.1424
 8177SOL    HW236165   3.455   1.644   8.831 -2.2694  1.7421  0.0719
 8178SOL     OW36166   2.076   2.120  12.409  0.7059 -0.4529 -0.0395
 8178SOL    HW136167   2.107   2.056  12.345  0.1783 -0.2355 -0.5079
 8178SOL    HW236168   2.155   2.161  12.443  0.8983 -0.1459 -0.8524
 8179SOL     OW36169   0.584   1.530   2.485 -0.0589  0.0117  0.4716
 8179SOL    HW136170   0.626   1.601   2.533 -0.7854  0.4965  0.4035
 8179SOL    HW236171   0.496   1.568   2.480  1.0086  2.3614 -0.6806
 8180SOL     OW36172   1.951   2.162  11.236 -0.2564 -0.0551  0.0583
 8180SOL    HW136173   1.872   2.212  11.256 -1.7615 -2.3578 -0.0915
 8180SOL    HW236174   1.987   2.147  11.323  2.2532  0.0456 -0.9598
 8181SOL     OW36175   0.338   2.013   4.468 -0.1486 -0.2858 -0.1743
 8181SOL    HW136176   0.391   1.947   4.512 -1.0972 -1.5779 -0.9556
 8181SOL    HW236177   0.391   2.041   4.394 -1.6966 -1.2069 -1.6401
 8182SOL     OW36178   1.228   1.072   3.215 -0.3393  0.2884 -0.2890
 8182SOL    HW136179   1.150   1.124   3.198 -0.0310  0.4561 -1.1917
 8182SOL    HW236180   1.198   1.032   3.297 -0.1615 -0.0172 -0.3717
 8183SOL     OW36181   0.898   1.807   2.010  0.1981  0.5450  0.6789
 8183SOL    HW136182   0.808   1.840   2.007 -0.0353  0.1585  3.3219
 8183SOL    HW236183   0.946   1.885   2.037  0.5597  0.7759 -0.6766
 8184SOL     OW36184   0.185   3.749  15.640  1.0914 -0.0502  0.4388
 8184SOL    HW136185   0.266   3.740  15.591  1.0503  1.4905  0.0677
 8184SOL    HW236186   0.182   3.842  15.662 -1.3895 -0.7325  3.0076
 8185SOL     OW36187   3.983   1.007   4.378 -0.1134  0.1682  0.0243
 8185SOL    HW136188   3.888   1.007   4.370 -0.1903 -0.2842  0.9491
 8185SOL    HW236189   4.008   1.090   4.336  0.4441  1.0439  2.0904
 8186SOL     OW36190   0.060   3.300   4.174  0.4885 -0.4871 -0.2148
 8186SOL    HW136191   0.088   3.387   4.201 -0.5014 -0.4956  0.8011
 8186SOL    HW236192   0.036   3.257   4.256 -1.7628  1.0936 -0.0432
 8187SOL     OW36193   0.923   2.809  17.328  0.3491 -0.6628  0.4035
 8187SOL    HW136194   0.901   2.901  17.312  2.4160 -0.0551  1.0263
 8187SOL    HW236195   0.988   2.793  17.259 -0.3715 -0.3758 -0.3353
 8188SOL     OW36196   3.462   0.750   2.294  0.2966  0.0339 -0.2349
 8188SOL    HW136197   3.455   0.655   2.287  0.6167 -0.0953  1.2390
 8188SOL    HW236198   3.554   0.762   2.268  0.4285  0.1223  0.2609
 8189SOL     OW36199   3.778   3.531   6.213  0.0674 -0.3888 -0.0773
 8189SOL    HW136200   3.798   3.439   6.194 -1.3996 -0.4657 -1.2465
 8189SOL    HW236201   3.838   3.588   6.165  0.8043 -1.1855 -0.1224
 8190SOL     OW36202   0.186   3.547  12.721 -0.6708 -0.2861  0.1467
 8190SOL    HW136203   0.104   3.500  12.733 -0.6621  0.0783  1.5627
 8190SOL    HW236204   0.168   3.612  12.789  0.6888  2.4422 -2.0918
 8191SOL     OW36205   2.422   1.854  10.826 -0.1995  0.4273  0.0763
 8191SOL    HW136206   2.476   1.901  10.762 -1.5011  0.5235 -0.9417
 8191SOL    HW236207   2.352   1.819  10.771  0.3953 -3.1966  1.5858
 8192SOL     OW36208   3.612   1.962   8.026  0.2629  0.0424 -0.5067
 8192SOL    HW136209   3.680   2.029   8.027  0.5117 -0.1940 -1.7842
 8192SOL    HW236210   3.600   1.933   8.116 -3.3728 -0.5246 -1.1551
 8193SOL     OW36211   4.629   0.687   5.330 -0.2198 -0.2007 -0.2840
 8193SOL    HW136212   4.587   0.616   5.280 -0.7417 -2.6358  3.5772
 8193SOL    HW236213   4.629   0.761   5.270  0.9926 -0.8135 -1.0177
 8194SOL     OW36214   0.109   1.052  15.706  0.5553  0.0616 -0.6067
 8194SOL    HW136215   0.056   1.015  15.635  0.7951  0.3082 -0.9128
 8194SOL    HW236216   0.065   1.134  15.726 -0.3123 -0.1828 -1.5163
 8195SOL     OW36217   1.024   2.640  10.500  0.5062  0.0616  0.3319
 8195SOL    HW136218   1.026   2.600  10.413  1.4426  0.7969  0.0227
 8195SOL    HW236219   0.939   2.681  10.489  1.3056  1.6521  0.1475
 8196SOL     OW36220   4.309   0.732  16.301 -1.1648 -0.4479 -0.1362
 8196SOL    HW136221   4.224   0.711  16.340 -3.1869  0.4697 -4.0338
 8196SOL    HW236222   4.327   0.821  16.331  1.1905 -0.6072 -1.1193
 8197SOL     OW36223   1.810   2.517   3.658  0.1340  0.1665  0.1517
 8197SOL    HW136224   1.812   2.444   3.596  1.5922  1.3213 -1.1681
 8197SOL    HW236225   1.738   2.488   3.714 -1.3144  0.9712 -1.2884
 8198SOL     OW36226   2.291   1.049  15.901  0.2848  0.0993  0.0275
 8198SOL    HW136227   2.294   1.087  15.813 -0.4542 -1.5025 -0.6862
 8198SOL    HW236228   2.357   0.981  15.889 -1.1783 -1.1868 -0.7616
 8199SOL     OW36229   4.365   1.455   6.386  0.0338 -0.6494  0.1366
 8199SOL    HW136230   4.387   1.477   6.295 -1.3794  2.3174  0.5436
 8199SOL    HW236231   4.420   1.510   6.442 -0.8238 -0.1163  0.4465
 8200SOL     OW36232   3.507   4.628   6.247 -0.2401  0.2432 -0.6760
 8200SOL    HW136233   3.503   4.575   6.326 -0.7470  1.9007  0.3831
 8200SOL    HW236234   3.438   4.592   6.192  0.5580 -0.5428 -1.1728
 8201SOL     OW36235   1.010   2.590   2.389  0.5289 -0.5059 -0.1541
 8201SOL    HW136236   0.928   2.569   2.344  0.8215  2.6796 -2.1597
 8201SOL    HW236237   1.015   2.541   2.471 -1.7716  0.0877  0.3432
 8202SOL     OW36238   2.069   0.242   0.797  0.2854  0.3958 -0.9619
 8202SOL    HW136239   2.087   0.281   0.712  1.0230 -1.3787 -1.6216
 8202SOL    HW236240   2.110   0.157   0.780  0.4978  0.6373 -1.6654
 8203SOL     OW36241   3.588   3.838   5.538  0.2053 -0.5203 -0.1692
 8203SOL    HW136242   3.568   3.883   5.620  2.3003 -2.9892  1.6938
 8203SOL    HW236243   3.504   3.856   5.496 -0.3052 -1.7913  0.2996
 8204SOL     OW36244   2.324   1.448   4.297 -0.2856 -0.5261 -0.1397
 8204SOL    HW136245   2.311   1.500   4.218 -0.7621 -2.8150 -1.5285
 8204SOL    HW236246   2.404   1.488   4.331 -0.1031 -0.3705 -0.7494
 8205SOL     OW36247   2.255   1.926   7.880 -0.0288  0.9963  0.3785
 8205SOL    HW136248   2.307   1.858   7.922 -0.0790  0.1336 -0.9905
 8205SOL    HW236249   2.197   1.959   7.949 -0.8670  1.3477 -0.4928
 8206SOL     OW36250   2.025   3.755   5.131 -0.3704  0.2187 -0.1823
 8206SOL    HW136251   2.106   3.712   5.104  1.2566  0.9384  3.5921
 8206SOL    HW236252   2.009   3.681   5.190 -1.4728  0.6949  0.1221
 8207SOL     OW36253   1.382   1.143  16.407 -0.4725  0.1025  0.6607
 8207SOL    HW136254   1.392   1.234  16.435 -1.3976  1.0670 -2.1280
 8207SOL    HW236255   1.471   1.116  16.385 -0.4592 -2.1822  3.6289
 8208SOL     OW36256   4.161   2.315  16.964 -0.6685 -0.0279 -0.3900
 8208SOL    HW136257   4.193   2.372  17.034 -2.8088 -0.5686  1.0140
 8208SOL    HW236258   4.247   2.277  16.944 -1.8556 -1.4829 -2.7082
 8209SOL     OW36259   3.644   0.044   9.689  0.3247 -0.4085  0.4921
 8209SOL    HW136260   3.729   0.004   9.710  0.6602 -0.9946 -2.0462
 8209SOL    HW236261   3.608   0.037   9.777 -0.9828 -0.1434 -0.0303
 8210SOL     OW36262   2.369   1.100  15.644 -0.0860  0.3681 -0.3004
 8210SOL    HW136263   2.445   1.123  15.592 -0.4422  1.3544 -0.3737
 8210SOL    HW236264   2.322   1.050  15.577 -0.4972 -2.1174  1.8231
 8211SOL     OW36265   2.822   1.701   0.968 -0.2207 -0.2305 -0.5749
 8211SOL    HW136266   2.746   1.698   0.909 -0.3092 -0.8812 -0.4225
 8211SOL    HW236267   2.787   1.749   1.043  0.5525 -0.2355 -0.2140
 8212SOL     OW36268   3.518   1.631   8.565 -0.0966 -0.5635 -0.3841
 8212SOL    HW136269   3.537   1.725   8.558 -0.1886 -0.3901  1.6633
 8212SOL    HW236270   3.591   1.608   8.622  0.4812  0.0093 -0.8888
 8213SOL     OW36271   1.293   1.057   7.040  0.2087  0.0155 -0.1968
 8213SOL    HW136272   1.319   1.074   6.950 -1.6380  1.1749 -0.5165
 8213SOL    HW236273   1.261   1.145   7.061  1.7481 -0.0290  2.4262
 8214SOL     OW36274   0.936   1.643   7.390  0.3316  0.0001  0.4159
 8214SOL    HW136275   0.894   1.630   7.305  0.6426 -1.7139  0.5277
 8214SOL    HW236276   0.876   1.598   7.449 -0.1351 -0.6407 -0.5592
 8215SOL     OW36277   2.613   2.745   5.338  0.7337 -0.4061  0.1047
 8215SOL    HW136278   2.661   2.665   5.316  0.0967 -1.0324  0.9770
 8215SOL    HW236279   2.596   2.780   5.251  0.2841  0.9599  0.7410
 8216SOL     OW36280   0.990   3.572   8.720  0.4749 -0.5632  0.0851
 8216SOL    HW136281   0.941   3.602   8.643  1.1606 -1.7401 -0.8080
 8216SOL    HW236282   0.918   3.534   8.769 -0.8480  1.7031 -0.0852
 8217SOL     OW36283   0.454   4.260   7.048 -0.0611 -0.4439  0.1105
 8217SOL    HW136284   0.424   4.197   6.983  0.1349  0.6661 -1.0560
 8217SOL    HW236285   0.422   4.345   7.017 -2.2898 -1.3587 -0.1094
 8218SOL     OW36286   2.671   1.512   2.047 -0.3401 -0.3046  0.4117
 8218SOL    HW136287   2.730   1.577   2.009 -0.3594 -1.6594 -1.9584
 8218SOL    HW236288   2.668   1.547   2.135  0.2530 -0.3884  0.4649
 8219SOL     OW36289   1.828   1.903   8.068  0.6360 -0.2489 -0.4127
 8219SOL    HW136290   1.743   1.948   8.060  0.3370 -0.7495 -0.0725
 8219SOL    HW236291   1.804   1.813   8.046 -0.6284 -0.3582  1.4003
 8220SOL     OW36292   3.052   2.773  10.468 -0.3185  0.0960 -0.1005
 8220SOL    HW136293   3.081   2.858  10.501  0.1894 -0.2756  0.4052
 8220SOL    HW236294   2.982   2.766  10.534  0.5643 -2.3727  0.5681
 8221SOL     OW36295   1.671   2.717  10.312 -0.0878 -0.5565 -0.1919
 8221SOL    HW136296   1.619   2.714  10.393 -0.9503  1.0689 -0.6799
 8221SOL    HW236297   1.751   2.759  10.343  0.2185 -1.8795  0.8288
 8222SOL     OW36298   0.728   0.594  14.279  0.2317 -0.4500 -0.3360
 8222SOL    HW136299   0.780   0.639  14.346 -0.0761  0.5311 -0.7423
 8222SOL    HW236300   0.760   0.505  14.291 -1.3683 -1.1407 -1.1973
 8223SOL     OW36301   1.867   3.397   3.235  0.3450 -0.2128  0.4960
 8223SOL    HW136302   1.889   3.463   3.169 -1.2035  2.4179  2.6560
 8223SOL    HW236303   1.921   3.322   3.210 -1.6988 -0.5745 -2.8854
 8224SOL     OW36304   1.492   3.123   9.546 -0.0805  0.0504 -0.6574
 8224SOL    HW136305   1.456   3.102   9.460 -0.7201  0.6365 -0.5365
 8224SOL    HW236306   1.564   3.186   9.540 -1.5681  1.8070 -0.1275
 8225SOL     OW36307   3.015   2.504   7.655  0.1282 -0.0927  0.2436
 8225SOL    HW136308   2.923   2.479   7.656  0.5984 -1.9206 -0.5476
 8225SOL    HW236309   3.021   2.501   7.750  0.3495  0.6913  0.2514
 8226SOL     OW36310   1.044   4.231   6.308 -0.0259 -0.3782  0.4450
 8226SOL    HW136311   0.969   4.267   6.262 -1.0152  0.4039  2.6993
 8226SOL    HW236312   1.090   4.164   6.257 -0.0496  0.5126 -0.7664
 8227SOL     OW36313   2.662   2.448   5.198 -0.5278 -0.0722 -0.4334
 8227SOL    HW136314   2.618   2.435   5.282  1.1054  1.5714  0.6791
 8227SOL    HW236315   2.587   2.455   5.138 -0.7496  1.2547 -0.0146
 8228SOL     OW36316   0.460   4.072   7.245 -0.0037 -0.2944 -0.6693
 8228SOL    HW136317   0.459   4.107   7.156 -1.1031  0.4300 -0.3675
 8228SOL    HW236318   0.543   4.026   7.234 -0.5449 -1.8452  1.6766
 8229SOL     OW36319   1.428   2.847   7.727 -0.3562 -0.7169  0.0960
 8229SOL    HW136320   1.496   2.787   7.696 -1.6130 -0.5541 -3.0459
 8229SOL    HW236321   1.349   2.793   7.716 -0.7161 -0.0052 -0.8305
 8230SOL     OW36322   4.026   0.832   7.379 -0.0167 -0.3204  0.3794
 8230SOL    HW136323   4.107   0.783   7.388  0.3350  0.3778  1.0062
 8230SOL    HW236324   3.987   0.793   7.300 -1.0626  1.4532  0.0150
 8231SOL     OW36325   2.861   2.306  17.590  0.1023 -0.4148 -0.3227
 8231SOL    HW136326   2.885   2.393  17.559  1.8273 -0.6218  0.4429
 8231SOL    HW236327   2.791   2.319  17.653 -1.2824 -0.8246 -1.7601
 8232SOL     OW36328   3.174   3.397   1.422 -0.3802 -0.6388  0.4200
 8232SOL    HW136329   3.217   3.311   1.424  0.9705  0.0296 -0.5335
 8232SOL    HW236330   3.151   3.399   1.329  0.4470 -0.1448  0.2326
 8233SOL     OW36331   3.928   3.605   8.483  0.0724 -0.4615  0.4292
 8233SOL    HW136332   3.948   3.655   8.563 -2.0952  2.6956 -1.0094
 8233SOL    HW236333   3.880   3.662   8.423  2.2923  1.8548  0.8372
 8234SOL     OW36334   1.796   3.010  12.946  0.4014 -0.1935  0.3912
 8234SOL    HW136335   1.714   3.025  12.992  0.6882 -2.0168  1.5287
 8234SOL    HW236336   1.836   3.097  12.944  0.4518 -0.2052  0.8030
 8235SOL     OW36337   4.633   0.946   3.401  0.2911 -0.1075  0.2849
 8235SOL    HW136338   4.668   1.017   3.346 -1.4355  0.2860 -0.2824
 8235SOL    HW236339   4.566   0.902   3.349 -0.4243  2.2950 -0.8017
 8236SOL     OW36340   1.749   2.735   9.155 -0.3027  0.1573 -0.0768
 8236SOL    HW136341   1.769   2.812   9.210 -0.6912 -0.5572  1.0660
 8236SOL    HW236342   1.656   2.717   9.168 -0.2530  1.3563  1.9681
 8237SOL     OW36343   0.036   1.714   5.984 -0.2354  0.0081  0.2533
 8237SOL    HW136344   0.031   1.644   6.049  0.4015 -1.4818 -1.2908
 8237SOL    HW236345   4.686   1.702   5.942 -0.4589  2.0485  0.1171
 8238SOL     OW36346   3.252   3.376  11.777  0.6389 -0.0456  0.1129
 8238SOL    HW136347   3.185   3.314  11.806  1.4660 -0.5667  0.9320
 8238SOL    HW236348   3.277   3.425  11.856  0.5461 -3.0763  2.0285
 8239SOL     OW36349   4.426   1.607   3.828  0.4066  0.3167  0.3780
 8239SOL    HW136350   4.402   1.681   3.772  0.6632  1.0497  1.2289
 8239SOL    HW236351   4.449   1.545   3.759 -0.8543  0.9859 -0.6320
 8240SOL     OW36352   0.429   3.274   3.568 -0.7670 -0.1883  0.2943
 8240SOL    HW136353   0.435   3.313   3.655  0.3454 -0.9624  0.5688
 8240SOL    HW236354   0.469   3.188   3.582 -0.2608  0.1667  1.0162
 8241SOL     OW36355   0.979   3.798   6.598 -0.4396 -0.0967 -0.5783
 8241SOL    HW136356   0.983   3.766   6.508  0.8433  0.4011 -0.7111
 8241SOL    HW236357   0.941   3.885   6.585 -0.0345  0.4546  1.9493
 8242SOL     OW36358   4.321   2.979   2.848  0.0456 -0.4547  0.4508
 8242SOL    HW136359   4.230   2.978   2.818 -0.2036  3.1225  1.0917
 8242SOL    HW236360   4.319   2.942   2.936 -0.6584  0.9342  1.0078
 8243SOL     OW36361   1.891   3.003   0.518  0.0100  0.0517 -0.7727
 8243SOL    HW136362   1.838   3.077   0.490 -0.0491  0.0060 -0.7828
 8243SOL    HW236363   1.975   3.047   0.523 -0.2799  0.5914 -0.6928
 8244SOL     OW36364   3.586   2.225   3.165  0.6296  0.4622  0.1376
 8244SOL    HW136365   3.546   2.139   3.175  0.5943  0.4861  0.2066
 8244SOL    HW236366   3.675   2.206   3.196  0.1249 -1.1172  0.5892
 8245SOL     OW36367   3.004   4.345   3.890 -0.4723  0.1703  0.6888
 8245SOL    HW136368   2.951   4.270   3.862  0.2348  0.1569 -0.5958
 8245SOL    HW236369   3.090   4.304   3.882  0.3338  1.9472  0.2120
 8246SOL     OW36370   3.725   0.190   2.598 -0.1083  0.2428  0.5950
 8246SOL    HW136371   3.637   0.221   2.620 -0.7169 -0.2741 -1.1158
 8246SOL    HW236372   3.709   0.109   2.549  0.6819  0.4471 -0.0030
 8247SOL     OW36373   2.346   0.584   1.053 -0.2829  0.0835 -0.4727
 8247SOL    HW136374   2.357   0.491   1.032 -1.6870 -0.1227 -0.2774
 8247SOL    HW236375   2.436   0.615   1.043  0.3497 -0.9507  2.2272
 8248SOL     OW36376   1.360   0.959   1.791  0.0278  0.8530 -0.8068
 8248SOL    HW136377   1.447   0.929   1.818 -1.0807 -0.6513  1.0971
 8248SOL    HW236378   1.386   1.051   1.794  1.1560  0.4337  2.0508
 8249SOL     OW36379   1.285   4.277   6.665 -0.2381  0.0990  0.0864
 8249SOL    HW136380   1.350   4.271   6.735 -2.3193 -0.3201  1.9675
 8249SOL    HW236381   1.318   4.219   6.596 -0.5735  0.5394 -0.4476
 8250SOL     OW36382   3.190   0.868   1.578 -0.1779 -0.1256  0.4326
 8250SOL    HW136383   3.237   0.847   1.658 -1.1264 -1.9273  0.5216
 8250SOL    HW236384   3.132   0.792   1.568  0.6610 -0.8612  1.2502
 8251SOL     OW36385   4.688   3.627  15.644  0.1904 -0.6398  0.0267
 8251SOL    HW136386   0.042   3.662  15.639 -0.3633  0.6547 -0.5417
 8251SOL    HW236387   4.645   3.712  15.647  0.8178 -0.3182 -0.0748
 8252SOL     OW36388   1.438   0.934   8.968 -1.1068 -0.4271 -0.5352
 8252SOL    HW136389   1.494   0.946   8.892 -2.2216 -0.7745 -1.3990
 8252SOL    HW236390   1.357   0.976   8.941 -0.7390 -0.5921 -1.8682
 8253SOL     OW36391   3.460   2.879   8.816 -0.2752  0.1308  0.5359
 8253SOL    HW136392   3.509   2.812   8.769  0.6429  2.4065 -1.6997
 8253SOL    HW236393   3.525   2.949   8.825  0.2379 -0.4924  1.7870
 8254SOL     OW36394   4.689   3.210   2.898 -0.2653 -0.0096 -0.5282
 8254SOL    HW136395   4.606   3.255   2.880 -0.3361  0.0214 -0.1067
 8254SOL    HW236396   4.715   3.257   2.977 -1.3491  1.4932 -1.0715
 8255SOL     OW36397   3.925   1.212   1.144  0.2080 -0.0824  0.5805
 8255SOL    HW136398   3.846   1.189   1.192 -0.2109 -1.3245 -0.7061
 8255SOL    HW236399   3.897   1.285   1.089 -0.7481 -1.5771 -0.9080
 8256SOL     OW36400   0.820   2.004  11.693 -0.5338  0.2363  0.1068
 8256SOL    HW136401   0.769   2.014  11.613 -0.4261 -0.1271 -0.0067
 8256SOL    HW236402   0.850   2.094  11.706  2.1537 -0.5971 -0.3994
 8257SOL     OW36403   0.251   2.510  14.790 -0.2211  0.1922 -0.2088
 8257SOL    HW136404   0.337   2.552  14.785 -0.3005  0.5497  1.4282
 8257SOL    HW236405   0.252   2.483  14.698 -0.1317 -0.9791  0.1484
 8258SOL     OW36406   1.426   1.605   2.770  0.7769 -0.3573  0.3878
 8258SOL    HW136407   1.431   1.646   2.684 -3.2989  1.8001  1.1415
 8258SOL    HW236408   1.341   1.632   2.806  1.6179  1.4469  1.0458
 8259SOL     OW36409   4.612   3.407   4.703 -0.3740 -0.5720 -0.0529
 8259SOL    HW136410   4.692   3.362   4.733 -2.5915 -3.7780  1.0461
 8259SOL    HW236411   4.648   3.494   4.719  0.8540 -0.9654 -0.6691
 8260SOL     OW36412   0.572   1.080   2.201  0.2534  0.2374 -0.2255
 8260SOL    HW136413   0.642   1.106   2.141  0.4241  0.2965 -0.0048
 8260SOL    HW236414   0.562   1.166   2.243  2.6035 -0.1877  1.2232
 8261SOL     OW36415   3.073   2.549   1.532 -0.0032 -0.0504 -0.0365
 8261SOL    HW136416   2.995   2.584   1.488 -0.6446 -1.1837  0.1915
 8261SOL    HW236417   3.027   2.484   1.585 -1.4339  1.3647  0.4479
 8262SOL     OW36418   3.735   0.897   7.463  0.5484  0.2653 -0.2914
 8262SOL    HW136419   3.734   0.981   7.417 -0.0192  0.2326 -0.3462
 8262SOL    HW236420   3.796   0.841   7.414 -0.3306 -0.8738 -0.0835
 8263SOL     OW36421   1.392   0.783   6.006  0.1494  0.2560 -0.1108
 8263SOL    HW136422   1.457   0.713   6.006 -1.8991 -1.6470  1.9397
 8263SOL    HW236423   1.314   0.740   5.970  0.0848 -0.2049  0.5667
 8264SOL     OW36424   4.146   3.440  16.324  0.3127  0.9870  0.0444
 8264SOL    HW136425   4.225   3.388  16.310  0.6073  0.6817  2.8340
 8264SOL    HW236426   4.100   3.392  16.255  0.6358 -0.5469  0.8810
 8265SOL     OW36427   3.723   0.881   4.372 -0.8249  0.6885  0.2494
 8265SOL    HW136428   3.702   0.788   4.361  2.0220  0.2957 -1.9043
 8265SOL    HW236429   3.719   0.897   4.467 -0.4931  1.3707  0.1484
 8266SOL     OW36430   0.988   1.890   8.109  0.2108 -0.0779  0.2201
 8266SOL    HW136431   1.049   1.957   8.079  1.3767 -1.4073 -0.3929
 8266SOL    HW236432   0.992   1.908   8.202  0.9969  1.7048 -0.1741
 8267SOL     OW36433   1.955   3.266  13.447 -0.0207 -0.0296  0.5037
 8267SOL    HW136434   1.990   3.256  13.535  0.3672 -2.0362  0.1253
 8267SOL    HW236435   1.954   3.361  13.457  0.1220  0.0113  0.1437
 8268SOL     OW36436   3.827   4.394   0.820  0.2143 -0.0876  0.5830
 8268SOL    HW136437   3.922   4.398   0.814  0.1013 -0.9744 -1.8394
 8268SOL    HW236438   3.810   4.304   0.793 -0.0951 -0.2916  1.4381
 8269SOL     OW36439   4.697   3.344   8.238  0.0859 -0.0257  0.1807
 8269SOL    HW136440   4.664   3.377   8.155 -0.9801 -2.5185 -0.3936
 8269SOL    HW236441   0.014   3.420   8.262 -2.0167  0.9045  1.8483
 8270SOL     OW36442   3.140   4.292   0.985  1.0510  0.6216  0.2129
 8270SOL    HW136443   3.154   4.328   1.073  2.6697 -0.9960  0.6116
 8270SOL    HW236444   3.100   4.369   0.945 -2.3942 -1.2395  0.0701
 8271SOL     OW36445   3.357   3.900   6.989  0.3316 -0.1410  0.2549
 8271SOL    HW136446   3.383   3.828   6.932  0.6609 -0.6181  1.0143
 8271SOL    HW236447   3.266   3.924   6.970 -0.2455  0.0384  3.2788
 8272SOL     OW36448   4.334   1.667   8.119  0.2232 -0.0691 -0.1104
 8272SOL    HW136449   4.263   1.695   8.060 -1.0827 -0.0867  1.4478
 8272SOL    HW236450   4.291   1.653   8.203  2.0820 -3.5190  0.2720
 8273SOL     OW36451   3.053   2.364  12.588  0.6733  0.4379 -0.0354
 8273SOL    HW136452   3.105   2.312  12.648  0.7986  0.0367 -0.4891
 8273SOL    HW236453   3.094   2.332  12.507 -0.5926  1.1819 -0.9745
 8274SOL     OW36454   4.655   4.206   9.108 -0.1986  0.0328  0.0601
 8274SOL    HW136455   4.701   4.148   9.169  0.4112  0.9073  0.4350
 8274SOL    HW236456   4.668   4.290   9.152 -0.3064 -0.7708  1.6033
 8275SOL     OW36457   1.108   1.694   0.507  0.3101 -0.2043 -0.0595
 8275SOL    HW136458   1.091   1.601   0.490 -1.0118 -0.0337  0.3682
 8275SOL    HW236459   1.029   1.713   0.558 -0.3651  0.1549 -1.2311
 8276SOL     OW36460   3.786   1.343   4.675 -0.1351 -0.1387 -0.4149
 8276SOL    HW136461   3.861   1.291   4.704 -1.2497 -1.0500  0.8751
 8276SOL    HW236462   3.830   1.426   4.658 -1.4334  0.5188 -0.5424
 8277SOL     OW36463   1.078   4.116   8.064  0.0613 -0.6850  0.4258
 8277SOL    HW136464   1.167   4.089   8.083 -0.6732 -4.2329 -1.1540
 8277SOL    HW236465   1.026   4.036   8.067  0.1184 -0.7483 -0.2354
 8278SOL     OW36466   4.043   1.321   9.999 -0.2706 -0.2495  0.2339
 8278SOL    HW136467   4.045   1.301  10.093  2.0191 -0.3645  0.1677
 8278SOL    HW236468   4.134   1.348   9.986  0.6168 -3.3606 -0.0720
 8279SOL     OW36469   4.586   4.697  13.129 -0.4074  0.2979 -0.0305
 8279SOL    HW136470   4.599   0.015  13.207 -0.9645 -0.5380  0.6256
 8279SOL    HW236471   4.618   4.617  13.171  0.5063 -0.0020 -1.2733
 8280SOL     OW36472   4.581   2.645   5.080  0.2162 -0.1908  0.3259
 8280SOL    HW136473   4.665   2.675   5.115 -0.1063  0.6107  0.4263
 8280SOL    HW236474   4.608   2.569   5.030  2.0968  2.6814 -3.0270
 8281SOL     OW36475   2.172   1.785  12.433 -0.7944  0.3972  0.0468
 8281SOL    HW136476   2.172   1.857  12.370  0.3635  0.6242  0.3002
 8281SOL    HW236477   2.237   1.812  12.499 -0.4824 -0.7746  0.2139
 8282SOL     OW36478   0.608   1.517  17.094 -0.2343 -0.3792  0.3835
 8282SOL    HW136479   0.577   1.572  17.165 -0.2114 -0.1928  0.2499
 8282SOL    HW236480   0.530   1.511  17.040 -0.4154 -0.1409  0.6220
 8283SOL     OW36481   1.242   4.610   9.639  0.0679  0.2720  0.3026
 8283SOL    HW136482   1.220   4.574   9.724 -0.8801 -1.3470 -0.6282
 8283SOL    HW236483   1.158   4.603   9.594  0.2287 -1.0855  0.2218
 8284SOL     OW36484   3.508   0.628   1.545 -0.5076 -0.2360  0.0963
 8284SOL    HW136485   3.519   0.627   1.640  0.0842 -0.9939  0.0202
 8284SOL    HW236486   3.600   0.640   1.521 -0.0834 -1.7914  0.9693
 8285SOL     OW36487   0.083   2.537   3.844 -0.0451  0.2598 -0.0797
 8285SOL    HW136488   0.092   2.508   3.935 -0.7378 -2.8612 -1.0264
 8285SOL    HW236489   0.002   2.588   3.841 -0.9771 -1.2394 -0.4235
 8286SOL     OW36490   1.278   0.242   4.869  0.4441  0.3163 -0.1539
 8286SOL    HW136491   1.215   0.311   4.889  0.5395  1.6854 -4.4770
 8286SOL    HW236492   1.310   0.239   4.959  0.5580  2.5131 -0.1268
 8287SOL     OW36493   2.543   0.232   3.276 -0.6029  0.2175  0.1074
 8287SOL    HW136494   2.465   0.213   3.329  1.1886 -2.7809  1.6318
 8287SOL    HW236495   2.522   0.322   3.252  2.4574  0.4783 -1.5705
 8288SOL     OW36496   2.105   3.181   6.700 -0.3330  0.0859  0.2697
 8288SOL    HW136497   2.170   3.118   6.733 -0.0250  0.8187  1.0623
 8288SOL    HW236498   2.095   3.228   6.783  0.1008  1.3156 -0.3836
 8289SOL     OW36499   1.517   4.221   6.920 -0.3353  0.1953 -0.0103
 8289SOL    HW136500   1.502   4.130   6.945 -0.4924  0.2882  0.2332
 8289SOL    HW236501   1.506   4.264   7.005 -1.8515 -1.2958  0.5694
 8290SOL     OW36502   3.193   2.698  12.219 -0.4435  0.9956  0.4835
 8290SOL    HW136503   3.149   2.745  12.148 -0.1176 -0.9229 -0.9912
 8290SOL    HW236504   3.113   2.656  12.252 -0.7073  3.3167  2.7618
 8291SOL     OW36505   0.876   3.628   5.237  0.0357  0.2157  0.0210
 8291SOL    HW136506   0.969   3.611   5.223  0.0582  0.1784  0.2122
 8291SOL    HW236507   0.858   3.667   5.152  0.6290 -0.0497 -0.2264
 8292SOL     OW36508   2.657   1.806   4.626 -0.0797 -0.0785 -0.3423
 8292SOL    HW136509   2.613   1.848   4.552 -1.9066 -1.7593 -0.1890
 8292SOL    HW236510   2.680   1.883   4.678 -3.4348  1.1815 -0.7197
 8293SOL     OW36511   2.542   0.634  13.468 -0.1628 -0.2647 -0.2140
 8293SOL    HW136512   2.509   0.666  13.384  1.1950 -2.4108 -1.5573
 8293SOL    HW236513   2.498   0.549  13.477  0.7706 -0.5564  1.7196
 8294SOL     OW36514   0.996   0.254  16.142  0.1767  0.0732 -0.3084
 8294SOL    HW136515   1.079   0.219  16.107 -0.8113 -1.8862 -0.6944
 8294SOL    HW236516   0.927   0.192  16.117  0.0351  0.8543 -1.8794
 8295SOL     OW36517   1.326   4.059   2.832  0.1292  0.2557 -0.2286
 8295SOL    HW136518   1.347   3.983   2.777 -1.1399  1.0117 -1.7551
 8295SOL    HW236519   1.240   4.076   2.795  0.5691 -1.8410 -2.1879
 8296SOL     OW36520   3.189   0.275  11.399  0.1556  0.2774 -0.5416
 8296SOL    HW136521   3.283   0.262  11.387 -0.2513 -1.4166 -1.8914
 8296SOL    HW236522   3.182   0.249  11.491  4.0546 -1.0487 -0.5964
 8297SOL     OW36523   4.179   0.785   4.159 -1.3342  0.0410  0.8994
 8297SOL    HW136524   4.168   0.778   4.064 -0.2534  1.6732  0.6611
 8297SOL    HW236525   4.154   0.877   4.171 -0.2944  0.4425  0.0202
 8298SOL     OW36526   3.299   4.116   3.012 -0.4799  0.6757 -0.2422
 8298SOL    HW136527   3.270   4.096   3.101  1.3395  0.9597  0.4158
 8298SOL    HW236528   3.393   4.129   3.029  0.0428  0.7898 -3.2522
 8299SOL     OW36529   1.140   1.332  11.822  0.3206  0.1675  0.2469
 8299SOL    HW136530   1.056   1.377  11.827  0.6740  0.8146  0.2986
 8299SOL    HW236531   1.140   1.296  11.734 -1.6217  2.5251 -0.7130
 8300SOL     OW36532   2.881   2.979  10.931 -0.0048 -0.1188  0.5936
 8300SOL    HW136533   2.972   2.965  10.906 -0.2941 -2.4638  0.8187
 8300SOL    HW236534   2.884   3.025  11.014  0.5627  0.1937  0.4006
 8301SOL     OW36535   0.590   2.155  16.595  0.0973 -0.1738  0.8003
 8301SOL    HW136536   0.629   2.206  16.524 -2.7814  0.3050 -0.4587
 8301SOL    HW236537   0.582   2.070  16.552 -0.7478  0.5645 -0.5044
 8302SOL     OW36538   1.885   1.290   1.226  0.2113 -0.4954  0.7449
 8302SOL    HW136539   1.894   1.354   1.156 -0.8577  0.5586  1.5808
 8302SOL    HW236540   1.955   1.310   1.288  0.1749 -1.3952  1.0721
 8303SOL     OW36541   3.347   0.768   5.782 -0.1362  0.0825  0.4685
 8303SOL    HW136542   3.276   0.746   5.722  2.4741 -1.3335 -2.0671
 8303SOL    HW236543   3.414   0.757   5.715 -2.2156 -3.7469 -0.9742
 8304SOL     OW36544   2.854   3.553  16.182  0.2021 -0.2324  0.2266
 8304SOL    HW136545   2.883   3.484  16.122 -0.8366 -0.4352 -0.0450
 8304SOL    HW236546   2.884   3.627  16.128  0.0868  0.9125  1.7355
 8305SOL     OW36547   2.515   4.697   9.274  0.3025  0.0504  0.0874
 8305SOL    HW136548   2.571   0.016   9.330  1.2642 -1.5895  0.6857
 8305SOL    HW236549   2.425   4.726   9.291  0.5983  2.1669 -2.0584
 8306SOL     OW36550   3.155   1.209   1.747  0.3247  0.3627 -0.3142
 8306SOL    HW136551   3.236   1.175   1.710  0.7012 -1.3888  2.1457
 8306SOL    HW236552   3.113   1.253   1.672 -1.1372 -1.6584 -0.6940
 8307SOL     OW36553   1.078   2.580  14.509 -0.5666 -0.1438  0.1429
 8307SOL    HW136554   1.118   2.529  14.439 -2.0782 -0.2688 -0.6143
 8307SOL    HW236555   1.036   2.507  14.555 -1.5582  1.0668  1.1755
 8308SOL     OW36556   1.780   3.873   2.641 -0.3258  0.0138  0.2524
 8308SOL    HW136557   1.838   3.815   2.689  1.9943 -0.2156 -2.8199
 8308SOL    HW236558   1.725   3.807   2.597 -1.8946  1.0938  0.5923
 8309SOL     OW36559   1.219   1.431  17.146  0.6799  0.2582  0.1821
 8309SOL    HW136560   1.204   1.358  17.206 -0.0399 -0.3387 -0.7402
 8309SOL    HW236561   1.300   1.470  17.181 -0.0460  0.0761  2.0448
 8310SOL     OW36562   3.874   1.571   0.980  0.5967 -0.3161  0.3092
 8310SOL    HW136563   3.863   1.636   0.911 -0.6682 -0.1488  0.6729
 8310SOL    HW236564   3.816   1.500   0.954  2.3008 -1.1760 -1.0705
 8311SOL     OW36565   1.659   1.850   5.716  0.0179  0.3815 -0.0498
 8311SOL    HW136566   1.675   1.769   5.764 -0.7721 -0.5926 -1.3913
 8311SOL    HW236567   1.728   1.906   5.751 -1.3489  0.0096  3.2298
 8312SOL     OW36568   1.358   3.775   5.096 -0.5045  0.0481  0.5580
 8312SOL    HW136569   1.418   3.830   5.045  0.3966 -0.4597  1.0596
 8312SOL    HW236570   1.374   3.692   5.052  2.9335  0.4472  1.0065
 8313SOL     OW36571   2.457   2.337   0.216  0.2213 -0.4494  0.1958
 8313SOL    HW136572   2.521   2.322   0.147  1.1779  0.7425  0.8349
 8313SOL    HW236573   2.397   2.398   0.171  0.3179  0.0827  0.7973
 8314SOL     OW36574   1.703   3.450   2.067 -0.4352  0.1374  0.1657
 8314SOL    HW136575   1.668   3.384   2.127  0.4365  0.1338  0.6671
 8314SOL    HW236576   1.728   3.512   2.135  0.0118 -0.6088  0.6837
 8315SOL     OW36577   1.407   0.621  15.915 -0.1781  0.5237  0.3227
 8315SOL    HW136578   1.386   0.700  15.865  0.6022  0.2011 -0.5195
 8315SOL    HW236579   1.483   0.642  15.969 -0.2815 -0.3264  0.8089
 8316SOL     OW36580   1.782   2.978  13.250 -0.9438  0.3823 -0.1373
 8316SOL    HW136581   1.821   2.952  13.167  0.5251 -0.7254  0.8929
 8316SOL    HW236582   1.700   3.013  13.216 -1.5958  0.1074  1.1276
 8317SOL     OW36583   3.978   4.346   4.507 -0.5086  0.1927  0.2524
 8317SOL    HW136584   3.983   4.386   4.593 -1.8714 -1.2767  1.0081
 8317SOL    HW236585   4.003   4.422   4.454 -0.0653 -0.5740 -0.6371
 8318SOL     OW36586   3.755   3.810   2.310  0.6669  0.5568 -0.0669
 8318SOL    HW136587   3.738   3.897   2.274 -0.9588  0.1491 -0.2564
 8318SOL    HW236588   3.667   3.787   2.338  0.1602 -0.3811 -2.3810
 8319SOL     OW36589   1.034   4.343   4.445 -0.4355  0.4392  0.4290
 8319SOL    HW136590   1.092   4.411   4.481 -1.4627  0.7690  1.4512
 8319SOL    HW236591   1.062   4.332   4.354  1.8839 -3.3129  1.6119
 8320SOL     OW36592   3.490   0.827   7.372  0.7219  0.4708 -0.1539
 8320SOL    HW136593   3.567   0.851   7.424  1.2737  1.0148 -1.2220
 8320SOL    HW236594   3.526   0.834   7.284  0.6702  0.2798 -0.1903
 8321SOL     OW36595   3.458   2.895   4.116 -0.4389  0.0760  0.1310
 8321SOL    HW136596   3.531   2.872   4.059  0.0707  0.1180  0.7734
 8321SOL    HW236597   3.501   2.927   4.195 -1.2894  2.1814 -0.2361
 8322SOL     OW36598   4.324   3.564  10.010 -0.4712 -0.5528 -0.4064
 8322SOL    HW136599   4.310   3.521  10.094 -0.4885  1.7964  0.7815
 8322SOL    HW236600   4.375   3.492   9.973 -0.9714  0.7776 -3.7049
 8323SOL     OW36601   4.676   2.955  13.111  0.2814 -0.0172  0.7319
 8323SOL    HW136602   0.001   2.882  13.098  1.3867  1.5296 -2.8097
 8323SOL    HW236603   4.595   2.928  13.068 -0.1647  2.4411  0.0155
 8324SOL     OW36604   1.808   3.623   1.165 -0.1533  0.7513  0.1610
 8324SOL    HW136605   1.776   3.610   1.254  1.4053 -0.9099  0.4966
 8324SOL    HW236606   1.730   3.616   1.111 -0.8842 -0.2325  1.3526
 8325SOL     OW36607   4.418   1.703   2.936  0.2907 -0.2580 -0.3580
 8325SOL    HW136608   4.438   1.682   3.028  0.5680  1.0161 -0.1278
 8325SOL    HW236609   4.325   1.721   2.954  0.5599  0.2287  0.5763
 8326SOL     OW36610   4.034   0.326   8.280 -0.1111 -0.1081  0.0034
 8326SOL    HW136611   4.030   0.258   8.213  0.5865  0.7419 -0.8812
 8326SOL    HW236612   4.127   0.340   8.296  0.4164 -2.3085 -1.1357
 8327SOL     OW36613   1.662   4.065   8.110 -0.1639 -0.3123  0.0516
 8327SOL    HW136614   1.611   4.137   8.072 -0.0186  0.9114  2.1448
 8327SOL    HW236615   1.730   4.052   8.044 -1.9759 -0.0461 -1.8932
 8328SOL     OW36616   0.929   1.728   1.552  0.0788 -0.4456 -0.4325
 8328SOL    HW136617   1.001   1.701   1.495  0.2340 -0.2315 -0.3367
 8328SOL    HW236618   0.965   1.701   1.636 -0.2754  3.7317  1.0710
 8329SOL     OW36619   2.172   2.644   5.959  0.2505  0.2107 -0.1806
 8329SOL    HW136620   2.105   2.633   5.892 -1.5819 -0.4349  1.7623
 8329SOL    HW236621   2.248   2.655   5.902 -0.0551  2.2000 -0.2075
 8330SOL     OW36622   0.396   2.932   2.079  0.1884 -0.3471  0.4368
 8330SOL    HW136623   0.413   2.903   1.990 -0.5464 -2.3830  0.9648
 8330SOL    HW236624   0.330   2.872   2.114 -0.6005  0.3184  0.0903
 8331SOL     OW36625   1.414   1.843   4.731  0.4512 -0.1757  0.4125
 8331SOL    HW136626   1.425   1.902   4.657 -2.6776 -0.1363 -0.0322
 8331SOL    HW236627   1.323   1.817   4.742 -0.1113  1.7687  0.3587
 8332SOL     OW36628   1.671   2.110   6.876  0.3644  0.3287  0.1101
 8332SOL    HW136629   1.714   2.153   6.801  2.3751 -0.7793  0.6305
 8332SOL    HW236630   1.609   2.176   6.908  2.0627  1.9849 -0.0236
 8333SOL     OW36631   1.690   4.102   2.738 -0.2003 -0.7581 -0.2600
 8333SOL    HW136632   1.719   4.022   2.694 -0.4333 -0.6851 -0.5541
 8333SOL    HW236633   1.670   4.150   2.657 -0.6336 -0.1040  0.2380
 8334SOL     OW36634   1.591   3.102   2.032  0.1318  0.4145  0.3734
 8334SOL    HW136635   1.593   3.061   2.118  1.1162 -0.2122  0.0603
 8334SOL    HW236636   1.662   3.060   1.983 -2.7144 -2.3033 -1.4515
 8335SOL     OW36637   0.437   1.521   7.889  0.0674  0.2363 -0.1974
 8335SOL    HW136638   0.528   1.526   7.917 -0.5272  2.1656  1.3914
 8335SOL    HW236639   0.394   1.566   7.962  1.4475  0.9364  0.1784
 8336SOL     OW36640   1.363   3.699   4.490 -0.3021  0.2299 -0.3714
 8336SOL    HW136641   1.391   3.700   4.581 -0.1963 -0.0300 -0.4025
 8336SOL    HW236642   1.291   3.636   4.487 -0.5067  0.4721 -0.6126
 8337SOL     OW36643   1.797   3.575   0.803 -0.5220 -0.0291 -0.0177
 8337SOL    HW136644   1.862   3.568   0.873 -1.3716 -1.9366  0.5848
 8337SOL    HW236645   1.860   3.556   0.733  1.1686  1.4591  1.1259
 8338SOL     OW36646   3.057   0.428  14.882  0.3823  0.2384  0.9562
 8338SOL    HW136647   3.051   0.454  14.974 -2.2408  0.0469  0.8441
 8338SOL    HW236648   3.152   0.425  14.876  0.4167  1.3321  0.8621
 8339SOL     OW36649   3.462   1.353   6.594 -0.5459  0.0609 -0.2054
 8339SOL    HW136650   3.508   1.424   6.640 -2.3543  1.5676 -0.7348
 8339SOL    HW236651   3.421   1.305   6.665  0.1688 -0.0068  0.1639
 8340SOL     OW36652   0.615   0.127  11.690  0.1467  0.4154 -0.1912
 8340SOL    HW136653   0.669   0.053  11.661 -1.3503 -0.8480  0.2447
 8340SOL    HW236654   0.672   0.149  11.764  0.0978  0.8244 -0.2774
 8341SOL     OW36655   3.218   0.706   4.692  0.2166 -0.0202  0.3709
 8341SOL    HW136656   3.138   0.718   4.641 -0.3082  1.9919  1.7212
 8341SOL    HW236657   3.264   0.789   4.683 -1.4103  0.6797 -1.4310
 8342SOL     OW36658   0.146   2.229   7.257 -0.3459  0.0570  0.3166
 8342SOL    HW136659   0.174   2.144   7.291 -1.8785 -0.3835  0.4678
 8342SOL    HW236660   0.207   2.283   7.308 -1.9159  2.4080 -0.2930
 8343SOL     OW36661   3.341   3.187   0.170  0.3811  0.4818 -0.2576
 8343SOL    HW136662   3.255   3.160   0.137  0.7490  0.8908 -1.5580
 8343SOL    HW236663   3.355   3.277   0.143 -3.5003  0.7430 -1.4300
 8344SOL     OW36664   4.452   0.283   9.596  0.2391  0.4349 -0.0280
 8344SOL    HW136665   4.449   0.263   9.690 -0.8203 -0.6546 -0.2933
 8344SOL    HW236666   4.507   0.361   9.585  1.2277 -0.0956  1.0977
 8345SOL     OW36667   2.218   3.508   0.716 -0.2129 -0.2296  0.0182
 8345SOL    HW136668   2.214   3.493   0.622  0.7640 -0.5084  0.0235
 8345SOL    HW236669   2.299   3.462   0.739  0.5802  0.5791 -1.1487
 8346SOL     OW36670   1.037   3.649  10.059 -0.2608  0.3740 -0.2739
 8346SOL    HW136671   0.959   3.668  10.008 -1.2006  2.3387  1.8684
 8346SOL    HW236672   1.089   3.730  10.061 -0.3046  0.3990 -0.0911
 8347SOL     OW36673   3.409   4.365   8.451  0.0268  0.0050  0.2947
 8347SOL    HW136674   3.431   4.415   8.530 -0.0643  1.0896 -0.3537
 8347SOL    HW236675   3.462   4.285   8.452  0.3617  0.2488  1.8621
 8348SOL     OW36676   2.355   1.685   0.990  0.5458  0.6602  0.0944
 8348SOL    HW136677   2.347   1.590   0.976  0.4023  0.7738 -0.5976
 8348SOL    HW236678   2.394   1.701   0.904  1.1579  1.7977  0.5982
 8349SOL     OW36679   2.579   4.270  15.976 -0.0904  0.0797  0.6721
 8349SOL    HW136680   2.618   4.351  15.943  0.4584 -0.4424  0.0456
 8349SOL    HW236681   2.492   4.310  15.986  0.5937  2.2558 -2.1688
 8350SOL     OW36682   2.297   3.624   8.563 -0.3304 -0.4301  0.0184
 8350SOL    HW136683   2.217   3.673   8.543 -0.2387 -0.3927 -0.2495
 8350SOL    HW236684   2.284   3.529   8.562 -1.5898 -0.2690  1.3859
 8351SOL     OW36685   4.559   1.596   6.619  0.1815  0.1871 -0.4650
 8351SOL    HW136686   4.535   1.509   6.652 -0.2036  0.4945  0.0728
 8351SOL    HW236687   4.651   1.602   6.642 -0.0810  0.5495  0.4849
 8352SOL     OW36688   0.664   2.991  15.815  0.3262  0.0744  0.5775
 8352SOL    HW136689   0.630   3.069  15.771 -1.2024 -1.0859 -0.2790
 8352SOL    HW236690   0.758   3.004  15.826  0.1101  1.9770  0.2102
 8353SOL     OW36691   1.934   1.623   6.635 -0.0291 -0.6010 -0.4118
 8353SOL    HW136692   1.894   1.611   6.548 -0.7028 -1.7485  0.0603
 8353SOL    HW236693   1.866   1.577   6.683 -0.5603 -2.4462 -2.9235
 8354SOL     OW36694   0.212   1.166   4.444 -0.1906 -0.0587 -0.0087
 8354SOL    HW136695   0.202   1.261   4.442  1.0306  0.0986  0.9617
 8354SOL    HW236696   0.177   1.142   4.530  2.0919  0.3721  1.0671
 8355SOL     OW36697   3.795   4.043   6.898  0.0019  0.0541 -0.3600
 8355SOL    HW136698   3.882   4.072   6.871  0.9314  0.4905  3.1014
 8355SOL    HW236699   3.789   3.958   6.852  1.5175 -0.0191 -0.4250
 8356SOL     OW36700   3.870   1.916   6.236 -0.2193  0.2750  0.2586
 8356SOL    HW136701   3.829   1.964   6.308  2.1393  1.8681  0.5384
 8356SOL    HW236702   3.896   1.993   6.185 -0.2578 -0.7398 -1.2975
 8357SOL     OW36703   4.345   3.459   2.279  0.1981  0.3638  0.1051
 8357SOL    HW136704   4.264   3.430   2.321  0.0935  1.0268  0.3675
 8357SOL    HW236705   4.331   3.554   2.279  0.0873  0.3426 -2.6422
 8358SOL     OW36706   4.387   3.323   1.397 -0.4639  0.3520  0.1945
 8358SOL    HW136707   4.396   3.413   1.366 -0.2063 -0.1330 -1.1443
 8358SOL    HW236708   4.293   3.308   1.391 -0.4419  0.4787 -0.5031
 8359SOL     OW36709   2.604   4.362   1.382 -0.2470  0.3527 -0.0380
 8359SOL    HW136710   2.603   4.275   1.421  0.1031  0.2314 -0.3032
 8359SOL    HW236711   2.680   4.362   1.325  1.4264 -1.0373  2.2147
 8360SOL     OW36712   0.764   1.874   3.297 -0.0710  0.6767 -0.1776
 8360SOL    HW136713   0.704   1.877   3.222  2.1781 -2.6942 -2.1003
 8360SOL    HW236714   0.702   1.920   3.354  0.4544  1.7013 -0.4453
 8361SOL     OW36715   0.206   2.162   3.287  0.2595  0.3617  0.0812
 8361SOL    HW136716   0.231   2.160   3.195  2.8129 -1.7418  0.8278
 8361SOL    HW236717   0.276   2.218   3.320  0.7122  0.1012 -0.4290
 8362SOL     OW36718   4.645   1.570   3.615  0.0040  0.4813  0.1228
 8362SOL    HW136719   4.557   1.549   3.586  0.1646  1.8039 -1.2938
 8362SOL    HW236720   4.654   1.657   3.576 -0.5735 -0.3850 -1.9481
 8363SOL     OW36721   3.142   0.095   9.068  0.2882  0.0771 -0.3926
 8363SOL    HW136722   3.102   0.048   8.995 -2.2876 -1.2534  1.9035
 8363SOL    HW236723   3.072   0.141   9.114  2.3202  1.5069  1.2936
 8364SOL     OW36724   1.404   2.645  14.208  0.2182  0.0233  0.3748
 8364SOL    HW136725   1.352   2.573  14.244  0.0061 -1.1781 -2.3396
 8364SOL    HW236726   1.479   2.652  14.266 -2.0951  0.8840  3.2833
 8365SOL     OW36727   1.906   3.354  10.121 -0.2870 -0.0966 -0.0986
 8365SOL    HW136728   1.837   3.339  10.057 -1.1886 -1.7899  1.2454
 8365SOL    HW236729   1.959   3.277  10.101 -1.6232 -1.0485  0.0215
 8366SOL     OW36730   3.000   3.120  15.719  0.3770  0.8172 -0.0649
 8366SOL    HW136731   2.912   3.140  15.752  0.0990 -1.3870  0.5508
 8366SOL    HW236732   3.044   3.204  15.716  1.6146  0.0961 -1.6922
 8367SOL     OW36733   3.917   4.685   6.382 -0.7724 -0.3424  0.1566
 8367SOL    HW136734   3.898   4.658   6.293 -1.1194  0.0469  0.1100
 8367SOL    HW236735   3.828   4.692   6.418 -1.7958  1.3736 -2.7160
 8368SOL     OW36736   0.257   2.367   7.485 -0.2227 -0.4995  0.2119
 8368SOL    HW136737   0.306   2.341   7.563  1.3820 -1.1596 -1.0064
 8368SOL    HW236738   0.172   2.353   7.527 -0.2016 -0.1721  0.3604
 8369SOL     OW36739   3.603   1.583  13.512  0.7284  0.2287 -0.0902
 8369SOL    HW136740   3.546   1.586  13.589 -0.3139 -0.4590 -0.8369
 8369SOL    HW236741   3.571   1.506  13.465 -0.1094  0.0712  0.7253
 8370SOL     OW36742   2.579   3.766  14.937 -0.2571 -0.2823  0.2814
 8370SOL    HW136743   2.580   3.681  14.981 -1.3715 -0.9697 -1.0285
 8370SOL    HW236744   2.602   3.739  14.848 -0.4102 -0.3201  0.2522
 8371SOL     OW36745   0.562   1.877  17.504  0.3778  0.0304 -0.0728
 8371SOL    HW136746   0.472   1.856  17.482 -0.1491  1.7707  0.4160
 8371SOL    HW236747   0.542   1.932  17.580  0.9463 -0.7560  0.6547
 8372SOL     OW36748   0.083   1.593  12.336 -0.2108  0.6693  0.1518
 8372SOL    HW136749   0.116   1.607  12.247 -0.3467  1.0879  0.1678
 8372SOL    HW236750   0.167   1.604  12.382 -0.1722 -2.0221  0.6942
 8373SOL     OW36751   2.654   2.613   4.050 -0.4521 -0.3956  0.6767
 8373SOL    HW136752   2.664   2.525   4.013 -0.9687 -1.2681  2.6013
 8373SOL    HW236753   2.671   2.665   3.971 -0.3810 -1.6997 -0.1731
 8374SOL     OW36754   1.520   3.618   7.646 -0.8482 -0.1905 -0.3823
 8374SOL    HW136755   1.441   3.565   7.638  0.4771 -2.1705 -0.3961
 8374SOL    HW236756   1.581   3.566   7.594 -2.0133 -0.8073 -1.1134
 8375SOL     OW36757   0.642   0.199   5.038  0.1195  0.0436 -0.1521
 8375SOL    HW136758   0.580   0.141   4.992  0.8367  0.7660 -2.0253
 8375SOL    HW236759   0.717   0.144   5.062  0.3226 -0.4074 -1.8024
 8376SOL     OW36760   3.495   3.707  13.120 -0.1471 -1.0992 -0.1235
 8376SOL    HW136761   3.579   3.726  13.078  1.1917 -1.2332  2.5337
 8376SOL    HW236762   3.447   3.701  13.037 -0.4392 -0.2043 -0.0221
 8377SOL     OW36763   2.901   2.945  14.699 -0.3537  0.2162 -0.1444
 8377SOL    HW136764   2.840   2.917  14.767  0.9922 -0.5707  0.7364
 8377SOL    HW236765   2.875   3.034  14.676  0.3908  0.3257 -0.5794
 8378SOL     OW36766   1.736   2.828   3.601  0.2339 -0.2667  0.1131
 8378SOL    HW136767   1.775   2.743   3.581  0.6521 -0.4440  1.6818
 8378SOL    HW236768   1.807   2.878   3.560 -0.2010  1.5984  1.6586
 8379SOL     OW36769   0.912   3.317   3.683  0.1359 -0.6442 -0.5977
 8379SOL    HW136770   0.892   3.407   3.659  2.3562 -0.2368 -0.9427
 8379SOL    HW236771   1.003   3.315   3.654  0.2290  4.0508 -0.5566
 8380SOL     OW36772   2.684   3.817   2.877  0.1365  0.7945 -0.0901
 8380SOL    HW136773   2.659   3.817   2.784 -0.8867 -0.9791  0.1910
 8380SOL    HW236774   2.611   3.866   2.915  1.2760  1.7204  0.8996
 8381SOL     OW36775   1.724   1.647   2.416  0.0551  0.4901 -0.8120
 8381SOL    HW136776   1.672   1.579   2.372 -1.8263  1.6016 -0.2885
 8381SOL    HW236777   1.812   1.621   2.387  0.6967 -1.5657  2.9984
 8382SOL     OW36778   1.941   3.937   9.738  0.1166  0.2218  0.1823
 8382SOL    HW136779   1.884   4.013   9.749  1.8074  1.2836  1.8662
 8382SOL    HW236780   2.025   3.983   9.731  1.3487 -2.2115 -0.7349
 8383SOL     OW36781   1.606   0.974   7.247 -0.3738 -0.0540  0.2852
 8383SOL    HW136782   1.528   0.982   7.302  1.9325  1.3438  3.3485
 8383SOL    HW236783   1.665   0.982   7.323  2.6818 -2.1097 -1.8796
 8384SOL     OW36784   1.758   0.886  12.329  0.6904  0.0146  0.2115
 8384SOL    HW136785   1.677   0.931  12.353  0.5819 -0.0457 -0.0434
 8384SOL    HW236786   1.785   0.864  12.418  2.0879 -0.3314 -0.2992
 8385SOL     OW36787   2.108   2.738  13.049 -0.8520 -0.0327  0.4601
 8385SOL    HW136788   2.063   2.753  13.132  1.5518 -2.7201  2.2627
 8385SOL    HW236789   2.198   2.758  13.075 -1.1636  1.1127  0.6526
 8386SOL     OW36790   3.353   1.110   8.636  0.3932  0.7302  0.1959
 8386SOL    HW136791   3.308   1.029   8.612  0.1861  0.2156  2.3650
 8386SOL    HW236792   3.352   1.149   8.548 -0.4031 -0.5213 -0.3492
 8387SOL     OW36793   0.731   3.421   3.246  0.5249 -0.3290  0.1705
 8387SOL    HW136794   0.801   3.437   3.182 -1.0924 -1.1693 -1.8202
 8387SOL    HW236795   0.684   3.347   3.207  0.7345 -0.2519 -0.2326
 8388SOL     OW36796   2.208   3.095  11.509  0.5763  0.2048  0.4917
 8388SOL    HW136797   2.296   3.091  11.471 -0.6015 -1.1150 -2.0889
 8388SOL    HW236798   2.207   3.173  11.564  0.1568  2.4670 -2.7564
 8389SOL     OW36799   0.894   4.575   8.006 -0.1618 -0.4115 -0.0959
 8389SOL    HW136800   0.960   4.508   8.023 -0.0227  0.7640  3.8473
 8389SOL    HW236801   0.815   4.531   7.975 -2.5171  2.4147  1.9756
 8390SOL     OW36802   2.908   4.300   3.278  0.3437 -0.4192 -0.3111
 8390SOL    HW136803   2.862   4.357   3.339 -1.0156 -3.2079  1.2847
 8390SOL    HW236804   2.979   4.353   3.243  4.2803 -2.8292  4.1252
 8391SOL     OW36805   1.325   1.613   8.031 -0.2262  0.0358 -0.2281
 8391SOL    HW136806   1.320   1.705   8.005 -2.0755  0.0045 -0.0378
 8391SOL    HW236807   1.256   1.572   7.978 -0.7852 -1.7804  1.9182
 8392SOL     OW36808   2.518   2.524   8.067  0.0642  0.2327  0.4954
 8392SOL    HW136809   2.482   2.493   7.984  1.6216 -1.3972  0.4558
 8392SOL    HW236810   2.451   2.592   8.082 -0.0577  0.0767  0.6592
 8393SOL     OW36811   2.821   2.183   6.210 -0.6283 -0.0174 -0.6655
 8393SOL    HW136812   2.854   2.141   6.290 -0.2053  0.5398 -0.5474
 8393SOL    HW236813   2.904   2.205   6.167 -1.6069 -2.0520 -3.6017
 8394SOL     OW36814   4.544   3.180  17.058 -0.4581  0.1261  0.0067
 8394SOL    HW136815   4.616   3.118  17.060 -0.6727 -0.1862 -1.9034
 8394SOL    HW236816   4.474   3.115  17.064 -0.5799  0.3885  1.4290
 8395SOL     OW36817   2.733   1.003   9.228 -0.3574  0.2512  0.1400
 8395SOL    HW136818   2.814   1.052   9.242 -0.3191  0.3886 -0.5420
 8395SOL    HW236819   2.748   0.990   9.134 -0.8811  1.1358 -0.0699
 8396SOL     OW36820   2.826   4.116   2.770  0.4558 -0.1462  0.2418
 8396SOL    HW136821   2.894   4.129   2.836 -0.7434  1.6512  1.1145
 8396SOL    HW236822   2.757   4.161   2.817 -0.5787 -1.4223 -0.0477
 8397SOL     OW36823   2.591   3.294   7.100 -0.7440  0.9935  0.0917
 8397SOL    HW136824   2.508   3.248   7.087  0.4381 -0.3857 -2.5124
 8397SOL    HW236825   2.639   3.223   7.143 -0.3949  1.3595  0.3045
 8398SOL     OW36826   3.882   2.234   4.621 -0.6163 -0.1340 -0.7903
 8398SOL    HW136827   3.920   2.232   4.709  3.2987  1.2688 -2.4213
 8398SOL    HW236828   3.816   2.165   4.625 -0.5978 -0.0521  0.6250
 8399SOL     OW36829   4.317   2.714   5.040 -0.5327 -0.2720  0.2933
 8399SOL    HW136830   4.284   2.624   5.042  0.3864 -0.6348 -0.5210
 8399SOL    HW236831   4.411   2.703   5.054 -0.5864 -0.6097  0.3990
 8400SOL     OW36832   0.539   3.997   6.255  0.1605 -0.9135  0.4290
 8400SOL    HW136833   0.535   4.093   6.262 -1.0343 -0.7233 -2.6696
 8400SOL    HW236834   0.444   3.984   6.255 -0.1576  1.3888 -0.2856
 8401SOL     OW36835   3.860   3.253   8.928 -0.0022 -0.0067  0.0220
 8401SOL    HW136836   3.881   3.308   9.004  2.8783 -1.0803 -0.0170
 8401SOL    HW236837   3.840   3.324   8.867 -2.3467  0.1627  0.9707
 8402SOL     OW36838   1.127   2.655   2.887 -0.5421 -0.2477 -0.0421
 8402SOL    HW136839   1.126   2.641   2.981 -0.9692 -1.2754 -0.1980
 8402SOL    HW236840   1.177   2.737   2.882  1.4602 -1.4639 -0.0844
 8403SOL     OW36841   0.500   4.027   4.991 -0.1455 -0.2286  0.0955
 8403SOL    HW136842   0.455   3.989   5.066  0.9236 -2.2440 -0.2915
 8403SOL    HW236843   0.461   3.980   4.917  0.1487  0.8429 -0.7500
 8404SOL     OW36844   3.699   3.317   5.741 -0.4878  0.7482  0.2279
 8404SOL    HW136845   3.794   3.316   5.752 -0.4956 -0.8810  0.1042
 8404SOL    HW236846   3.691   3.276   5.655  2.6443  0.7043 -0.0213
 8405SOL     OW36847   1.192   1.254   4.579 -0.2322 -0.1672 -0.2864
 8405SOL    HW136848   1.212   1.212   4.663  0.0115 -1.7711 -1.1573
 8405SOL    HW236849   1.280   1.262   4.542 -0.4566  0.1277 -0.7571
 8406SOL     OW36850   3.766   2.952   7.783 -0.2173 -0.5146 -1.0080
 8406SOL    HW136851   3.771   2.927   7.875 -0.5645  0.1237 -0.8224
 8406SOL    HW236852   3.788   3.045   7.789  0.5719 -0.8896  1.9676
 8407SOL     OW36853   4.146   2.279   2.858  0.1330 -0.5429  0.5265
 8407SOL    HW136854   4.218   2.230   2.820 -1.1409 -1.8709 -0.1630
 8407SOL    HW236855   4.098   2.201   2.885  0.6238 -0.9968  0.0866
 8408SOL     OW36856   1.698   0.304   5.909  0.4594  0.5876  0.0406
 8408SOL    HW136857   1.725   0.297   6.001 -1.1668  0.5782  0.5095
 8408SOL    HW236858   1.687   0.212   5.887  0.6274  0.1267  1.8699
 8409SOL     OW36859   3.050   2.372  14.968  0.4488 -0.3922  0.5090
 8409SOL    HW136860   2.959   2.382  14.996 -0.1263  0.0612 -1.4777
 8409SOL    HW236861   3.065   2.466  14.966 -1.2980 -0.1501 -0.7799
 8410SOL     OW36862   0.706   0.571  15.369  0.4305  0.1548  0.5882
 8410SOL    HW136863   0.645   0.567  15.295  1.0899 -1.3482  0.1331
 8410SOL    HW236864   0.640   0.586  15.437 -2.8718  1.8369 -2.9590
 8411SOL     OW36865   0.502   2.931   5.381  0.2033  0.3291 -0.0626
 8411SOL    HW136866   0.546   2.911   5.464 -0.5216 -1.5067 -0.1189
 8411SOL    HW236867   0.567   2.908   5.315  0.3738  1.4357 -0.2669
 8412SOL     OW36868   1.016   1.153   4.923  0.0763  0.3826 -0.0728
 8412SOL    HW136869   0.963   1.228   4.897 -0.8094  0.4661  1.9655
 8412SOL    HW236870   0.944   1.092   4.942 -2.4031  2.6614 -2.1459
 8413SOL     OW36871   2.072   2.853   8.083  0.0854 -0.7367 -0.1816
 8413SOL    HW136872   2.004   2.883   8.023 -0.2391 -0.7080  0.2085
 8413SOL    HW236873   2.015   2.843   8.159 -0.6322  0.7957 -0.5164
 8414SOL     OW36874   3.626   1.605   2.689  0.5516 -0.3992  0.5608
 8414SOL    HW136875   3.713   1.640   2.708  0.3978  1.2520 -1.8442
 8414SOL    HW236876   3.645   1.514   2.665 -1.4318 -0.9475  1.0254
 8415SOL     OW36877   3.113   3.590   8.363 -0.1081  0.2587  0.0293
 8415SOL    HW136878   3.138   3.635   8.282  1.2923  2.3235  1.6373
 8415SOL    HW236879   3.193   3.611   8.410 -0.8304  0.6866  1.0870
 8416SOL     OW36880   0.969   1.302   5.454  0.0332  0.2313  0.4153
 8416SOL    HW136881   0.940   1.317   5.364  2.1751  2.5728  0.0961
 8416SOL    HW236882   0.895   1.252   5.488  0.2726  0.7910  1.7726
 8417SOL     OW36883   3.771   0.027   4.605 -0.2143 -0.3004 -0.5026
 8417SOL    HW136884   3.692   0.072   4.576  2.4474  1.8668 -4.3417
 8417SOL    HW236885   3.776   0.036   4.700  0.7554  0.4982 -0.6235
 8418SOL     OW36886   3.436   3.483   1.853 -0.0653  0.1038  0.1078
 8418SOL    HW136887   3.464   3.567   1.818 -1.3373  0.0992 -0.9211
 8418SOL    HW236888   3.459   3.422   1.783  0.4660  1.6240 -1.0129
 8419SOL     OW36889   3.535   0.973   5.821  0.1061  0.8251  0.0475
 8419SOL    HW136890   3.611   0.920   5.844 -1.8299 -0.6190  3.1477
 8419SOL    HW236891   3.472   0.906   5.794 -1.3175  0.5517  4.0161
 8420SOL     OW36892   2.420   0.650   4.174 -0.3097 -0.1358 -0.3829
 8420SOL    HW136893   2.449   0.560   4.163  1.5666  0.4549 -0.2665
 8420SOL    HW236894   2.383   0.643   4.262 -0.0508  0.4636 -0.2270
 8421SOL     OW36895   3.467   2.192   7.596 -0.5625  0.2511 -0.7395
 8421SOL    HW136896   3.509   2.106   7.599 -0.9791  0.0701  0.0337
 8421SOL    HW236897   3.388   2.161   7.552  0.0506  1.6506 -2.8235
 8422SOL     OW36898   4.030   4.407  13.330 -0.0766 -0.1053  0.0200
 8422SOL    HW136899   3.967   4.455  13.383 -0.2147 -0.4860  0.2030
 8422SOL    HW236900   4.023   4.322  13.375  2.1894  0.7967  2.1029
 8423SOL     OW36901   0.096   0.240  14.716 -0.4618  0.2197 -0.1685
 8423SOL    HW136902   0.057   0.288  14.643 -0.0644  0.1687 -0.4149
 8423SOL    HW236903   0.113   0.157  14.671  0.7933  1.1654 -1.4015
 8424SOL     OW36904   0.625   3.697   9.018  0.7743  0.3193  0.0293
 8424SOL    HW136905   0.642   3.762   8.950  0.2786 -0.3315 -0.7183
 8424SOL    HW236906   0.667   3.740   9.093 -0.1572  1.5354 -0.1447
 8425SOL     OW36907   0.892   3.340   3.996  0.2245  0.8463 -0.5815
 8425SOL    HW136908   0.861   3.395   3.923  1.1524  0.5585 -1.1970
 8425SOL    HW236909   0.985   3.362   3.992  0.8244 -1.6762 -0.3360
 8426SOL     OW36910   3.540   2.870   6.045  0.0726 -0.2281 -0.3560
 8426SOL    HW136911   3.618   2.858   6.098 -0.0267  2.4513  0.3897
 8426SOL    HW236912   3.567   2.910   5.963 -0.2938 -1.9299 -1.2859
 8427SOL     OW36913   0.686   3.684   6.064  0.0731 -0.0572 -0.1801
 8427SOL    HW136914   0.753   3.617   6.053 -0.2423 -0.7388  2.0011
 8427SOL    HW236915   0.628   3.654   5.994 -2.0725  2.8107  0.3560
 8428SOL     OW36916   4.146   1.527   6.606  0.6396 -0.3836  0.0660
 8428SOL    HW136917   4.127   1.527   6.700 -0.2283  2.1454 -0.1187
 8428SOL    HW236918   4.197   1.446   6.604  0.3346 -0.6085  1.7544
 8429SOL     OW36919   1.253   4.685  17.066  0.1026 -0.7574 -0.4915
 8429SOL    HW136920   1.186   0.017  17.076  0.5197 -0.6780  1.6369
 8429SOL    HW236921   1.257   4.641  17.151 -1.7657 -0.8424 -0.4539
 8430SOL     OW36922   0.333   2.357   6.369  0.3581 -0.4665 -0.0995
 8430SOL    HW136923   0.395   2.427   6.348 -0.3506  0.7406  1.8320
 8430SOL    HW236924   0.255   2.375   6.317 -1.1671  1.4841  2.8727
 8431SOL     OW36925   1.157   2.014   1.480  0.1521  0.2397  0.1426
 8431SOL    HW136926   1.200   1.936   1.444  0.6458  0.4412  0.2875
 8431SOL    HW236927   1.192   2.018   1.569  0.8201  2.4694 -0.2311
 8432SOL     OW36928   0.083   1.754   2.855 -0.1579 -0.2148 -0.3536
 8432SOL    HW136929   0.097   1.694   2.927  1.1226  0.3965 -0.0995
 8432SOL    HW236930   0.161   1.748   2.801 -1.2344  3.0338 -2.2987
 8433SOL     OW36931   1.687   4.395  12.378  0.0446  0.2571 -0.5538
 8433SOL    HW136932   1.705   4.489  12.382 -0.3422  0.3593 -1.2422
 8433SOL    HW236933   1.708   4.374  12.287 -1.8398  1.3850 -1.2414
 8434SOL     OW36934   0.101   4.250  10.837 -0.3896  0.0846  0.3239
 8434SOL    HW136935   0.162   4.177  10.849 -1.0793 -0.4320  0.6864
 8434SOL    HW236936   0.151   4.327  10.866  0.5742  0.0510 -1.2746
 8435SOL     OW36937   2.233   1.808   4.046  0.8708  0.1400  0.0892
 8435SOL    HW136938   2.200   1.868   4.114  1.4901  1.6022 -0.8840
 8435SOL    HW236939   2.202   1.858   3.970 -0.2600 -2.2151 -0.9854
 8436SOL     OW36940   3.565   0.436   2.382 -0.4256  0.2671 -0.1168
 8436SOL    HW136941   3.650   0.439   2.426 -0.4443  0.3651 -0.0860
 8436SOL    HW236942   3.589   0.441   2.289 -2.9302  1.2714 -0.7166
 8437SOL     OW36943   0.554   0.245   2.513 -0.0317 -0.2971 -0.2874
 8437SOL    HW136944   0.544   0.340   2.511  0.9800 -0.1755  0.3819
 8437SOL    HW236945   0.484   0.207   2.566 -0.4309 -1.5818 -1.7581
 8438SOL     OW36946   4.561   2.524   3.050  0.1370 -0.1723 -0.1581
 8438SOL    HW136947   4.472   2.554   3.030 -0.1895 -0.6354  0.5958
 8438SOL    HW236948   4.553   2.428   3.053 -0.2301 -0.1320  0.1926
 8439SOL     OW36949   2.126   2.473   5.056 -0.1419  0.4879  0.4644
 8439SOL    HW136950   2.035   2.493   5.034  0.6973  1.6177 -1.8826
 8439SOL    HW236951   2.136   2.542   5.122 -2.1597  1.6721 -0.4549
 8440SOL     OW36952   0.509   3.884  11.097 -0.2150  0.1162  0.1920
 8440SOL    HW136953   0.526   3.931  11.179 -1.6200 -0.0150  0.5547
 8440SOL    HW236954   0.534   3.954  11.035  3.2529 -1.0283  0.3210
 8441SOL     OW36955   4.200   1.346   4.985 -0.2113  0.2802  0.0712
 8441SOL    HW136956   4.113   1.371   5.016 -0.5629  0.3341 -0.9571
 8441SOL    HW236957   4.251   1.374   5.062 -0.5150  0.8399  0.0705
 8442SOL     OW36958   4.065   0.699   4.622 -0.0327 -0.0877 -0.3845
 8442SOL    HW136959   3.986   0.657   4.588  0.2676 -2.2838  1.6537
 8442SOL    HW236960   4.125   0.673   4.553 -0.9760 -0.3572 -1.1083
 8443SOL     OW36961   2.774   0.542   6.653 -0.4256 -0.7121  0.1056
 8443SOL    HW136962   2.713   0.540   6.727  0.1143  1.2028  0.5970
 8443SOL    HW236963   2.742   0.619   6.607 -2.2938 -2.1206 -0.9614
 8444SOL     OW36964   4.004   4.616   7.297 -0.3876  0.1340 -0.0550
 8444SOL    HW136965   3.920   4.572   7.293 -0.4950  0.4377 -1.3095
 8444SOL    HW236966   4.032   4.600   7.387 -0.1029  2.9468  0.3659
 8445SOL     OW36967   0.758   2.578   1.943  0.0077 -0.0829  0.6797
 8445SOL    HW136968   0.750   2.674   1.944  2.0389  0.1130 -1.2023
 8445SOL    HW236969   0.854   2.578   1.949  0.1203  0.7675 -0.9486
 8446SOL     OW36970   3.860   2.087   4.024  0.6514 -0.2325  0.2364
 8446SOL    HW136971   3.872   1.992   4.019 -3.4844 -0.8252  2.3600
 8446SOL    HW236972   3.765   2.079   4.017  0.4507  2.0164  0.6234
 8447SOL     OW36973   0.487   4.581  15.381 -0.0695  0.2524 -0.1119
 8447SOL    HW136974   0.414   4.612  15.327  0.9873 -1.0713 -2.3066
 8447SOL    HW236975   0.561   4.637  15.359 -0.8203  2.0082  1.8297
 8448SOL     OW36976   2.914   0.950   2.352 -0.3535 -0.7852 -0.2617
 8448SOL    HW136977   2.871   1.035   2.343 -0.4085 -0.8161 -0.2909
 8448SOL    HW236978   2.860   0.911   2.283 -2.5928  0.4863  0.7969
 8449SOL     OW36979   2.640   0.436   1.238 -0.3928  0.6247 -0.5454
 8449SOL    HW136980   2.715   0.378   1.235 -0.0670  1.0183 -0.0115
 8449SOL    HW236981   2.571   0.370   1.233  1.8149 -1.7733  1.1483
 8450SOL     OW36982   0.669   0.054   8.460  0.1571 -0.0006  0.5493
 8450SOL    HW136983   0.710   0.057   8.547 -2.5282  0.5497  1.7853
 8450SOL    HW236984   0.688   4.700   8.433  1.2690  0.6726 -0.8913
 8451SOL     OW36985   3.777   1.315   6.167  0.0900 -0.3620 -0.5151
 8451SOL    HW136986   3.682   1.311   6.168 -0.0016  1.3846 -1.1743
 8451SOL    HW236987   3.793   1.296   6.074  2.6221 -0.3363 -0.0895
 8452SOL     OW36988   3.939   0.538   6.040  0.0030  0.1847 -0.1591
 8452SOL    HW136989   3.924   0.632   6.031 -0.5752 -0.1296 -2.4172
 8452SOL    HW236990   4.028   0.537   6.076 -0.0602  0.5164  0.0009
 8453SOL     OW36991   4.032   4.600   9.959  0.2061  0.4884  0.2787
 8453SOL    HW136992   4.087   4.546   9.903 -1.8667 -0.4291 -0.8222
 8453SOL    HW236993   4.073   4.563  10.037  2.2244 -1.5019 -1.7318
 8454SOL     OW36994   0.576   1.332   1.660  0.6797  0.0868 -0.1377
 8454SOL    HW136995   0.596   1.357   1.570  0.2624 -0.0425 -0.2642
 8454SOL    HW236996   0.632   1.388   1.715  1.5047 -2.0024  1.1602
 8455SOL     OW36997   1.925   4.489   6.923 -0.0362  0.2139 -0.0735
 8455SOL    HW136998   1.984   4.551   6.880 -0.2221  0.5240  0.1180
 8455SOL    HW236999   1.877   4.545   6.984 -0.8713  0.1777 -0.7031
 8456SOL     OW37000   3.265   0.819  11.463 -0.0755 -0.0511  0.0926
 8456SOL    HW137001   3.285   0.870  11.385 -1.7553 -1.3759 -1.2113
 8456SOL    HW237002   3.181   0.787  11.429  0.2616 -0.8109 -0.0380
 8457SOL     OW37003   1.100   2.936   3.788  0.2080  0.4070  0.2645
 8457SOL    HW137004   1.190   2.969   3.794  0.3997 -0.0774  0.0749
 8457SOL    HW237005   1.069   2.962   3.875 -0.0586  1.4470 -0.1496
 8458SOL     OW37006   4.395   4.504   4.097 -0.1014 -0.1089 -0.1464
 8458SOL    HW137007   4.453   4.580   4.101  0.7880 -0.8371  0.8540
 8458SOL    HW237008   4.405   4.470   4.008  1.0566  0.4753 -0.2390
 8459SOL     OW37009   3.424   4.053   6.750  0.0643  0.1679 -0.2301
 8459SOL    HW137010   3.406   3.989   6.819 -1.0671  0.1344 -0.5613
 8459SOL    HW237011   3.460   3.998   6.680 -0.1072  0.7002 -0.7333
 8460SOL     OW37012   2.948   1.588   4.536 -0.4306  0.0291  0.4173
 8460SOL    HW137013   2.863   1.584   4.493 -0.8613 -0.4421  1.3390
 8460SOL    HW237014   2.930   1.557   4.624  0.6819  0.5628  0.8457
 8461SOL     OW37015   2.276   0.293   8.548 -0.7409  0.4608  0.1745
 8461SOL    HW137016   2.364   0.330   8.558 -0.9890  1.1647 -0.2368
 8461SOL    HW237017   2.283   0.249   8.463  0.1213 -0.4819  0.7214
 8462SOL     OW37018   2.806   1.554   5.479 -0.6136  0.2375 -0.1846
 8462SOL    HW137019   2.761   1.506   5.409 -0.2416 -1.0863  0.4818
 8462SOL    HW237020   2.744   1.546   5.552 -0.8548 -0.6879 -0.4821
 8463SOL     OW37021   0.241   3.211   3.992  0.2929 -0.2345 -0.3213
 8463SOL    HW137022   0.161   3.253   4.025  1.1887 -0.1107  1.6372
 8463SOL    HW237023   0.269   3.162   4.069 -0.4530 -0.5519 -0.2501
 8464SOL     OW37024   0.557   0.673   8.020 -0.0178 -0.3213 -0.3715
 8464SOL    HW137025   0.573   0.606   7.952 -1.8856  0.8898 -1.9807
 8464SOL    HW237026   0.642   0.718   8.021 -0.3633  0.3338 -0.5707
 8465SOL     OW37027   0.043   1.959  12.426 -0.0005  0.1486  0.5138
 8465SOL    HW137028   0.070   1.958  12.518 -0.4205 -1.1784  0.6155
 8465SOL    HW237029   0.119   1.913  12.390 -0.0862  0.0689  0.4356
 8466SOL     OW37030   0.964   3.505  15.654 -0.2671  0.3176 -0.4264
 8466SOL    HW137031   0.972   3.586  15.603 -0.4196  1.7580  1.8709
 8466SOL    HW237032   1.014   3.543  15.726 -0.0472 -0.6612 -0.0681
 8467SOL     OW37033   0.837   1.813  16.957 -0.3603 -0.0294 -0.1990
 8467SOL    HW137034   0.754   1.852  16.984  1.3239  1.9180  2.0818
 8467SOL    HW237035   0.810   1.787  16.869  0.5040 -0.1542 -0.4287
 8468SOL     OW37036   3.332   1.414   7.803  0.0711 -0.1315 -0.2369
 8468SOL    HW137037   3.354   1.411   7.896 -0.9379  2.9454  0.1111
 8468SOL    HW237038   3.278   1.493   7.814 -0.1259 -0.1346 -1.2369
 8469SOL     OW37039   3.445   4.507   6.478  0.2456  0.1596  0.4086
 8469SOL    HW137040   3.406   4.435   6.528  1.4360 -1.5481 -1.1048
 8469SOL    HW237041   3.376   4.573   6.479  1.0676  1.0027  0.4284
 8470SOL     OW37042   1.778   4.061   3.201  0.3802 -0.1184 -0.2755
 8470SOL    HW137043   1.711   4.123   3.230 -0.3767 -0.6697 -0.8419
 8470SOL    HW237044   1.830   4.125   3.152  0.8833  1.1803  1.9364
 8471SOL     OW37045   2.072   4.535   1.237  0.0880  0.3211 -0.0467
 8471SOL    HW137046   1.993   4.489   1.211  1.3933 -1.4973 -0.8272
 8471SOL    HW237047   2.059   4.618   1.193 -2.3456 -0.0816 -0.0816
 8472SOL     OW37048   1.066   2.449   0.059 -0.3735 -0.0064 -0.7519
 8472SOL    HW137049   1.132   2.467   0.125 -2.5303 -0.5032  1.5459
 8472SOL    HW237050   1.040   2.359   0.078 -1.0789  0.3010 -0.2661
 8473SOL     OW37051   2.189   1.357   9.357 -0.5672 -0.1512 -0.2636
 8473SOL    HW137052   2.282   1.369   9.380 -1.0803  0.7122  1.3746
 8473SOL    HW237053   2.190   1.276   9.306  0.9103 -1.1815  1.3894
 8474SOL     OW37054   3.939   4.623  17.571 -0.0293  0.4861 -0.1223
 8474SOL    HW137055   3.927   4.607  17.477 -0.6196 -0.8582  0.1858
 8474SOL    HW237056   3.935   4.536  17.610  0.6735 -0.7999 -2.8900
 8475SOL     OW37057   1.104   1.665  16.014 -0.1173 -0.3773  0.1795
 8475SOL    HW137058   1.127   1.599  16.080 -0.7637 -0.5178  0.2660
 8475SOL    HW237059   1.013   1.647  15.992 -0.1934  1.2399 -0.8317
 8476SOL     OW37060   3.382   4.694   2.960  0.2215 -0.3410  0.1347
 8476SOL    HW137061   3.299   4.691   2.913 -1.6546 -0.0487  3.4353
 8476SOL    HW237062   3.412   0.046   2.937  0.1647  0.0686  1.5833
 8477SOL     OW37063   2.148   2.453   4.036 -0.4594  0.1828  0.1056
 8477SOL    HW137064   2.087   2.467   3.963  0.2796  4.7311  0.3964
 8477SOL    HW237065   2.177   2.544   4.038  0.7574 -0.1883 -0.4051
 8478SOL     OW37066   1.703   0.582   6.281  0.5244  0.1203  0.0153
 8478SOL    HW137067   1.699   0.666   6.235 -0.4646 -0.4033 -0.8465
 8478SOL    HW237068   1.749   0.605   6.362  2.3056 -0.4860 -0.8375
 8479SOL     OW37069   3.501   1.295   1.270 -0.1337  0.5931  0.3760
 8479SOL    HW137070   3.518   1.264   1.181 -1.6147  0.0124  0.2946
 8479SOL    HW237071   3.406   1.308   1.267 -0.0492  0.8724 -1.4791
 8480SOL     OW37072   3.814   3.761   0.269  0.0267 -0.2191 -0.0232
 8480SOL    HW137073   3.829   3.855   0.261  1.6850 -0.4005  0.9004
 8480SOL    HW237074   3.905   3.747   0.298  0.4458  2.5163 -0.0244
 8481SOL     OW37075   4.640   1.386   8.687  0.2464  0.5115 -0.2016
 8481SOL    HW137076   4.635   1.294   8.710 -0.6250  0.5232 -0.3789
 8481SOL    HW237077   4.713   1.393   8.625  1.7232 -2.0658  1.2514
 8482SOL     OW37078   0.601   0.561   2.784 -0.1865 -0.0027  0.1308
 8482SOL    HW137079   0.604   0.632   2.720 -0.8391 -1.4462 -1.4869
 8482SOL    HW237080   0.571   0.604   2.864  0.3371 -1.4519  1.1165
 8483SOL     OW37081   2.505   4.490   9.990 -1.0432 -0.1537  0.0069
 8483SOL    HW137082   2.434   4.426   9.978  0.5856 -1.4209 -2.7825
 8483SOL    HW237083   2.461   4.548  10.053 -0.4437 -0.1681  0.4395
 8484SOL     OW37084   2.687   4.491  15.875 -0.4287 -0.0659 -0.2585
 8484SOL    HW137085   2.646   4.574  15.901  2.3555  1.0800  0.4240
 8484SOL    HW237086   2.769   4.521  15.835 -0.2470  0.0329  0.1924
 8485SOL     OW37087   2.730   0.305   3.957 -0.0374  0.3268  0.3140
 8485SOL    HW137088   2.718   0.330   4.048 -2.2214  0.4020  0.0026
 8485SOL    HW237089   2.638   0.294   3.934 -0.1598  2.0065 -0.0351
 8486SOL     OW37090   1.386   2.822   6.005  0.5539 -0.0743  0.5346
 8486SOL    HW137091   1.448   2.806   6.076  0.5979  0.6280  0.6546
 8486SOL    HW237092   1.307   2.836   6.056  0.4405  0.3087  0.2534
 8487SOL     OW37093   0.301   3.812   5.369 -0.4059  0.6268 -0.9585
 8487SOL    HW137094   0.364   3.882   5.389  0.1020 -0.3329  0.7976
 8487SOL    HW237095   0.237   3.821   5.440 -0.8300 -2.6633 -0.9687
 8488SOL     OW37096   4.656   4.083  11.723  0.5747 -0.4618 -0.2451
 8488SOL    HW137097   4.594   4.101  11.653  1.7757  2.9587 -0.4161
 8488SOL    HW237098   4.643   4.153  11.786  0.8190 -0.2679 -0.4098
 8489SOL     OW37099   4.216   2.656  12.034  0.3949 -0.3416 -0.5757
 8489SOL    HW137100   4.153   2.668  11.963  0.0217  1.7825  0.1151
 8489SOL    HW237101   4.291   2.644  11.977 -0.3218 -0.2705 -1.5235
 8490SOL     OW37102   4.356   4.510   4.680  0.1658  0.5539  0.6141
 8490SOL    HW137103   4.274   4.479   4.720  0.3526 -0.6951  0.0114
 8490SOL    HW237104   4.350   4.511   4.585 -0.9874 -0.4146  0.6762
 8491SOL     OW37105   2.204   3.906   3.608 -0.2056 -0.7113 -0.0090
 8491SOL    HW137106   2.212   3.870   3.520 -0.7769 -3.2866  0.9891
 8491SOL    HW237107   2.118   3.948   3.598  0.3104  0.4826  0.5450
 8492SOL     OW37108   1.664   0.249   3.803 -0.3728  0.3621  0.4311
 8492SOL    HW137109   1.683   0.157   3.789 -0.4001  0.3610  0.4029
 8492SOL    HW237110   1.616   0.225   3.882  1.5043  0.6499  1.6472
 8493SOL     OW37111   3.180   3.457   5.813  0.7508 -0.6823 -0.3982
 8493SOL    HW137112   3.228   3.493   5.887  0.4887 -2.4763  0.6330
 8493SOL    HW237113   3.236   3.469   5.736  1.6546  1.0296  0.5288
 8494SOL     OW37114   0.766   0.119   2.683  0.0204 -0.1072 -0.8129
 8494SOL    HW137115   0.788   0.203   2.723 -0.2460 -0.3828 -0.0720
 8494SOL    HW237116   0.718   0.144   2.605 -0.0018 -0.5747 -0.9463
 8495SOL     OW37117   4.454   3.898   8.354  0.2740 -0.3874 -0.1325
 8495SOL    HW137118   4.362   3.874   8.342  0.0717  0.1345  0.3505
 8495SOL    HW237119   4.454   3.990   8.325 -0.4899  0.0578  1.2776
 8496SOL     OW37120   2.855   0.300   9.546  0.5717 -0.3825 -0.3800
 8496SOL    HW137121   2.922   0.340   9.490  0.0982 -2.6465 -2.5712
 8496SOL    HW237122   2.850   0.364   9.616 -1.7571 -0.9211 -0.0516
 8497SOL     OW37123   3.663   1.044   2.352 -0.2441  0.2853 -0.0081
 8497SOL    HW137124   3.579   1.080   2.378  0.2152 -0.6358  2.7447
 8497SOL    HW237125   3.674   0.973   2.415  0.6528  2.2396  2.0200
 8498SOL     OW37126   3.434   3.000   7.847 -0.5683  0.2200  0.0793
 8498SOL    HW137127   3.347   3.040   7.857  0.0660  1.7303 -0.5015
 8498SOL    HW237128   3.486   3.045   7.914 -1.9607 -2.0280  2.6694
 8499SOL     OW37129   2.782   3.417  16.795  0.0983  0.2107 -0.5098
 8499SOL    HW137130   2.705   3.369  16.765  1.6888 -2.1292 -0.8549
 8499SOL    HW237131   2.798   3.373  16.879 -0.0971 -0.0659 -0.6184
 8500SOL     OW37132   3.224   3.213   7.719  0.5330  0.2944 -0.2757
 8500SOL    HW137133   3.194   3.123   7.705  0.4337  0.5164 -1.5595
 8500SOL    HW237134   3.319   3.214   7.707  0.8529  0.8959  2.5133
 8501SOL     OW37135   2.621   3.950   7.916 -0.4776  0.8226  0.3935
 8501SOL    HW137136   2.621   3.923   8.007 -0.8202  0.4261  0.2747
 8501SOL    HW237137   2.579   4.036   7.923 -0.6376  0.5199  3.0933
 8502SOL     OW37138   2.585   0.397   7.658 -0.3676  0.1694  0.0653
 8502SOL    HW137139   2.678   0.396   7.681 -0.2806 -1.0399 -0.3527
 8502SOL    HW237140   2.560   0.458   7.727 -1.1410 -1.0898  0.8961
 8503SOL     OW37141   2.668   3.831  12.229  0.2033 -0.2807  0.0596
 8503SOL    HW137142   2.686   3.919  12.261  1.1585 -1.1239  1.8179
 8503SOL    HW237143   2.579   3.823  12.261 -0.0959  1.1780 -0.4043
 8504SOL     OW37144   1.188   0.073  15.963 -0.4715  0.1888 -0.1778
 8504SOL    HW137145   1.240   0.141  16.007 -1.4004  2.4010 -2.4551
 8504SOL    HW237146   1.165   0.016  16.036 -0.1057 -0.7299 -0.7795
 8505SOL     OW37147   0.686   3.257  17.272  0.0107  0.2104  0.3413
 8505SOL    HW137148   0.678   3.205  17.192 -0.3877  0.2763  0.3345
 8505SOL    HW237149   0.780   3.267  17.288 -0.2578 -0.1470  2.1781
 8506SOL     OW37150   2.452   1.616  11.421  0.1803  0.3756 -0.3954
 8506SOL    HW137151   2.515   1.572  11.364  1.1741  1.3123 -0.0276
 8506SOL    HW237152   2.402   1.549  11.468  1.7441 -1.3172 -1.1678
 8507SOL     OW37153   4.036   1.799   5.196  0.0859  0.2548  0.1420
 8507SOL    HW137154   4.115   1.795   5.142 -0.2840  0.3869 -0.3973
 8507SOL    HW237155   3.965   1.809   5.133  0.7077  1.3389 -0.3955
 8508SOL     OW37156   0.373   2.377   5.017 -0.1717 -0.8108  0.1242
 8508SOL    HW137157   0.369   2.362   4.923  0.1383 -2.8104  0.4384
 8508SOL    HW237158   0.398   2.469   5.012 -0.2632 -0.8633 -1.2897
 8509SOL     OW37159   3.773   0.571  11.585  0.2860  0.1827  0.0853
 8509SOL    HW137160   3.855   0.618  11.603  1.0219 -0.6603 -1.0650
 8509SOL    HW237161   3.747   0.584  11.494  0.3245 -0.4578 -0.0191
 8510SOL     OW37162   2.898   0.752   5.585 -0.1635 -0.3463 -0.3644
 8510SOL    HW137163   2.914   0.845   5.596 -1.1596 -0.3202  0.8192
 8510SOL    HW237164   2.813   0.752   5.628 -0.5273 -2.7854 -1.0651
 8511SOL     OW37165   2.373   3.572  15.304 -0.1844 -0.0345  0.5759
 8511SOL    HW137166   2.305   3.594  15.240 -1.3567  0.5787  2.0239
 8511SOL    HW237167   2.350   3.480  15.316  0.0928 -0.1629  0.1059
 8512SOL     OW37168   0.084   0.792   0.303  0.1169  0.1023 -0.2036
 8512SOL    HW137169   0.081   0.854   0.376 -1.8600 -0.0712 -0.1394
 8512SOL    HW237170   0.131   0.726   0.354 -4.0777 -0.3626  3.0695
 8513SOL     OW37171   3.015   3.068   8.375  0.0580 -0.0928 -0.1112
 8513SOL    HW137172   3.007   3.160   8.351  0.9525  0.5335  2.0107
 8513SOL    HW237173   3.082   3.051   8.309 -0.2897 -0.3583 -0.3963
 8514SOL     OW37174   1.249   2.942   5.767 -0.5699  0.3809 -0.3582
 8514SOL    HW137175   1.276   2.928   5.858 -0.4782 -1.7712 -0.7095
 8514SOL    HW237176   1.177   2.880   5.760 -0.1605  0.0134 -1.2845
 8515SOL     OW37177   3.478   2.909   3.335 -0.1219  0.1002  0.1313
 8515SOL    HW137178   3.503   2.998   3.309 -1.4856  0.3504 -0.3128
 8515SOL    HW237179   3.395   2.896   3.289 -0.5024 -1.6763  1.3409
 8516SOL     OW37180   1.348   1.832   1.409 -0.2137 -0.2607 -0.1703
 8516SOL    HW137181   1.400   1.753   1.396 -1.2132 -1.2478  1.8520
 8516SOL    HW237182   1.415   1.889   1.447 -0.9920 -0.4404  1.4746
 8517SOL     OW37183   2.007   2.095  10.148  0.1385 -0.3073 -0.9386
 8517SOL    HW137184   2.100   2.116  10.152 -0.4313  2.0634 -0.3399
 8517SOL    HW237185   2.019   2.000  10.142  2.5374 -0.0955  0.6060
 8518SOL     OW37186   0.183   3.219  12.534  0.3462  0.0114  0.1612
 8518SOL    HW137187   0.145   3.138  12.566 -0.5339  0.3440 -0.0205
 8518SOL    HW237188   0.132   3.285  12.581 -2.3374 -0.0116 -2.7205
 8519SOL     OW37189   2.050   2.805   9.716  0.1280  0.4464 -0.4314
 8519SOL    HW137190   1.985   2.736   9.701 -0.5071  0.6733  1.2722
 8519SOL    HW237191   2.098   2.805   9.633 -0.5995 -3.3821 -0.8527
 8520SOL     OW37192   0.359   0.471   4.445  0.5503  0.2561 -0.1387
 8520SOL    HW137193   0.292   0.538   4.430 -0.6196 -1.0083 -0.4958
 8520SOL    HW237194   0.428   0.531   4.474  1.6796 -1.3628  0.4860
 8521SOL     OW37195   4.620   1.122   5.618 -0.3764  0.1810  0.0818
 8521SOL    HW137196   4.602   1.214   5.635 -1.0747  0.1348 -0.3993
 8521SOL    HW237197   4.542   1.082   5.657  2.0855 -2.8979  1.8764
 8522SOL     OW37198   3.230   2.365   1.344  0.9506  0.3254 -0.0615
 8522SOL    HW137199   3.156   2.370   1.283  0.6302  2.7592  0.5435
 8522SOL    HW237200   3.192   2.394   1.427  1.7384 -2.3618  1.2351
 8523SOL     OW37201   2.459   3.949   2.957  0.1233 -0.0517 -0.2036
 8523SOL    HW137202   2.451   3.957   2.862 -1.1304  0.0351 -0.1012
 8523SOL    HW237203   2.375   3.985   2.987  0.3144 -0.5126  0.8641
 8524SOL     OW37204   1.916   1.121  16.753 -0.1142  0.1183 -0.0480
 8524SOL    HW137205   1.913   1.185  16.823 -0.6046 -0.9420  0.9066
 8524SOL    HW237206   1.835   1.070  16.757 -0.3214  0.3939 -0.6049
 8525SOL     OW37207   0.310   3.799   6.841 -0.0235 -0.1608 -0.0388
 8525SOL    HW137208   0.300   3.876   6.785  0.9645  1.0806  1.5259
 8525SOL    HW237209   0.255   3.741   6.788  0.1029  2.0804 -2.6343
 8526SOL     OW37210   0.668   3.169  15.067  0.5508 -0.2892 -0.2479
 8526SOL    HW137211   0.725   3.178  15.143 -0.2042  1.2416  0.1278
 8526SOL    HW237212   0.609   3.095  15.079  0.5372 -0.4297 -1.1477
 8527SOL     OW37213   2.673   0.103   4.983 -0.1126  0.2808 -0.0549
 8527SOL    HW137214   2.742   0.081   5.045 -1.1909  2.5105  1.9621
 8527SOL    HW237215   2.708   0.184   4.944 -0.4038  0.4377  0.0083
 8528SOL     OW37216   0.002   3.646   4.816  0.2276  0.1127 -0.9468
 8528SOL    HW137217   0.023   3.738   4.830  0.1009 -0.1150  0.7994
 8528SOL    HW237218   0.057   3.612   4.886 -0.7403 -0.0696 -0.2650
 8529SOL     OW37219   0.693   0.087   1.733 -0.0764 -0.0118 -0.5348
 8529SOL    HW137220   0.730   0.107   1.819 -0.0283  0.8573 -0.7563
 8529SOL    HW237221   0.763   0.037   1.689  0.1933 -1.6996  1.7925
 8530SOL     OW37222   1.361   2.045  15.690  0.2871  0.0510 -0.2619
 8530SOL    HW137223   1.443   2.026  15.644  0.0096  2.4311 -1.7472
 8530SOL    HW237224   1.323   1.962  15.663 -0.0028  0.8042 -2.1480
 8531SOL     OW37225   0.431   3.033   6.025  0.2209 -0.6060 -0.3259
 8531SOL    HW137226   0.424   2.939   6.006  1.4575 -0.0443 -3.6172
 8531SOL    HW237227   0.527   3.036   6.025  0.2201 -0.5505 -0.4770
 8532SOL     OW37228   1.151   0.292   5.560 -0.0799  0.2873 -0.4364
 8532SOL    HW137229   1.193   0.283   5.645  2.7978  1.1192 -1.7764
 8532SOL    HW237230   1.154   0.387   5.553  0.6430  0.3821  1.2625
 8533SOL     OW37231   3.118   4.094  13.476 -0.0984 -0.0821  0.9092
 8533SOL    HW137232   3.179   4.020  13.477 -0.5592 -0.4747  0.1539
 8533SOL    HW237233   3.176   4.148  13.529  2.3531 -1.2187 -0.6080
 8534SOL     OW37234   2.955   2.846   3.266 -0.1081  0.3487 -0.2012
 8534SOL    HW137235   2.970   2.754   3.242 -1.0848  0.2770 -0.5339
 8534SOL    HW237236   2.980   2.846   3.358 -0.1918 -3.2296 -0.1600
 8535SOL     OW37237   2.751   1.214   7.579 -0.5217 -0.1260 -0.1069
 8535SOL    HW137238   2.716   1.282   7.521  1.0551  1.7028  1.1104
 8535SOL    HW237239   2.701   1.205   7.660  1.0727 -1.2130  0.7418
 8536SOL     OW37240   1.662   3.260   6.007  0.1417  0.1190 -0.3097
 8536SOL    HW137241   1.604   3.324   5.967 -1.2517 -0.2784  1.1054
 8536SOL    HW237242   1.681   3.211   5.926  2.9092  1.9434 -0.7561
 8537SOL     OW37243   1.501   3.782   9.828 -0.0421 -0.1036 -0.1753
 8537SOL    HW137244   1.505   3.814   9.738 -1.9730 -0.7495 -0.5106
 8537SOL    HW237245   1.475   3.843   9.897  0.9846  1.0898 -0.8480
 8538SOL     OW37246   0.401   4.438   5.997 -0.2765  1.0239  0.2613
 8538SOL    HW137247   0.446   4.373   5.943  0.8458  0.7937  1.4873
 8538SOL    HW237248   0.317   4.393   6.003 -0.2454  1.2416  2.3222
 8539SOL     OW37249   4.423   0.656   9.363 -0.0061 -0.0146  0.2960
 8539SOL    HW137250   4.452   0.580   9.415  4.7698 -0.2845 -2.7690
 8539SOL    HW237251   4.428   0.723   9.431 -1.0533  0.4904 -0.1203
 8540SOL     OW37252   3.935   0.278   6.252 -0.3195  0.2581  0.6100
 8540SOL    HW137253   3.944   0.187   6.280 -0.5450 -0.0212 -0.2177
 8540SOL    HW237254   3.983   0.274   6.169  0.6133  3.2434  0.9954
 8541SOL     OW37255   0.089   3.685   7.761  0.1119 -0.3438 -0.4017
 8541SOL    HW137256   0.036   3.669   7.682  2.6958  1.1568 -2.4659
 8541SOL    HW237257   0.096   3.781   7.766  0.2345 -0.4047  0.4975
 8542SOL     OW37258   3.589   3.219   2.046  0.2296 -0.1900 -0.3889
 8542SOL    HW137259   3.602   3.180   2.132  2.7977  0.5674 -0.4497
 8542SOL    HW237260   3.621   3.309   2.057  0.7683 -0.4028 -0.2432
 8543SOL     OW37261   3.940   2.566   8.285 -0.8421 -0.2023  0.0292
 8543SOL    HW137262   3.991   2.621   8.224 -0.5256 -1.1073 -0.5164
 8543SOL    HW237263   3.852   2.593   8.258 -0.3909 -0.3898 -1.6241
 8544SOL     OW37264   4.203   0.782  15.534 -0.0530 -0.2870  0.6624
 8544SOL    HW137265   4.127   0.814  15.485  1.8037 -0.1804 -2.1552
 8544SOL    HW237266   4.266   0.844  15.499 -1.8833  1.7924  1.0297
 8545SOL     OW37267   3.884   1.441  10.479  1.0833  0.1079  0.1081
 8545SOL    HW137268   3.971   1.407  10.459  0.6939 -0.3484 -0.7840
 8545SOL    HW237269   3.839   1.398  10.407  2.3688  0.2227 -0.7654
 8546SOL     OW37270   1.341   4.391  11.822  0.5001  0.2604  0.6388
 8546SOL    HW137271   1.409   4.458  11.820  0.5214  0.2271  0.2489
 8546SOL    HW237272   1.361   4.337  11.899  0.6041  0.2688  0.6176
 8547SOL     OW37273   0.354   4.250   7.536  0.2981  0.1069 -0.3410
 8547SOL    HW137274   0.308   4.176   7.575  1.2104 -0.0579  0.4164
 8547SOL    HW237275   0.285   4.294   7.486 -0.1941  1.4282  1.5228
 8548SOL     OW37276   0.954   0.444   4.363  0.0540  0.4271 -0.1733
 8548SOL    HW137277   0.946   0.406   4.450  0.8028  0.4728 -0.0879
 8548SOL    HW237278   0.888   0.393   4.316  1.3265 -1.7852  0.4190
 8549SOL     OW37279   2.431   1.606   7.660 -0.2447  0.4343 -0.4230
 8549SOL    HW137280   2.429   1.521   7.705  0.2339  1.4253  1.4844
 8549SOL    HW237281   2.498   1.650   7.713 -0.3409  0.3776 -0.2545
 8550SOL     OW37282   4.589   3.113   4.789  0.0827 -0.5011 -0.1546
 8550SOL    HW137283   4.593   3.193   4.737  2.4152 -0.1043  0.6387
 8550SOL    HW237284   4.542   3.136   4.869 -0.4004  0.0382 -0.5970
 8551SOL     OW37285   4.259   1.257   9.746 -0.4201 -0.2509 -1.2526
 8551SOL    HW137286   4.307   1.175   9.760  1.0422  1.0683  1.6371
 8551SOL    HW237287   4.252   1.291   9.835  2.4888  0.1435 -1.1818
 8552SOL     OW37288   3.183   2.741   5.279  0.6864  0.2244  0.0534
 8552SOL    HW137289   3.201   2.817   5.224 -1.5225  1.0103  0.4249
 8552SOL    HW237290   3.089   2.752   5.289  0.8966  1.6129  0.5209
 8553SOL     OW37291   2.988   4.494   6.484  0.2077  0.4770  0.2935
 8553SOL    HW137292   3.043   4.434   6.435  0.7243  0.2080  1.1985
 8553SOL    HW237293   2.923   4.433   6.519 -0.2176  0.7550  0.0002
 8554SOL     OW37294   3.337   1.058   5.972 -0.4322  0.2034  0.5740
 8554SOL    HW137295   3.388   1.049   5.892  0.6212  0.0586  1.2646
 8554SOL    HW237296   3.282   0.979   5.969 -0.8376  0.4648  0.9507
 8555SOL     OW37297   2.210   1.247  15.175 -0.3205 -0.3951  0.3749
 8555SOL    HW137298   2.272   1.182  15.141 -0.2201  0.5611 -1.2948
 8555SOL    HW237299   2.243   1.251  15.265 -0.7511  1.1607  0.4732
 8556SOL     OW37300   1.913   0.247  15.189 -0.1251 -0.4232 -0.4674
 8556SOL    HW137301   1.873   0.317  15.241  2.6800 -0.3637  1.6182
 8556SOL    HW237302   1.983   0.230  15.252  0.7815 -0.5148 -1.4953
 8557SOL     OW37303   0.739   4.204  12.785 -0.6553  0.0692  0.3702
 8557SOL    HW137304   0.741   4.124  12.732 -0.3690  0.4370 -0.1689
 8557SOL    HW237305   0.687   4.265  12.733 -2.0638 -0.8554  0.7035
 8558SOL     OW37306   1.045   0.701   8.096 -0.1317 -0.4515  0.3659
 8558SOL    HW137307   1.029   0.701   8.191 -0.1043 -1.7420  0.3785
 8558SOL    HW237308   1.140   0.706   8.108  0.0100 -1.2155 -0.4412
 8559SOL     OW37309   4.661   0.328   0.962  1.0788  0.3899  0.6657
 8559SOL    HW137310   4.731   0.346   1.026 -1.0574 -0.3020  3.1850
 8559SOL    HW237311   4.584   0.360   1.010  0.1955 -0.4713 -0.1933
 8560SOL     OW37312   3.057   2.389   0.770  0.1024 -0.3320  0.5088
 8560SOL    HW137313   3.016   2.471   0.796  0.2817  0.4690 -1.7321
 8560SOL    HW237314   3.043   2.385   0.675 -1.1608  0.8377  0.6513
 8561SOL     OW37315   2.403   1.224   3.982 -0.1924 -0.4532  0.0714
 8561SOL    HW137316   2.385   1.152   4.043  1.4500  0.6218  1.8341
 8561SOL    HW237317   2.331   1.278   4.015 -0.8871 -0.4869 -1.3671
 8562SOL     OW37318   3.532   4.106   8.502  0.5594  0.0079 -0.7833
 8562SOL    HW137319   3.599   4.048   8.537 -0.4432 -0.4860  0.3347
 8562SOL    HW237320   3.460   4.045   8.518 -0.3497  1.2567 -0.1145
 8563SOL     OW37321   3.095   3.926   6.901  0.0213 -0.2251 -0.5067
 8563SOL    HW137322   3.019   3.982   6.887 -0.4290 -0.6235  0.3856
 8563SOL    HW237323   3.050   3.843   6.884  1.0014 -0.7429 -0.6265
 8564SOL     OW37324   2.896   2.989   3.020 -0.1970 -0.3869  0.6210
 8564SOL    HW137325   2.954   3.029   3.085 -0.3936  0.5027  0.2539
 8564SOL    HW237326   2.954   2.951   2.954  0.0971  0.2076  0.5373
 8565SOL     OW37327   2.494   1.751   9.294 -0.1530  0.1355 -0.1537
 8565SOL    HW137328   2.534   1.681   9.347 -0.1950 -1.1784 -1.8665
 8565SOL    HW237329   2.482   1.820   9.359  0.7001 -1.1566  1.3730
 8566SOL     OW37330   1.266   4.328   4.764  0.2846 -0.2541  0.1272
 8566SOL    HW137331   1.199   4.376   4.715  0.5667  0.2681  0.2449
 8566SOL    HW237332   1.316   4.403   4.797 -1.8517  1.7865 -1.2050
 8567SOL     OW37333   1.888   0.804   5.371  0.6073 -0.0535  0.3312
 8567SOL    HW137334   1.794   0.788   5.369  0.2200  2.4599 -1.8481
 8567SOL    HW237335   1.903   0.874   5.308 -1.0463  0.7115  0.7913
 8568SOL     OW37336   3.286   0.390   7.693 -0.0409 -0.3580  0.2776
 8568SOL    HW137337   3.368   0.342   7.690  1.7070  2.6116  0.2326
 8568SOL    HW237338   3.291   0.465   7.632 -2.8699  1.8710  2.7574
 8569SOL     OW37339   1.037   2.434   6.742 -0.1381  0.0958  0.1736
 8569SOL    HW137340   1.027   2.485   6.823  0.9695  2.2443 -1.0466
 8569SOL    HW237341   0.969   2.368   6.759 -0.3269  0.0629 -0.7151
 8570SOL     OW37342   3.245   0.089   0.228  0.1298  0.0530 -0.2775
 8570SOL    HW137343   3.269   0.116   0.139 -1.7203 -1.3215 -1.1855
 8570SOL    HW237344   3.170   0.032   0.210  0.2670 -0.8920  2.1169
 8571SOL     OW37345   1.222   0.268  12.265 -0.0592 -0.1211  1.1805
 8571SOL    HW137346   1.306   0.223  12.275 -0.3148 -1.5733 -2.8049
 8571SOL    HW237347   1.244   0.327  12.193  0.8538 -2.2650 -0.3154
 8572SOL     OW37348   4.221   4.555   3.002  0.3343  0.2476 -0.5343
 8572SOL    HW137349   4.205   4.622   3.069 -0.4509 -0.3679 -0.1159
 8572SOL    HW237350   4.228   4.605   2.921  0.5000 -0.6761 -1.0893
 8573SOL     OW37351   1.192   2.036   2.212  0.5584 -0.6370 -0.1923
 8573SOL    HW137352   1.201   2.087   2.293 -0.5978 -0.9948  0.1621
 8573SOL    HW237353   1.287   2.028   2.201  0.9291  0.3076  2.1595
 8574SOL     OW37354   0.091   3.913   4.837 -0.2276 -0.0460 -0.3794
 8574SOL    HW137355   0.066   4.001   4.867  2.7239  0.1758  1.5257
 8574SOL    HW237356   0.186   3.920   4.827 -0.1918 -0.9293 -0.6270
 8575SOL     OW37357   4.365   0.447   2.209 -0.0963  0.0481 -0.1137
 8575SOL    HW137358   4.280   0.490   2.203 -0.6865 -1.4956 -2.5200
 8575SOL    HW237359   4.424   0.522   2.200  0.1661 -0.1397  0.0173
 8576SOL     OW37360   0.462   2.902  16.742  0.3238 -0.0066 -0.1932
 8576SOL    HW137361   0.520   2.832  16.774 -0.1907  0.3843  1.5558
 8576SOL    HW237362   0.511   2.981  16.765  2.8273 -1.0593 -1.8647
 8577SOL     OW37363   1.516   4.288   9.815 -0.1237  0.3303  0.6693
 8577SOL    HW137364   1.531   4.345   9.891  0.6223  2.2894 -0.9487
 8577SOL    HW237365   1.440   4.247   9.857 -0.1208  0.9033  1.2462
 8578SOL     OW37366   4.097   1.844   2.262  0.0179  0.0960 -0.1886
 8578SOL    HW137367   4.138   1.873   2.181  1.2956 -0.0405  0.4165
 8578SOL    HW237368   4.166   1.795   2.306 -0.4419 -0.1177  0.2972
 8579SOL     OW37369   2.931   3.933  12.951 -0.0100  0.4268 -0.1427
 8579SOL    HW137370   2.869   3.889  13.010  1.8742 -1.7569  0.2125
 8579SOL    HW237371   2.888   3.904  12.871 -0.4906 -1.6520  0.8745
 8580SOL     OW37372   4.608   0.021   4.634  0.1485  0.2457 -0.0534
 8580SOL    HW137373   4.523   0.044   4.597 -0.2380  1.0604  1.3384
 8580SOL    HW237374   4.589   4.726   4.723  0.5093 -1.2000 -0.4809
 8581SOL     OW37375   1.896   3.998   4.600  0.3411  1.0061 -0.4111
 8581SOL    HW137376   1.872   4.045   4.680  1.7880  0.3657  0.4046
 8581SOL    HW237377   1.924   4.075   4.550 -1.1176  1.4492 -0.5540
 8582SOL     OW37378   2.255   2.987   9.034  0.4309 -0.4017 -0.0681
 8582SOL    HW137379   2.266   3.057   9.098  0.1619 -2.1941  1.9274
 8582SOL    HW237380   2.347   2.963   9.030  0.8915  1.7646 -2.2989
 8583SOL     OW37381   0.209   1.029   8.637  0.2739  0.2151  0.7196
 8583SOL    HW137382   0.114   1.037   8.650 -0.0265  0.4430 -1.6326
 8583SOL    HW237383   0.235   0.978   8.714  0.9010  1.3533  1.2635
 8584SOL     OW37384   0.747   1.919   4.903  0.7592 -0.1433  0.2950
 8584SOL    HW137385   0.703   1.912   4.988 -1.0475 -0.9480 -0.7219
 8584SOL    HW237386   0.782   1.831   4.893 -1.5793 -1.0542  0.1131
 8585SOL     OW37387   1.657   2.021  10.984 -0.1363  0.0035 -0.0350
 8585SOL    HW137388   1.590   1.990  10.923 -0.0264  0.2548 -0.2834
 8585SOL    HW237389   1.635   1.975  11.065 -0.0932  1.2766  0.7048
 8586SOL     OW37390   3.962   1.404   8.628 -0.1381 -0.0336 -0.1511
 8586SOL    HW137391   4.028   1.348   8.669  1.8494  3.2214  1.1306
 8586SOL    HW237392   4.020   1.445   8.563  2.8306 -0.9168  1.9116
 8587SOL     OW37393   0.509   1.410   8.658  0.0417  0.0821 -0.5406
 8587SOL    HW137394   0.518   1.323   8.618 -1.0556 -0.7293  0.9929
 8587SOL    HW237395   0.602   1.434   8.659 -0.4310  1.8230  0.7612
 8588SOL     OW37396   3.602   2.407   2.819  0.2179 -0.8873  0.0624
 8588SOL    HW137397   3.616   2.441   2.907 -0.9816 -2.4703  0.8607
 8588SOL    HW237398   3.506   2.401   2.814  0.1816  0.0550 -0.4768
 8589SOL     OW37399   4.376   1.571  17.387 -0.0022  0.5175 -0.2304
 8589SOL    HW137400   4.312   1.587  17.456 -2.4129 -0.5091 -2.2477
 8589SOL    HW237401   4.319   1.587  17.312  0.6333  0.7564 -0.6707
 8590SOL     OW37402   0.630   0.089   9.760 -0.2761  0.2065 -0.3505
 8590SOL    HW137403   0.683   0.162   9.791 -0.6958  0.0322  0.7585
 8590SOL    HW237404   0.551   0.085   9.813 -1.0560 -0.7596 -1.5697
 8591SOL     OW37405   4.607   3.044   5.494  0.0918  0.2506 -0.0630
 8591SOL    HW137406   4.664   3.074   5.424  1.3999 -1.6272  0.1742
 8591SOL    HW237407   4.578   2.957   5.466  2.0492 -0.9222  1.5263
 8592SOL     OW37408   2.884   0.246   1.243 -0.1416 -0.3872 -0.5742
 8592SOL    HW137409   2.876   0.232   1.337  2.4741 -1.3259 -0.4866
 8592SOL    HW237410   2.952   0.312   1.233 -0.1582 -0.3049 -0.1194
 8593SOL     OW37411   0.174   1.127   8.292 -0.1062  0.2718 -0.1651
 8593SOL    HW137412   0.231   1.195   8.255  1.3368 -0.5842  0.4888
 8593SOL    HW237413   0.229   1.076   8.351  2.2179 -2.1551 -4.4412
 8594SOL     OW37414   2.416   2.620   7.471 -0.3431 -0.0456 -0.6284
 8594SOL    HW137415   2.461   2.664   7.399  0.9543  2.7966  1.8912
 8594SOL    HW237416   2.480   2.549   7.480 -0.4383 -0.2397 -1.5438
 8595SOL     OW37417   1.719   3.958   7.648 -0.3253 -0.3104 -0.3996
 8595SOL    HW137418   1.769   3.886   7.608 -2.5419 -2.5011  0.7847
 8595SOL    HW237419   1.788   4.025   7.647 -0.8484  0.2905  3.2757
 8596SOL     OW37420   4.489   2.923  16.276 -0.1460  0.0042 -0.3803
 8596SOL    HW137421   4.507   3.011  16.310 -0.8171  0.5191 -1.3372
 8596SOL    HW237422   4.439   2.953  16.199 -1.6455 -0.9713  0.2105
 8597SOL     OW37423   1.306   4.017   4.700  0.2184 -0.1668 -0.2687
 8597SOL    HW137424   1.324   4.109   4.685 -0.1864 -0.1075 -0.4021
 8597SOL    HW237425   1.392   3.993   4.664  0.1770  0.0703 -0.5200
 8598SOL     OW37426   0.073   4.320  15.749 -0.2129  0.1470  0.0392
 8598SOL    HW137427   0.154   4.324  15.698 -0.0556  2.3451  0.4419
 8598SOL    HW237428   0.062   4.406  15.792  0.8370 -0.0548  0.7215
 8599SOL     OW37429   1.236   0.983   8.127  0.1717  0.0046 -0.0630
 8599SOL    HW137430   1.309   1.014   8.182  0.4143 -2.3545  0.9430
 8599SOL    HW237431   1.212   0.898   8.163 -0.7430  0.5919  0.6894
 8600SOL     OW37432   2.909   0.507   5.175  0.2125  0.1773  0.5487
 8600SOL    HW137433   2.926   0.423   5.132 -0.2805  1.0930 -1.4022
 8600SOL    HW237434   2.814   0.503   5.168  0.5857 -4.8500 -1.8626
 8601SOL     OW37435   1.234   0.112   7.153  0.5575  0.0346 -0.1562
 8601SOL    HW137436   1.273   0.096   7.067  0.9292  0.0395  0.0134
 8601SOL    HW237437   1.306   0.151   7.201  2.2927 -1.6818 -1.3761
 8602SOL     OW37438   3.783   4.411   1.750 -0.1898  0.3394  0.3395
 8602SOL    HW137439   3.831   4.329   1.758 -0.9992  0.0054  1.8335
 8602SOL    HW237440   3.843   4.453   1.688 -0.2661  0.5655  0.4165
 8603SOL     OW37441   1.678   3.216   6.757 -0.4374 -0.3128 -0.7082
 8603SOL    HW137442   1.636   3.266   6.828 -3.2692 -2.0293 -1.1867
 8603SOL    HW237443   1.677   3.129   6.797  2.2634  0.4994  1.1191
 8604SOL     OW37444   3.211   3.278  12.437 -0.0424 -0.0223 -0.0867
 8604SOL    HW137445   3.188   3.343  12.503  0.8310  0.2607 -0.0564
 8604SOL    HW237446   3.208   3.341  12.365  1.2636  0.2299  0.0611
 8605SOL     OW37447   1.467   3.727   3.312  0.0727 -0.3904 -0.0656
 8605SOL    HW137448   1.404   3.663   3.345 -0.4756 -0.0131 -0.3797
 8605SOL    HW237449   1.479   3.697   3.222 -3.2220  0.8781 -0.9096
 8606SOL     OW37450   1.136   4.546   9.089 -0.0853  0.4956  0.2582
 8606SOL    HW137451   1.149   4.580   9.000  0.3796  0.0569  0.1553
 8606SOL    HW237452   1.162   4.456   9.071 -0.0204 -0.1140  3.4521
 8607SOL     OW37453   4.219   4.253   0.274 -0.1650 -0.4139  1.1385
 8607SOL    HW137454   4.196   4.174   0.323  0.0404 -0.2788  1.4525
 8607SOL    HW237455   4.154   4.241   0.205 -1.1336  1.3578  1.7670
 8608SOL     OW37456   1.052   0.308  14.512  0.2807 -0.3791 -0.2332
 8608SOL    HW137457   1.092   0.390  14.483  0.6735 -1.0216 -1.5012
 8608SOL    HW237458   1.002   0.328  14.591 -1.6359 -0.9952 -1.2830
 8609SOL     OW37459   4.335   3.955   4.068  0.6324  0.1066  0.0222
 8609SOL    HW137460   4.369   3.997   3.988  0.8611  1.4946  0.8484
 8609SOL    HW237461   4.354   3.864   4.044  0.8287  0.5161 -1.4238
 8610SOL     OW37462   1.541   3.298  10.174  0.4635 -0.3686  0.1511
 8610SOL    HW137463   1.573   3.208  10.181 -0.1251 -0.4829  1.4073
 8610SOL    HW237464   1.458   3.299  10.222 -0.1967  1.8265 -1.0425
 8611SOL     OW37465   0.138   3.353  11.999 -0.3262 -0.3221  0.0663
 8611SOL    HW137466   0.107   3.388  11.916 -1.4959  1.5078  1.2824
 8611SOL    HW237467   0.169   3.426  12.053  0.3678 -1.2112  0.8901
 8612SOL     OW37468   4.594   0.591   8.796 -0.4201 -0.3930  0.1067
 8612SOL    HW137469   4.669   0.616   8.742 -1.2165 -2.3229 -1.9079
 8612SOL    HW237470   4.603   0.653   8.868 -0.7047 -0.5106  0.2441
 8613SOL     OW37471   3.073   4.648   5.202 -0.0610  0.0193 -0.2192
 8613SOL    HW137472   3.168   4.649   5.218 -0.3468  2.4654  1.3440
 8613SOL    HW237473   3.071   4.565   5.154  2.3571 -0.3124  0.2669
 8614SOL     OW37474   1.437   4.553   2.211  0.1963 -0.3860 -0.1772
 8614SOL    HW137475   1.424   4.479   2.152 -1.3365 -1.2546  1.2418
 8614SOL    HW237476   1.374   4.623   2.191 -0.1327 -1.3060 -2.3648
 8615SOL     OW37477   0.375   3.818   9.199 -0.2239  0.6361  0.6124
 8615SOL    HW137478   0.347   3.905   9.168  0.6945 -0.2710 -2.7595
 8615SOL    HW237479   0.426   3.792   9.122 -0.7429  0.1946  0.4190
 8616SOL     OW37480   1.308   1.139  16.075 -0.1465 -0.4468  0.3899
 8616SOL    HW137481   1.238   1.074  16.068  0.9166 -1.6680  1.0746
 8616SOL    HW237482   1.279   1.190  16.151  0.2555 -2.2151  1.7133
 8617SOL     OW37483   2.704   4.415   8.720 -0.2796 -0.1166 -0.0455
 8617SOL    HW137484   2.793   4.400   8.751 -0.0915 -2.3238 -1.6990
 8617SOL    HW237485   2.666   4.450   8.800  0.5066  2.5957 -0.8422
 8618SOL     OW37486   0.566   3.540   8.649  0.3038 -0.4183 -0.1126
 8618SOL    HW137487   0.493   3.483   8.624  0.9327 -2.0143  1.8187
 8618SOL    HW237488   0.522   3.623   8.669 -0.3610 -0.6349 -0.6500
 8619SOL     OW37489   4.411   2.035   7.085 -0.4011  0.0591 -0.2808
 8619SOL    HW137490   4.319   2.056   7.097  0.1493  1.7439  1.0616
 8619SOL    HW237491   4.439   2.081   7.005 -0.2188  0.0893 -0.2019
 8620SOL     OW37492   1.822   3.148   8.161 -0.1849  0.0202  0.2492
 8620SOL    HW137493   1.795   3.056   8.160 -1.3003  0.3482 -1.0320
 8620SOL    HW237494   1.739   3.188   8.187  0.9581  2.6593 -0.1180
 8621SOL     OW37495   1.761   3.783   3.892  0.2186 -0.2431 -0.2661
 8621SOL    HW137496   1.812   3.756   3.969  0.7261  1.4007 -0.0266
 8621SOL    HW237497   1.798   3.738   3.816 -1.9458  0.0527 -1.4913
 8622SOL     OW37498   0.862   0.984   3.241 -0.1232  0.2486 -0.2142
 8622SOL    HW137499   0.835   1.049   3.176 -1.7123  0.6744  0.8663
 8622SOL    HW237500   0.875   1.033   3.323 -0.0710  1.8974 -1.1957
 8623SOL     OW37501   4.647   3.500   7.995  0.4408  0.1714  0.2963
 8623SOL    HW137502   4.698   3.565   7.947 -1.3920  0.0087 -1.8641
 8623SOL    HW237503   4.572   3.553   8.020 -0.2425 -1.2501  1.3023
 8624SOL     OW37504   1.955   0.228   5.060 -0.5178 -0.2426 -0.6458
 8624SOL    HW137505   2.007   0.163   5.012 -1.1290 -0.2952 -1.2396
 8624SOL    HW237506   1.967   0.197   5.150 -0.4527 -0.6538 -0.7959
 8625SOL     OW37507   1.740   2.124   4.566  0.5233  0.0121  0.0329
 8625SOL    HW137508   1.715   2.145   4.476 -0.4349  1.9478  0.7529
 8625SOL    HW237509   1.824   2.088   4.536  0.8879  0.6654  0.2497
 8626SOL     OW37510   3.376   1.835   6.694 -0.3309 -0.4186 -0.1317
 8626SOL    HW137511   3.399   1.878   6.611  1.3310 -0.6425  0.2015
 8626SOL    HW237512   3.352   1.917   6.736 -1.3614 -1.6276  1.6017
 8627SOL     OW37513   1.271   0.423  15.428  0.5061  0.2728  0.6786
 8627SOL    HW137514   1.338   0.418  15.360  0.7993  0.7535  0.9298
 8627SOL    HW237515   1.337   0.431  15.497  1.5044 -0.1297 -0.2220
 8628SOL     OW37516   3.298   3.375  13.926  0.2454 -0.5807 -0.5409
 8628SOL    HW137517   3.350   3.430  13.985  0.5839 -0.2886 -1.1117
 8628SOL    HW237518   3.290   3.296  13.980  0.8865 -1.0420 -1.1097
 8629SOL     OW37519   2.655   3.966   9.699 -0.1026 -0.8106  0.4167
 8629SOL    HW137520   2.598   3.898   9.736  0.4261 -1.1809  0.5663
 8629SOL    HW237521   2.743   3.928   9.705  0.1566 -0.2517  0.0875
 8630SOL     OW37522   0.739   0.939   6.323 -0.4603 -0.5107 -0.0859
 8630SOL    HW137523   0.811   1.002   6.316 -1.0887  0.0199 -2.0032
 8630SOL    HW237524   0.759   0.873   6.389  0.0416 -0.4641 -0.1963
 8631SOL     OW37525   0.749   2.638   7.780  0.1158 -0.2199 -0.4355
 8631SOL    HW137526   0.663   2.662   7.814  1.3191 -1.5228  3.5922
 8631SOL    HW237527   0.797   2.719   7.766  1.1798 -0.7631  0.1021
 8632SOL     OW37528   3.850   0.935   9.976 -0.0155 -0.5794 -0.1252
 8632SOL    HW137529   3.814   0.860  10.024  1.8960 -0.0610  2.1160
 8632SOL    HW237530   3.944   0.944   9.993 -0.4938  1.4793  1.4198
 8633SOL     OW37531   1.995   1.762   6.233  0.3678  0.1663  0.1926
 8633SOL    HW137532   1.964   1.747   6.144 -0.4607 -1.5478  0.7651
 8633SOL    HW237533   1.924   1.815   6.270 -0.2232 -1.3317  1.2080
 8634SOL     OW37534   0.826   3.173   2.231  0.1597  0.6461 -0.3448
 8634SOL    HW137535   0.892   3.242   2.238 -1.2191  1.7959  1.0137
 8634SOL    HW237536   0.876   3.092   2.246 -3.2227 -1.5018 -0.8786
 8635SOL     OW37537   1.138   0.939  15.091  0.2490  0.3312  0.4149
 8635SOL    HW137538   1.080   0.881  15.139 -0.2542  0.2578 -0.2749
 8635SOL    HW237539   1.179   0.994  15.157 -0.0395  0.5527  0.4103
 8636SOL     OW37540   0.037   3.405   7.579  0.2666 -0.1195 -0.5768
 8636SOL    HW137541   0.125   3.381   7.609  0.3389  1.1217  0.1915
 8636SOL    HW237542   4.719   3.407   7.659 -1.7170  1.7727 -1.9403
 8637SOL     OW37543   3.203   4.492   6.260 -0.1201  0.0153 -0.0976
 8637SOL    HW137544   3.140   4.557   6.291  0.5802  0.5114  0.2791
 8637SOL    HW237545   3.170   4.415   6.307 -1.7551  0.0437 -1.2015
 8638SOL     OW37546   2.628   4.071  10.599 -0.4046  0.6761 -0.3227
 8638SOL    HW137547   2.642   4.075  10.694 -0.4659  3.8057 -0.4293
 8638SOL    HW237548   2.704   4.127  10.586 -1.1237  1.8803  0.5340
 8639SOL     OW37549   1.944   1.066   4.502 -0.4643 -0.3136 -0.2996
 8639SOL    HW137550   1.876   1.006   4.471 -0.3186  0.8529 -2.8471
 8639SOL    HW237551   1.892   1.091   4.578  0.2725  0.8010 -0.1706
 8640SOL     OW37552   1.668   4.677   3.570 -0.1559 -0.1983 -0.2605
 8640SOL    HW137553   1.741   4.724   3.611 -0.7297 -0.5848  1.1961
 8640SOL    HW237554   1.717   4.599   3.543 -1.5285 -0.7585 -1.1568
 8641SOL     OW37555   0.246   3.115   7.532 -0.0986 -0.1522 -0.6138
 8641SOL    HW137556   0.266   3.052   7.601  0.7026  1.8927  1.0294
 8641SOL    HW237557   0.166   3.079   7.494 -0.2069 -1.4382  0.8380
 8642SOL     OW37558   4.381   4.045  15.034 -0.6508  0.1342 -0.4131
 8642SOL    HW137559   4.330   3.978  15.078 -1.3934  1.3369  0.5520
 8642SOL    HW237560   4.356   4.028  14.943 -2.0557 -0.4815  0.0978
 8643SOL     OW37561   2.045   2.393   3.105 -0.3777 -0.4415 -0.1581
 8643SOL    HW137562   2.086   2.451   3.170 -1.2851 -0.4319  0.4043
 8643SOL    HW237563   2.105   2.406   3.032 -0.6792  2.1496  0.0350
 8644SOL     OW37564   4.316   4.650   3.631  0.2973 -0.0574  0.7386
 8644SOL    HW137565   4.408   4.675   3.640  0.7279 -0.8877 -1.2185
 8644SOL    HW237566   4.308   4.598   3.551 -0.9500 -0.9710  1.4684
 8645SOL     OW37567   0.914   2.478   8.851 -0.6447  0.0980  0.4990
 8645SOL    HW137568   0.955   2.480   8.938 -2.0426  1.5187  1.1342
 8645SOL    HW237569   0.906   2.570   8.826  0.7587  0.1711  0.3363
 8646SOL     OW37570   1.372   2.484   9.133 -0.9894  0.0007  0.2283
 8646SOL    HW137571   1.345   2.470   9.042  1.6673 -1.1737 -0.3627
 8646SOL    HW237572   1.402   2.575   9.134  0.7845 -0.5989 -0.9596
 8647SOL     OW37573   3.215   3.266   4.995 -0.4937 -0.1823  0.4034
 8647SOL    HW137574   3.203   3.193   4.935 -1.4528  1.0617 -0.9073
 8647SOL    HW237575   3.282   3.318   4.951  0.6868 -0.6513  1.6364
 8648SOL     OW37576   4.664   4.701  14.397 -0.7630 -0.5344 -0.0489
 8648SOL    HW137577   4.611   4.642  14.344 -0.2286 -1.1250  0.0777
 8648SOL    HW237578   4.619   4.694  14.481  1.4219 -1.4002  1.0515
 8649SOL     OW37579   3.840   1.245   6.855 -0.1774 -0.2885 -0.3187
 8649SOL    HW137580   3.929   1.218   6.876 -0.1287 -0.3260 -0.5710
 8649SOL    HW237581   3.838   1.206   6.768 -0.0740  0.0650 -0.4826
 8650SOL     OW37582   3.492   3.280  16.801  0.2472  0.3626 -0.1844
 8650SOL    HW137583   3.567   3.338  16.816  0.9189 -0.4634 -0.3694
 8650SOL    HW237584   3.432   3.342  16.759 -1.9018 -1.5062  0.1462
 8651SOL     OW37585   1.567   0.599  15.486  0.3218  0.4731 -0.2918
 8651SOL    HW137586   1.536   0.542  15.556  0.5951 -0.2064 -0.7266
 8651SOL    HW237587   1.501   0.669  15.486  0.2670  0.4125  1.1088
 8652SOL     OW37588   2.211   4.451   9.465  0.1023 -0.4487 -0.1531
 8652SOL    HW137589   2.264   4.435   9.386  0.1207 -4.0573  0.5929
 8652SOL    HW237590   2.129   4.433   9.419 -0.6935 -1.0158  1.5125
 8653SOL     OW37591   2.226   2.118   6.115 -0.0849  0.3904 -0.6644
 8653SOL    HW137592   2.145   2.102   6.164 -0.0985 -0.4810 -0.9680
 8653SOL    HW237593   2.232   2.213   6.122  0.8006  0.5094 -2.9838
 8654SOL     OW37594   2.582   1.281   6.234  0.0899  0.2670 -0.0356
 8654SOL    HW137595   2.563   1.355   6.177  0.7408  0.1583 -0.3961
 8654SOL    HW237596   2.495   1.261   6.268  0.4138 -0.9802  0.0356
 8655SOL     OW37597   1.411   0.465   3.553 -0.0762  0.2984 -0.3778
 8655SOL    HW137598   1.412   0.511   3.637 -0.2758  1.1943 -0.8674
 8655SOL    HW237599   1.425   0.373   3.574 -2.3661  0.2163  0.8571
 8656SOL     OW37600   2.800   4.054   9.087  0.2146  0.4022 -0.2120
 8656SOL    HW137601   2.840   4.025   9.005  0.0158 -0.2840 -0.0692
 8656SOL    HW237602   2.791   3.972   9.135 -0.5837  0.4935 -0.2202
 8657SOL     OW37603   0.683   0.999   1.544  0.0503 -0.6400  0.8540
 8657SOL    HW137604   0.725   1.057   1.608 -0.5207  0.4061  0.2700
 8657SOL    HW237605   0.616   1.059   1.513  0.7581 -1.2855 -1.8960
 8658SOL     OW37606   1.791   2.960   2.579  0.7750  0.3702 -0.1935
 8658SOL    HW137607   1.765   3.050   2.597  0.7819  0.8322 -2.4805
 8658SOL    HW237608   1.704   2.921   2.587  1.3299 -1.0739 -1.1166
 8659SOL     OW37609   1.010   1.375  11.313  0.3343  0.3149  0.5862
 8659SOL    HW137610   0.940   1.391  11.376  0.6761  4.1523 -0.0010
 8659SOL    HW237611   1.046   1.463  11.298 -0.5551  0.3170 -1.5489
 8660SOL     OW37612   3.700   3.218  11.519  0.1841 -0.0742  0.1510
 8660SOL    HW137613   3.613   3.238  11.554 -0.5940  0.1134 -1.8848
 8660SOL    HW237614   3.676   3.126  11.511  0.4759 -0.2732  1.5992
 8661SOL     OW37615   2.071   2.035   9.419 -0.4504  0.0224  0.0261
 8661SOL    HW137616   2.093   2.126   9.435  4.4737 -1.0153 -0.9020
 8661SOL    HW237617   2.081   2.031   9.324  1.8064 -2.0334  0.3505
 8662SOL     OW37618   1.606   3.464   3.858  0.0920  0.8303 -0.4804
 8662SOL    HW137619   1.592   3.521   3.934 -0.1043  1.5410 -1.0424
 8662SOL    HW237620   1.649   3.395   3.908 -1.5398 -0.4460 -0.8352
 8663SOL     OW37621   0.813   2.330   5.168 -0.6080  0.7224  0.3498
 8663SOL    HW137622   0.726   2.366   5.186  0.1338  2.3357  0.7950
 8663SOL    HW237623   0.865   2.411   5.177 -1.2159  1.3332 -1.5832
 8664SOL     OW37624   3.516   3.057   0.897 -0.5340  0.5103 -0.0619
 8664SOL    HW137625   3.567   3.106   0.832  1.2740 -0.9590  0.2510
 8664SOL    HW237626   3.443   3.036   0.838 -1.0179  0.7867  0.4350
 8665SOL     OW37627   3.844   1.103  10.390 -0.2175 -0.9039  0.3170
 8665SOL    HW137628   3.780   1.103  10.462 -0.3903 -0.0155  0.1627
 8665SOL    HW237629   3.795   1.061  10.320 -1.4241 -1.9480  1.7678
 8666SOL     OW37630   3.775   4.114  14.294 -0.0717  0.6342 -0.9548
 8666SOL    HW137631   3.691   4.156  14.313 -0.6831 -1.1937  0.4386
 8666SOL    HW237632   3.778   4.044  14.360 -0.3181  0.0289 -1.5802
 8667SOL     OW37633   0.763   3.568   4.899 -0.1445  0.2242  0.1001
 8667SOL    HW137634   0.775   3.599   4.809 -1.6324  1.7082  0.4359
 8667SOL    HW237635   0.823   3.630   4.940  2.5750 -0.1712 -3.2690
 8668SOL     OW37636   2.182   0.408   2.174 -0.1813  0.1308 -0.1802
 8668SOL    HW137637   2.156   0.321   2.143  1.9227  0.3173 -2.4930
 8668SOL    HW237638   2.100   0.446   2.205 -0.2557  0.3997 -0.6986
 8669SOL     OW37639   1.316   1.364   7.132  0.1924 -0.1527 -0.3130
 8669SOL    HW137640   1.266   1.401   7.204 -1.2644 -2.6579 -0.0219
 8669SOL    HW237641   1.363   1.439   7.095 -1.0922 -0.7227 -3.0901
 8670SOL     OW37642   3.082   1.873   2.124  0.7673 -0.1582  0.2149
 8670SOL    HW137643   3.036   1.789   2.123 -1.3497  1.0061  2.4870
 8670SOL    HW237644   3.128   1.868   2.207 -0.4213 -2.1596  0.7526
 8671SOL     OW37645   0.647   2.957   3.208  0.3551  0.0738  0.0970
 8671SOL    HW137646   0.694   2.931   3.288 -0.0598  1.6105  0.8520
 8671SOL    HW237647   0.589   2.883   3.189 -1.0471  1.1692  0.1073
 8672SOL     OW37648   3.151   2.174   4.307  0.1594  0.0102  0.0590
 8672SOL    HW137649   3.093   2.123   4.363 -0.3121 -1.4885 -1.8155
 8672SOL    HW237650   3.232   2.152   4.352 -0.9268 -1.2547  1.4098
 8673SOL     OW37651   1.008   3.400   0.695  0.6476 -0.0011 -0.4296
 8673SOL    HW137652   1.095   3.426   0.725 -0.5461  0.3924  2.7311
 8673SOL    HW237653   1.007   3.306   0.674  0.8637 -0.2527  0.6616
 8674SOL     OW37654   3.344   1.597   5.543 -0.0202  0.0441 -0.1974
 8674SOL    HW137655   3.418   1.658   5.547 -0.1373  0.3605 -3.4120
 8674SOL    HW237656   3.267   1.654   5.544 -0.7136 -0.9121 -0.2568
 8675SOL     OW37657   2.701   1.734   2.279  0.2906  0.2956  0.0339
 8675SOL    HW137658   2.722   1.782   2.199 -0.0679  1.6492  0.7511
 8675SOL    HW237659   2.662   1.805   2.329  0.4529  0.9905 -0.8151
 8676SOL     OW37660   3.693   2.324  16.025  0.2147  0.7513 -0.0582
 8676SOL    HW137661   3.785   2.318  16.000 -0.7042 -3.2732 -2.4910
 8676SOL    HW237662   3.687   2.386  16.097  1.7606 -0.1350  0.8212
 8677SOL     OW37663   0.101   1.797  13.920 -0.0546 -0.0498 -0.3561
 8677SOL    HW137664   0.185   1.817  13.960 -1.1603  0.7940  1.5484
 8677SOL    HW237665   0.083   1.704  13.938  1.3733  0.0241  1.4976
 8678SOL     OW37666   1.460   0.767   2.618  0.1912  0.2754  0.1009
 8678SOL    HW137667   1.391   0.761   2.552 -0.9757  0.8284  1.2703
 8678SOL    HW237668   1.505   0.841   2.577  0.4106  1.0107  1.6614
 8679SOL     OW37669   1.309   0.552  13.013  0.2841  0.0787 -0.1046
 8679SOL    HW137670   1.306   0.634  12.964 -3.1294 -0.6874 -1.1403
 8679SOL    HW237671   1.391   0.521  12.973  0.6413 -1.2137  1.6103
 8680SOL     OW37672   0.612   1.980  11.863  0.4386  0.2116 -0.1522
 8680SOL    HW137673   0.551   1.988  11.789  1.2625 -0.1938 -0.8680
 8680SOL    HW237674   0.692   1.959  11.814  1.6308  0.5869  1.6586
 8681SOL     OW37675   2.774   2.925   6.545 -0.4287 -0.3936  0.0480
 8681SOL    HW137676   2.703   2.955   6.602  0.0558 -0.0375  0.4514
 8681SOL    HW237677   2.848   2.982   6.562 -1.7694  1.2598  0.3749
 8682SOL     OW37678   1.598   3.629   8.364 -0.4064  0.2840  0.3763
 8682SOL    HW137679   1.602   3.719   8.332 -1.1546  0.3265  0.4032
 8682SOL    HW237680   1.526   3.593   8.312 -0.2716 -2.7706  2.3551
 8683SOL     OW37681   3.318   3.399   6.737  0.3180  0.4179 -0.1495
 8683SOL    HW137682   3.336   3.451   6.815  0.7228  1.0529 -0.6729
 8683SOL    HW237683   3.233   3.428   6.705  1.6022  4.5147  0.1330
 8684SOL     OW37684   0.364   4.167   3.570  0.0144  0.4426  0.2136
 8684SOL    HW137685   0.308   4.153   3.494 -1.3279  2.5644  0.7925
 8684SOL    HW237686   0.298   4.135   3.632  1.0545 -0.9108  0.6069
 8685SOL     OW37687   2.731   4.291  12.662  0.5921  0.3512 -0.6126
 8685SOL    HW137688   2.770   4.281  12.576  0.3559  3.0143 -1.0369
 8685SOL    HW237689   2.737   4.203  12.699 -1.2134  0.2241 -0.6595
 8686SOL     OW37690   1.965   0.768   2.583  0.2277  0.0898  0.3371
 8686SOL    HW137691   1.976   0.861   2.604 -1.1207  1.0944 -3.3028
 8686SOL    HW237692   1.879   0.744   2.618  1.5541  0.6087  3.9497
 8687SOL     OW37693   3.351   0.953   4.693 -0.1442  0.3220  0.3060
 8687SOL    HW137694   3.423   0.977   4.753 -0.5039 -0.6703  1.1350
 8687SOL    HW237695   3.393   0.941   4.608 -0.5828 -1.2594  0.3175
 8688SOL     OW37696   3.368   0.587  16.909 -0.1123  0.2589 -0.1695
 8688SOL    HW137697   3.369   0.605  17.003 -2.9272  0.9697 -0.2899
 8688SOL    HW237698   3.456   0.621  16.890  0.1964  0.2701  1.2749
 8689SOL     OW37699   2.710   0.315  14.603  0.1910 -0.2503 -0.0436
 8689SOL    HW137700   2.753   0.232  14.581 -0.6918 -0.6303 -0.3837
 8689SOL    HW237701   2.638   0.287  14.661  1.3481 -0.9210  1.0660
 8690SOL     OW37702   2.288   1.397  10.908 -0.4272  0.1308  0.3122
 8690SOL    HW137703   2.208   1.418  10.859 -3.2225 -2.3176  3.7668
 8690SOL    HW237704   2.326   1.346  10.836 -0.4595  0.2372  0.2202
 8691SOL     OW37705   0.114   2.756  14.800 -0.3034  0.1926  0.4531
 8691SOL    HW137706   0.144   2.666  14.789  1.6394  0.7899  0.6979
 8691SOL    HW237707   0.023   2.739  14.778  0.2248 -0.0282 -1.6519
 8692SOL     OW37708   2.587   1.132   1.375 -0.1914  0.0350 -0.1121
 8692SOL    HW137709   2.570   1.038   1.384 -0.2025  0.0226 -0.2628
 8692SOL    HW237710   2.677   1.138   1.342 -0.0569 -0.0105  0.2424
 8693SOL     OW37711   3.022   3.336   2.765  0.4429  0.0258 -0.1007
 8693SOL    HW137712   3.049   3.418   2.724  1.5716 -1.8719 -3.1434
 8693SOL    HW237713   2.995   3.281   2.692 -0.0830  0.3733 -0.1648
 8694SOL     OW37714   2.373   0.179   7.890 -0.2723  0.3485  0.1719
 8694SOL    HW137715   2.305   0.246   7.895  1.0599  1.9135 -2.8215
 8694SOL    HW237716   2.324   0.108   7.930  0.8898 -0.0220  0.9504
 8695SOL     OW37717   0.252   0.636  15.428 -0.1681  0.0138  0.3414
 8695SOL    HW137718   0.258   0.605  15.337 -0.0094 -0.8420  0.6550
 8695SOL    HW237719   0.340   0.620  15.460  0.2654 -1.1606 -1.4222
 8696SOL     OW37720   4.375   1.220   4.798  0.0441 -0.2097 -0.1295
 8696SOL    HW137721   4.305   1.259   4.851 -0.1703  1.1030 -1.3571
 8696SOL    HW237722   4.338   1.134   4.777 -2.1873  0.8373 -0.4975
 8697SOL     OW37723   1.024   2.245  13.317  0.4699  0.5111  0.1233
 8697SOL    HW137724   0.970   2.263  13.241  0.7946 -0.9494 -0.4508
 8697SOL    HW237725   0.958   2.239  13.386  0.7966 -2.7792  0.1487
 8698SOL     OW37726   4.626   0.677   4.418 -0.4508 -0.0239  0.3429
 8698SOL    HW137727   4.553   0.656   4.360 -1.1350  0.4668  1.0305
 8698SOL    HW237728   4.595   0.641   4.501 -0.9214  0.9415  0.5962
 8699SOL     OW37729   3.785   3.324   6.842 -0.4845  0.6417  0.0500
 8699SOL    HW137730   3.775   3.235   6.875 -3.2536  0.2398 -1.8953
 8699SOL    HW237731   3.697   3.358   6.856  0.1721  1.3379  2.5492
 8700SOL     OW37732   2.120   1.057   6.957 -0.9318  0.0685  0.0116
 8700SOL    HW137733   2.108   1.096   6.870 -1.4122 -1.6776 -0.7042
 8700SOL    HW237734   2.210   1.088   6.965 -0.4195 -0.6328 -3.0404
 8701SOL     OW37735   3.932   0.535   0.815  0.0073 -0.2441  0.1827
 8701SOL    HW137736   3.956   0.476   0.887 -0.2885  0.4179  0.8291
 8701SOL    HW237737   3.991   0.505   0.746 -1.1250  0.3229 -1.0183
 8702SOL     OW37738   2.924   2.366  14.184  0.5947 -0.1933 -0.1689
 8702SOL    HW137739   3.009   2.324  14.198  0.0389 -1.4879 -0.7038
 8702SOL    HW237740   2.864   2.296  14.206  2.1101 -1.1603  0.9201
 8703SOL     OW37741   4.662   4.342   4.405 -0.3478  0.6412 -0.1101
 8703SOL    HW137742   4.708   4.289   4.470 -0.2710  1.0988  0.2033
 8703SOL    HW237743   4.692   4.431   4.424 -2.8599  1.4314  0.0645
 8704SOL     OW37744   2.274   3.187   5.202  0.5326  0.6506  0.0336
 8704SOL    HW137745   2.267   3.137   5.121 -0.3942 -0.3173  0.7288
 8704SOL    HW237746   2.224   3.265   5.177 -0.0819  0.5457  0.9802
 8705SOL     OW37747   1.852   0.340   9.052 -0.3325  0.5186  0.4710
 8705SOL    HW137748   1.852   0.428   9.091 -1.7880 -0.2954  2.2938
 8705SOL    HW237749   1.812   0.295   9.126  0.0252 -2.7460 -1.3079
 8706SOL     OW37750   0.951   0.721   7.206 -0.0423  0.1900  0.2495
 8706SOL    HW137751   1.034   0.677   7.223 -0.9996 -1.6128  0.3063
 8706SOL    HW237752   0.980   0.792   7.149  1.1327 -1.9746 -1.8144
 8707SOL     OW37753   2.172   2.151  11.982 -0.2094  0.2614 -0.3821
 8707SOL    HW137754   2.266   2.135  11.993 -0.7597 -1.4190  1.6899
 8707SOL    HW237755   2.170   2.219  12.049  0.1238  0.5983 -0.7100
 8708SOL     OW37756   2.002   2.711   1.817  0.5592 -0.2686 -0.5722
 8708SOL    HW137757   2.047   2.680   1.738  1.5002  1.9645 -0.9415
 8708SOL    HW237758   2.005   2.631   1.869  0.0176  0.3323  0.3891
 8709SOL     OW37759   3.311   3.142   8.511 -0.3653 -0.0396  0.5534
 8709SOL    HW137760   3.344   3.090   8.437 -0.3391 -0.3457  0.7793
 8709SOL    HW237761   3.230   3.095   8.529 -0.2435 -0.2467  0.5653
 8710SOL     OW37762   2.162   0.735   6.248 -0.6635  0.4635 -0.7914
 8710SOL    HW137763   2.139   0.702   6.161  1.4238 -1.3150 -0.6877
 8710SOL    HW237764   2.228   0.669   6.270 -1.0812  0.0512 -0.7869
 8711SOL     OW37765   1.359   0.774   4.335 -0.7689 -0.1900 -0.4940
 8711SOL    HW137766   1.272   0.744   4.309  0.0427 -3.3486  0.4612
 8711SOL    HW237767   1.410   0.710   4.284 -0.9281  0.2687 -1.2323
 8712SOL     OW37768   1.440   1.227   5.581 -0.1818  0.4695 -0.4502
 8712SOL    HW137769   1.355   1.185   5.574  0.3880 -0.8655  0.5152
 8712SOL    HW237770   1.421   1.313   5.544 -0.5609  2.1754  3.7033
 8713SOL     OW37771   4.174   0.854   2.196 -0.1154 -0.2098  0.1186
 8713SOL    HW137772   4.169   0.897   2.281  0.5653  1.5563 -0.7399
 8713SOL    HW237773   4.268   0.870   2.189 -0.4442  2.3434  1.4767
 8714SOL     OW37774   0.250   0.486   7.182 -0.1189  0.8912 -0.3069
 8714SOL    HW137775   0.331   0.435   7.177  0.3264  1.1782  3.9934
 8714SOL    HW237776   0.187   0.426   7.142 -0.6656  0.4788  1.1960
 8715SOL     OW37777   3.635   2.524   2.557 -0.7912 -0.3404  0.2324
 8715SOL    HW137778   3.661   2.616   2.547 -2.1421  0.0866  0.6893
 8715SOL    HW237779   3.655   2.517   2.650  0.5082  0.6012  0.0380
 8716SOL     OW37780   3.094   1.309   0.547 -0.2386 -0.0435 -0.5646
 8716SOL    HW137781   3.102   1.263   0.463  0.0085  0.5567 -0.8692
 8716SOL    HW237782   3.167   1.369   0.557  0.2938 -0.8028  0.0677
 8717SOL     OW37783   0.101   0.583  15.884  0.5558 -0.2493 -0.4657
 8717SOL    HW137784   0.063   0.658  15.928 -0.5347 -1.0030 -0.1202
 8717SOL    HW237785   0.124   0.617  15.797 -1.1554  1.0979 -0.3862
 8718SOL     OW37786   4.266   2.887   6.570 -0.2311  0.1752  0.3608
 8718SOL    HW137787   4.267   2.977   6.601  1.9535  1.4047 -3.3063
 8718SOL    HW237788   4.206   2.892   6.495  0.2560  1.1314  0.0475
 8719SOL     OW37789   2.440   3.000   3.203  0.3317  0.0940  1.3337
 8719SOL    HW137790   2.509   2.962   3.149  0.4108  0.9637  0.8255
 8719SOL    HW237791   2.365   2.956   3.160  1.2658 -2.0505  1.8966
 8720SOL     OW37792   0.243   3.502   8.822  0.5927  0.0059 -0.2938
 8720SOL    HW137793   0.202   3.476   8.904  0.5229 -0.9076 -0.6223
 8720SOL    HW237794   0.286   3.584   8.845 -1.2772  0.4710  1.4879
 8721SOL     OW37795   4.731   3.793   3.718  0.0837 -0.0188 -0.3739
 8721SOL    HW137796   4.715   3.725   3.652  0.0680 -0.1439 -0.2423
 8721SOL    HW237797   4.679   3.757   3.790  0.9679  0.8282  0.6768
 8722SOL     OW37798   4.414   0.691   1.919  0.3478  0.0071 -0.5004
 8722SOL    HW137799   4.501   0.659   1.940  0.8190 -0.6625 -3.5120
 8722SOL    HW237800   4.412   0.769   1.975  0.2341 -0.1706 -0.2565
 8723SOL     OW37801   2.596   2.198   7.375  0.5581  0.2730 -0.5056
 8723SOL    HW137802   2.550   2.115   7.390 -3.0060  2.2469 -0.5144
 8723SOL    HW237803   2.686   2.166   7.371  1.0600  1.5091  1.2556
 8724SOL     OW37804   4.326   1.492  17.680 -1.0158  0.3363  0.1310
 8724SOL    HW137805   4.252   1.533  17.635 -0.9046 -0.0496 -0.4004
 8724SOL    HW237806   4.310   1.514   0.033  0.4006 -1.9279  0.9028
 8725SOL     OW37807   2.024   4.294   3.536  0.9297 -0.2979  0.4782
 8725SOL    HW137808   2.090   4.293   3.467 -0.8136 -1.3465 -1.1768
 8725SOL    HW237809   2.008   4.200   3.545  2.6942 -0.5331  1.1047
 8726SOL     OW37810   2.943   2.205   0.926 -0.4361 -0.3758  0.3619
 8726SOL    HW137811   2.979   2.262   0.859  0.4639  0.1824  1.3265
 8726SOL    HW237812   3.006   2.136   0.905  0.7232  1.4522 -2.0576
 8727SOL     OW37813   1.958   1.456   2.821 -0.2108  0.3830 -0.3778
 8727SOL    HW137814   1.982   1.387   2.759  0.9098  1.2139 -0.8769
 8727SOL    HW237815   2.038   1.510   2.825 -0.1629  0.3115 -0.3741
 8728SOL     OW37816   0.332   1.665   2.417  0.2898  0.1539  0.2563
 8728SOL    HW137817   0.255   1.610   2.399  0.7323 -0.6458  0.8233
 8728SOL    HW237818   0.365   1.679   2.328 -2.6217 -0.5818 -0.9479
 8729SOL     OW37819   2.931   2.303   5.618  0.3280 -0.1444 -0.0718
 8729SOL    HW137820   2.899   2.259   5.539 -1.7161  0.4673  0.4309
 8729SOL    HW237821   3.012   2.252   5.625  1.8728  2.3429  0.2650
 8730SOL     OW37822   2.558   1.224   8.478  0.7944  0.3449 -0.0044
 8730SOL    HW137823   2.607   1.236   8.560 -1.2265  3.8894  0.6799
 8730SOL    HW237824   2.534   1.314   8.453  2.4460  1.2533  1.6735
 8731SOL     OW37825   3.982   2.985   4.577  0.7323 -0.0444  0.3618
 8731SOL    HW137826   3.946   3.072   4.594  0.3430 -0.1133 -0.1256
 8731SOL    HW237827   4.077   2.999   4.570  0.9214 -1.3939  0.1376
 8732SOL     OW37828   2.614   1.265  11.113 -0.0334  0.0727  0.0094
 8732SOL    HW137829   2.612   1.176  11.077 -1.3960  0.5864 -1.1742
 8732SOL    HW237830   2.526   1.280  11.146  0.8410 -0.9035  2.7389
 8733SOL     OW37831   4.091   4.542   3.685  0.3547 -0.3396  0.4244
 8733SOL    HW137832   4.095   4.455   3.644 -1.9387  0.7740 -2.1214
 8733SOL    HW237833   4.167   4.590   3.652  0.3431 -0.5127  0.1479
 8734SOL     OW37834   1.771   4.524   7.480 -0.4386 -0.3871  0.4132
 8734SOL    HW137835   1.865   4.533   7.471 -0.5448 -0.5215 -0.9176
 8734SOL    HW237836   1.769   4.480   7.565  1.4002 -0.2685  0.5148
 8735SOL     OW37837   3.850   1.293   2.447 -0.3192  0.3480  0.3373
 8735SOL    HW137838   3.896   1.377   2.450  1.5725 -0.7259  1.4576
 8735SOL    HW237839   3.780   1.318   2.386 -0.8886 -0.3800  0.7052
 8736SOL     OW37840   1.498   0.740  12.420  0.3096  0.1098 -0.2288
 8736SOL    HW137841   1.433   0.708  12.357  0.9799 -0.0453 -0.8458
 8736SOL    HW237842   1.505   0.835  12.406  0.8493  0.1025 -0.0048
 8737SOL     OW37843   4.524   4.530  10.224  0.2117 -0.2248  0.4629
 8737SOL    HW137844   4.530   4.614  10.270  0.3971 -0.3929  0.7481
 8737SOL    HW237845   4.493   4.467  10.289  1.6732 -1.0278  0.3739
 8738SOL     OW37846   3.167   4.154   6.109  0.4791  0.6979  0.7137
 8738SOL    HW137847   3.159   4.200   6.025  1.0530  2.3645  1.5536
 8738SOL    HW237848   3.145   4.222   6.173 -1.5366 -1.1211  1.9057
 8739SOL     OW37849   1.322   2.460   2.870 -0.1502 -0.1201  0.2524
 8739SOL    HW137850   1.273   2.407   2.932 -0.7724  0.3968  0.1935
 8739SOL    HW237851   1.262   2.527   2.839  0.5274  0.1869 -0.4087
 8740SOL     OW37852   0.670   0.319   4.604  0.0191 -0.0615  0.8616
 8740SOL    HW137853   0.625   0.362   4.531  3.2033  4.0565  1.3292
 8740SOL    HW237854   0.603   0.335   4.670 -0.1320 -1.3463  1.0182
 8741SOL     OW37855   3.306   3.272  10.904 -0.5871 -0.5361 -0.1011
 8741SOL    HW137856   3.265   3.188  10.886 -0.1577 -0.3516 -1.9059
 8741SOL    HW237857   3.362   3.269  10.826 -2.2350 -0.6967 -1.2799
 8742SOL     OW37858   3.799   0.742  10.166 -0.1308 -0.3254 -0.0350
 8742SOL    HW137859   3.779   0.781  10.251  1.2540 -2.0582  1.0830
 8742SOL    HW237860   3.738   0.669  10.160  1.8690 -1.6387 -3.9690
 8743SOL     OW37861   4.559   0.193   6.193  0.0930  0.1541 -0.1178
 8743SOL    HW137862   4.598   0.280   6.203 -0.0946  0.4635 -2.0379
 8743SOL    HW237863   4.627   0.150   6.141 -0.1075 -0.6369  0.2881
 8744SOL     OW37864   1.784   3.330  13.231 -0.0138  0.1639  0.2218
 8744SOL    HW137865   1.833   3.410  13.208 -1.0878  0.9581  0.6832
 8744SOL    HW237866   1.853   3.270  13.258  0.0538 -0.7908 -2.0790
 8745SOL     OW37867   3.796   4.160  13.847  0.2805  0.6198 -0.1505
 8745SOL    HW137868   3.826   4.250  13.841 -0.8146  1.0516  0.8756
 8745SOL    HW237869   3.873   4.112  13.815 -0.9782  0.5971 -3.1535
 8746SOL     OW37870   2.997   4.390  12.091  0.8031 -0.3807  0.3739
 8746SOL    HW137871   2.988   4.318  12.029 -1.2948 -1.0777  1.4919
 8746SOL    HW237872   2.972   4.471  12.046 -0.8481 -0.7424  0.6168
 8747SOL     OW37873   3.757   4.457  14.150 -0.1024  0.3509 -0.0687
 8747SOL    HW137874   3.673   4.415  14.170 -0.2805  1.4753  1.5228
 8747SOL    HW237875   3.771   4.504  14.231  0.2669  0.2948 -0.0997
 8748SOL     OW37876   1.372   0.264   8.466  0.1332 -0.1714  0.6288
 8748SOL    HW137877   1.391   0.227   8.380  0.6282  1.7508 -0.0805
 8748SOL    HW237878   1.332   0.181   8.495 -1.9405  0.7578  0.4069
 8749SOL     OW37879   1.335   0.524   7.659  0.4100  0.0905  0.2711
 8749SOL    HW137880   1.358   0.518   7.751  0.0022 -0.3098  0.3461
 8749SOL    HW237881   1.383   0.605   7.640  1.0116 -0.5765 -1.0642
 8750SOL     OW37882   1.847   2.041  10.478 -0.8298 -0.4044 -0.3328
 8750SOL    HW137883   1.841   2.117  10.420  1.4459 -0.7304 -0.9849
 8750SOL    HW237884   1.829   2.081  10.563 -0.5988 -2.6860  0.7926
 8751SOL     OW37885   0.267   0.542   7.473  0.2789 -0.7917 -0.0296
 8751SOL    HW137886   0.256   0.578   7.385  0.6699 -1.1724 -0.2345
 8751SOL    HW237887   0.358   0.514   7.466  0.7060  1.1151 -1.9469
 8752SOL     OW37888   4.587   2.768   6.287  0.2948 -0.7566 -0.2274
 8752SOL    HW137889   4.551   2.753   6.199  1.3090  0.5166 -0.8629
 8752SOL    HW237890   4.581   2.863   6.296  1.9437 -0.7941  1.2426
 8753SOL     OW37891   2.028   0.908  12.776  0.3409 -0.0754 -0.2964
 8753SOL    HW137892   2.034   0.974  12.707 -0.9702 -0.0574 -0.3924
 8753SOL    HW237893   2.102   0.935  12.830  1.5058  0.4331 -2.1477
 8754SOL     OW37894   4.273   4.664  10.827  0.2044 -0.6867  0.0711
 8754SOL    HW137895   4.254   4.689  10.918 -0.6416 -0.9638 -0.0358
 8754SOL    HW237896   4.361   4.703  10.819 -1.5804  2.8557 -2.4780
 8755SOL     OW37897   1.232   4.365   5.178  0.3056 -0.4001  0.8016
 8755SOL    HW137898   1.171   4.438   5.168 -0.1315 -0.8838 -0.0762
 8755SOL    HW237899   1.205   4.303   5.111  0.1988  2.3692 -1.7192
 8756SOL     OW37900   3.259   2.036   3.144 -0.4199  0.0750 -0.0745
 8756SOL    HW137901   3.176   1.999   3.173  0.3528 -2.4332 -1.0083
 8756SOL    HW237902   3.232   2.113   3.095  0.9617  0.6906  0.1220
 8757SOL     OW37903   0.275   1.429   4.677  0.2698 -0.3525 -0.2444
 8757SOL    HW137904   0.213   1.392   4.740  1.0436 -1.4006 -0.0932
 8757SOL    HW237905   0.221   1.450   4.601  0.9552  0.2775 -0.5558
 8758SOL     OW37906   3.883   4.132   2.395 -0.1863  0.2136 -0.2113
 8758SOL    HW137907   3.935   4.082   2.457  1.0022  0.2417 -1.1864
 8758SOL    HW237908   3.816   4.171   2.452 -0.0633  2.9596 -1.9503
 8759SOL     OW37909   3.963   0.637   1.771  0.0793 -0.7250  0.1679
 8759SOL    HW137910   4.036   0.696   1.753  2.0137 -3.0809  0.3072
 8759SOL    HW237911   3.885   0.690   1.754 -0.3247 -1.8471 -1.5301
 8760SOL     OW37912   0.107   2.357  15.504  0.1089  0.2289  0.3034
 8760SOL    HW137913   0.122   2.334  15.413 -0.8872  0.2766  0.1223
 8760SOL    HW237914   0.195   2.371  15.538  0.4280 -1.5881  0.1919
 8761SOL     OW37915   1.272   3.892  14.748  0.0896 -0.4715  0.0523
 8761SOL    HW137916   1.222   3.901  14.829 -0.2581 -1.2995 -0.0735
 8761SOL    HW237917   1.258   3.798  14.737 -3.0701  0.1208 -0.9191
 8762SOL     OW37918   2.734   2.018   8.570 -0.0157 -0.0167  0.4051
 8762SOL    HW137919   2.693   2.039   8.654  0.8993 -1.3491  1.1830
 8762SOL    HW237920   2.677   2.069   8.513 -0.6094 -1.0560  0.0695
 8763SOL     OW37921   2.339   0.079   3.063  0.4209 -0.5663  0.2907
 8763SOL    HW137922   2.379   0.137   2.999 -2.0381  0.3630 -0.3802
 8763SOL    HW237923   2.264   0.126   3.097  1.6026  1.0375  0.7064
 8764SOL     OW37924   4.121   2.703  11.801 -0.0711 -0.2390 -0.2971
 8764SOL    HW137925   4.031   2.736  11.803 -0.0343 -0.0500 -1.6145
 8764SOL    HW237926   4.122   2.625  11.745 -1.3837 -0.6767  0.2893
 8765SOL     OW37927   2.187   2.338   4.354  0.1574  0.1187  0.4164
 8765SOL    HW137928   2.145   2.421   4.332  0.9493  0.8199  1.5528
 8765SOL    HW237929   2.130   2.275   4.311  1.4747 -0.5762 -0.3236
 8766SOL     OW37930   1.637   3.970  15.832 -0.1716  0.3829  0.0921
 8766SOL    HW137931   1.622   4.063  15.812 -1.1664  0.7749  2.7069
 8766SOL    HW237932   1.694   3.985  15.907  0.1325 -1.5796  0.2338
 8767SOL     OW37933   1.789   0.727   8.223 -0.4861 -0.0935 -0.1692
 8767SOL    HW137934   1.843   0.776   8.284 -1.2959  0.0683  0.4097
 8767SOL    HW237935   1.748   0.673   8.291 -0.4834  2.1624  1.6132
 8768SOL     OW37936   0.447   1.261   9.182  0.2634  0.5346  0.2637
 8768SOL    HW137937   0.406   1.229   9.102 -3.5450  2.2148  1.5859
 8768SOL    HW237938   0.381   1.318   9.220  0.4779  0.6469  0.4722
 8769SOL     OW37939   3.220   0.170   4.167 -0.0003  0.0260 -0.3889
 8769SOL    HW137940   3.301   0.165   4.114  0.6061  2.1878  0.3659
 8769SOL    HW237941   3.152   0.170   4.100 -1.0030 -0.4158  0.6460
 8770SOL     OW37942   3.160   4.460   3.454 -0.3114 -0.4107 -0.0945
 8770SOL    HW137943   3.181   4.425   3.368 -0.9271 -1.1477  0.0498
 8770SOL    HW237944   3.069   4.480   3.435 -0.2190 -0.3883 -0.5098
 8771SOL     OW37945   2.390   0.828   9.556 -0.3257  0.2358  0.2120
 8771SOL    HW137946   2.470   0.857   9.513  0.4556 -0.2621  1.3130
 8771SOL    HW237947   2.395   0.738   9.523 -0.4237  0.9446 -1.6697
 8772SOL     OW37948   2.906   2.149   2.864  0.0627  0.2999 -0.5339
 8772SOL    HW137949   2.976   2.153   2.930 -0.9448 -0.4929  0.5694
 8772SOL    HW237950   2.944   2.207   2.797 -0.5792  2.5876  1.0883
 8773SOL     OW37951   1.041   2.039   6.954  0.2070 -0.7438  0.0630
 8773SOL    HW137952   1.074   2.037   6.864 -0.3171  2.5232 -0.2147
 8773SOL    HW237953   1.105   1.976   6.986 -0.5813 -2.2919 -1.4065
 8774SOL     OW37954   0.048   1.293   6.848 -0.2168  0.6191 -0.4171
 8774SOL    HW137955   0.077   1.356   6.913 -2.5090 -0.5201  1.7108
 8774SOL    HW237956   4.696   1.327   6.828 -1.1630 -1.2906  0.4574
 8775SOL     OW37957   2.653   3.478   2.037 -0.4358  0.6576  0.9157
 8775SOL    HW137958   2.725   3.492   1.975 -1.5270 -0.0701 -0.5058
 8775SOL    HW237959   2.637   3.570   2.056 -1.0456  1.2892 -2.7297
 8776SOL     OW37960   3.977   1.758   0.354  0.5231 -0.7145  0.4220
 8776SOL    HW137961   4.046   1.817   0.383  0.7818  0.2678 -2.2023
 8776SOL    HW237962   3.990   1.679   0.408  0.4529  0.0830  1.6065
 8777SOL     OW37963   1.437   3.215   4.024  0.1811  0.3273  0.0332
 8777SOL    HW137964   1.411   3.133   4.067 -0.6932  0.5277 -0.1201
 8777SOL    HW237965   1.386   3.279   4.073 -2.2780 -0.8880 -0.9083
 8778SOL     OW37966   1.807   4.523   0.975  0.3046 -0.2773  0.2673
 8778SOL    HW137967   1.799   4.432   1.007  1.1882  0.4046  2.4505
 8778SOL    HW237968   1.771   4.524   0.886  0.6814 -0.8676  0.1098
 8779SOL     OW37969   1.836   4.724   2.190  0.4184  0.1240  0.1056
 8779SOL    HW137970   1.780   0.025   2.259  1.1244 -1.6468  1.6134
 8779SOL    HW237971   1.788   4.734   2.108  1.8177 -2.7524 -1.0597
 8780SOL     OW37972   4.148   0.064   9.493  0.5623  0.6909 -0.9111
 8780SOL    HW137973   4.062   0.030   9.468  0.3320  1.3647 -1.0403
 8780SOL    HW237974   4.127   0.156   9.478  0.4433  0.8926  0.4227
 8781SOL     OW37975   4.241   3.104   5.646 -0.5426  0.0299 -0.4981
 8781SOL    HW137976   4.294   3.183   5.657  1.0443 -1.4497  2.5526
 8781SOL    HW237977   4.256   3.075   5.557 -0.9400  1.6172 -1.0811
 8782SOL     OW37978   0.800   1.909  17.328  0.1442  0.2576 -0.2792
 8782SOL    HW137979   0.715   1.911  17.372 -1.4547 -2.2172 -3.2751
 8782SOL    HW237980   0.776   1.965  17.254  0.4064 -0.8730 -1.2330
 8783SOL     OW37981   1.840   3.155  11.729 -0.2631  0.2389 -0.2087
 8783SOL    HW137982   1.896   3.120  11.798 -0.2718 -1.3550 -0.9936
 8783SOL    HW237983   1.878   3.120  11.648  0.8918 -0.3089  0.5766
 8784SOL     OW37984   0.207   3.873  15.115 -0.2806 -0.2377 -0.2594
 8784SOL    HW137985   0.114   3.895  15.111  0.0671  1.1952 -0.4510
 8784SOL    HW237986   0.248   3.956  15.091  0.2019 -0.1570  0.8627
 8785SOL     OW37987   4.183   3.356   1.072 -0.6075 -0.4712  0.0184
 8785SOL    HW137988   4.114   3.422   1.071  0.2616  0.4282 -0.1868
 8785SOL    HW237989   4.164   3.344   1.165  4.0170  0.4349  1.0683
 8786SOL     OW37990   1.870   2.681  15.545 -0.0344 -0.4509  0.2446
 8786SOL    HW137991   1.865   2.647  15.455 -2.7279 -1.1080  0.6291
 8786SOL    HW237992   1.788   2.652  15.585 -0.3870 -0.7164 -0.6657
 8787SOL     OW37993   1.383   2.045   6.951 -0.5149 -0.0044  0.0810
 8787SOL    HW137994   1.330   1.968   6.970  0.9196 -0.6248  1.5345
 8787SOL    HW237995   1.323   2.088   6.890 -0.0003 -2.1881 -1.9392
 8788SOL     OW37996   0.830   0.831   8.357  0.7036  0.0189 -0.0600
 8788SOL    HW137997   0.748   0.797   8.323  0.4537  1.3465 -0.7986
 8788SOL    HW237998   0.881   0.751   8.370  1.6975  0.8197  0.9594
 8789SOL     OW37999   1.319   4.490   1.233  0.4537  0.4531 -0.1503
 8789SOL    HW138000   1.397   4.473   1.181 -0.1843 -2.6408 -0.1345
 8789SOL    HW238001   1.336   4.573   1.278  1.9217  1.3847 -2.4316
 8790SOL     OW38002   2.000   0.794   6.912  0.0473  0.3546  0.1246
 8790SOL    HW138003   2.088   0.813   6.944 -0.2952  1.3154  0.5124
 8790SOL    HW238004   1.961   0.879   6.936 -0.5068 -0.2015  1.1762
 8791SOL     OW38005   3.325   1.741   1.387  0.0648  0.2613 -0.2401
 8791SOL    HW138006   3.290   1.698   1.309  1.1504 -0.6232 -0.2429
 8791SOL    HW238007   3.336   1.829   1.351  3.7469 -0.0623  0.1089
 8792SOL     OW38008   1.014   2.589   4.599  0.1515  0.6376  0.0474
 8792SOL    HW138009   1.011   2.494   4.588  1.5722  0.5196  0.7865
 8792SOL    HW238010   1.084   2.603   4.662  0.8463  0.3806 -0.6747
 8793SOL     OW38011   0.189   0.690   4.465 -0.9948  0.4624 -0.0544
 8793SOL    HW138012   0.204   0.755   4.396 -1.4679  0.1467 -0.4538
 8793SOL    HW238013   0.096   0.689   4.442 -0.9337  1.1038 -0.3371
 8794SOL     OW38014   0.576   1.565   9.369 -0.6766 -0.0010  0.5107
 8794SOL    HW138015   0.515   1.516   9.314 -1.4942  1.1729  0.3829
 8794SOL    HW238016   0.565   1.657   9.344  0.1150  0.5694  2.2576
 8795SOL     OW38017   3.397   1.574  17.463  0.8739 -0.3838  0.0348
 8795SOL    HW138018   3.461   1.597  17.531  1.5105 -4.4327  0.7960
 8795SOL    HW238019   3.447   1.594  17.384 -1.6659  3.4968 -0.6148
 8796SOL     OW38020   4.148   0.455  16.897  0.4316  0.1260  0.2879
 8796SOL    HW138021   4.166   0.547  16.917 -0.2071 -0.0386  1.6236
 8796SOL    HW238022   4.075   0.453  16.835 -0.4795  1.5231  1.3089
 8797SOL     OW38023   2.515   0.223  17.109 -0.2984 -0.0924 -0.2272
 8797SOL    HW138024   2.586   0.287  17.121 -0.2498  0.1230 -1.6735
 8797SOL    HW238025   2.468   0.270  17.040 -0.5761 -0.7036 -0.4519
 8798SOL     OW38026   2.359   1.294   1.175 -0.5925  0.0227  0.0850
 8798SOL    HW138027   2.351   1.264   1.085 -2.5922  0.5478  0.0888
 8798SOL    HW238028   2.274   1.337   1.175 -0.4544  0.3253  1.6928
 8799SOL     OW38029   2.166   2.016   6.575 -0.1395 -0.5738  0.3289
 8799SOL    HW138030   2.246   2.000   6.626  0.5396  0.2812 -0.4621
 8799SOL    HW238031   2.201   1.997   6.488  0.6405  2.6368 -0.0434
 8800SOL     OW38032   2.513   3.702   4.376 -0.1383 -0.7317 -0.0083
 8800SOL    HW138033   2.587   3.676   4.431  0.7201  0.4391 -0.5963
 8800SOL    HW238034   2.556   3.681   4.293  1.9188 -1.1804  1.1805
 8801SOL     OW38035   1.920   0.920   3.571  0.6387  0.0571 -0.0274
 8801SOL    HW138036   1.923   0.825   3.577 -1.2171 -0.0134 -0.3283
 8801SOL    HW238037   1.997   0.953   3.619  0.8926  1.2765 -1.2640
 8802SOL     OW38038   4.691   4.646   7.298 -0.5073  0.2559 -0.2509
 8802SOL    HW138039   4.733   4.721   7.340 -1.6941  1.2215 -0.7989
 8802SOL    HW238040   4.648   4.607   7.374 -0.5806  1.0677  0.1247
 8803SOL     OW38041   3.086   2.726   7.178  0.3400 -0.1399 -0.5976
 8803SOL    HW138042   3.166   2.677   7.162  0.4117 -0.7524  1.5762
 8803SOL    HW238043   3.068   2.777   7.099 -0.4884 -0.8096 -0.8427
 8804SOL     OW38044   0.261   4.352  15.571 -0.7097  0.0027 -0.1272
 8804SOL    HW138045   0.344   4.392  15.598  1.2857 -3.2065 -1.5838
 8804SOL    HW238046   0.289   4.261  15.579  1.1156  0.4533 -1.3967
 8805SOL     OW38047   1.193   0.483   3.389  0.3635 -0.7591  0.1132
 8805SOL    HW138048   1.213   0.395   3.357  1.3782 -0.5322  0.1141
 8805SOL    HW238049   1.259   0.467   3.457 -0.7409  2.3711  1.8969
 8806SOL     OW38050   3.709   2.211  11.013 -0.6973  0.5640  0.3058
 8806SOL    HW138051   3.631   2.255  11.047 -0.6799  0.0860  0.9645
 8806SOL    HW238052   3.716   2.135  11.071 -0.4554  0.3387 -0.0195
 8807SOL     OW38053   0.473   4.390   9.374  0.0038 -0.1510  0.6513
 8807SOL    HW138054   0.409   4.457   9.393 -1.8096 -1.5457 -0.5578
 8807SOL    HW238055   0.530   4.442   9.317  0.2922 -1.3268 -0.1341
 8808SOL     OW38056   0.231   1.087   5.693  0.0939  0.6099  0.0909
 8808SOL    HW138057   0.148   1.125   5.667  0.4601 -0.4363 -2.5226
 8808SOL    HW238058   0.249   1.131   5.777 -1.5631  2.0137 -0.2956
 8809SOL     OW38059   0.128   1.719   6.957  0.0393 -0.0143 -0.4316
 8809SOL    HW138060   0.062   1.783   6.985 -0.2103 -0.9781  1.2080
 8809SOL    HW238061   0.195   1.777   6.921  0.2448 -0.0163 -0.0504
 8810SOL     OW38062   4.292   4.006  17.125 -0.3431  0.1558  0.6084
 8810SOL    HW138063   4.200   3.995  17.149 -0.5139  1.1330  0.4188
 8810SOL    HW238064   4.276   3.998  17.031 -0.7597  2.6576  0.4639
 8811SOL     OW38065   0.705   3.346   0.262 -0.1041  0.1209  0.3169
 8811SOL    HW138066   0.645   3.413   0.229  0.7885  0.6776 -0.1843
 8811SOL    HW238067   0.729   3.383   0.348 -2.4758 -0.9538  1.4381
 8812SOL     OW38068   4.393   3.118   2.455 -0.0212 -0.2567  0.0313
 8812SOL    HW138069   4.374   3.056   2.384  0.8124  1.4211 -1.6663
 8812SOL    HW238070   4.481   3.143   2.428 -0.1820 -0.5421 -0.7519
 8813SOL     OW38071   0.622   1.946   3.097  0.7367  0.1814  0.5791
 8813SOL    HW138072   0.527   1.950   3.107  0.7898 -0.3551  1.2968
 8813SOL    HW238073   0.629   2.012   3.028  1.7622 -0.2465  0.2707
 8814SOL     OW38074   4.617   0.714  16.038 -0.1410  0.0139  0.4632
 8814SOL    HW138075   4.535   0.704  15.990  0.4418  0.1028 -0.5618
 8814SOL    HW238076   4.623   0.650  16.110 -0.6045 -1.4308 -0.7858
 8815SOL     OW38077   1.106   3.314  10.605  0.1500 -0.1717 -0.4737
 8815SOL    HW138078   1.033   3.270  10.563 -0.8234  0.8355  0.1659
 8815SOL    HW238079   1.060   3.382  10.654 -1.1978 -1.6211  0.3142
 8816SOL     OW38080   3.962   2.124  10.499  0.3803 -0.2692  0.3145
 8816SOL    HW138081   3.934   2.128  10.591  1.5167  3.2454  0.5357
 8816SOL    HW238082   3.904   2.058  10.461  1.1799 -0.6925 -0.1630
 8817SOL     OW38083   0.377   1.803   6.127 -0.6331 -0.0010 -0.7122
 8817SOL    HW138084   0.336   1.717   6.139  1.9387 -1.2200 -0.7076
 8817SOL    HW238085   0.469   1.794   6.152 -0.2391 -0.2879 -2.2901
 8818SOL     OW38086   1.235   3.672   5.619 -0.0686 -0.4364 -0.0208
 8818SOL    HW138087   1.278   3.586   5.616  1.3311  0.2757 -0.6282
 8818SOL    HW238088   1.280   3.690   5.702  1.0645  1.3255 -1.0156
 8819SOL     OW38089   2.285   3.948   8.181 -0.2002  0.5139 -0.1035
 8819SOL    HW138090   2.234   3.871   8.203  0.9715  0.3725  2.0553
 8819SOL    HW238091   2.285   3.948   8.085  1.9905  2.7671 -0.1152
 8820SOL     OW38092   1.274   1.481  12.005 -0.2155 -0.1436 -0.0095
 8820SOL    HW138093   1.245   1.569  11.982 -1.4401 -0.1172  1.5821
 8820SOL    HW238094   1.224   1.420  11.951  1.1188 -1.9143  0.7633
 8821SOL     OW38095   4.395   1.694  12.524 -0.4658  0.0510 -0.0484
 8821SOL    HW138096   4.402   1.790  12.523  1.8760 -0.0898  2.1370
 8821SOL    HW238097   4.487   1.668  12.526 -1.1808 -2.5318 -0.4138
 8822SOL     OW38098   1.286   3.984   2.434 -0.3579 -0.6517  0.2223
 8822SOL    HW138099   1.311   4.067   2.394 -3.9944  0.0649 -0.6128
 8822SOL    HW238100   1.197   4.016   2.447 -0.0578 -0.5975  2.0765
 8823SOL     OW38101   0.238   4.259   7.256  0.1089 -0.6763  0.2740
 8823SOL    HW138102   0.296   4.273   7.181 -2.7266  0.2064 -1.7492
 8823SOL    HW238103   0.266   4.174   7.290 -2.2119 -0.6627  2.2070
 8824SOL     OW38104   4.618   2.691   5.677  0.5608  0.5064 -0.3323
 8824SOL    HW138105   4.575   2.765   5.634 -2.4645 -0.0898  1.6482
 8824SOL    HW238106   4.556   2.618   5.672 -1.0998  1.9874 -0.9261
 8825SOL     OW38107   3.064   4.482  12.597  0.4229 -0.1964 -0.1313
 8825SOL    HW138108   3.129   4.549  12.576  0.0304  0.0110 -0.6820
 8825SOL    HW238109   2.996   4.505  12.533  2.2481 -2.6357 -2.9501
 8826SOL     OW38110   0.959   3.641   6.271 -0.2466 -0.6229 -0.4202
 8826SOL    HW138111   0.883   3.698   6.279 -1.2004 -2.1310  1.2939
 8826SOL    HW238112   0.994   3.670   6.187  3.5207  2.0845  2.0931
 8827SOL     OW38113   1.788   1.180   6.669 -0.3226  0.4525 -0.1597
 8827SOL    HW138114   1.770   1.087   6.652 -0.8002  0.5252 -0.0651
 8827SOL    HW238115   1.712   1.197   6.725  1.3897 -1.0898  2.6105
 8828SOL     OW38116   0.524   4.556   2.369 -0.0473 -0.0097 -0.6901
 8828SOL    HW138117   0.595   4.536   2.308  0.6498  2.5810 -0.7007
 8828SOL    HW238118   0.499   4.636   2.322 -0.3241  0.2948 -0.0193
 8829SOL     OW38119   2.406   1.056   1.887 -0.6880  0.6578  0.2192
 8829SOL    HW138120   2.313   1.045   1.866 -0.0333 -1.6242 -1.4844
 8829SOL    HW238121   2.416   1.150   1.871 -0.7339  0.6915  0.3821
 8830SOL     OW38122   3.140   1.156   0.310 -0.3192  0.1847  0.3968
 8830SOL    HW138123   3.209   1.145   0.245 -0.8118 -1.2372  0.1191
 8830SOL    HW238124   3.149   1.072   0.355  2.7126  1.9285  3.0070
 8831SOL     OW38125   1.038   1.295   3.160 -0.6242 -0.2258 -0.3262
 8831SOL    HW138126   0.986   1.322   3.084  1.8647  1.9453 -1.2475
 8831SOL    HW238127   0.983   1.333   3.229  1.2788 -0.2568  1.2144
 8832SOL     OW38128   3.413   0.996   8.202 -0.3529  0.2342 -0.2164
 8832SOL    HW138129   3.490   1.053   8.213  1.5639 -2.0809 -1.6412
 8832SOL    HW238130   3.454   0.911   8.221  0.5309  0.8583  0.6686
 8833SOL     OW38131   3.974   2.536  11.495  0.0736  0.2577 -0.4342
 8833SOL    HW138132   4.018   2.514  11.578  1.1124 -2.1274 -1.6119
 8833SOL    HW238133   4.049   2.570  11.447  0.7545  0.9738  1.1393
 8834SOL     OW38134   4.584   0.705   4.923 -0.3659  0.5926  0.0829
 8834SOL    HW138135   4.514   0.641   4.918 -0.1387  0.2869  0.8438
 8834SOL    HW238136   4.660   0.649   4.939 -0.5776 -0.2033 -1.6690
 8835SOL     OW38137   3.551   1.343   8.346 -0.0957  0.4508  0.2516
 8835SOL    HW138138   3.646   1.353   8.353 -0.1775  1.7340 -0.4850
 8835SOL    HW238139   3.539   1.276   8.278  1.4072 -0.1349  0.5525
 8836SOL     OW38140   2.418   2.875   8.019  0.4002 -0.0820 -0.1844
 8836SOL    HW138141   2.349   2.915   7.966  0.5804  0.3054 -0.1336
 8836SOL    HW238142   2.368   2.809   8.066 -0.9605 -0.5768 -2.3393
 8837SOL     OW38143   0.244   1.984  10.906  0.0577  0.0897  1.1513
 8837SOL    HW138144   0.170   1.958  10.961 -0.0437 -0.3200  0.8253
 8837SOL    HW238145   0.309   1.992  10.975  1.0521  0.9657  0.1108
 8838SOL     OW38146   1.900   3.991  15.206  0.2867  0.2113 -0.4194
 8838SOL    HW138147   1.857   4.048  15.142  0.4332 -1.6934 -2.2302
 8838SOL    HW238148   1.973   3.950  15.160 -0.6950 -3.2238  1.0419
 8839SOL     OW38149   2.074   0.610  13.752 -0.6039  0.1397  0.0130
 8839SOL    HW138150   2.022   0.686  13.726 -1.9072 -0.8797 -0.3178
 8839SOL    HW238151   2.021   0.558  13.812  0.9735 -0.9071  0.5184
 8840SOL     OW38152   1.720   3.540   1.406  0.3224 -0.0082 -0.0791
 8840SOL    HW138153   1.660   3.465   1.408  0.6938 -0.2341  2.8139
 8840SOL    HW238154   1.663   3.602   1.452 -0.0778 -2.1267  2.3095
 8841SOL     OW38155   3.690   2.257  12.233  0.3235 -0.1841 -0.8560
 8841SOL    HW138156   3.657   2.210  12.156  0.3196  0.3208 -1.1601
 8841SOL    HW238157   3.770   2.294  12.197  0.6093  0.2333  0.2261
 8842SOL     OW38158   2.725   0.625   3.775  0.0520 -0.0757  0.5382
 8842SOL    HW138159   2.729   0.641   3.869  0.2467  0.6014  0.4173
 8842SOL    HW238160   2.817   0.642   3.755 -0.8805  4.8582  0.5193
 8843SOL     OW38161   3.588   3.977   7.083  0.3707  0.3235 -0.2900
 8843SOL    HW138162   3.645   4.028   7.026 -0.9476  3.4721  1.2148
 8843SOL    HW238163   3.519   3.954   7.020 -1.6011  0.6971  1.7238
 8844SOL     OW38164   4.285   1.184   7.788  0.0100 -0.0168 -0.0472
 8844SOL    HW138165   4.244   1.225   7.864  1.5152  1.4532 -0.0157
 8844SOL    HW238166   4.286   1.091   7.810  0.1648  0.0917  0.4052
 8845SOL     OW38167   0.768   2.589  15.780  0.1768 -0.3779 -0.5971
 8845SOL    HW138168   0.768   2.609  15.687 -4.3552 -1.6316 -0.8509
 8845SOL    HW238169   0.789   2.495  15.781 -1.7794 -0.7918  0.7639
 8846SOL     OW38170   3.218   3.170   2.358 -0.4663  0.2462  0.3821
 8846SOL    HW138171   3.221   3.076   2.341  0.9130  0.3006  0.3295
 8846SOL    HW238172   3.304   3.195   2.322 -0.7628 -0.4060 -0.7566
 8847SOL     OW38173   1.625   4.484   6.625  0.2498  0.1023  0.3021
 8847SOL    HW138174   1.703   4.534   6.602  0.5781 -0.5241  0.0601
 8847SOL    HW238175   1.665   4.427   6.690 -0.3364 -1.0246 -0.3208
 8848SOL     OW38176   0.640   2.401   8.440  0.2159  0.1346 -0.5967
 8848SOL    HW138177   0.697   2.476   8.457 -2.5668  2.4289 -1.2585
 8848SOL    HW238178   0.629   2.374   8.531 -0.9593  2.2377 -0.0998
 8849SOL     OW38179   1.710   4.396   9.090  0.0639 -0.2490  0.3649
 8849SOL    HW138180   1.746   4.312   9.061  0.2418  0.2144 -0.7689
 8849SOL    HW238181   1.782   4.457   9.072 -1.0201  0.7591 -0.5677
 8850SOL     OW38182   1.018   2.978   2.201 -0.1984 -0.2767  0.0459
 8850SOL    HW138183   1.103   3.021   2.211 -0.0312 -0.8987  1.2322
 8850SOL    HW238184   1.027   2.921   2.124  1.3327 -1.2758  0.9654
 8851SOL     OW38185   1.750   0.716  12.859 -0.3549  0.3980  0.0382
 8851SOL    HW138186   1.698   0.779  12.810  0.6396  0.6481 -0.7119
 8851SOL    HW238187   1.686   0.651  12.888 -0.1902  1.0122  1.7685
 8852SOL     OW38188   2.294   1.092   3.160 -0.1405  0.5668 -0.2586
 8852SOL    HW138189   2.233   1.066   3.091  0.3166 -1.7312  0.2106
 8852SOL    HW238190   2.318   1.010   3.202 -2.7125  1.1847  2.4391
 8853SOL     OW38191   3.080   4.097  15.770 -1.0686 -0.3446  0.0000
 8853SOL    HW138192   3.061   4.044  15.848  0.2041  0.9036  1.1521
 8853SOL    HW238193   2.995   4.113  15.729 -0.8570  1.9713  0.4782
 8854SOL     OW38194   0.574   2.110  14.057  0.3518  0.3913  0.2673
 8854SOL    HW138195   0.544   2.192  14.017  0.6077 -1.1712 -3.2073
 8854SOL    HW238196   0.498   2.095  14.113 -0.4144  2.5570 -0.1994
 8855SOL     OW38197   1.884   1.093   5.284 -0.1369 -0.0850 -0.0785
 8855SOL    HW138198   1.867   1.148   5.208 -0.5817 -2.1413 -1.4679
 8855SOL    HW238199   1.802   1.104   5.332  1.2715  1.3002  2.0576
 8856SOL     OW38200   2.949   0.588  11.644  0.2428 -0.5244  0.4292
 8856SOL    HW138201   2.986   0.545  11.721  2.5409 -0.0842 -0.4163
 8856SOL    HW238202   2.880   0.524  11.626  0.1624 -0.6629  1.2480
 8857SOL     OW38203   3.708   0.264   9.977  0.4878  0.2150 -0.3867
 8857SOL    HW138204   3.691   0.323  10.051  0.0122  1.4655 -1.4837
 8857SOL    HW238205   3.699   0.183  10.027  0.7704  0.8696  0.7340
 8858SOL     OW38206   4.669   3.344   0.046  0.8020  0.4391  0.4042
 8858SOL    HW138207   4.650   3.352  17.691  2.0672  3.3401  0.3806
 8858SOL    HW238208   4.706   3.256   0.049  1.9848  0.9465  0.7373
 8859SOL     OW38209   2.950   0.763   5.267 -0.2945  0.2448 -0.1751
 8859SOL    HW138210   2.948   0.671   5.242 -0.7351 -0.1088  1.1520
 8859SOL    HW238211   2.864   0.792   5.238  0.0212  0.7979 -0.5687
 8860SOL     OW38212   1.246   0.173  14.641 -0.0559 -0.7231  0.3801
 8860SOL    HW138213   1.313   0.166  14.574  3.0945  2.2915  3.2055
 8860SOL    HW238214   1.171   0.210  14.595  0.6851 -0.0557 -0.2814
 8861SOL     OW38215   4.508   1.224   7.552  0.1162  0.1973 -0.2295
 8861SOL    HW138216   4.431   1.245   7.605 -0.8921 -0.7103 -1.3353
 8861SOL    HW238217   4.566   1.178   7.613  0.0944  3.3071  2.1358
 8862SOL     OW38218   0.813   2.024  14.974 -0.4904  0.3598  0.7011
 8862SOL    HW138219   0.869   2.009  15.050 -1.6375 -1.7056  1.1485
 8862SOL    HW238220   0.750   1.954  14.989 -0.5832  0.2435 -0.2796
 8863SOL     OW38221   4.225   2.056  10.029 -0.5593 -0.1081 -0.0456
 8863SOL    HW138222   4.239   2.133  10.084  1.9636 -0.4796 -0.1347
 8863SOL    HW238223   4.231   2.087   9.939 -2.0453  3.0757  0.9477
 8864SOL     OW38224   2.466   2.751   1.858 -0.7550  0.0467 -0.5805
 8864SOL    HW138225   2.422   2.683   1.807  0.0681 -0.9161 -0.0034
 8864SOL    HW238226   2.556   2.749   1.824 -0.4559 -0.4115  0.2521
 8865SOL     OW38227   1.612   1.293   8.283 -0.5680  0.2865  0.2620
 8865SOL    HW138228   1.622   1.350   8.359  1.3289  0.2828  0.0131
 8865SOL    HW238229   1.590   1.357   8.216 -0.3952 -0.1261 -0.1821
 8866SOL     OW38230   0.591   1.176  11.699 -0.0066  0.2578 -0.3313
 8866SOL    HW138231   0.557   1.253  11.653  0.1404  0.5267  0.0120
 8866SOL    HW238232   0.521   1.157  11.762 -0.2965 -0.3832 -0.8477
 8867SOL     OW38233   2.239   3.429   5.676 -0.8103 -0.1477  0.2578
 8867SOL    HW138234   2.223   3.396   5.764  1.3296 -1.7895  0.0341
 8867SOL    HW238235   2.316   3.486   5.681  0.4331 -1.9264  1.3503
 8868SOL     OW38236   1.042   2.870   6.694 -0.1574 -0.1840 -0.7055
 8868SOL    HW138237   0.988   2.861   6.773  2.7800 -0.5216  1.2910
 8868SOL    HW238238   1.128   2.860   6.735  0.1521 -0.2725 -1.3890
 8869SOL     OW38239   2.812   2.064   7.012 -0.0299  0.4481 -0.1862
 8869SOL    HW138240   2.802   2.158   6.999  1.3875  0.5307 -0.8031
 8869SOL    HW238241   2.768   2.033   6.932 -0.4934  1.1987 -0.2161
 8870SOL     OW38242   2.002   3.755   8.247  0.3316  0.2246  0.5146
 8870SOL    HW138243   2.065   3.688   8.222 -0.1510  0.4296 -1.2345
 8870SOL    HW238244   1.937   3.695   8.285 -1.9246  1.7345 -0.9398
 8871SOL     OW38245   4.519   3.109   5.857 -0.7405  0.0469  0.2349
 8871SOL    HW138246   4.473   3.025   5.860  0.5550 -0.6845 -0.4624
 8871SOL    HW238247   4.582   3.101   5.930 -1.1224 -1.7409  0.3752
 8872SOL     OW38248   1.214   2.122  12.280 -0.4877  0.4133  0.0364
 8872SOL    HW138249   1.258   2.038  12.271 -1.6378 -0.3249  1.3164
 8872SOL    HW238250   1.291   2.173  12.252 -2.2121  2.5667 -0.7879
 8873SOL     OW38251   2.162   0.192  12.156 -0.1069 -0.7313  0.1070
 8873SOL    HW138252   2.098   0.228  12.095  2.3323 -1.3783 -2.8565
 8873SOL    HW238253   2.203   0.132  12.093  1.2927 -1.5256  1.7943
 8874SOL     OW38254   2.877   4.167   6.913 -0.3447  0.2796  0.0223
 8874SOL    HW138255   2.963   4.199   6.937 -0.0327  0.3050 -1.1186
 8874SOL    HW238256   2.829   4.163   6.995 -0.2186 -0.2340  0.0748
 8875SOL     OW38257   4.691   2.759  14.505 -0.3896  0.4687 -0.1845
 8875SOL    HW138258   4.706   2.675  14.463  2.6907  1.0006 -0.1544
 8875SOL    HW238259   0.040   2.801  14.523  1.1821 -2.3017 -1.1688
 8876SOL     OW38260   2.171   2.168   3.653  0.0982 -0.1635  0.7888
 8876SOL    HW138261   2.240   2.114   3.615  0.6380  0.1279  1.3561
 8876SOL    HW238262   2.164   2.243   3.594 -1.7474 -0.4592  0.6162
 8877SOL     OW38263   1.141   3.264   9.380 -0.4576 -0.2949 -0.1336
 8877SOL    HW138264   1.099   3.303   9.304  0.0252  0.3260 -0.0848
 8877SOL    HW238265   1.179   3.339   9.426 -1.4531  0.9842 -1.4176
 8878SOL     OW38266   1.692   4.258   4.347  0.1525  0.0288 -0.3180
 8878SOL    HW138267   1.675   4.283   4.256 -1.3780  0.5302  0.0964
 8878SOL    HW238268   1.656   4.332   4.395 -0.1924 -0.3665  0.0414
 8879SOL     OW38269   0.948   1.586   2.197  0.1021  0.7444 -0.2155
 8879SOL    HW138270   0.871   1.641   2.212 -0.4619 -0.4884  1.4476
 8879SOL    HW238271   0.947   1.582   2.102 -2.4310 -1.2003 -0.1174
 8880SOL     OW38272   0.645   1.603   6.062 -0.1131  0.5163  0.0518
 8880SOL    HW138273   0.630   1.688   6.104 -3.8338  0.3982 -1.0457
 8880SOL    HW238274   0.640   1.540   6.134 -0.9060 -0.7312 -1.1036
 8881SOL     OW38275   1.755   3.217   9.486  0.0983 -0.1304 -0.5148
 8881SOL    HW138276   1.800   3.261   9.413  2.1198 -1.2842  0.0369
 8881SOL    HW238277   1.824   3.182   9.543 -0.7450  0.2452  0.7388
 8882SOL     OW38278   1.295   1.524   5.224 -0.1859 -0.0863  0.0254
 8882SOL    HW138279   1.232   1.488   5.161 -0.3492  1.3893 -0.6512
 8882SOL    HW238280   1.383   1.505   5.193 -0.2722  0.6978 -0.6746
 8883SOL     OW38281   2.625   0.513   7.146 -0.0481 -0.2839 -0.2301
 8883SOL    HW138282   2.607   0.441   7.207  0.3395  0.6606  1.0113
 8883SOL    HW238283   2.581   0.591   7.180 -1.7427 -0.8882 -1.0788
 8884SOL     OW38284   0.749   1.334   6.626  0.3600 -0.0954  0.4798
 8884SOL    HW138285   0.783   1.258   6.674 -1.1789 -1.3758 -0.4450
 8884SOL    HW238286   0.714   1.389   6.696  0.4721 -0.2629  0.6677
 8885SOL     OW38287   2.304   1.969  12.257  0.2176 -0.2440 -0.0482
 8885SOL    HW138288   2.380   1.921  12.225 -0.8432 -1.4743 -0.7489
 8885SOL    HW238289   2.342   2.055  12.239  0.6294 -0.4280 -0.0634
 8886SOL     OW38290   3.763   0.858   2.907  0.5416 -0.1411 -0.3222
 8886SOL    HW138291   3.847   0.816   2.888 -0.2108 -1.3927 -0.8977
 8886SOL    HW238292   3.781   0.947   2.875 -3.2019  0.6330 -0.3242
 8887SOL     OW38293   3.836   2.634  16.119  0.3640  0.1040 -0.5573
 8887SOL    HW138294   3.744   2.607  16.123  1.1459 -2.6270 -1.0299
 8887SOL    HW238295   3.830   2.729  16.132 -0.5059 -0.2516  1.5647
 8888SOL     OW38296   0.444   3.529  12.738  0.6490  0.3352 -0.1462
 8888SOL    HW138297   0.454   3.616  12.699  1.9924  0.3515  0.2197
 8888SOL    HW238298   0.351   3.521  12.758  0.2945 -1.9032 -2.8186
 8889SOL     OW38299   0.311   0.129   7.308 -0.6782  0.2314 -0.4991
 8889SOL    HW138300   0.232   0.177   7.335 -0.3135  1.5135 -1.7503
 8889SOL    HW238301   0.315   0.070   7.384 -1.6545  0.9901  0.1438
 8890SOL     OW38302   2.851   0.182   7.043  0.2678  1.2852  0.0995
 8890SOL    HW138303   2.857   0.248   7.112 -0.6369  0.5677  0.8603
 8890SOL    HW238304   2.760   0.154   7.049  0.3008  1.7251  2.5016
 8891SOL     OW38305   0.683   0.651   7.012 -0.3371 -0.8246  0.0476
 8891SOL    HW138306   0.662   0.709   6.939 -0.8784 -2.5482 -1.1806
 8891SOL    HW238307   0.763   0.699   7.035  0.4480 -2.8113  1.4981
 8892SOL     OW38308   3.933   2.428   2.755  0.4250  0.3848  0.1383
 8892SOL    HW138309   4.023   2.397   2.769  0.5204  0.0041 -1.3901
 8892SOL    HW238310   3.888   2.394   2.832 -1.1636 -2.9636 -2.3031
 8893SOL     OW38311   0.175   1.405   5.653  0.2157 -0.5162 -0.2486
 8893SOL    HW138312   0.243   1.456   5.610 -1.3862  1.5794 -0.3050
 8893SOL    HW238313   0.204   1.402   5.744 -2.4559 -3.0063  0.5192
 8894SOL     OW38314   0.804   2.466   5.834  0.2674  0.2641  0.8885
 8894SOL    HW138315   0.711   2.486   5.841  0.4571  1.4696 -0.1153
 8894SOL    HW238316   0.794   2.371   5.837  0.9064  0.1312 -1.3174
 8895SOL     OW38317   1.598   3.809   7.449  0.1805  0.4321 -0.2050
 8895SOL    HW138318   1.534   3.761   7.502 -0.8177 -0.5963 -2.3731
 8895SOL    HW238319   1.623   3.876   7.512 -1.7813  0.2986  0.7071
 8896SOL     OW38320   3.158   4.176   8.617 -0.0823  0.1974  0.0751
 8896SOL    HW138321   3.094   4.110   8.593 -0.2891  0.6147 -0.5370
 8896SOL    HW238322   3.193   4.186   8.528 -2.1536  2.6324 -0.4840
 8897SOL     OW38323   3.721   4.054  12.287  0.1462 -0.3779 -0.2595
 8897SOL    HW138324   3.763   4.035  12.371 -2.2405  0.6543  1.1335
 8897SOL    HW238325   3.651   3.989  12.278 -1.0149  1.0198 -1.0943
 8898SOL     OW38326   3.994   0.719   7.123  0.2603  0.4460 -0.0385
 8898SOL    HW138327   4.016   0.626   7.119 -0.2641  0.2474  1.4273
 8898SOL    HW238328   3.946   0.723   7.041 -1.5580 -1.6791  0.9129
 8899SOL     OW38329   0.854   2.252  11.643 -0.0375  0.2290 -0.4050
 8899SOL    HW138330   0.929   2.311  11.641 -0.0675  0.3280  1.9376
 8899SOL    HW238331   0.825   2.270  11.553 -0.0150 -2.1831 -0.8990
 8900SOL     OW38332   4.395   0.046  12.956 -0.3869 -0.0851 -0.1615
 8900SOL    HW138333   4.431   0.004  13.034  1.9161 -1.7438 -2.1362
 8900SOL    HW238334   4.410   0.137  12.981  2.5580  0.0591 -2.3950
 8901SOL     OW38335   2.670   4.163   5.976 -0.3083 -0.5539  0.0934
 8901SOL    HW138336   2.679   4.248   5.934  4.1195 -1.1151 -0.1025
 8901SOL    HW238337   2.724   4.105   5.921 -1.9359 -0.3951 -1.6565
 8902SOL     OW38338   4.503   3.737   3.291  0.3994  0.5682 -0.0376
 8902SOL    HW138339   4.470   3.724   3.202  1.5303 -0.0966 -0.3612
 8902SOL    HW238340   4.581   3.790   3.273  0.5706  0.5131  0.5616
 8903SOL     OW38341   3.898   4.502   7.776  0.5356 -0.0159  0.5102
 8903SOL    HW138342   3.830   4.524   7.839 -0.0501 -1.7939  0.4943
 8903SOL    HW238343   3.939   4.586   7.752  1.8911 -1.4508 -2.2045
 8904SOL     OW38344   1.363   1.939  17.480 -0.4173  0.8282  0.5596
 8904SOL    HW138345   1.344   1.939  17.574 -2.2640 -1.0551  0.1797
 8904SOL    HW238346   1.309   2.013  17.451  1.4171  2.3118  0.9147
 8905SOL     OW38347   3.416   4.418   7.089  0.2072 -0.3178  0.5415
 8905SOL    HW138348   3.429   4.510   7.067  1.6952 -0.6059  0.2283
 8905SOL    HW238349   3.450   4.371   7.013  0.2534 -0.5373  0.6972
 8906SOL     OW38350   1.874   2.776   0.658  0.2976  0.7901 -0.2302
 8906SOL    HW138351   1.909   2.841   0.597  0.4319  0.5252 -0.4388
 8906SOL    HW238352   1.780   2.784   0.641  0.4299  1.6647 -0.5614
 8907SOL     OW38353   2.724   0.287   6.500  0.1541 -0.7676 -0.0864
 8907SOL    HW138354   2.673   0.339   6.438 -0.0933  0.2403  0.9524
 8907SOL    HW238355   2.778   0.355   6.540 -2.2024  0.5656  0.8527
 8908SOL     OW38356   4.344   3.228  13.358 -0.3361 -0.2552  0.3650
 8908SOL    HW138357   4.386   3.142  13.363 -1.0973 -0.6799 -0.4339
 8908SOL    HW238358   4.384   3.275  13.431 -0.6106  2.4208 -1.2198
 8909SOL     OW38359   1.602   1.083   5.955 -0.0608  0.5656 -0.5292
 8909SOL    HW138360   1.659   1.011   5.927  0.0983  0.8956 -1.0529
 8909SOL    HW238361   1.638   1.108   6.040 -0.9067  1.4917 -0.4445
 8910SOL     OW38362   2.992   0.126   8.382 -0.4779  0.5693 -0.6686
 8910SOL    HW138363   3.018   0.202   8.331  2.4329  0.0704  0.0702
 8910SOL    HW238364   2.955   0.057   8.327 -1.8195  0.4019  0.4645
 8911SOL     OW38365   1.623   3.803   1.035 -0.2166  0.1596 -0.4051
 8911SOL    HW138366   1.604   3.878   1.090 -0.5160 -0.6974  0.6469
 8911SOL    HW238367   1.541   3.754   1.040  0.4791 -0.7618  1.9739
 8912SOL     OW38368   1.159   0.501  13.391  0.4980 -0.5314 -0.4085
 8912SOL    HW138369   1.146   0.580  13.339 -0.2353  0.6492  1.6065
 8912SOL    HW238370   1.254   0.499  13.379  0.6719 -0.0715  0.9597
 8913SOL     OW38371   0.913   4.041  13.422  0.0683  0.5533 -1.1355
 8913SOL    HW138372   0.876   4.124  13.453 -1.3442 -0.8293  0.8770
 8913SOL    HW238373   0.852   4.044  13.348 -1.8791  1.6024  0.4894
 8914SOL     OW38374   2.698   2.608   7.599  0.5303 -0.3980 -0.3413
 8914SOL    HW138375   2.655   2.525   7.619 -0.6732  0.1956 -0.4885
 8914SOL    HW238376   2.653   2.673   7.653  1.8500 -0.9769  1.4651
 8915SOL     OW38377   1.701   2.307  16.482  0.0036  0.6391  0.4141
 8915SOL    HW138378   1.779   2.286  16.429 -0.7254  3.7647 -1.8954
 8915SOL    HW238379   1.658   2.363  16.418 -1.3973 -0.1924  0.6354
 8916SOL     OW38380   2.508   2.177  16.959  0.1608  0.8205  0.4399
 8916SOL    HW138381   2.463   2.100  16.995  0.6909  1.2901  2.1349
 8916SOL    HW238382   2.451   2.205  16.888  1.3786  2.3833  0.0808
 8917SOL     OW38383   0.860   3.412   4.539  1.0816  0.2185  0.3332
 8917SOL    HW138384   0.872   3.355   4.615 -0.6659  0.4728  0.7954
 8917SOL    HW238385   0.802   3.476   4.580  0.2809 -0.8129  0.8107
 8918SOL     OW38386   2.051   1.404   7.898  0.0086  0.8347  0.1500
 8918SOL    HW138387   2.143   1.430   7.907 -0.1722  2.3270 -2.2031
 8918SOL    HW238388   2.058   1.309   7.909 -1.6194  0.8703  1.4289
 8919SOL     OW38389   0.209   3.544   3.633  0.3213  0.1619  0.0534
 8919SOL    HW138390   0.266   3.610   3.593 -0.1253  2.3247  2.9687
 8919SOL    HW238391   0.119   3.568   3.611  0.5102  0.2566 -0.6152
 8920SOL     OW38392   2.592   1.902  13.552  0.4331 -0.4318 -0.3517
 8920SOL    HW138393   2.607   1.830  13.613 -1.7375 -0.7975 -0.2472
 8920SOL    HW238394   2.497   1.897  13.558  0.5271  0.3910  1.6727
 8921SOL     OW38395   2.213   0.008   3.818  0.7069  0.0029 -0.0255
 8921SOL    HW138396   2.249   4.661   3.784  2.8901 -0.0000  2.2725
 8921SOL    HW238397   2.281   0.073   3.803  1.9267 -1.0742  0.8885
 8922SOL     OW38398   3.483   0.383  11.377  0.0713 -0.0737 -1.1128
 8922SOL    HW138399   3.440   0.418  11.455  1.5333 -0.4851 -0.1178
 8922SOL    HW238400   3.546   0.453  11.364 -0.7741  0.9231  0.1504
 8923SOL     OW38401   4.171   0.085   4.913  0.0532  0.6797 -0.2802
 8923SOL    HW138402   4.130   0.000   4.933  1.0391  0.0410 -0.9549
 8923SOL    HW238403   4.173   0.093   4.818 -0.1598 -0.2960 -0.3680
 8924SOL     OW38404   0.647   0.964   5.663  0.0622 -0.1115  0.7228
 8924SOL    HW138405   0.658   0.946   5.757  0.4187  1.8789  1.0695
 8924SOL    HW238406   0.698   1.043   5.643  1.4676 -1.2782 -0.3099
 8925SOL     OW38407   0.131   4.011  17.154  0.4548 -0.5897 -0.3197
 8925SOL    HW138408   0.050   3.959  17.161 -0.6772  0.9130 -2.3559
 8925SOL    HW238409   0.100   4.095  17.185 -1.0180 -1.8668  1.6641
 8926SOL     OW38410   1.275   0.166  11.326 -0.3209  0.8063  0.1201
 8926SOL    HW138411   1.353   0.131  11.284  0.7670  1.8823  1.2511
 8926SOL    HW238412   1.214   0.158  11.253 -0.6132  1.8008  0.2573
 8927SOL     OW38413   1.355   1.231  12.256  0.4174  0.4787 -0.1167
 8927SOL    HW138414   1.433   1.259  12.209 -0.2562  2.6316  0.0702
 8927SOL    HW238415   1.293   1.260  12.189  1.4228 -0.9319 -1.6608
 8928SOL     OW38416   0.208   4.578  10.955 -0.1407 -0.0780 -0.7144
 8928SOL    HW138417   0.267   4.643  10.992 -0.0454 -0.1884 -0.6721
 8928SOL    HW238418   0.238   4.562  10.865  1.6855  0.4068 -0.1907
 8929SOL     OW38419   1.972   2.811   7.658 -0.1975 -0.1772 -0.1406
 8929SOL    HW138420   1.986   2.729   7.609 -1.6409 -0.4611 -0.0992
 8929SOL    HW238421   1.947   2.769   7.741  0.3869  0.1216  0.1839
 8930SOL     OW38422   1.854   4.374   1.254 -0.1155 -0.1241 -0.2964
 8930SOL    HW138423   1.781   4.435   1.268 -1.0777 -1.5222  0.8683
 8930SOL    HW238424   1.816   4.296   1.295 -0.6785  1.5837  2.4044
 8931SOL     OW38425   1.785   2.921   6.375 -0.2976  0.1196  0.0477
 8931SOL    HW138426   1.791   2.981   6.300 -1.6385 -0.4415 -0.5180
 8931SOL    HW238427   1.852   2.966   6.427  1.1584 -1.7641 -0.1959
 8932SOL     OW38428   2.108   2.705   5.196  0.4223  0.0049  0.4894
 8932SOL    HW138429   2.101   2.741   5.284 -0.9623  1.1133 -0.0720
 8932SOL    HW238430   2.015   2.701   5.173  0.9989 -2.1556 -1.4235
 8933SOL     OW38431   3.997   4.542   4.309 -0.2616  0.0250  0.0704
 8933SOL    HW138432   4.062   4.596   4.265  2.4804 -1.0927  2.8239
 8933SOL    HW238433   3.948   4.616   4.345  0.1956  2.1731 -3.6612
 8934SOL     OW38434   3.288   1.488   9.642  0.2121 -0.3929 -0.7381
 8934SOL    HW138435   3.288   1.427   9.717 -0.0084 -0.7273 -1.0089
 8934SOL    HW238436   3.381   1.493   9.620  1.0012 -0.8206  2.4579
 8935SOL     OW38437   1.094   2.858   2.446 -0.2006  0.5904 -0.4980
 8935SOL    HW138438   1.072   2.765   2.441 -0.2231  0.4737  1.9773
 8935SOL    HW238439   1.046   2.894   2.371 -0.8497  1.9929  0.5879
 8936SOL     OW38440   3.369   2.330   8.895  0.5429 -0.2390 -0.4910
 8936SOL    HW138441   3.451   2.291   8.924  0.7017 -0.1818 -0.8570
 8936SOL    HW238442   3.411   2.377   8.823  0.1295  2.0441  0.7491
 8937SOL     OW38443   0.052   3.398  13.372  0.0492  0.6972  0.1168
 8937SOL    HW138444   0.130   3.442  13.405 -0.6779  4.2367 -3.0294
 8937SOL    HW238445   0.072   3.386  13.280  1.5528  1.7088  0.3154
 8938SOL     OW38446   3.107   2.667   2.911 -0.0464  0.1626  0.4815
 8938SOL    HW138447   3.081   2.754   2.879 -0.6519 -0.5677 -1.0123
 8938SOL    HW238448   3.189   2.676   2.960  0.1821  3.0775 -0.4168
 8939SOL     OW38449   4.647   1.065   8.674 -0.1182 -0.0705 -0.0641
 8939SOL    HW138450   4.578   1.025   8.728 -1.4210 -0.1407 -1.7970
 8939SOL    HW238451   4.629   1.018   8.592 -2.3550  1.0608 -0.2150
 8940SOL     OW38452   3.840   3.645   3.702 -0.0753  0.3439  0.2154
 8940SOL    HW138453   3.911   3.590   3.667 -1.5954 -1.2148 -0.4402
 8940SOL    HW238454   3.833   3.605   3.789  1.7766 -0.0605  0.1942
 8941SOL     OW38455   0.421   2.245   0.852  0.1587  0.0585 -0.1835
 8941SOL    HW138456   0.364   2.169   0.862 -0.7206  0.6498 -0.7559
 8941SOL    HW238457   0.501   2.198   0.829  0.7130  1.2655 -0.7224
 8942SOL     OW38458   4.710   0.399   8.445  0.0032  0.2400 -0.1774
 8942SOL    HW138459   4.616   0.401   8.464  0.4860 -1.9942  2.4555
 8942SOL    HW238460   0.002   0.471   8.503 -0.1197  0.3087 -0.2058
 8943SOL     OW38461   2.897   1.818  17.578 -0.3922  0.2096 -0.0242
 8943SOL    HW138462   2.968   1.823  17.514 -0.4525 -2.7973 -0.3422
 8943SOL    HW238463   2.906   1.726  17.604 -0.8951  0.1409 -0.1083
 8944SOL     OW38464   1.313   0.545   8.454 -0.0793  0.1626 -0.4796
 8944SOL    HW138465   1.328   0.450   8.451 -0.3614  0.0775  1.1672
 8944SOL    HW238466   1.290   0.563   8.545  1.6636  1.3013 -0.2575
 8945SOL     OW38467   2.053   0.119   5.832  0.9878  0.2815  0.1078
 8945SOL    HW138468   2.010   0.052   5.778  0.6331  0.4163  0.2222
 8945SOL    HW238469   2.068   0.092   5.922  1.1232  1.5173  0.4493
 8946SOL     OW38470   1.209   4.097   7.009  0.1414 -0.0875  0.1940
 8946SOL    HW138471   1.297   4.059   6.996  1.0146  1.3526  1.9147
 8946SOL    HW238472   1.161   4.029   6.962  1.0524 -0.0160 -0.8503
 8947SOL     OW38473   3.944   3.238   3.609  0.9340  0.4851  0.7820
 8947SOL    HW138474   3.959   3.325   3.644  4.1749 -0.1291  0.9315
 8947SOL    HW238475   4.026   3.189   3.619 -1.0632 -2.7189  1.7399
 8948SOL     OW38476   0.235   1.919   8.250 -0.5238  0.0316 -0.1545
 8948SOL    HW138477   0.311   1.863   8.232  0.2779 -0.1187  3.6289
 8948SOL    HW238478   0.253   2.004   8.210 -0.4355 -0.5586 -1.3613
 8949SOL     OW38479   0.650   2.739   2.853 -0.6054 -0.0518 -0.3326
 8949SOL    HW138480   0.615   2.741   2.764 -0.6271  0.1505 -0.3214
 8949SOL    HW238481   0.718   2.807   2.845  1.6542 -2.2754 -0.0687
 8950SOL     OW38482   3.520   1.367   4.216 -0.5764 -0.5661 -0.0431
 8950SOL    HW138483   3.502   1.377   4.123  0.6909 -0.7517 -0.3048
 8950SOL    HW238484   3.572   1.446   4.229  2.6419 -2.8392  0.8102
 8951SOL     OW38485   3.872   0.195   2.845 -0.1824 -0.6311 -0.4895
 8951SOL    HW138486   3.822   0.262   2.893 -0.7000 -0.7841 -0.8087
 8951SOL    HW238487   3.825   0.179   2.763  1.6534  0.5012 -1.7448
 8952SOL     OW38488   1.183   2.226   3.506 -0.3006  0.5460  0.5031
 8952SOL    HW138489   1.238   2.304   3.506  2.8849 -1.7100  1.4460
 8952SOL    HW238490   1.110   2.254   3.562  0.2768  0.4420  1.2998
 8953SOL     OW38491   3.054   0.316   6.914 -0.1068  0.3178 -0.0018
 8953SOL    HW138492   3.035   0.409   6.900  1.4317  0.5787 -0.2966
 8953SOL    HW238493   2.978   0.285   6.962  0.3448 -0.1285  0.4138
 8954SOL     OW38494   3.894   2.343   3.419 -0.6008 -0.0148 -0.3657
 8954SOL    HW138495   3.865   2.421   3.371  0.7934 -0.9342 -2.7227
 8954SOL    HW238496   3.845   2.351   3.500  0.1280 -2.5752  0.3437
 8955SOL     OW38497   2.734   2.448   4.934  0.7248  0.6374 -1.0930
 8955SOL    HW138498   2.663   2.405   4.886 -0.1944  2.1064 -1.0260
 8955SOL    HW238499   2.717   2.437   5.028 -0.2599  0.6050 -1.2697
 8956SOL     OW38500   1.326   2.244   2.689  0.1647 -0.3441  0.4490
 8956SOL    HW138501   1.270   2.258   2.612  0.8921 -1.4845 -0.2885
 8956SOL    HW238502   1.333   2.334   2.721  0.9838 -1.1639  2.5602
 8957SOL     OW38503   1.856   3.479   2.788  0.1624 -0.1072 -0.0908
 8957SOL    HW138504   1.929   3.463   2.847  0.3747  0.1678 -0.2796
 8957SOL    HW238505   1.790   3.518   2.845  2.7587  0.0675  2.8058
 8958SOL     OW38506   4.017   4.518   0.142 -0.0817  0.3125  0.8761
 8958SOL    HW138507   4.010   4.478   0.229  0.4153 -1.7125 -0.0218
 8958SOL    HW238508   4.075   4.592   0.159  0.9945 -0.7391  1.7918
 8959SOL     OW38509   1.254   1.250   8.444 -0.3050 -0.1340  0.6025
 8959SOL    HW138510   1.283   1.160   8.428 -0.1307  0.1834 -0.8429
 8959SOL    HW238511   1.311   1.278   8.516 -0.1919  0.4532  0.2874
 8960SOL     OW38512   1.962   0.859   8.359 -0.5065  0.1292  0.2559
 8960SOL    HW138513   2.022   0.874   8.432 -0.2066 -1.5290  0.3462
 8960SOL    HW238514   2.022   0.881   8.288 -1.4039 -1.0359 -0.8538
 8961SOL     OW38515   3.173   3.853   4.447 -0.6749 -0.0011  0.4924
 8961SOL    HW138516   3.101   3.809   4.402 -1.1493 -0.9265  2.1825
 8961SOL    HW238517   3.188   3.928   4.390 -1.2595  0.6766  1.2320
 8962SOL     OW38518   2.763   2.124   5.464  0.0832 -0.2265 -0.4962
 8962SOL    HW138519   2.699   2.160   5.526 -0.8028 -0.9260 -1.0070
 8962SOL    HW238520   2.760   2.029   5.479  0.6272  0.0513  1.3816
 8963SOL     OW38521   2.193   2.399   8.193  1.2714 -0.3824  0.4189
 8963SOL    HW138522   2.188   2.364   8.104  0.2723 -1.2041  0.7952
 8963SOL    HW238523   2.129   2.468   8.173  0.0719 -1.4727  0.5048
 8964SOL     OW38524   0.018   3.042   5.287  0.0662  0.0546  0.6203
 8964SOL    HW138525   0.099   3.008   5.250 -1.9674 -2.4075 -1.5018
 8964SOL    HW238526   4.722   3.071   5.202  0.1515  1.5542  1.0928
 8965SOL     OW38527   0.376   2.039  17.299  0.0066 -0.1333  0.0850
 8965SOL    HW138528   0.299   2.050  17.243 -0.4370 -3.1167  0.1264
 8965SOL    HW238529   0.363   1.951  17.333 -1.4326  0.4940  1.1696
 8966SOL     OW38530   0.038   4.436   5.049 -0.0206  0.0480 -0.0755
 8966SOL    HW138531   4.715   4.452   4.975 -1.5221  2.5066  1.6287
 8966SOL    HW238532   4.708   4.433   5.119  0.9948 -1.1420  0.8374
 8967SOL     OW38533   2.453   2.034  14.909  0.0461 -0.1893  0.4592
 8967SOL    HW138534   2.486   2.088  14.837  0.3061 -1.4610 -0.3774
 8967SOL    HW238535   2.504   1.953  14.898  2.5831  1.5477 -0.7186
 8968SOL     OW38536   4.380   1.174  11.697 -0.1769 -0.4933  0.1226
 8968SOL    HW138537   4.408   1.100  11.644  1.0032  0.8205 -1.0813
 8968SOL    HW238538   4.335   1.223  11.628  1.9578  1.0923 -0.1090
 8969SOL     OW38539   1.636   0.595   0.462 -0.2994 -0.2452  0.0847
 8969SOL    HW138540   1.541   0.586   0.451 -0.2090  0.5873 -1.3727
 8969SOL    HW238541   1.670   0.605   0.373 -0.8874 -0.4078 -0.1558
 8970SOL     OW38542   0.395   2.441   4.074 -0.4234 -0.1036 -0.1210
 8970SOL    HW138543   0.423   2.352   4.056 -2.4541 -0.3843 -1.9052
 8970SOL    HW238544   0.307   2.427   4.039 -0.5278 -2.0548  0.9488
 8971SOL     OW38545   1.581   3.301   4.910 -0.3213  0.4006 -0.2182
 8971SOL    HW138546   1.635   3.299   4.831 -2.1717 -0.8353 -1.4843
 8971SOL    HW238547   1.566   3.207   4.922  0.2339  0.3759  0.2397
 8972SOL     OW38548   4.068   3.164   6.929  0.8226 -0.0575 -0.3637
 8972SOL    HW138549   4.074   3.256   6.903 -2.2671 -0.2659 -1.9025
 8972SOL    HW238550   4.138   3.149   6.993  2.4751 -0.9259 -2.3791
 8973SOL     OW38551   2.608   0.531   5.145 -0.1164  0.0998 -0.0391
 8973SOL    HW138552   2.516   0.534   5.118  0.1254  1.8660 -0.6373
 8973SOL    HW238553   2.621   0.574   5.229  1.3862  1.0870 -0.7827
 8974SOL     OW38554   0.081   2.289   0.070  0.2256 -0.4847 -0.0193
 8974SOL    HW138555   0.116   2.247   0.149  0.3904 -0.5289 -0.1147
 8974SOL    HW238556   0.157   2.279   0.012 -0.2843 -1.0438 -0.5816
 8975SOL     OW38557   1.465   1.490  16.917 -0.0306 -0.2687 -0.1023
 8975SOL    HW138558   1.422   1.407  16.894  0.0024  0.3238 -2.2579
 8975SOL    HW238559   1.540   1.469  16.863 -0.6922 -1.7186 -0.4585
 8976SOL     OW38560   2.599   3.695   7.163  0.5973  0.0157  1.0030
 8976SOL    HW138561   2.671   3.744   7.124 -0.2647  1.4717  1.2296
 8976SOL    HW238562   2.634   3.685   7.252  0.5634  1.1466  1.1381
 8977SOL     OW38563   1.903   0.539  13.438  0.2365 -0.3402  0.5029
 8977SOL    HW138564   1.812   0.534  13.406  0.0163  0.2069  1.0343
 8977SOL    HW238565   1.898   0.623  13.484  1.9131 -0.2879  0.5682
 8978SOL     OW38566   2.902   2.821   2.035  0.1490 -0.2210  0.2768
 8978SOL    HW138567   2.910   2.916   2.042 -1.7528 -0.0480  0.0278
 8978SOL    HW238568   2.986   2.797   2.076 -0.0515  0.6198  1.1915
 8979SOL     OW38569   3.121   4.260   6.375  0.1083 -0.4025  0.3873
 8979SOL    HW138570   3.172   4.252   6.455  1.4755 -0.8961 -0.5350
 8979SOL    HW238571   3.053   4.193   6.387 -0.8740  0.7596  1.3723
 8980SOL     OW38572   1.222   0.194   3.455  0.1498  0.4757 -0.7942
 8980SOL    HW138573   1.315   0.174   3.459 -0.1604 -0.7608  0.2526
 8980SOL    HW238574   1.203   0.127   3.389 -0.4317 -0.1287 -0.0176
 8981SOL     OW38575   1.853   0.768  13.586 -0.2005 -0.1165 -0.1011
 8981SOL    HW138576   1.814   0.747  13.670 -3.3562 -1.7236 -1.9728
 8981SOL    HW238577   1.897   0.849  13.611  0.3857  0.1590 -1.9924
 8982SOL     OW38578   1.477   3.851  11.784  0.3719 -0.1636 -0.5383
 8982SOL    HW138579   1.413   3.831  11.853  1.3085 -0.2687  0.3050
 8982SOL    HW238580   1.526   3.769  11.784  0.3482 -0.1777 -0.6017
 8983SOL     OW38581   1.289   2.475   2.346 -0.2165 -0.4779 -0.0023
 8983SOL    HW138582   1.276   2.520   2.429  0.7843 -0.8532  0.3501
 8983SOL    HW238583   1.200   2.458   2.314 -0.3526 -0.6422  0.4637
 8984SOL     OW38584   3.072   3.131   0.109  0.5015 -0.1910 -0.3853
 8984SOL    HW138585   2.979   3.145   0.093  0.1836 -0.1476  1.4948
 8984SOL    HW238586   3.086   3.037   0.125  0.9147 -0.0224  0.2315
 8985SOL     OW38587   3.420   2.858  16.892  0.1963 -1.0710  0.2068
 8985SOL    HW138588   3.454   2.885  16.807  0.7166 -1.6889  0.2139
 8985SOL    HW238589   3.363   2.931  16.915  1.4570 -0.0524  0.1177
 8986SOL     OW38590   0.552   2.231  11.537  0.1451  0.0876 -0.2930
 8986SOL    HW138591   0.520   2.180  11.611 -0.9239 -0.0889 -0.8829
 8986SOL    HW238592   0.519   2.318  11.559  1.3901  0.1728  1.2723
 8987SOL     OW38593   4.113   1.478  12.149 -0.4069 -0.2351 -0.4433
 8987SOL    HW138594   4.024   1.512  12.148 -1.3187 -2.6660 -0.8447
 8987SOL    HW238595   4.106   1.383  12.148  0.1439 -0.2861 -0.1483
 8988SOL     OW38596   1.150   0.145   3.057  0.2826  0.5996  0.8291
 8988SOL    HW138597   1.228   0.184   3.019  0.0056 -0.9861 -1.3872
 8988SOL    HW238598   1.122   0.101   2.977 -1.3825  1.6937  0.7890
 8989SOL     OW38599   2.578   0.751   9.200 -0.3959 -0.4387  0.8880
 8989SOL    HW138600   2.589   0.807   9.123  0.7056  0.5575  1.7776
 8989SOL    HW238601   2.615   0.806   9.269  2.0334 -1.7994  0.6463
 8990SOL     OW38602   4.695   2.376   6.500  0.4757 -0.0444  0.0964
 8990SOL    HW138603   4.709   2.387   6.594  0.0228  0.6572  0.0838
 8990SOL    HW238604   4.708   2.282   6.496 -1.7254 -0.1907 -4.1778
 8991SOL     OW38605   4.429   0.116   8.348  0.2004 -0.0232 -0.0030
 8991SOL    HW138606   4.423   0.207   8.377 -0.5850 -0.4137  1.0633
 8991SOL    HW238607   4.481   0.123   8.268 -1.6804 -3.3915 -1.5093
 8992SOL     OW38608   3.299   4.295   5.871 -0.1954 -0.1790  0.0488
 8992SOL    HW138609   3.320   4.359   5.938  0.9231 -0.2333 -0.2525
 8992SOL    HW238610   3.289   4.356   5.798 -0.3473 -0.4538 -0.1632
 8993SOL     OW38611   4.380   0.952  13.874 -0.5359 -0.2836  0.6047
 8993SOL    HW138612   4.297   0.909  13.854  0.2604 -1.2408 -0.6424
 8993SOL    HW238613   4.353   1.036  13.913 -0.2392  0.9704 -1.8852
 8994SOL     OW38614   1.760   2.002   5.392 -0.2907 -0.4527 -0.0166
 8994SOL    HW138615   1.825   1.975   5.457  1.7151 -0.1818 -1.8929
 8994SOL    HW238616   1.788   1.970   5.306  0.3114 -0.0011  0.0101
 8995SOL     OW38617   4.150   3.091   5.963 -0.1643  0.2459 -0.5327
 8995SOL    HW138618   4.174   3.056   5.877 -0.1592 -0.8371 -0.0895
 8995SOL    HW238619   4.199   3.029   6.016  0.2966  1.8228  0.8731
 8996SOL     OW38620   3.380   3.001   5.617 -0.7979  0.0207 -0.2688
 8996SOL    HW138621   3.372   2.998   5.522  0.9809  0.4096 -0.4425
 8996SOL    HW238622   3.304   3.052   5.643  0.5439  3.9516 -4.2252
 8997SOL     OW38623   3.392   3.602   6.978  0.1234 -0.1081 -0.4775
 8997SOL    HW138624   3.427   3.665   6.915  0.4247 -1.4225 -1.6092
 8997SOL    HW238625   3.471   3.585   7.028 -0.0040 -2.1624 -0.9948
 8998SOL     OW38626   4.669   0.827   4.693 -0.8219  0.2711 -0.4211
 8998SOL    HW138627   4.625   0.763   4.636 -2.1674  0.9175 -0.1031
 8998SOL    HW238628   4.663   0.792   4.782 -1.7004  2.3232  0.3038
 8999SOL     OW38629   0.882   0.714   4.448 -0.0696 -0.1247 -0.3221
 8999SOL    HW138630   0.931   0.632   4.451 -0.0674 -0.2373 -3.2812
 8999SOL    HW238631   0.960   0.769   4.439 -0.3819  0.1285 -1.4495
 9000SOL     OW38632   1.099   2.779   9.618  0.4137  0.0807 -0.4439
 9000SOL    HW138633   1.058   2.692   9.622  2.5820 -0.8867  1.1408
 9000SOL    HW238634   1.027   2.835   9.647  1.4404  0.6377  0.9916
 9001SOL     OW38635   4.101   0.788   8.949  0.7041 -1.1716 -0.2980
 9001SOL    HW138636   4.017   0.773   8.993  1.0603  0.1305  0.8541
 9001SOL    HW238637   4.152   0.731   9.007  0.0459  0.0790  1.5198
 9002SOL     OW38638   4.067   2.479   8.821 -0.0637  0.6260 -0.6145
 9002SOL    HW138639   4.009   2.541   8.779 -0.2841 -0.8612 -2.4865
 9002SOL    HW238640   4.132   2.481   8.751  1.3521 -5.4058  0.4753
 9003SOL     OW38641   4.474   3.295   6.254  0.3130  0.2587  0.3399
 9003SOL    HW138642   4.563   3.316   6.226 -0.0560  0.7688 -0.4559
 9003SOL    HW238643   4.418   3.314   6.179  2.1075 -0.5356 -1.2263
 9004SOL     OW38644   0.156   2.828   2.211  0.2532 -0.0550  0.1354
 9004SOL    HW138645   0.077   2.814   2.158 -1.1053  1.3211  1.8341
 9004SOL    HW238646   0.122   2.904   2.257  1.1037 -0.4428  1.3957
 9005SOL     OW38647   4.581   4.551   8.981  0.2628  0.1785  0.0505
 9005SOL    HW138648   4.537   4.482   8.932  0.5223 -0.4749  0.7375
 9005SOL    HW238649   4.501   4.596   9.007  0.2107  1.1996 -1.9134
 9006SOL     OW38650   3.430   2.950   2.365  0.0970  0.2815 -0.2248
 9006SOL    HW138651   3.471   2.935   2.450  0.4619  2.0489 -0.0923
 9006SOL    HW238652   3.450   3.041   2.344  0.0914  0.2972 -0.1618
 9007SOL     OW38653   3.996   4.304   3.593 -0.0774  0.7709  0.2161
 9007SOL    HW138654   3.940   4.263   3.526 -0.5382  1.2838  0.2893
 9007SOL    HW238655   3.936   4.320   3.665  0.6390  0.6512  0.8421
 9008SOL     OW38656   0.509   0.599  15.189  0.3284  0.2277 -0.4434
 9008SOL    HW138657   0.416   0.602  15.169  0.7082  1.4305 -2.0897
 9008SOL    HW238658   0.529   0.686  15.154 -3.9940  0.6608 -1.8033
 9009SOL     OW38659   3.236   2.878   3.221 -0.4407  0.2042 -0.0417
 9009SOL    HW138660   3.181   2.886   3.299 -1.4224  1.8853 -0.9028
 9009SOL    HW238661   3.199   2.944   3.162  0.8640 -0.4860 -1.6231
 9010SOL     OW38662   1.276   2.062   1.734 -0.6293 -0.1240  0.0173
 9010SOL    HW138663   1.354   2.007   1.729  0.5726  1.3151  2.9729
 9010SOL    HW238664   1.304   2.113   1.810 -1.8952 -0.8496  0.9766
 9011SOL     OW38665   2.049   3.781   4.016  0.1419 -0.4062 -0.0562
 9011SOL    HW138666   2.094   3.781   3.931  2.0533 -0.4809  0.9648
 9011SOL    HW238667   2.054   3.873   4.041 -0.4476 -0.2546 -0.5068
 9012SOL     OW38668   0.077   1.316   3.445 -0.0517  0.4951 -0.3749
 9012SOL    HW138669   0.135   1.281   3.377  0.9613  2.2991 -0.4453
 9012SOL    HW238670   0.117   1.401   3.459 -0.2773  0.7277 -1.1416
 9013SOL     OW38671   4.400   1.710  11.897  0.1207  0.2168  0.2277
 9013SOL    HW138672   4.310   1.693  11.925  0.6852  0.4003  2.1677
 9013SOL    HW238673   4.422   1.628  11.853 -0.6361 -0.9684  2.0637
 9014SOL     OW38674   3.637   3.205   3.124  0.1387 -0.2226  0.3474
 9014SOL    HW138675   3.668   3.281   3.075 -0.2019  0.1975  0.7893
 9014SOL    HW238676   3.675   3.223   3.210  1.4451 -2.2184  0.1831
 9015SOL     OW38677   4.125   0.849   2.900 -0.0027  0.1150  0.6282
 9015SOL    HW138678   4.091   0.930   2.937  0.2625  1.1627 -1.4424
 9015SOL    HW238679   4.191   0.870   2.834 -0.0714 -0.0773  0.4978
 9016SOL     OW38680   3.402   3.940   7.937  0.4525  0.3455  0.6849
 9016SOL    HW138681   3.354   3.964   7.858  0.8263 -2.7608 -0.4636
 9016SOL    HW238682   3.323   3.935   7.990 -0.6331 -1.1029 -1.0756
 9017SOL     OW38683   1.652   1.445   4.638 -0.2889 -0.3615 -0.6424
 9017SOL    HW138684   1.628   1.456   4.730  0.5916 -1.7674 -0.2645
 9017SOL    HW238685   1.683   1.535   4.623  0.7061 -0.4199  1.0381
 9018SOL     OW38686   0.139   2.515   2.069 -0.0452 -0.0709  0.8374
 9018SOL    HW138687   0.064   2.549   2.118 -1.5250 -3.1703  0.7301
 9018SOL    HW238688   0.102   2.464   1.997 -3.1398 -0.2751  2.5598
 9019SOL     OW38689   4.267   1.148  14.023  0.2479  0.5525 -0.3824
 9019SOL    HW138690   4.283   1.098  14.103 -1.0417 -0.3608 -0.6988
 9019SOL    HW238691   4.193   1.200  14.054  0.4307  0.3923  0.3316
 9020SOL     OW38692   1.391   1.322   0.352  0.4003 -0.0770 -0.0849
 9020SOL    HW138693   1.418   1.377   0.278 -0.9495 -0.2375 -0.6946
 9020SOL    HW238694   1.458   1.318   0.421  1.5410 -0.6514 -1.2196
 9021SOL     OW38695   0.506   1.013   5.303  0.3546  0.0921  0.1913
 9021SOL    HW138696   0.446   1.074   5.346 -0.7749 -0.3492 -0.7572
 9021SOL    HW238697   0.460   0.930   5.316  2.1102 -0.8727  0.2065
 9022SOL     OW38698   2.693   0.999  13.168 -0.2062 -0.1485  0.5331
 9022SOL    HW138699   2.670   0.908  13.148  1.6058 -0.4188 -0.2493
 9022SOL    HW238700   2.667   1.029  13.081 -1.4975 -1.5448  0.4336
 9023SOL     OW38701   3.737   4.596  10.335 -0.5496 -0.2183 -0.1044
 9023SOL    HW138702   3.745   4.690  10.355  1.5600 -0.3839 -0.1621
 9023SOL    HW238703   3.699   4.603  10.248  0.7556  1.7676 -0.5151
 9024SOL     OW38704   1.321   4.008   5.239  0.1429 -0.5119  0.6074
 9024SOL    HW138705   1.231   4.038   5.225  0.9678  2.8821  2.5596
 9024SOL    HW238706   1.333   3.930   5.186 -2.0897 -2.7362  3.3763
 9025SOL     OW38707   0.931   3.614  14.739  0.4406  0.0322  0.2576
 9025SOL    HW138708   0.848   3.569  14.757  0.0189  1.0915  0.9307
 9025SOL    HW238709   0.981   3.596  14.818  1.7140  1.8436 -0.1418
 9026SOL     OW38710   2.470   0.315  13.748  0.3579 -0.1578  0.2464
 9026SOL    HW138711   2.533   0.248  13.773 -0.1317 -0.6327  0.2136
 9026SOL    HW238712   2.509   0.336  13.662 -1.2789 -1.2783 -0.7731
 9027SOL     OW38713   3.785   1.505   2.919 -0.0007 -0.0580 -0.0203
 9027SOL    HW138714   3.695   1.473   2.931 -0.5156  1.8096  1.2052
 9027SOL    HW238715   3.823   1.455   2.848  1.3100  1.9006 -0.7018
 9028SOL     OW38716   3.229   2.319   4.091 -0.0130 -0.3840  0.0628
 9028SOL    HW138717   3.153   2.363   4.054 -0.3252  0.4992  1.7480
 9028SOL    HW238718   3.198   2.231   4.112  1.0444 -0.8985 -0.5273
 9029SOL     OW38719   1.188   4.589   5.469 -0.0547 -0.8171  0.3292
 9029SOL    HW138720   1.145   4.659   5.518  1.0759  0.6046 -0.7096
 9029SOL    HW238721   1.217   4.635   5.390 -3.4386  1.8817  0.6781
 9030SOL     OW38722   4.197   1.660  15.731 -0.1422 -0.6594 -0.6307
 9030SOL    HW138723   4.279   1.673  15.779  0.0039 -2.7966 -0.2863
 9030SOL    HW238724   4.175   1.751  15.714  0.7355  0.0204  1.8956
 9031SOL     OW38725   0.993   0.942   5.178  0.1864  0.2482 -0.2722
 9031SOL    HW138726   0.928   0.984   5.234  0.2530 -1.2042  0.8809
 9031SOL    HW238727   1.070   0.974   5.225  0.6003  2.0265 -2.1541
 9032SOL     OW38728   0.722   4.013   8.270  0.4466  0.2796  0.1762
 9032SOL    HW138729   0.816   3.998   8.255  0.0663 -1.7387 -0.2448
 9032SOL    HW238730   0.688   3.935   8.226 -2.0251  2.2136 -1.2670
 9033SOL     OW38731   0.145   3.552   4.306 -0.7512 -0.2714  0.3039
 9033SOL    HW138732   0.159   3.566   4.400  0.4525  1.5137 -0.1424
 9033SOL    HW238733   0.216   3.605   4.270 -1.6450 -2.1194 -4.1740
 9034SOL     OW38734   1.632   1.330   3.968 -0.4274  0.3331 -0.6006
 9034SOL    HW138735   1.675   1.299   4.048 -1.0218  2.4921  0.5584
 9034SOL    HW238736   1.566   1.264   3.951  0.5127 -1.4438  2.6368
 9035SOL     OW38737   2.503   1.353   7.757 -0.3764  0.0025 -0.0417
 9035SOL    HW138738   2.553   1.312   7.827  0.2795  2.0099  0.6700
 9035SOL    HW238739   2.433   1.287   7.750  0.6950 -1.1109 -0.2440
 9036SOL     OW38740   2.148   0.118   4.323  0.1411 -0.3554 -0.0299
 9036SOL    HW138741   2.188   0.182   4.382 -1.0484  0.9827 -0.6941
 9036SOL    HW238742   2.201   0.122   4.243 -1.7412  1.0101 -1.1806
 9037SOL     OW38743   2.393   3.944   2.686 -0.2939  0.1766  0.4603
 9037SOL    HW138744   2.316   3.907   2.643  0.5706  0.5541 -1.4187
 9037SOL    HW238745   2.434   3.986   2.611 -1.0777 -1.0355 -0.6377
 9038SOL     OW38746   1.586   0.728   5.107 -0.0452  0.2051 -0.0486
 9038SOL    HW138747   1.659   0.667   5.093  1.4253  2.1708 -0.9178
 9038SOL    HW238748   1.526   0.705   5.036 -1.5871 -0.3485  1.4433
 9039SOL     OW38749   4.549   2.292   3.781  0.3191 -0.1221 -0.3975
 9039SOL    HW138750   4.603   2.306   3.859  2.7823 -1.9561 -1.7975
 9039SOL    HW238751   4.489   2.367   3.778  2.7531  1.8505  0.0035
 9040SOL     OW38752   3.367   1.840  14.717 -0.2970 -0.0075 -1.1255
 9040SOL    HW138753   3.455   1.863  14.688  0.2877 -0.0160  0.6989
 9040SOL    HW238754   3.392   1.811  14.804 -2.5908 -0.7814 -0.7318
 9041SOL     OW38755   2.058   1.849   8.331 -0.0631  0.4711  0.6148
 9041SOL    HW138756   2.087   1.788   8.263 -0.0115 -0.5532  1.5519
 9041SOL    HW238757   2.042   1.784   8.399 -2.2048 -1.0335 -1.3273
 9042SOL     OW38758   1.846   1.217   9.207  0.2499 -0.1573  0.4109
 9042SOL    HW138759   1.897   1.294   9.181  0.3002 -0.3063  0.0697
 9042SOL    HW238760   1.788   1.217   9.132  0.8540 -1.2785 -0.0589
 9043SOL     OW38761   4.490   3.942   9.191 -0.4968 -0.3948  0.3463
 9043SOL    HW138762   4.493   3.981   9.104 -0.1827  1.2515  1.0865
 9043SOL    HW238763   4.517   3.854   9.165 -2.7886 -0.7113 -0.8627
 9044SOL     OW38764   3.542   4.698   4.956  0.1803 -0.0455  0.1559
 9044SOL    HW138765   3.532   0.053   4.925  1.1832  0.5749  1.6266
 9044SOL    HW238766   3.609   4.702   5.024 -2.0170 -1.5157  2.3921
 9045SOL     OW38767   0.465   0.195   4.113 -0.0873 -0.4025 -0.2338
 9045SOL    HW138768   0.509   0.270   4.072 -1.9056  0.1721 -1.1446
 9045SOL    HW238769   0.453   0.137   4.039  0.4056 -2.3092  1.1758
 9046SOL     OW38770   1.736   0.644   2.648 -0.5054 -0.2175  0.1292
 9046SOL    HW138771   1.652   0.679   2.619 -1.2915 -1.7702  0.5453
 9046SOL    HW238772   1.734   0.652   2.743  0.2814 -0.0517  0.1286
 9047SOL     OW38773   0.189   0.367  14.965  0.3389 -0.0111 -0.0515
 9047SOL    HW138774   0.150   0.301  14.908  1.8209 -1.1024  0.2143
 9047SOL    HW238775   0.258   0.319  15.011 -0.5070 -2.7289 -1.6245
 9048SOL     OW38776   0.499   2.552   3.556  0.0520  0.3079  0.3004
 9048SOL    HW138777   0.413   2.560   3.597 -0.4358 -0.1806 -0.6280
 9048SOL    HW238778   0.499   2.632   3.503 -2.3018  0.0791 -0.0427
 9049SOL     OW38779   2.647   4.308  10.266  0.0855  0.2048 -0.0645
 9049SOL    HW138780   2.642   4.403  10.276  0.6858  0.2253  0.0151
 9049SOL    HW238781   2.569   4.289  10.213 -3.6963  2.1144  4.7153
 9050SOL     OW38782   1.328   3.022   3.471 -0.4089  0.0125 -0.0533
 9050SOL    HW138783   1.359   3.016   3.561  1.0790  1.6537 -0.4643
 9050SOL    HW238784   1.405   2.991   3.423  0.3349  0.9049  0.5844
 9051SOL     OW38785   1.063   1.240   7.056  0.2902 -0.2926 -0.4925
 9051SOL    HW138786   1.068   1.275   7.145 -1.2820  0.2247 -0.6146
 9051SOL    HW238787   0.996   1.297   7.017  0.5095  0.7095  0.6203
 9052SOL     OW38788   4.498   2.527   3.598 -0.1985  0.0283  0.0233
 9052SOL    HW138789   4.426   2.465   3.606 -0.5278  0.3091 -0.7602
 9052SOL    HW238790   4.521   2.531   3.505  0.2909  1.4003  0.2005
 9053SOL     OW38791   1.670   3.017   5.847  0.0587  0.1437  0.0339
 9053SOL    HW138792   1.709   2.948   5.792  0.3297  0.2044  0.1510
 9053SOL    HW238793   1.680   2.978   5.934  0.3592  0.5762  0.1925
 9054SOL     OW38794   3.209   2.590   5.925  0.2566 -0.1252  0.1539
 9054SOL    HW138795   3.276   2.658   5.929  0.8285 -0.5620 -1.8711
 9054SOL    HW238796   3.191   2.586   5.831 -2.2227 -2.7497  0.7495
 9055SOL     OW38797   0.730   0.354   5.466 -0.2603  0.5177  0.0096
 9055SOL    HW138798   0.676   0.364   5.388 -2.0459  2.4747  1.4914
 9055SOL    HW238799   0.755   0.438   5.503 -2.5329  0.6892  1.1488
 9056SOL     OW38800   2.491   1.886   1.305  0.6984  0.0245 -0.1465
 9056SOL    HW138801   2.494   1.917   1.395  2.0501 -0.8308  0.0963
 9056SOL    HW238802   2.398   1.869   1.293  0.0612  2.3510  1.5302
 9057SOL     OW38803   3.197   2.438  10.013  0.1081 -0.1078  0.1522
 9057SOL    HW138804   3.273   2.436   9.956  0.8708 -1.9959  1.2083
 9057SOL    HW238805   3.222   2.373  10.079  1.3591  0.4748  0.2441
 9058SOL     OW38806   1.975   1.940   1.416  0.2964  0.3068  0.2506
 9058SOL    HW138807   2.038   1.868   1.424  0.7900  0.5583 -1.6142
 9058SOL    HW238808   1.923   1.910   1.341  1.8040 -0.3757 -0.5243
 9059SOL     OW38809   2.507   1.401   8.103 -0.7685 -0.1541 -0.1231
 9059SOL    HW138810   2.595   1.433   8.082 -0.8643  0.4805  0.4482
 9059SOL    HW238811   2.496   1.404   8.198  0.0694 -0.0821 -0.0316
 9060SOL     OW38812   2.135   3.517   8.211  0.3995  0.3753 -0.3696
 9060SOL    HW138813   2.113   3.501   8.119  1.2547  0.0876 -0.5193
 9060SOL    HW238814   2.127   3.432   8.253 -0.4225  0.4621 -0.3449
 9061SOL     OW38815   1.189   0.454   4.635  0.0578 -0.2190  0.1129
 9061SOL    HW138816   1.136   0.531   4.616  0.8636  0.2595 -0.1703
 9061SOL    HW238817   1.121   0.386   4.641 -0.1844  0.2474  2.7013
 9062SOL     OW38818   1.964   2.582   2.159 -0.0668 -0.0797 -0.0799
 9062SOL    HW138819   1.900   2.652   2.150  2.3086  1.9400 -1.3638
 9062SOL    HW238820   1.961   2.572   2.254 -1.3371  1.8098  0.0781
 9063SOL     OW38821   3.739   0.547   4.197 -0.3102  0.2241  0.1490
 9063SOL    HW138822   3.644   0.553   4.194 -0.2821  0.0009 -1.1313
 9063SOL    HW238823   3.773   0.604   4.127 -1.2181 -2.8818 -2.8219
 9064SOL     OW38824   1.477   1.784  14.500 -0.0865  0.1614 -0.3017
 9064SOL    HW138825   1.565   1.747  14.510  0.7962  2.7441  1.5841
 9064SOL    HW238826   1.497   1.877  14.488  2.3266 -0.3463 -0.3506
 9065SOL     OW38827   2.866   0.089  11.027  0.5020  0.4107  0.6119
 9065SOL    HW138828   2.910   0.064  10.946 -0.3604  0.4178  0.1497
 9065SOL    HW238829   2.896   0.178  11.046  2.8957 -0.4197  0.7463
 9066SOL     OW38830   3.320   0.246   7.352 -0.0094 -0.0895  0.2940
 9066SOL    HW138831   3.255   0.269   7.286 -0.9831  0.8929  1.6209
 9066SOL    HW238832   3.268   0.210   7.423 -1.3889  1.3000 -0.0211
 9067SOL     OW38833   3.861   2.732  11.816 -0.7266 -0.3760 -0.1226
 9067SOL    HW138834   3.778   2.766  11.850 -0.3292  1.3084 -0.8351
 9067SOL    HW238835   3.852   2.640  11.840  1.7757  0.1117  2.6349
 9068SOL     OW38836   0.791   3.407  15.487 -0.0793  0.0639  0.6568
 9068SOL    HW138837   0.754   3.476  15.432  1.7811 -1.0549 -1.9955
 9068SOL    HW238838   0.852   3.460  15.539 -0.2516  0.1069  0.8124
 9069SOL     OW38839   3.294   1.114   1.530  0.2892  0.1874 -0.0914
 9069SOL    HW138840   3.247   1.033   1.549 -0.1168  0.7360  1.2418
 9069SOL    HW238841   3.379   1.085   1.499 -0.1187 -0.3768 -0.6814
 9070SOL     OW38842   2.849   0.073   5.679  0.4580 -0.0461  0.0100
 9070SOL    HW138843   2.754   0.060   5.678  0.5192 -0.2317 -2.3907
 9070SOL    HW238844   2.878   0.021   5.604 -1.0820 -2.1387  0.8488
 9071SOL     OW38845   3.929   4.136   7.313  0.0480  0.3771 -0.2966
 9071SOL    HW138846   3.986   4.058   7.313  0.7089  0.8650  0.3887
 9071SOL    HW238847   3.841   4.102   7.329  0.1550 -0.0791 -0.6674
 9072SOL     OW38848   3.360   4.019  10.787 -0.0753  0.2179  0.1166
 9072SOL    HW138849   3.338   3.944  10.842 -0.8329 -1.0250 -1.8863
 9072SOL    HW238850   3.328   4.094  10.838  0.4556 -0.1324  0.9733
 9073SOL     OW38851   0.604   4.447  14.913  0.3868 -0.0225 -0.4024
 9073SOL    HW138852   0.659   4.514  14.873 -2.8270  1.9646 -1.5110
 9073SOL    HW238853   0.657   4.427  14.990  2.0497  1.7283 -1.0809
 9074SOL     OW38854   0.175   1.596   4.243  0.2483  0.4318 -0.2299
 9074SOL    HW138855   0.236   1.659   4.280  3.0152 -1.9730 -0.6261
 9074SOL    HW238856   0.158   1.639   4.159  0.1351  2.7080  0.9607
 9075SOL     OW38857   3.653   2.545   5.201  0.3511 -0.0340  0.6365
 9075SOL    HW138858   3.691   2.625   5.164 -1.3809 -0.3197 -1.8060
 9075SOL    HW238859   3.595   2.588   5.264  1.0247  0.8681  0.6420
 9076SOL     OW38860   3.816   2.799   6.104 -0.0276 -0.0734  0.2948
 9076SOL    HW138861   3.899   2.792   6.150  0.9677  2.8670 -1.0456
 9076SOL    HW238862   3.844   2.824   6.016  0.5914  1.7357  1.0086
 9077SOL     OW38863   3.300   2.963  12.389  0.6379 -0.5030 -0.1252
 9077SOL    HW138864   3.346   3.018  12.326  1.4019  0.2421  1.0862
 9077SOL    HW238865   3.339   2.877  12.376  1.4402 -0.1935  0.2318
 9078SOL     OW38866   1.253   2.418   9.381  0.1455 -0.1978 -0.0134
 9078SOL    HW138867   1.271   2.430   9.287 -0.5749 -0.6150 -0.2048
 9078SOL    HW238868   1.288   2.330   9.393  0.4659 -0.0549  0.0949
 9079SOL     OW38869   1.035   3.355   2.266 -0.0383  0.8672 -0.8353
 9079SOL    HW138870   1.052   3.439   2.309 -0.4181  0.5275 -0.0244
 9079SOL    HW238871   1.120   3.310   2.268  0.1910  1.3664  1.0915
 9080SOL     OW38872   0.321   0.725   9.972  0.0994  0.2933 -0.1269
 9080SOL    HW138873   0.344   0.795   9.910 -0.5157 -1.8943 -2.8662
 9080SOL    HW238874   0.262   0.672   9.918  1.6803 -0.2046 -1.3979
 9081SOL     OW38875   1.635   0.977   4.301  0.4745  0.3131 -0.1657
 9081SOL    HW138876   1.585   0.968   4.382 -1.6234 -0.9383 -1.5942
 9081SOL    HW238877   1.665   0.886   4.303  1.0774  0.5479  1.5180
 9082SOL     OW38878   3.741   3.683   5.205  0.4521  0.1032 -0.1846
 9082SOL    HW138879   3.661   3.732   5.188  2.0436  1.7804 -2.8355
 9082SOL    HW238880   3.726   3.680   5.300 -1.0362 -1.1145 -0.4640
 9083SOL     OW38881   1.234   1.959   5.315  0.7885 -0.1024  0.0844
 9083SOL    HW138882   1.267   2.023   5.379  0.7890  0.1367 -0.1556
 9083SOL    HW238883   1.287   1.983   5.240  1.7127 -0.2429  0.6950
 9084SOL     OW38884   2.532   2.359   7.134 -0.1861  0.5898 -0.0950
 9084SOL    HW138885   2.559   2.289   7.075 -1.2187  1.7661 -1.9365
 9084SOL    HW238886   2.552   2.312   7.215  0.3755 -0.0917 -0.6341
 9085SOL     OW38887   2.828   2.580  11.252  0.1685 -0.3627  0.3213
 9085SOL    HW138888   2.784   2.558  11.334 -1.6393  1.0128 -0.2928
 9085SOL    HW238889   2.842   2.674  11.266  0.8960 -0.3566 -0.4342
 9086SOL     OW38890   3.365   2.623   4.857  0.0601  0.2805 -0.2092
 9086SOL    HW138891   3.390   2.708   4.894 -2.8309  0.5772  0.9857
 9086SOL    HW238892   3.275   2.653   4.859 -0.1789 -0.5655  1.4675
 9087SOL     OW38893   1.475   1.866   9.562 -0.1232  0.5303 -0.0419
 9087SOL    HW138894   1.474   1.905   9.649  1.0236 -0.8109  0.5741
 9087SOL    HW238895   1.432   1.784   9.586 -0.4125  0.2056 -1.7003
 9088SOL     OW38896   1.100   1.126   1.297  0.2106  0.2607  0.3129
 9088SOL    HW138897   1.032   1.059   1.284  0.2984  0.6039 -1.7961
 9088SOL    HW238898   1.176   1.069   1.281  0.2803  0.8077 -1.2213
 9089SOL     OW38899   1.973   0.735  15.264 -0.7564  0.5149 -0.1538
 9089SOL    HW138900   2.040   0.763  15.326 -0.4656 -1.3084  0.3479
 9089SOL    HW238901   1.999   0.789  15.189  3.2483  0.3602  1.1086
 9090SOL     OW38902   1.935   1.788  17.290 -0.0242  0.5152 -0.2677
 9090SOL    HW138903   1.904   1.722  17.228  0.1542 -1.2544  1.5322
 9090SOL    HW238904   1.861   1.849  17.297 -1.7023 -1.4662 -0.5464
 9091SOL     OW38905   3.555   4.160  11.507 -0.0733 -0.3518  0.0585
 9091SOL    HW138906   3.599   4.221  11.448 -1.7521  1.9993  1.2328
 9091SOL    HW238907   3.485   4.132  11.448  0.1358 -1.5840  0.4019
 9092SOL     OW38908   3.741   4.482   5.741  0.2684 -0.2227  0.0278
 9092SOL    HW138909   3.731   4.487   5.836  1.0196 -0.7263  0.1266
 9092SOL    HW238910   3.649   4.477   5.716  0.6346  1.6403 -1.7291
 9093SOL     OW38911   0.792   3.035   9.397 -0.2338  0.8362 -0.2860
 9093SOL    HW138912   0.722   2.974   9.375  0.8891 -0.0485 -1.4191
 9093SOL    HW238913   0.868   3.002   9.349 -0.1745  2.0394 -1.0264
 9094SOL     OW38914   3.683   1.563   5.446  0.0917 -0.3177  0.4092
 9094SOL    HW138915   3.608   1.620   5.465  0.7311  0.6648 -0.0551
 9094SOL    HW238916   3.745   1.633   5.430  1.0618 -1.4597 -0.8056
 9095SOL     OW38917   2.067   0.995   2.415  0.9174  0.0264  0.2400
 9095SOL    HW138918   1.977   0.988   2.384  1.2131  5.6633 -1.9724
 9095SOL    HW238919   2.109   0.921   2.372  1.0232  0.9292 -1.2214
 9096SOL     OW38920   1.544   3.639  15.495  0.1459 -0.2044  0.3270
 9096SOL    HW138921   1.529   3.692  15.574 -3.1324  2.1490 -1.8727
 9096SOL    HW238922   1.593   3.692  15.432 -0.7880  0.5656  0.2400
 9097SOL     OW38923   3.320   0.161   5.305  0.3267  0.3674 -0.1210
 9097SOL    HW138924   3.287   0.150   5.216  1.3551  0.8169 -0.5570
 9097SOL    HW238925   3.298   0.253   5.318  2.3725  0.8617 -0.1765
 9098SOL     OW38926   4.254   1.364   3.348 -0.1069  0.8307 -0.4204
 9098SOL    HW138927   4.205   1.408   3.278  0.5207 -1.0277 -2.0189
 9098SOL    HW238928   4.326   1.328   3.296  0.8573  1.0889  0.7299
 9099SOL     OW38929   2.709   2.017   4.810 -0.3265  0.2855 -0.6504
 9099SOL    HW138930   2.647   2.084   4.838 -0.7207  0.0693 -0.9914
 9099SOL    HW238931   2.783   2.036   4.867  0.0495 -0.2875 -0.9483
 9100SOL     OW38932   1.355   4.634  16.800  0.0404 -0.2946 -0.1855
 9100SOL    HW138933   1.340   4.548  16.762 -0.6214  0.2156 -1.0667
 9100SOL    HW238934   1.349   4.620  16.894  0.7955 -2.5351 -0.4693
 9101SOL     OW38935   0.474   0.837   5.023 -0.5566  0.4559 -0.4870
 9101SOL    HW138936   0.514   0.756   5.056 -0.6513  1.5029  2.2180
 9101SOL    HW238937   0.414   0.862   5.094  0.6444 -0.3564  0.8173
 9102SOL     OW38938   0.084   0.251   6.755 -0.3506  0.9192 -0.7481
 9102SOL    HW138939   0.032   0.231   6.678  1.1633 -0.3747 -1.4115
 9102SOL    HW238940   0.133   0.329   6.727  0.0928  0.8444 -0.1776
 9103SOL     OW38941   3.046   1.449  17.250 -0.5866 -0.0630 -0.5872
 9103SOL    HW138942   3.122   1.434  17.194  0.0106  2.8953 -0.5430
 9103SOL    HW238943   2.989   1.385  17.206  0.4253 -0.8939 -0.6780
 9104SOL     OW38944   2.800   0.501   0.245  0.1153  0.1885  0.0800
 9104SOL    HW138945   2.835   0.492   0.334 -0.9340 -2.6295  0.2043
 9104SOL    HW238946   2.769   0.592   0.253  0.9797  0.6249 -1.5770
 9105SOL     OW38947   4.511   0.681   2.238  0.2099 -0.3766 -0.3185
 9105SOL    HW138948   4.479   0.759   2.193  1.1418  0.7308  0.9322
 9105SOL    HW238949   4.600   0.709   2.259  0.2635 -0.6915 -0.1343
 9106SOL     OW38950   0.353   0.114   5.298  0.0527  0.1483 -0.5766
 9106SOL    HW138951   0.275   0.159   5.330 -2.9873 -3.3940 -3.0749
 9106SOL    HW238952   0.323   0.032   5.259  1.7044 -0.5262 -0.4216
 9107SOL     OW38953   0.290   4.463   6.969  0.0723 -0.0418 -0.3530
 9107SOL    HW138954   0.219   4.458   7.033 -0.0818 -0.6154 -0.5699
 9107SOL    HW238955   0.298   4.558   6.973  1.2679 -0.0754 -1.9361
 9108SOL     OW38956   3.689   2.654   8.226  0.1586  0.1085  0.1343
 9108SOL    HW138957   3.664   2.717   8.295 -0.8115 -0.1465  0.0199
 9108SOL    HW238958   3.600   2.632   8.198  0.0293 -0.8606  1.3296
 9109SOL     OW38959   4.193   3.937   7.881 -0.0183  0.1905 -0.0627
 9109SOL    HW138960   4.247   3.981   7.816 -1.1537  2.7302  0.7201
 9109SOL    HW238961   4.154   3.872   7.823 -2.8274  1.3041  0.5644
 9110SOL     OW38962   3.342   0.104  10.477  0.5362  0.2965 -0.3537
 9110SOL    HW138963   3.290   0.121  10.556 -1.2341 -2.3384 -0.9688
 9110SOL    HW238964   3.410   0.172  10.486 -0.4529  1.4467 -1.5181
 9111SOL     OW38965   4.437   1.401   2.186  0.0478 -0.1565 -0.6182
 9111SOL    HW138966   4.529   1.424   2.170 -0.6027  3.2532  0.5327
 9111SOL    HW238967   4.399   1.408   2.098  0.9002  1.1677 -0.8898
 9112SOL     OW38968   1.546   0.138  16.624  0.4396  0.4416 -0.1963
 9112SOL    HW138969   1.592   0.149  16.707 -0.7154  1.1298  0.3551
 9112SOL    HW238970   1.611   0.109  16.560  1.6297  3.3902 -0.3118
 9113SOL     OW38971   2.716   4.481   5.306  0.2874  0.4591  0.6200
 9113SOL    HW138972   2.743   4.424   5.234 -0.4874 -0.2431  0.8790
 9113SOL    HW238973   2.736   4.565   5.266  0.3344 -0.9875 -2.3623
 9114SOL     OW38974   0.094   0.577   3.788  0.0984 -0.1169 -0.2719
 9114SOL    HW138975   0.053   0.509   3.842  0.7379 -1.3085 -1.2801
 9114SOL    HW238976   0.024   0.639   3.769 -0.4259 -0.4081  0.7195
 9115SOL     OW38977   0.020   0.936   6.317 -0.5305  0.5549  0.5067
 9115SOL    HW138978   4.692   0.865   6.314  0.6092 -0.4322 -0.1061
 9115SOL    HW238979   4.712   0.999   6.376 -2.1278  2.1024 -2.3471
 9116SOL     OW38980   2.713   3.781   3.159  0.1064  0.3786  0.0518
 9116SOL    HW138981   2.678   3.694   3.146 -0.4477  0.6273 -0.0985
 9116SOL    HW238982   2.697   3.816   3.072 -2.6133  0.3848  0.5509
 9117SOL     OW38983   3.929   0.562   6.754  0.1720 -0.4831  0.1636
 9117SOL    HW138984   4.014   0.534   6.788 -0.2814 -1.3499  0.5977
 9117SOL    HW238985   3.924   0.540   6.661  0.7514  3.3991 -0.7735
 9118SOL     OW38986   1.627   2.427   9.249  0.0548  0.4236 -0.4888
 9118SOL    HW138987   1.579   2.467   9.177 -0.9659 -2.6556 -1.5165
 9118SOL    HW238988   1.567   2.457   9.318  0.3088 -1.3237  0.4758
 9119SOL     OW38989   2.226   2.838   7.108  0.0756  0.3889 -0.0293
 9119SOL    HW138990   2.232   2.865   7.200 -0.1077 -2.1808  0.7223
 9119SOL    HW238991   2.132   2.826   7.094 -0.0537  0.7083  0.5956
 9120SOL     OW38992   3.781   0.335   4.529  0.0714 -0.4904  0.0271
 9120SOL    HW138993   3.836   0.280   4.584  1.6553 -0.4140 -1.4574
 9120SOL    HW238994   3.713   0.277   4.495 -2.9127  1.5397  2.5622
 9121SOL     OW38995   4.076   3.779   3.463 -0.1518  0.0728 -0.4061
 9121SOL    HW138996   3.995   3.780   3.514  0.7282  0.7855  0.9818
 9121SOL    HW238997   4.067   3.699   3.411  0.3942 -0.4740  0.3416
 9122SOL     OW38998   1.833   3.968   1.747 -0.5058  0.1197  0.1473
 9122SOL    HW138999   1.764   3.968   1.681 -0.1946  1.2455 -0.1680
 9122SOL    HW239000   1.797   4.033   1.807 -2.9787 -0.0116 -1.1926
 9123SOL     OW39001   1.258   1.955   5.005 -0.0070 -0.2075  0.0865
 9123SOL    HW139002   1.214   1.896   4.944  1.7009 -0.8220 -0.5303
 9123SOL    HW239003   1.191   2.019   5.029 -0.6184 -1.2807  1.2795
 9124SOL     OW39004   3.178   2.024   0.184  0.3944 -0.4387  0.6017
 9124SOL    HW139005   3.212   1.959   0.123  0.8172 -0.9450  1.3741
 9124SOL    HW239006   3.105   2.062   0.135  3.1696 -1.4484 -4.2655
 9125SOL     OW39007   1.342   1.954   8.499 -0.3633 -0.4058  0.4808
 9125SOL    HW139008   1.310   1.983   8.585  1.1325 -0.2780  0.9928
 9125SOL    HW239009   1.426   1.910   8.512 -0.5049 -0.7028  0.3892
 9126SOL     OW39010   2.605   3.836   8.173  0.4339 -0.2688  0.0481
 9126SOL    HW139011   2.519   3.797   8.159 -0.2283  0.5184  1.9785
 9126SOL    HW239012   2.625   3.798   8.258 -1.9044 -1.8881 -0.1297
 9127SOL     OW39013   1.558   4.313   5.571 -0.3527  0.1866 -0.4603
 9127SOL    HW139014   1.589   4.316   5.661  0.3054  0.4204 -0.6929
 9127SOL    HW239015   1.465   4.305   5.592 -0.9689  2.0866 -2.3706
 9128SOL     OW39016   2.444   0.987  11.191 -0.1809  0.1625 -0.6426
 9128SOL    HW139017   2.383   0.919  11.221 -1.1631  1.0453 -0.6474
 9128SOL    HW239018   2.386   1.063  11.197  2.2551  2.1495 -2.4079
 9129SOL     OW39019   2.695   3.012  10.731 -0.1983 -0.1186 -0.3219
 9129SOL    HW139020   2.752   2.999  10.807 -2.9141  0.2803  1.7870
 9129SOL    HW239021   2.607   3.022  10.768  0.6081  2.7385  0.7715
 9130SOL     OW39022   2.197   3.779   6.128 -0.4104  0.1933 -0.8560
 9130SOL    HW139023   2.229   3.726   6.200 -0.6595  1.0520 -0.1098
 9130SOL    HW239024   2.103   3.777   6.147 -0.6146  1.7853 -1.6615
 9131SOL     OW39025   2.895   0.240   2.124  0.0722 -0.0767  0.2863
 9131SOL    HW139026   2.884   0.207   2.035  0.7925 -0.9012  0.5065
 9131SOL    HW239027   2.985   0.274   2.120  0.2980 -0.6416  0.6782
 9132SOL     OW39028   2.661   1.559   4.532 -0.4166 -0.7958  0.3455
 9132SOL    HW139029   2.621   1.591   4.451 -0.2712 -0.1800  0.5173
 9132SOL    HW239030   2.664   1.640   4.582  2.5175 -1.6144  1.5255
 9133SOL     OW39031   4.698   1.510   6.155 -0.5334  0.0349  0.1044
 9133SOL    HW139032   4.705   1.433   6.099  1.2598  0.5882 -0.4396
 9133SOL    HW239033   4.603   1.510   6.153 -0.5298 -0.8363 -0.1083
 9134SOL     OW39034   3.471   0.946  17.548 -0.0216  0.0376 -0.6492
 9134SOL    HW139035   3.459   1.026  17.497 -0.6055 -0.7017 -1.6636
 9134SOL    HW239036   3.469   0.874  17.485  2.1607 -0.5689  0.0003
 9135SOL     OW39037   3.919   3.509   5.658 -0.0387 -0.0294  0.5423
 9135SOL    HW139038   4.013   3.492   5.666 -0.3760 -1.7090  0.9388
 9135SOL    HW239039   3.904   3.543   5.746 -0.5749  1.4153 -0.1079
 9136SOL     OW39040   2.672   2.246   2.802  0.7179  0.5324 -0.0703
 9136SOL    HW139041   2.643   2.235   2.711 -0.1125 -1.8139  0.4701
 9136SOL    HW239042   2.754   2.197   2.805  1.0193  1.0790  0.5625
 9137SOL     OW39043   3.251   3.414   9.397 -0.0071 -0.0760  0.0679
 9137SOL    HW139044   3.238   3.334   9.448  2.8673 -0.3953  0.3095
 9137SOL    HW239045   3.343   3.409   9.370  1.1202  1.8651  3.5300
 9138SOL     OW39046   2.401   3.240   6.147 -0.1657 -0.4305  0.0824
 9138SOL    HW139047   2.393   3.153   6.108 -2.5359 -0.9168  1.6284
 9138SOL    HW239048   2.487   3.229   6.187 -0.7869 -3.5116  0.5199
 9139SOL     OW39049   4.629   0.505   9.204  0.2039  0.4661 -0.0208
 9139SOL    HW139050   4.577   0.565   9.257  1.8054  1.7429  0.1190
 9139SOL    HW239051   4.566   0.436   9.186 -1.1076  0.5404  4.1734
 9140SOL     OW39052   3.709   3.228  12.475  0.5091 -0.1400  0.1531
 9140SOL    HW139053   3.739   3.175  12.549  0.1811 -2.3364 -1.2603
 9140SOL    HW239054   3.696   3.153  12.416  1.8961 -0.1951 -0.0709
 9141SOL     OW39055   3.646   2.146   8.778  0.3812  0.4081  0.6091
 9141SOL    HW139056   3.697   2.155   8.858 -2.1440 -0.4118  2.3191
 9141SOL    HW239057   3.677   2.210   8.714 -1.2147  1.2445  0.6648
 9142SOL     OW39058   0.497   1.677   2.175 -0.0645 -0.1498 -0.5889
 9142SOL    HW139059   0.584   1.688   2.212  0.0850  0.9729 -1.2548
 9142SOL    HW239060   0.510   1.668   2.080  1.4987  1.2419 -0.5174
 9143SOL     OW39061   3.741   3.775   6.790  0.7656 -0.0368 -0.3175
 9143SOL    HW139062   3.822   3.768   6.738 -0.2745 -0.3839 -1.8978
 9143SOL    HW239063   3.777   3.730   6.866 -1.5097 -0.0284  0.7430
 9144SOL     OW39064   3.623   0.433   7.621 -0.2846 -0.2352  0.0413
 9144SOL    HW139065   3.632   0.527   7.639 -0.5057 -0.2329  0.1397
 9144SOL    HW239066   3.607   0.451   7.528 -0.5086 -1.0239 -0.0697
 9145SOL     OW39067   4.098   0.725  16.906  0.4963  0.1522 -0.1516
 9145SOL    HW139068   4.171   0.785  16.924  2.6840 -2.4349 -0.2776
 9145SOL    HW239069   4.021   0.772  16.937  0.0419 -0.4544 -0.3613
 9146SOL     OW39070   2.059   2.926   6.453  0.0324  0.0734  0.0549
 9146SOL    HW139071   2.031   3.015   6.471  0.7537  0.8920 -2.8599
 9146SOL    HW239072   2.143   2.940   6.408 -0.0979  2.7763  0.7032
 9147SOL     OW39073   2.713   4.035   3.327  0.4749 -0.4647  0.0739
 9147SOL    HW139074   2.734   4.103   3.263  1.6313 -0.5515  0.3580
 9147SOL    HW239075   2.735   3.958   3.274 -0.2799  0.0268 -0.9492
 9148SOL     OW39076   0.958   2.396   6.289 -0.0986  0.4531  0.3986
 9148SOL    HW139077   0.979   2.407   6.196  0.8375  0.0729  0.5659
 9148SOL    HW239078   0.891   2.328   6.285  0.2784  0.0545  0.9065
 9149SOL     OW39079   0.266   3.328   5.452 -0.2801  0.1855 -0.0781
 9149SOL    HW139080   0.280   3.273   5.376  2.3679  2.4450 -1.2256
 9149SOL    HW239081   0.255   3.266   5.524  0.2505 -0.0284 -0.1811
 9150SOL     OW39082   1.348   3.506   3.382 -0.2623 -0.2280 -0.3098
 9150SOL    HW139083   1.437   3.484   3.410 -0.4144  0.3619  0.6695
 9150SOL    HW239084   1.310   3.418   3.376  2.4204 -1.4247  0.1768
 9151SOL     OW39085   3.266   0.360  12.376 -0.2607  0.4436  0.6562
 9151SOL    HW139086   3.292   0.447  12.344  0.4862  0.3695  1.0571
 9151SOL    HW239087   3.344   0.306  12.365 -0.8298 -0.1883 -0.2370
 9152SOL     OW39088   3.258   4.708  10.237 -0.4760  0.0458  0.4775
 9152SOL    HW139089   3.184   4.687  10.294 -2.0020 -0.9980 -1.8981
 9152SOL    HW239090   3.306   0.032  10.296 -3.1412  1.5205  1.1841
 9153SOL     OW39091   0.944   1.541   7.711 -0.2243 -0.7698  0.0219
 9153SOL    HW139092   0.934   1.614   7.649 -0.0002  0.7150  1.7636
 9153SOL    HW239093   0.915   1.583   7.792 -0.6633  1.2350 -1.1756
 9154SOL     OW39094   1.551   4.042  16.589 -0.0543 -0.5443 -0.3621
 9154SOL    HW139095   1.472   4.022  16.640  1.6379  2.9571  3.5652
 9154SOL    HW239096   1.570   4.129  16.622  1.3143 -1.3798  1.0353
 9155SOL     OW39097   3.657   0.194   8.161 -0.1321 -0.2499  0.4479
 9155SOL    HW139098   3.746   0.210   8.128 -1.4850 -0.2797 -3.2233
 9155SOL    HW239099   3.607   0.177   8.081  0.0999  1.3669 -0.0514
 9156SOL     OW39100   0.642   0.483   7.830 -0.7478  0.1773  0.1035
 9156SOL    HW139101   0.688   0.528   7.759  0.8652 -1.0777  0.3562
 9156SOL    HW239102   0.718   0.440   7.869 -0.9882 -0.1786  0.1823
 9157SOL     OW39103   0.420   1.635   2.852 -0.1034  0.1232 -0.1027
 9157SOL    HW139104   0.423   1.546   2.818  0.1450  0.7659 -1.7904
 9157SOL    HW239105   0.417   1.684   2.769 -1.1295 -1.3668 -0.9474
 9158SOL     OW39106   0.198   1.408   4.037 -0.1124  0.0767  0.1702
 9158SOL    HW139107   0.149   1.460   4.102  3.7893  0.5512  2.7172
 9158SOL    HW239108   0.129   1.425   3.973  1.4782  1.2319 -1.2311
 9159SOL     OW39109   2.928   1.847   0.645  0.0271  0.2723  0.1710
 9159SOL    HW139110   2.992   1.918   0.646 -1.2079  1.3899  0.5529
 9159SOL    HW239111   2.971   1.782   0.589 -0.2468  2.0999 -2.1426
 9160SOL     OW39112   0.966   0.827   4.943  0.3048  0.1598  0.4221
 9160SOL    HW139113   1.000   0.855   5.027  0.0416  0.9635  0.2562
 9160SOL    HW239114   0.877   0.861   4.929  0.1683 -0.9291 -1.3484
 9161SOL     OW39115   4.663   1.587   2.496  0.9674  0.2314 -0.5093
 9161SOL    HW139116   4.571   1.562   2.496  1.1726 -0.5426 -0.1449
 9161SOL    HW239117   4.666   1.598   2.591 -1.2206  1.0321 -0.5313
 9162SOL     OW39118   1.200   0.931   3.750 -0.2819  0.1971 -0.4575
 9162SOL    HW139119   1.135   0.890   3.807  0.4768 -0.0620  0.2237
 9162SOL    HW239120   1.240   0.994   3.810 -1.5219  1.6320 -1.1396
 9163SOL     OW39121   2.877   2.551   3.593 -0.3788 -0.2626 -0.0789
 9163SOL    HW139122   2.783   2.536   3.593 -0.5911  1.0266  1.6722
 9163SOL    HW239123   2.902   2.567   3.502  1.7057  0.8562  0.6931
 9164SOL     OW39124   2.492   3.809   1.344  0.1443  0.1927  0.4463
 9164SOL    HW139125   2.531   3.897   1.343 -0.4856  0.4554 -1.3786
 9164SOL    HW239126   2.403   3.830   1.318  0.2125 -1.8993 -1.5205
 9165SOL     OW39127   1.200   1.199   6.819  0.0905 -0.2372  0.2490
 9165SOL    HW139128   1.154   1.219   6.900  1.5675  4.5019 -0.0874
 9165SOL    HW239129   1.245   1.283   6.812  1.5647 -0.8005  3.2557
 9166SOL     OW39130   1.105   0.249  11.031  0.1779 -0.2154 -0.4941
 9166SOL    HW139131   1.052   0.281  11.104 -0.0084  0.4380 -0.9221
 9166SOL    HW239132   1.092   0.318  10.967 -0.2312 -1.3137 -1.5988
 9167SOL     OW39133   0.123   3.918   6.072 -0.2667  0.2754  0.0723
 9167SOL    HW139134   0.101   4.010   6.091  0.1751  0.7254 -1.5819
 9167SOL    HW239135   0.180   3.932   5.996  1.5225 -1.3302  1.1129
 9168SOL     OW39136   4.269   1.768   5.078 -0.2740  1.0238 -0.4545
 9168SOL    HW139137   4.280   1.732   4.990 -0.5521 -0.2857  0.0542
 9168SOL    HW239138   4.347   1.824   5.087  0.0746  0.5096 -0.3191
 9169SOL     OW39139   0.185   1.091   4.086 -0.6284 -0.3698 -0.2972
 9169SOL    HW139140   0.190   1.061   3.995  0.2737  0.6327 -0.5780
 9169SOL    HW239141   0.196   1.186   4.073  0.7183  0.0650  4.0333
 9170SOL     OW39142   2.817   3.730   1.898 -0.5362 -0.2377  0.3440
 9170SOL    HW139143   2.776   3.669   1.837  1.4818  0.1754 -1.3981
 9170SOL    HW239144   2.748   3.753   1.960  1.2422 -1.1884  2.6727
 9171SOL     OW39145   0.948   1.447   3.357  0.1352 -0.6071  0.0421
 9171SOL    HW139146   0.900   1.526   3.384 -1.2014 -1.9238  1.5039
 9171SOL    HW239147   0.908   1.384   3.418 -0.0101  0.9686  1.6015
 9172SOL     OW39148   3.292   3.725   5.216 -0.6845  0.5536 -0.0486
 9172SOL    HW139149   3.221   3.772   5.260 -1.6281 -0.1893 -0.7633
 9172SOL    HW239150   3.261   3.636   5.230 -4.2853  1.7009 -0.5176
 9173SOL     OW39151   3.686   1.297   1.871  0.6028 -0.4789  0.1908
 9173SOL    HW139152   3.708   1.374   1.818 -1.8838 -0.4543 -0.7735
 9173SOL    HW239153   3.639   1.339   1.943 -0.5690 -0.7988 -0.3980
 9174SOL     OW39154   3.720   1.639  16.670  0.1881  0.0885 -0.1361
 9174SOL    HW139155   3.691   1.608  16.583 -1.3040  0.8024  0.1029
 9174SOL    HW239156   3.749   1.559  16.713  2.1390  0.3306 -1.0215
 9175SOL     OW39157   1.203   1.169   7.608 -0.4979 -0.1207  0.2065
 9175SOL    HW139158   1.234   1.260   7.607  0.7992 -0.5581  0.6350
 9175SOL    HW239159   1.109   1.175   7.589 -0.6654 -0.3386  0.9974
 9176SOL     OW39160   1.667   0.347   0.575  0.3110  0.4016  0.3812
 9176SOL    HW139161   1.639   0.428   0.533  1.3442  0.9335  0.7198
 9176SOL    HW239162   1.761   0.352   0.560  0.4227 -0.8349  0.6474
 9177SOL     OW39163   1.796   3.326   6.227 -0.5187  0.0849  0.3402
 9177SOL    HW139164   1.759   3.326   6.138  0.8745  0.6458 -0.2449
 9177SOL    HW239165   1.762   3.405   6.269  0.5900  0.2522  0.9277
 9178SOL     OW39166   2.901   4.474   6.839  0.6730 -0.5304  0.2986
 9178SOL    HW139167   2.871   4.441   6.924 -0.7818  1.4085  0.5434
 9178SOL    HW239168   2.824   4.500   6.787  1.5249 -0.9766 -1.1852
 9179SOL     OW39169   2.988   1.972   1.204  0.1258 -0.5257 -0.1620
 9179SOL    HW139170   3.003   1.959   1.110 -0.0770  1.3356 -0.4658
 9179SOL    HW239171   2.986   1.879   1.226  1.8294 -0.5726 -0.2101
 9180SOL     OW39172   4.044   2.356  15.106  0.4851  0.1673 -0.0825
 9180SOL    HW139173   4.028   2.395  15.192 -2.2697 -0.8923 -0.1060
 9180SOL    HW239174   4.130   2.390  15.084 -0.0984  2.4642  1.1609
 9181SOL     OW39175   4.460   3.088   4.276 -0.2928 -0.1818 -0.6666
 9181SOL    HW139176   4.515   3.020   4.237  2.1970  0.2444  2.0718
 9181SOL    HW239177   4.514   3.111   4.352  0.0114 -2.1262 -0.2811
 9182SOL     OW39178   4.557   1.004  11.835 -0.1070 -0.1145 -0.1081
 9182SOL    HW139179   4.526   0.985  11.923  0.7584  1.8794  0.6290
 9182SOL    HW239180   4.504   1.082  11.817  1.9480  1.1763 -0.6352
 9183SOL     OW39181   3.326   3.716  14.941  0.0867  0.2094  0.0026
 9183SOL    HW139182   3.335   3.628  14.904  0.7442 -0.1046  0.9315
 9183SOL    HW239183   3.305   3.774  14.868 -0.9058 -0.3065 -0.1161
 9184SOL     OW39184   0.728   0.052  17.569 -0.0402  0.0888 -0.0354
 9184SOL    HW139185   0.708   0.142  17.596  0.8563 -0.2377  1.7379
 9184SOL    HW239186   0.660   0.044  17.502 -0.7828  2.4323  0.4499
 9185SOL     OW39187   3.002   4.556   0.940  0.0718 -0.2937 -0.4732
 9185SOL    HW139188   2.927   4.592   0.892  0.2050 -0.0877 -0.5233
 9185SOL    HW239189   3.069   4.616   0.909 -0.7716  0.8494 -0.0556
 9186SOL     OW39190   0.721   4.107   3.271  0.4644 -0.3883 -0.3882
 9186SOL    HW139191   0.808   4.068   3.274  0.6070 -0.0590 -0.3723
 9186SOL    HW239192   0.724   4.145   3.184  1.7991 -0.5691 -0.4213
 9187SOL     OW39193   1.421   1.268  15.491 -0.0814 -0.4730 -0.3679
 9187SOL    HW139194   1.479   1.319  15.547  1.4035 -0.4932 -1.9099
 9187SOL    HW239195   1.423   1.192  15.548 -0.9959 -0.4102 -0.2442
 9188SOL     OW39196   0.978   3.621  17.316  0.3203  0.6779  0.5115
 9188SOL    HW139197   1.054   3.611  17.373 -0.3083 -1.7964  0.9393
 9188SOL    HW239198   0.941   3.532  17.321  0.1301  0.5539 -2.7855
 9189SOL     OW39199   0.413   0.603  10.498 -0.2843 -0.2695  0.2728
 9189SOL    HW139200   0.376   0.686  10.527 -1.7628 -0.4656 -1.0139
 9189SOL    HW239201   0.354   0.593  10.423  0.6675 -0.2193 -0.4846
 9190SOL     OW39202   2.718   1.340  14.854  0.0544  0.3834  0.5199
 9190SOL    HW139203   2.737   1.284  14.929  0.2717  0.0427  0.2137
 9190SOL    HW239204   2.734   1.425  14.894  0.4680 -0.3257  1.8728
 9191SOL     OW39205   1.866   3.830   5.644  0.5527  0.0924  0.3769
 9191SOL    HW139206   1.930   3.763   5.671  0.5273  0.4405  1.3163
 9191SOL    HW239207   1.820   3.795   5.568  0.1609 -3.3342  2.1757
 9192SOL     OW39208   3.798   0.056   1.925 -0.4723 -0.4166 -0.2957
 9192SOL    HW139209   3.712   0.091   1.948 -0.7691 -2.1194  1.1196
 9192SOL    HW239210   3.803   0.088   1.835 -0.9471  1.3027  0.2718
 9193SOL     OW39211   2.747   3.111   5.802 -0.2915 -1.3962 -0.7074
 9193SOL    HW139212   2.756   3.022   5.836  0.6671 -0.7752  0.6435
 9193SOL    HW239213   2.658   3.115   5.767 -0.0656  1.0656 -0.9815
 9194SOL     OW39214   0.367   3.274   2.612  0.3786  0.4640  0.0960
 9194SOL    HW139215   0.336   3.207   2.673  0.6854  0.6247  0.4294
 9194SOL    HW239216   0.291   3.280   2.555 -1.2039 -1.1842  2.0247
 9195SOL     OW39217   1.360   2.938   1.810 -0.1788 -0.1298  0.8824
 9195SOL    HW139218   1.353   2.855   1.763 -2.0523  0.9873 -0.8190
 9195SOL    HW239219   1.283   2.983   1.776  0.6749 -0.9572 -2.1855
 9196SOL     OW39220   3.187   2.746   6.536 -0.3636 -0.2329  0.2679
 9196SOL    HW139221   3.129   2.723   6.608 -0.2325 -0.4744  0.2949
 9196SOL    HW239222   3.237   2.665   6.526  0.7947  0.6723 -1.2208
 9197SOL     OW39223   4.030   4.061  14.659 -0.2845 -0.9773 -0.0116
 9197SOL    HW139224   3.992   4.125  14.719 -0.2586  0.1942 -1.2391
 9197SOL    HW239225   4.102   4.020  14.706 -0.2353 -2.9904 -1.8325
 9198SOL     OW39226   2.838   0.461   0.931  0.1457 -0.7282 -0.0687
 9198SOL    HW139227   2.858   0.452   0.838 -1.4836  1.4738 -0.6152
 9198SOL    HW239228   2.770   0.394   0.939 -0.3811 -0.2220 -0.2963
 9199SOL     OW39229   0.386   3.017  16.506  0.2175  0.4470  0.2987
 9199SOL    HW139230   0.427   2.951  16.561 -2.6269  0.5794  2.5550
 9199SOL    HW239231   0.306   2.968  16.486  0.7773  0.1034 -1.0910
 9200SOL     OW39232   0.262   2.279   6.618  0.3905 -0.1079  0.0352
 9200SOL    HW139233   0.291   2.193   6.649 -0.2534 -0.7971 -1.2419
 9200SOL    HW239234   0.284   2.282   6.525  0.7409  0.5370  0.1424
 9201SOL     OW39235   2.446   0.882   3.241  0.0174  0.1917  0.0723
 9201SOL    HW139236   2.419   0.874   3.332 -0.5638 -0.4017 -0.1588
 9201SOL    HW239237   2.522   0.824   3.238  1.8216  2.3989  2.9600
 9202SOL     OW39238   3.700   2.017   5.145  0.3036  0.0629 -0.0264
 9202SOL    HW139239   3.646   1.944   5.176 -0.5506  1.1792  1.1319
 9202SOL    HW239240   3.646   2.088   5.181  2.4786  2.4042 -1.3719
 9203SOL     OW39241   2.658   1.555   5.228 -0.0615 -0.3042  0.2878
 9203SOL    HW139242   2.743   1.516   5.206 -0.5801 -1.2083 -0.1063
 9203SOL    HW239243   2.602   1.478   5.225 -0.6467  0.1210  0.3226
 9204SOL     OW39244   2.230   3.763   3.024 -0.3308  0.3710 -0.7610
 9204SOL    HW139245   2.326   3.763   3.021 -0.2776 -1.1361  0.8604
 9204SOL    HW239246   2.208   3.854   3.005 -0.6079  0.1177 -1.6760
 9205SOL     OW39247   2.505   2.055  16.395  0.0571  0.6467  0.5008
 9205SOL    HW139248   2.473   2.013  16.315  2.9265 -1.3010  0.3914
 9205SOL    HW239249   2.483   1.982  16.452 -0.1654  1.8425  1.9595
 9206SOL     OW39250   4.175   0.118   0.726  0.3443 -0.2207 -0.0576
 9206SOL    HW139251   4.180   0.059   0.651  1.3640  0.3641 -0.4447
 9206SOL    HW239252   4.146   0.200   0.684  0.9290  0.8968  1.7260
 9207SOL     OW39253   3.392   2.489  15.787 -0.0370 -0.3232  0.2012
 9207SOL    HW139254   3.376   2.574  15.827  0.9873 -0.2910  0.5594
 9207SOL    HW239255   3.300   2.467  15.773 -0.0812 -0.1790  0.2726
 9208SOL     OW39256   1.874   1.109   4.799 -0.3846 -0.4460 -0.0462
 9208SOL    HW139257   1.906   1.198   4.814 -1.1278 -0.3825  1.1173
 9208SOL    HW239258   1.938   1.061   4.852  0.1365 -2.5934 -2.6236
 9209SOL     OW39259   2.039   0.369   3.309 -0.0098  0.0463 -0.4706
 9209SOL    HW139260   2.061   0.310   3.238 -1.8235 -0.0862 -0.9019
 9209SOL    HW239261   1.946   0.385   3.294 -0.5142 -0.7605  1.7219
 9210SOL     OW39262   3.642   1.419   2.304 -0.9088  0.1423  0.2151
 9210SOL    HW139263   3.601   1.498   2.340  1.2179  0.7752  1.3144
 9210SOL    HW239264   3.606   1.425   2.216 -1.1053  0.6840  0.3289
 9211SOL     OW39265   1.106   0.609   9.354 -0.2360  0.1118 -0.4923
 9211SOL    HW139266   1.098   0.640   9.264  0.5609 -0.9082 -0.9100
 9211SOL    HW239267   1.137   0.691   9.392  0.3478 -0.7400  0.8763
 9212SOL     OW39268   3.627   4.705  10.092 -0.1293  0.2369 -0.2247
 9212SOL    HW139269   3.577   0.034  10.041  1.4634  0.6218 -1.3209
 9212SOL    HW239270   3.609   4.631  10.034 -0.0530 -0.2598  0.3912
 9213SOL     OW39271   2.955   2.680  12.365  0.0580  0.9013 -0.2297
 9213SOL    HW139272   2.892   2.618  12.402  0.7498  0.7500  0.7084
 9213SOL    HW239273   2.890   2.745  12.340  1.2399  2.1213 -0.1031
 9214SOL     OW39274   4.271   1.267   0.249 -0.6410  0.0510  0.2286
 9214SOL    HW139275   4.332   1.258   0.322  1.5003 -0.6461 -1.6535
 9214SOL    HW239276   4.302   1.199   0.188 -2.0900 -0.2245 -0.2094
 9215SOL     OW39277   0.442   0.408   2.125  0.5857  0.1253 -0.1561
 9215SOL    HW139278   0.494   0.330   2.145 -0.4151 -0.6929 -0.7892
 9215SOL    HW239279   0.384   0.370   2.059 -0.1930  1.2775 -0.1394
 9216SOL     OW39280   0.862   1.389   3.647 -0.7636 -0.2416  0.0389
 9216SOL    HW139281   0.941   1.431   3.681  0.4853 -0.2587 -2.8461
 9216SOL    HW239282   0.823   1.355   3.727 -0.4608 -1.7619 -0.4644
 9217SOL     OW39283   2.029   3.556  14.475 -0.0452  0.1957  0.4296
 9217SOL    HW139284   1.996   3.474  14.438  1.3823  0.5795 -1.6902
 9217SOL    HW239285   1.953   3.614  14.469  0.2195  0.5477  0.4736
 9218SOL     OW39286   2.137   4.491  14.006  0.0495  0.0744 -0.1377
 9218SOL    HW139287   2.082   4.413  14.013 -1.3241  1.1615  1.2057
 9218SOL    HW239288   2.117   4.529  14.092 -1.5229  2.7157 -1.6490
 9219SOL     OW39289   0.502   3.067   4.137  0.6320  0.0925 -0.2187
 9219SOL    HW139290   0.524   2.976   4.116  1.9061  0.1969  0.6205
 9219SOL    HW239291   0.585   3.090   4.180 -0.7696 -0.3146  2.7209
 9220SOL     OW39292   4.600   4.062  12.506 -0.1622 -0.4643 -0.4665
 9220SOL    HW139293   4.537   4.057  12.578  1.5394  2.0455  1.1748
 9220SOL    HW239294   4.587   3.980  12.458 -2.3023  0.4260 -1.4176
 9221SOL     OW39295   1.538   2.814   1.987  0.3319 -0.0025 -0.2335
 9221SOL    HW139296   1.501   2.866   1.917  1.2523  2.6561  1.2731
 9221SOL    HW239297   1.539   2.872   2.063  2.5983  1.7854 -1.6637
 9222SOL     OW39298   4.501   1.162   2.525 -0.2220  0.3525 -0.0493
 9222SOL    HW139299   4.581   1.188   2.571  0.4987 -1.2046 -0.4172
 9222SOL    HW239300   4.457   1.244   2.504 -1.1479 -0.4659 -1.3329
 9223SOL     OW39301   1.928   4.376   2.344 -0.2752 -0.8750 -0.3122
 9223SOL    HW139302   2.007   4.382   2.291  0.3013 -1.5417  0.4718
 9223SOL    HW239303   1.867   4.380   2.270  0.4558 -2.2629 -1.0087
 9224SOL     OW39304   1.655   1.893   3.412  0.2812 -0.2307  0.1852
 9224SOL    HW139305   1.658   1.817   3.470  0.6509 -0.1088  0.3233
 9224SOL    HW239306   1.605   1.947   3.473  0.2796  0.4503 -0.4241
 9225SOL     OW39307   2.374   3.903   6.356 -0.2184  0.2877 -0.0376
 9225SOL    HW139308   2.378   3.998   6.344 -1.1304  0.2838 -0.3473
 9225SOL    HW239309   2.356   3.899   6.450 -1.9838 -0.5385 -0.4193
 9226SOL     OW39310   3.636   3.657   7.129 -0.1969 -0.0037 -0.0542
 9226SOL    HW139311   3.647   3.751   7.141  0.8230  0.0061 -1.0534
 9226SOL    HW239312   3.726   3.632   7.109 -0.1296  0.3044 -0.1315
 9227SOL     OW39313   0.897   0.520  10.552 -0.6286  0.2944 -0.2118
 9227SOL    HW139314   0.807   0.549  10.571 -0.6781  0.2958 -0.4500
 9227SOL    HW239315   0.948   0.576  10.610  0.7859  1.1684 -2.2900
 9228SOL     OW39316   4.449   3.341   3.819  0.0157  0.4578  0.1856
 9228SOL    HW139317   4.493   3.269   3.865 -0.6079 -0.3651 -0.5171
 9228SOL    HW239318   4.358   3.316   3.836 -0.6278  0.3432 -3.4529
 9229SOL     OW39319   0.546   2.867   7.538  0.0426  0.1131 -0.5667
 9229SOL    HW139320   0.459   2.869   7.499 -0.0879 -2.5434 -0.4418
 9229SOL    HW239321   0.602   2.876   7.461 -1.1098 -0.0899 -1.4331
 9230SOL     OW39322   2.277   0.529   2.682 -0.3461  0.3970 -0.2068
 9230SOL    HW139323   2.207   0.463   2.678 -1.0725  1.1468  0.0070
 9230SOL    HW239324   2.301   0.526   2.589 -0.0671 -0.9061 -0.0906
 9231SOL     OW39325   2.797   2.011  11.418  0.0340  0.0865 -0.0079
 9231SOL    HW139326   2.778   1.990  11.327  1.6379  1.4514 -0.6571
 9231SOL    HW239327   2.755   1.938  11.463  1.4720  0.1409  1.4150
 9232SOL     OW39328   4.059   0.981  17.246 -0.0618 -0.0345  0.1445
 9232SOL    HW139329   4.128   0.972  17.312  1.3769 -0.1320 -1.3844
 9232SOL    HW239330   4.106   1.023  17.174 -0.1051  0.8584  0.6382
 9233SOL     OW39331   0.425   3.123   7.315  0.4183 -0.3716  0.7989
 9233SOL    HW139332   0.357   3.107   7.381 -1.7714  0.9904 -1.1504
 9233SOL    HW239333   0.502   3.072   7.342  1.0925 -0.0264 -0.5064
 9234SOL     OW39334   1.933   2.122   7.018  0.2804 -0.0356  0.5402
 9234SOL    HW139335   1.854   2.136   6.966  1.4341  1.3742 -0.8359
 9234SOL    HW239336   1.988   2.188   6.977  1.8103 -2.3946 -1.1836
 9235SOL     OW39337   1.740   2.952   8.601 -0.0868 -0.2574  0.6009
 9235SOL    HW139338   1.696   3.034   8.623 -0.3513 -0.2889  0.1943
 9235SOL    HW239339   1.700   2.879   8.649  1.3305 -2.5029 -1.6309
 9236SOL     OW39340   1.364   1.426   3.813 -0.3896 -0.3581  0.3244
 9236SOL    HW139341   1.391   1.355   3.755  3.9095 -0.9059  2.9911
 9236SOL    HW239342   1.366   1.379   3.896  2.7911 -1.0770 -0.1488
 9237SOL     OW39343   0.982   2.847   9.221 -0.0251 -0.3520  1.0883
 9237SOL    HW139344   0.957   2.755   9.210 -3.7277  0.8181 -0.1513
 9237SOL    HW239345   0.928   2.882   9.150  1.3472  0.1591  0.2951
 9238SOL     OW39346   2.769   4.683   2.661 -0.1236 -0.5021  0.5761
 9238SOL    HW139347   2.701   0.013   2.645  0.4476  0.1450  0.8336
 9238SOL    HW239348   2.797   4.692   2.752  2.1853  0.5926 -0.2508
 9239SOL     OW39349   4.149   1.317   2.104 -0.4243 -0.2693  0.2474
 9239SOL    HW139350   4.101   1.399   2.113 -1.5513 -0.9224  0.2276
 9239SOL    HW239351   4.213   1.308   2.175 -0.0794 -0.6013 -0.1078
 9240SOL     OW39352   0.492   0.076   5.526  0.0226  0.0651 -0.5442
 9240SOL    HW139353   0.435   0.082   5.449 -1.5076  0.1833  0.6015
 9240SOL    HW239354   0.458   0.010   5.586  0.7860 -0.3992 -0.6160
 9241SOL     OW39355   1.968   2.565   2.685 -0.6729 -0.0397 -0.2843
 9241SOL    HW139356   2.037   2.578   2.750 -0.3387  0.3943 -0.7289
 9241SOL    HW239357   1.894   2.585   2.742  0.2194  1.4537  0.3530
 9242SOL     OW39358   1.390   1.011   7.431 -0.2451 -0.2139  0.2858
 9242SOL    HW139359   1.318   1.001   7.493  0.1509 -0.7349  0.6692
 9242SOL    HW239360   1.466   1.023   7.487  1.1376 -1.4566 -1.2978
 9243SOL     OW39361   1.217   2.740   5.438  0.8289 -0.0050  0.1086
 9243SOL    HW139362   1.309   2.714   5.439  0.4370 -1.3048  2.3221
 9243SOL    HW239363   1.212   2.807   5.370 -1.1404  0.7935  1.0095
 9244SOL     OW39364   2.245   2.711  12.149  0.4349  0.8308 -0.2318
 9244SOL    HW139365   2.154   2.683  12.158  0.8336  0.8077  3.6592
 9244SOL    HW239366   2.240   2.745  12.060  1.3159 -0.8455 -0.9183
 9245SOL     OW39367   4.445   4.669  13.942  0.0328 -0.0559 -0.4940
 9245SOL    HW139368   4.365   4.687  13.991 -0.0692 -0.4020 -0.5308
 9245SOL    HW239369   4.493   4.615  14.005  0.1445  1.8780  1.0775
 9246SOL     OW39370   0.763   1.480   8.686 -0.1899 -0.4245  0.0394
 9246SOL    HW139371   0.793   1.557   8.639  0.9868 -0.6634  0.3992
 9246SOL    HW239372   0.829   1.478   8.754 -1.1945  0.9044  1.0423
 9247SOL     OW39373   1.023   4.048   9.858 -0.7941 -0.1256  0.1360
 9247SOL    HW139374   1.026   4.035   9.953  1.6645  1.8114  0.3070
 9247SOL    HW239375   0.972   3.971   9.830 -0.1839 -1.4132  2.5752
 9248SOL     OW39376   0.797   2.663  15.503  0.0162 -0.3039  0.3945
 9248SOL    HW139377   0.824   2.590  15.447  0.0915 -0.0399  0.0868
 9248SOL    HW239378   0.806   2.742  15.449 -1.8335 -0.2127  0.2366
 9249SOL     OW39379   4.406   0.656  15.837  0.2055  0.8566  0.0017
 9249SOL    HW139380   4.331   0.613  15.796 -0.5636 -0.2071  2.5243
 9249SOL    HW239381   4.462   0.682  15.763 -0.3486 -1.4415 -1.2276
 9250SOL     OW39382   2.195   4.494   7.689  0.6091  0.3691 -0.3501
 9250SOL    HW139383   2.192   4.589   7.678 -0.2958  0.5350  1.4428
 9250SOL    HW239384   2.113   4.491   7.737  0.8622  0.7098  0.1008
 9251SOL     OW39385   2.814   2.839   4.163  0.3985 -0.1662  0.2470
 9251SOL    HW139386   2.749   2.885   4.216  0.0559 -0.7411  0.3305
 9251SOL    HW239387   2.772   2.761   4.128  0.8920 -0.2606 -0.1280
 9252SOL     OW39388   1.758   4.102   6.250  0.1771  0.1808  0.1446
 9252SOL    HW139389   1.739   4.165   6.319 -1.3401  0.6690 -0.7236
 9252SOL    HW239390   1.820   4.041   6.291  0.5412  0.1508 -0.4445
 9253SOL     OW39391   0.607   1.642  16.495  0.1943 -0.4867 -0.1429
 9253SOL    HW139392   0.560   1.601  16.568  0.3007 -0.5139 -0.0887
 9253SOL    HW239393   0.597   1.576  16.426 -0.7284 -3.0742  2.4595
 9254SOL     OW39394   3.887   3.818   7.182 -0.3682 -0.6914 -0.0778
 9254SOL    HW139395   3.942   3.788   7.109 -0.8784  0.0459 -0.7759
 9254SOL    HW239396   3.889   3.910   7.155 -0.3745 -0.4188  0.8640
 9255SOL     OW39397   3.636   1.546   1.319  0.3715 -0.1743 -0.2333
 9255SOL    HW139398   3.608   1.455   1.311 -0.2147 -0.0012 -0.1365
 9255SOL    HW239399   3.585   1.582   1.247  1.8765  0.4521 -1.0005
 9256SOL     OW39400   3.432   0.154  13.864 -0.2760  0.1419 -0.5088
 9256SOL    HW139401   3.497   0.160  13.934  0.1804  1.4385 -1.0353
 9256SOL    HW239402   3.484   0.101  13.803 -1.4773  0.8876 -2.1811
 9257SOL     OW39403   3.385   0.051   0.462 -0.3306  0.1092  0.1375
 9257SOL    HW139404   3.324   0.068   0.390  0.6307  2.4838 -0.1060
 9257SOL    HW239405   3.464   0.067   0.412 -0.3488  2.0133  0.7497
 9258SOL     OW39406   3.958   0.061   4.432 -0.1317  0.6105 -0.4828
 9258SOL    HW139407   3.910   0.110   4.365 -0.2989 -0.1822 -0.9412
 9258SOL    HW239408   3.889   0.033   4.493  0.9330  0.1518  0.5063
 9259SOL     OW39409   4.010   3.465   7.645 -0.1569 -0.6658 -0.3931
 9259SOL    HW139410   4.053   3.381   7.632  0.4420 -0.3493 -0.4716
 9259SOL    HW239411   3.921   3.449   7.615 -0.0970 -0.6942 -0.5562
 9260SOL     OW39412   4.367   1.345   2.919 -0.8586 -0.4243 -0.2396
 9260SOL    HW139413   4.450   1.321   2.878 -1.3186 -0.5833 -1.0805
 9260SOL    HW239414   4.315   1.391   2.852  0.7241  1.0881 -0.4319
 9261SOL     OW39415   1.088   1.701  16.879  0.1506 -0.0975 -0.3561
 9261SOL    HW139416   1.139   1.725  16.957  1.2018  0.9164 -1.3626
 9261SOL    HW239417   1.008   1.750  16.898  0.0749 -0.4951  0.3435
 9262SOL     OW39418   1.190   1.979  11.019 -0.1843 -0.3951 -0.1932
 9262SOL    HW139419   1.190   1.884  11.011 -0.4505 -0.5841  2.0312
 9262SOL    HW239420   1.274   1.996  11.062  0.3511 -1.8407 -0.6747
 9263SOL     OW39421   2.234   2.059  10.704 -0.5722 -0.5371 -0.8357
 9263SOL    HW139422   2.216   1.972  10.668 -0.7294 -0.6053 -0.5897
 9263SOL    HW239423   2.263   2.046  10.794  0.1538  1.3182 -0.8009
 9264SOL     OW39424   2.424   1.966   9.074 -0.0508 -0.7747 -0.4387
 9264SOL    HW139425   2.493   2.030   9.088 -0.5296  0.0773 -1.9201
 9264SOL    HW239426   2.460   1.884   9.108  0.4670 -0.3387  0.0571
 9265SOL     OW39427   3.911   0.788   5.918  0.3079 -0.2320  0.0144
 9265SOL    HW139428   3.852   0.797   5.843 -0.9192  1.3350  1.1637
 9265SOL    HW239429   3.967   0.866   5.922 -0.5219  0.4030 -0.6813
 9266SOL     OW39430   2.814   1.060  12.103  0.2345  0.6962 -0.0080
 9266SOL    HW139431   2.795   0.969  12.082  1.5931  0.6868 -1.2247
 9266SOL    HW239432   2.739   1.102  12.060  1.8191  1.0724 -2.4368
 9267SOL     OW39433   0.407   3.482  11.250  0.6112 -0.3164 -0.2377
 9267SOL    HW139434   0.357   3.404  11.227 -0.4904  0.1087  0.7043
 9267SOL    HW239435   0.344   3.548  11.219  0.8552  0.3041  0.5663
 9268SOL     OW39436   2.008   3.738  12.190  0.2186 -0.4312 -0.2833
 9268SOL    HW139437   2.036   3.829  12.203 -0.2300 -0.3373 -0.0025
 9268SOL    HW239438   1.920   3.762  12.161  0.5046  0.2913 -0.5563
 9269SOL     OW39439   0.717   1.717   3.810 -0.1272 -0.0584 -0.0421
 9269SOL    HW139440   0.678   1.804   3.800 -1.7211 -0.7583  0.1460
 9269SOL    HW239441   0.641   1.659   3.809 -1.6959  1.9609  0.8789
 9270SOL     OW39442   2.511   1.109   0.594 -0.0604  0.4818  0.1613
 9270SOL    HW139443   2.511   1.204   0.592  0.1935  0.5276  2.7543
 9270SOL    HW239444   2.434   1.096   0.650 -0.3931  1.2436 -0.1208
 9271SOL     OW39445   3.080   0.291   0.660  0.4741 -0.2282  0.0756
 9271SOL    HW139446   3.155   0.234   0.677  2.4521  2.4894  0.5838
 9271SOL    HW239447   3.128   0.373   0.667  0.7359 -0.3081 -0.8051
 9272SOL     OW39448   3.913   1.802   8.349  0.2243  0.0096  0.1175
 9272SOL    HW139449   3.883   1.776   8.262  1.6300  0.7460 -0.5822
 9272SOL    HW239450   3.919   1.714   8.386  1.4090  0.8801  1.9776
 9273SOL     OW39451   1.479   3.768   9.390 -0.1978 -0.0656  0.1755
 9273SOL    HW139452   1.463   3.676   9.370 -1.0001  0.2930 -0.8076
 9273SOL    HW239453   1.559   3.776   9.442  0.3201 -1.5548 -0.4137
 9274SOL     OW39454   2.866   3.729   7.603 -0.4536 -0.5686 -0.2997
 9274SOL    HW139455   2.929   3.689   7.542  0.0109 -1.5011  0.7965
 9274SOL    HW239456   2.793   3.751   7.546 -0.1764 -0.2672 -0.5398
 9275SOL     OW39457   0.697   0.458   4.917 -0.1299 -0.0994  0.0274
 9275SOL    HW139458   0.676   0.379   4.967  0.2572  0.6830  1.4355
 9275SOL    HW239459   0.791   0.472   4.927  0.1336  0.0440 -2.6293
 9276SOL     OW39460   0.506   2.570   6.269 -0.0057  0.4165  0.3600
 9276SOL    HW139461   0.555   2.633   6.216  2.1123 -2.8304 -1.5298
 9276SOL    HW239462   0.570   2.555   6.339  0.3761  1.8300  0.3213
 9277SOL     OW39463   1.444   3.790   7.214  0.2382 -0.1384  0.0515
 9277SOL    HW139464   1.360   3.822   7.247 -0.6338 -1.9633 -0.3305
 9277SOL    HW239465   1.503   3.810   7.286  0.4570 -2.3970  0.5053
 9278SOL     OW39466   3.787   2.812   3.657  0.3265  0.6952  0.4070
 9278SOL    HW139467   3.871   2.767   3.654  1.4613  3.0590 -2.7959
 9278SOL    HW239468   3.731   2.767   3.593  1.8940  2.3543 -2.1105
 9279SOL     OW39469   0.762   4.463   6.640  0.2798  0.3256 -0.1463
 9279SOL    HW139470   0.690   4.478   6.578 -0.5011 -2.5622  0.0733
 9279SOL    HW239471   0.758   4.543   6.692 -3.8411  0.2135 -0.2776
 9280SOL     OW39472   1.049   4.469   4.163 -0.7289  0.4437 -0.9026
 9280SOL    HW139473   0.956   4.457   4.143 -0.9513 -1.0689  1.0224
 9280SOL    HW239474   1.053   4.552   4.211  1.5074 -2.3594  3.8156
 9281SOL     OW39475   1.806   2.578   3.366 -0.4698 -0.5650 -0.2060
 9281SOL    HW139476   1.776   2.613   3.282 -1.8186  1.4552  1.1041
 9281SOL    HW239477   1.737   2.518   3.396 -0.8561 -0.4571 -0.8746
 9282SOL     OW39478   3.172   4.253   6.803 -0.0396 -0.0795 -0.5723
 9282SOL    HW139479   3.207   4.164   6.795  0.0469 -0.0758 -0.2250
 9282SOL    HW239480   3.168   4.255   6.899  0.8602 -1.9707 -0.4919
 9283SOL     OW39481   1.177   1.150   5.592  0.0609 -0.8427 -0.0493
 9283SOL    HW139482   1.108   1.169   5.656 -1.8315  0.8297 -2.6064
 9283SOL    HW239483   1.122   1.185   5.523 -0.8335  0.0802  1.1372
 9284SOL     OW39484   3.954   3.783  14.583  0.0295  0.0250 -0.6033
 9284SOL    HW139485   3.868   3.822  14.596 -0.3457  0.0978 -3.2304
 9284SOL    HW239486   4.009   3.861  14.587  0.1966 -0.2145  1.4315
 9285SOL     OW39487   2.879   3.803   8.012  0.1669  0.4451 -0.1109
 9285SOL    HW139488   2.893   3.861   8.087  0.0939  0.2181  0.0786
 9285SOL    HW239489   2.922   3.852   7.942 -0.1014  1.2597  0.2970
 9286SOL     OW39490   3.467   3.139  16.534  0.1281 -0.0402  0.7937
 9286SOL    HW139491   3.539   3.077  16.551  0.3751  0.6897  2.4302
 9286SOL    HW239492   3.449   3.172  16.622  3.3057  1.9381  0.7177
 9287SOL     OW39493   0.888   1.723   4.126 -0.6380  0.0519 -0.6305
 9287SOL    HW139494   0.972   1.768   4.135 -0.1837 -0.7091 -1.0092
 9287SOL    HW239495   0.907   1.677   4.044  0.7151 -0.1501 -0.2088
 9288SOL     OW39496   4.162   1.174   3.992 -0.6753  0.3141 -0.0666
 9288SOL    HW139497   4.224   1.170   4.065 -2.3858  0.0703  1.3602
 9288SOL    HW239498   4.186   1.087   3.958 -3.2649  0.3576 -1.9483
 9289SOL     OW39499   3.137   1.936  14.790  0.0643 -0.0701 -0.0759
 9289SOL    HW139500   3.122   2.015  14.737  0.3156  1.1687  1.6961
 9289SOL    HW239501   3.226   1.910  14.765  0.0673 -0.5872  0.4762
 9290SOL     OW39502   4.560   0.959   2.850  0.3150  0.0016  0.1923
 9290SOL    HW139503   4.525   0.927   2.768 -0.1374 -2.4403  1.3552
 9290SOL    HW239504   4.540   1.052   2.839 -2.4574 -0.8995 -2.1797
 9291SOL     OW39505   4.068   0.015   9.007  0.1684  0.1192  0.0105
 9291SOL    HW139506   4.162   0.018   9.025  0.0381  0.7424  0.5612
 9291SOL    HW239507   4.058   0.097   8.958 -0.2850 -0.1847 -0.4073
 9292SOL     OW39508   2.342   1.638   9.619 -0.1042 -0.5870  0.0708
 9292SOL    HW139509   2.267   1.696   9.608  0.4269  0.1285  0.1590
 9292SOL    HW239510   2.318   1.597   9.702  1.5452  1.7899  1.7297
 9293SOL     OW39511   2.491   4.467   6.012  0.8619 -0.2616  0.4358
 9293SOL    HW139512   2.494   4.429   5.925  0.9811 -0.0913  0.3651
 9293SOL    HW239513   2.456   4.555   5.992 -3.1935 -0.8028  4.8836
 9294SOL     OW39514   0.776   2.415  10.521 -0.0589 -0.1212 -0.0884
 9294SOL    HW139515   0.791   2.440  10.612 -1.3257  3.3003 -0.8209
 9294SOL    HW239516   0.810   2.325  10.521 -1.0607 -0.5052 -1.5982
 9295SOL     OW39517   3.879   0.824  11.033  0.6033 -0.0751 -0.0093
 9295SOL    HW139518   3.812   0.850  11.096  0.6003  0.0607 -0.0694
 9295SOL    HW239519   3.865   0.891  10.967 -2.8276 -0.9502 -0.1922
 9296SOL     OW39520   3.877   4.151   5.981  0.5708  0.0773  0.1405
 9296SOL    HW139521   3.878   4.203   6.061 -0.2583  0.1979  0.0726
 9296SOL    HW239522   3.781   4.150   5.972  0.4655  0.9097  1.1781
 9297SOL     OW39523   3.654   4.434  15.788  0.2199 -0.4110  0.0404
 9297SOL    HW139524   3.562   4.440  15.760  0.2348 -2.1639 -0.3419
 9297SOL    HW239525   3.653   4.501  15.857  0.1999  0.7831 -1.1331
 9298SOL     OW39526   0.707   2.794  10.794 -0.0713  0.5989  0.3095
 9298SOL    HW139527   0.652   2.738  10.849  1.0959 -1.2030 -0.3529
 9298SOL    HW239528   0.794   2.764  10.818 -0.7526 -1.2125  0.5110
 9299SOL     OW39529   3.596   1.792   3.724 -0.2507  0.0543  0.2306
 9299SOL    HW139530   3.515   1.812   3.678 -0.6721 -0.0230  0.9485
 9299SOL    HW239531   3.565   1.778   3.813 -0.2283  2.1765  0.5574
 9300SOL     OW39532   3.879   1.484   0.639  0.4413  0.1826 -0.4638
 9300SOL    HW139533   3.862   1.501   0.546 -0.4780 -2.6151 -0.7917
 9300SOL    HW239534   3.949   1.420   0.646 -1.1371 -1.4817  0.1649
 9301SOL     OW39535   2.312   2.137   8.590  0.1739 -0.0648  0.4122
 9301SOL    HW139536   2.408   2.134   8.589  0.1306 -0.4752 -2.0159
 9301SOL    HW239537   2.298   2.101   8.502  2.4012 -0.4622  0.2118
 9302SOL     OW39538   2.135   2.340  12.155  0.2848 -0.0142  0.2807
 9302SOL    HW139539   2.126   2.343  12.250  0.5600 -1.5370  0.3618
 9302SOL    HW239540   2.093   2.424  12.136 -1.6265 -0.7929  1.0394
 9303SOL     OW39541   4.402   0.395   8.758  0.0948  0.5216  0.1261
 9303SOL    HW139542   4.467   0.464   8.773  0.6283 -0.1554  0.8755
 9303SOL    HW239543   4.353   0.404   8.840 -1.9165  2.5999 -1.2607
 9304SOL     OW39544   4.465   1.851   2.100  0.5948 -0.2854 -0.0201
 9304SOL    HW139545   4.506   1.790   2.039 -0.1656  0.5914 -1.4275
 9304SOL    HW239546   4.398   1.795   2.140  0.6264 -0.5613 -0.3462
 9305SOL     OW39547   3.349   0.425   3.747 -0.0295 -0.3750 -0.2642
 9305SOL    HW139548   3.354   0.450   3.655 -3.6251  0.6803 -0.1744
 9305SOL    HW239549   3.391   0.502   3.786  0.3727 -0.8222  0.1871
 9306SOL     OW39550   1.256   1.397   5.817  0.1572 -0.0544 -0.6326
 9306SOL    HW139551   1.329   1.399   5.878  0.4322  1.0955 -0.9934
 9306SOL    HW239552   1.292   1.343   5.747 -1.9751 -0.7771 -1.1688
 9307SOL     OW39553   0.464   1.484   4.353  0.0514  0.0307  0.0285
 9307SOL    HW139554   0.469   1.575   4.325  0.4899  0.1209  0.3962
 9307SOL    HW239555   0.377   1.450   4.332 -0.8890  0.5182  3.1641
 9308SOL     OW39556   1.299   3.907  12.272  0.6217 -0.0305  0.3814
 9308SOL    HW139557   1.271   3.816  12.286  1.0481 -0.4075 -1.1571
 9308SOL    HW239558   1.240   3.956  12.329 -0.5597  1.7186 -2.3236
 9309SOL     OW39559   1.672   2.554   5.299  0.3454  0.1588 -0.4120
 9309SOL    HW139560   1.740   2.535   5.235  0.9622  0.0920  0.2714
 9309SOL    HW239561   1.641   2.468   5.328  3.9074 -0.5160  1.3347
 9310SOL     OW39562   3.005   4.287   4.196  0.2633 -0.8205 -0.4528
 9310SOL    HW139563   2.922   4.284   4.244  0.4546 -0.6626 -0.1096
 9310SOL    HW239564   2.975   4.324   4.113  2.0283  0.9404 -0.3165
 9311SOL     OW39565   0.791   0.010   8.691 -0.3410 -0.1687 -0.0426
 9311SOL    HW139566   0.751   4.663   8.716 -0.3592 -0.0530  0.3105
 9311SOL    HW239567   0.886   4.731   8.700  0.2721  4.7370  1.3738
 9312SOL     OW39568   1.593   1.495  11.694  0.1331  0.6044  0.9204
 9312SOL    HW139569   1.579   1.542  11.776 -0.6336  1.1693  0.4652
 9312SOL    HW239570   1.606   1.406  11.726 -2.0393  0.4703  1.3816
 9313SOL     OW39571   3.236   1.638   1.864 -0.2028 -0.0755 -0.0561
 9313SOL    HW139572   3.158   1.582   1.863 -0.0390 -0.3360  2.2981
 9313SOL    HW239573   3.242   1.658   1.771 -1.7732 -3.3736 -0.8849
 9314SOL     OW39574   2.066   0.162   6.111  0.5395  0.5387 -0.1963
 9314SOL    HW139575   2.097   0.102   6.179 -0.7147 -1.6957 -1.5945
 9314SOL    HW239576   1.972   0.166   6.129  0.5021 -1.3645 -0.0525
 9315SOL     OW39577   3.290   4.620  10.867 -0.0933  0.4914  0.2182
 9315SOL    HW139578   3.369   4.566  10.878 -0.8248 -0.2939  1.6408
 9315SOL    HW239579   3.314   4.688  10.929  0.3000 -1.0040  1.7255
 9316SOL     OW39580   4.528   3.086  15.149  0.5228 -0.0549  0.4394
 9316SOL    HW139581   4.620   3.097  15.171  1.3846 -0.7054 -2.8779
 9316SOL    HW239582   4.535   3.056  15.058  1.7226  2.6983 -0.4035
 9317SOL     OW39583   4.733   2.507   1.603 -0.0717 -0.3922  0.0824
 9317SOL    HW139584   4.644   2.509   1.637 -0.0800 -1.7447  0.1063
 9317SOL    HW239585   0.046   2.439   1.650 -1.1271 -0.3986  1.1480
 9318SOL     OW39586   2.958   3.662   6.894  0.1743 -0.0267 -0.6308
 9318SOL    HW139587   2.908   3.602   6.839  1.5580 -2.6061  0.9763
 9318SOL    HW239588   2.995   3.605   6.960 -0.3935 -2.2603 -2.2497
 9319SOL     OW39589   2.881   1.840   6.577 -0.4829  1.1161 -0.4968
 9319SOL    HW139590   2.914   1.809   6.661  1.2906 -1.3596 -2.1094
 9319SOL    HW239591   2.870   1.767   6.516 -2.4907 -0.4353  1.7463
 9320SOL     OW39592   3.377   3.281   3.990  0.1271  0.4559  0.4490
 9320SOL    HW139593   3.382   3.375   4.006 -2.0997  0.5457  0.6230
 9320SOL    HW239594   3.445   3.280   3.923  0.6894 -2.4651  1.0348
 9321SOL     OW39595   0.248   2.362  11.402 -0.3688  0.1258 -0.5692
 9321SOL    HW139596   0.205   2.447  11.401 -0.3293  0.1768  2.0022
 9321SOL    HW239597   0.232   2.349  11.495 -4.4184  0.0739 -1.2518
 9322SOL     OW39598   1.255   2.130   3.225  0.0384  0.2017  0.0583
 9322SOL    HW139599   1.332   2.128   3.167 -0.2297 -1.8967 -0.2206
 9322SOL    HW239600   1.293   2.103   3.308  0.4429  0.9842  0.1259
 9323SOL     OW39601   2.796   2.146  15.367  0.0303  0.3925 -0.0185
 9323SOL    HW139602   2.812   2.096  15.287  2.6408  2.1398 -0.5807
 9323SOL    HW239603   2.864   2.102  15.419 -0.8599 -1.4481 -0.3852
 9324SOL     OW39604   2.446   1.148   0.064  0.5061 -0.2865  0.2104
 9324SOL    HW139605   2.419   1.067   0.019 -0.6511  0.7556 -0.9665
 9324SOL    HW239606   2.526   1.117   0.105  0.0541  1.0826  2.1248
 9325SOL     OW39607   1.294   2.103   7.864 -0.1561  0.7059  0.3150
 9325SOL    HW139608   1.334   2.177   7.816 -2.6100  0.9472 -1.3493
 9325SOL    HW239609   1.236   2.155   7.919 -3.0211 -1.0026 -1.0891
 9326SOL     OW39610   2.045   4.094   8.096  0.3848  0.2597  0.1441
 9326SOL    HW139611   2.103   4.033   8.050  0.9876  0.0962  1.1262
 9326SOL    HW239612   1.974   4.107   8.032  1.8491 -1.9026 -1.9467
 9327SOL     OW39613   2.411   3.912   8.520 -0.0452  0.5246  0.0916
 9327SOL    HW139614   2.392   3.821   8.543 -1.8687  0.7906 -0.3313
 9327SOL    HW239615   2.351   3.930   8.448 -0.0517  1.8537  0.4369
 9328SOL     OW39616   0.826   1.099   6.757  0.3575  0.2351  0.0741
 9328SOL    HW139617   0.854   1.008   6.754 -1.6944 -0.3523 -1.1625
 9328SOL    HW239618   0.852   1.134   6.842  2.2211 -2.8677  0.7673
 9329SOL     OW39619   2.014   3.063   4.848  0.3244  0.4475 -0.7317
 9329SOL    HW139620   2.012   3.115   4.768 -3.2331  0.3199 -0.7292
 9329SOL    HW239621   2.006   3.132   4.914 -1.5843 -0.6726  0.1990
 9330SOL     OW39622   1.257   1.122  15.264 -0.0081 -0.3546 -0.2114
 9330SOL    HW139623   1.314   1.160  15.196  0.4631 -1.3874 -0.3829
 9330SOL    HW239624   1.301   1.155  15.343 -3.5329  0.1816  1.4951
 9331SOL     OW39625   2.779   0.548   1.994  0.2589  0.1869  0.3367
 9331SOL    HW139626   2.717   0.475   1.991  0.7860 -0.2211 -0.5109
 9331SOL    HW239627   2.831   0.535   1.914 -0.3935 -2.0230  0.2594
 9332SOL     OW39628   2.441   0.750   5.539 -0.2116 -0.8023 -0.0339
 9332SOL    HW139629   2.439   0.661   5.573 -0.2608 -1.8125 -2.6235
 9332SOL    HW239630   2.356   0.746   5.496 -1.1004  1.1213  1.5914
 9333SOL     OW39631   3.508   1.986   5.778  0.2083 -0.1681  0.2041
 9333SOL    HW139632   3.457   2.039   5.839  1.8016  0.4752  0.9818
 9333SOL    HW239633   3.525   1.906   5.827 -0.9808  0.2458  1.2729
 9334SOL     OW39634   1.937   1.429  16.617 -0.1463 -0.5660  0.0488
 9334SOL    HW139635   2.014   1.439  16.672 -0.7443 -1.8884  1.1125
 9334SOL    HW239636   1.945   1.511  16.567  1.0128 -0.2447  0.7509
 9335SOL     OW39637   0.946   0.764   2.747 -0.0590 -0.0023  0.4119
 9335SOL    HW139638   0.906   0.768   2.660 -0.7410 -0.0940  0.7230
 9335SOL    HW239639   0.884   0.809   2.805  0.8361  1.5705  0.1570
 9336SOL     OW39640   0.286   1.933   4.884 -0.3097 -0.0761 -0.2501
 9336SOL    HW139641   0.272   1.876   4.808 -2.4540 -0.4464  0.4368
 9336SOL    HW239642   0.374   1.965   4.864 -0.0482 -0.1024  0.9109
 9337SOL     OW39643   1.045   4.376   7.750 -0.0141  0.1099 -0.4913
 9337SOL    HW139644   1.067   4.376   7.843  3.1475 -1.2871 -1.2388
 9337SOL    HW239645   1.060   4.467   7.724 -0.1663  0.3357  0.1971
 9338SOL     OW39646   4.566   4.236   8.307 -0.1651 -0.0879 -0.3257
 9338SOL    HW139647   4.508   4.230   8.231 -1.7221 -1.3932  0.9607
 9338SOL    HW239648   4.649   4.270   8.274  2.0733 -3.0971  2.2342
 9339SOL     OW39649   3.163   2.796  12.568  0.5247  0.1388 -0.6417
 9339SOL    HW139650   3.139   2.798  12.475 -1.2564 -1.5558 -0.2434
 9339SOL    HW239651   3.186   2.888  12.582 -0.7897  0.4226 -0.3395
 9340SOL     OW39652   2.502   0.816   7.236  0.3516 -0.5854 -0.2258
 9340SOL    HW139653   2.581   0.849   7.194 -1.0512  0.6232 -1.9001
 9340SOL    HW239654   2.544   0.763   7.304 -2.4364 -1.9016  0.4995
 9341SOL     OW39655   4.617   1.362  12.108  0.0285 -0.2643  0.3717
 9341SOL    HW139656   4.634   1.450  12.075 -1.7253 -0.6763 -1.5917
 9341SOL    HW239657   4.531   1.334  12.078  0.4908 -0.5509 -0.6726
 9342SOL     OW39658   2.300   1.882  13.509 -0.1383  0.2851 -0.0172
 9342SOL    HW139659   2.255   1.956  13.551  0.5315  0.1121  1.0186
 9342SOL    HW239660   2.233   1.816  13.524 -2.3057  2.2413 -1.0560
 9343SOL     OW39661   3.081   1.734   5.027  0.2325  0.5000  0.1859
 9343SOL    HW139662   3.132   1.766   5.101 -2.4654  0.4482  2.0850
 9343SOL    HW239663   3.036   1.663   5.073  1.8872 -0.6405  0.0119
 9344SOL     OW39664   4.131   3.599   4.447 -0.2744  0.0231 -0.6157
 9344SOL    HW139665   4.226   3.591   4.438 -0.1996  1.9085 -1.5374
 9344SOL    HW239666   4.118   3.687   4.482 -0.9299 -1.5362  3.0622
 9345SOL     OW39667   4.651   3.574   2.718  0.6886  0.0069  0.3422
 9345SOL    HW139668   4.707   3.518   2.664 -1.6430 -3.1483  1.2280
 9345SOL    HW239669   4.570   3.546   2.677  0.1792  2.5464 -0.3949
 9346SOL     OW39670   3.665   1.112  13.585  0.2938 -0.0756 -0.1722
 9346SOL    HW139671   3.659   1.021  13.615 -1.9909  0.3358  0.6409
 9346SOL    HW239672   3.759   1.126  13.598  0.1245  1.0834 -0.2249
 9347SOL     OW39673   1.838   3.376   2.513  0.1300  0.3115  0.2681
 9347SOL    HW139674   1.848   3.451   2.571  0.7563  0.4370 -0.0015
 9347SOL    HW239675   1.802   3.308   2.570  1.7675 -0.9044 -0.1245
 9348SOL     OW39676   1.135   3.606   8.430  0.2755  0.2627  0.1572
 9348SOL    HW139677   1.111   3.580   8.340 -2.1580  0.6861  0.6790
 9348SOL    HW239678   1.151   3.699   8.419  0.8805  0.1410  0.0300
 9349SOL     OW39679   4.050   2.301   6.332  0.4995 -0.1903 -0.0980
 9349SOL    HW139680   4.085   2.389   6.323  1.5341 -0.7269 -1.3430
 9349SOL    HW239681   4.058   2.296   6.427 -1.3140 -1.8195 -0.0161
 9350SOL     OW39682   0.124   2.973  11.826  0.2844  0.2821  0.2578
 9350SOL    HW139683   0.152   2.901  11.883  0.6553  2.7540  3.1951
 9350SOL    HW239684   0.178   3.049  11.848  2.0709 -0.8960 -0.1344
 9351SOL     OW39685   0.579   0.338   3.574  0.1484 -0.2776  0.1788
 9351SOL    HW139686   0.669   0.373   3.571 -0.1104  0.3474 -0.2641
 9351SOL    HW239687   0.536   0.410   3.620 -2.2303 -1.7870  0.2784
 9352SOL     OW39688   1.754   1.599   6.846 -0.0424 -0.5974 -0.1809
 9352SOL    HW139689   1.784   1.686   6.821  1.2391 -0.8859  0.3360
 9352SOL    HW239690   1.750   1.603   6.942  1.0598  0.5329 -0.1695
 9353SOL     OW39691   0.132   1.810   8.569  0.0357 -0.1655  0.9297
 9353SOL    HW139692   0.151   1.899   8.537 -1.1936 -0.2872 -0.1538
 9353SOL    HW239693   0.199   1.788   8.633  1.6003 -0.5929 -0.8675
 9354SOL     OW39694   4.299   2.900   6.120  0.1703 -0.6928 -0.4010
 9354SOL    HW139695   4.381   2.938   6.152 -0.8796  1.2205 -0.0043
 9354SOL    HW239696   4.334   2.831   6.063 -1.3943 -0.0593 -2.0953
 9355SOL     OW39697   1.006   1.000  16.776 -0.4944  0.5568 -0.1031
 9355SOL    HW139698   1.096   0.970  16.792 -0.6875 -0.2206 -0.5025
 9355SOL    HW239699   1.031   1.068  16.713 -0.8432 -0.8238 -1.7304
 9356SOL     OW39700   2.613   1.793   5.328  0.4798  0.1868 -0.7356
 9356SOL    HW139701   2.667   1.782   5.406  0.3690 -2.9891 -1.0947
 9356SOL    HW239702   2.635   1.710   5.285 -0.6949  0.6528 -2.2402
 9357SOL     OW39703   4.329   1.705  16.110  0.5943 -0.5440 -0.3686
 9357SOL    HW139704   4.275   1.746  16.042  2.1267 -3.1155 -3.1407
 9357SOL    HW239705   4.336   1.622  16.062 -0.0013 -0.2987 -0.8846
 9358SOL     OW39706   3.474   1.024   4.460  0.0683 -1.0672  0.2960
 9358SOL    HW139707   3.553   1.077   4.451 -0.4412 -0.1345  1.4192
 9358SOL    HW239708   3.407   1.090   4.441  1.3048  0.7784  2.3924
 9359SOL     OW39709   1.991   3.953   9.067  0.5525  0.2752 -0.5104
 9359SOL    HW139710   2.070   3.934   9.118 -0.0581 -0.1319  0.2761
 9359SOL    HW239711   2.019   3.960   8.975 -0.8010  1.6451 -0.7968
 9360SOL     OW39712   2.688   1.871   1.135 -0.4456 -0.0738  0.0604
 9360SOL    HW139713   2.619   1.862   1.202  0.5291  0.4348  1.1341
 9360SOL    HW239714   2.697   1.966   1.127  1.9443 -0.3141  0.0580
 9361SOL     OW39715   1.622   4.523  10.261  0.0952  0.3217  0.0910
 9361SOL    HW139716   1.602   4.448  10.317 -0.2609 -0.4358 -1.0403
 9361SOL    HW239717   1.621   4.589  10.331  0.7760  1.4391 -0.9494
 9362SOL     OW39718   0.396   1.333   1.280 -0.0967  0.1860 -1.0083
 9362SOL    HW139719   0.440   1.393   1.220 -0.2636  0.2003 -1.1150
 9362SOL    HW239720   0.317   1.299   1.238  0.2444 -1.9811  0.0989
 9363SOL     OW39721   1.893   4.266   7.908 -0.5525  0.5433 -0.2058
 9363SOL    HW139722   1.962   4.306   7.961  0.1282  1.9950 -2.1817
 9363SOL    HW239723   1.822   4.329   7.919 -3.0999 -2.1897 -0.9947
 9364SOL     OW39724   3.643   2.631  10.440  0.3665  0.3905  0.2362
 9364SOL    HW139725   3.707   2.647  10.510  2.4038 -1.1575 -1.2734
 9364SOL    HW239726   3.654   2.541  10.408 -0.5680  0.5521 -0.5284
 9365SOL     OW39727   3.863   1.226  12.959 -0.3615 -0.3516  0.0900
 9365SOL    HW139728   3.905   1.290  13.016 -1.8180  0.5400  0.1752
 9365SOL    HW239729   3.772   1.242  12.985 -0.5312 -0.1161 -0.6658
 9366SOL     OW39730   1.048   4.441   1.075  1.0281 -0.4255  0.2154
 9366SOL    HW139731   0.993   4.502   1.124 -0.4815  0.2517 -2.3282
 9366SOL    HW239732   1.130   4.436   1.125  0.8004 -1.6335  0.4713
 9367SOL     OW39733   1.431   4.527   8.054 -0.2674  0.2941 -0.2531
 9367SOL    HW139734   1.458   4.483   8.135 -0.3709  0.2224 -0.2575
 9367SOL    HW239735   1.410   4.614   8.088 -2.5720 -0.5759  0.5755
 9368SOL     OW39736   2.824   4.226   9.280  0.0276 -0.6560 -0.1450
 9368SOL    HW139737   2.809   4.167   9.206 -1.7664  0.9679 -1.0956
 9368SOL    HW239738   2.782   4.309   9.255  0.7506 -0.4720 -0.7280
 9369SOL     OW39739   1.989   3.141  14.187  0.2459 -0.0790 -0.6379
 9369SOL    HW139740   2.002   3.057  14.143  1.2194 -0.4415  0.3387
 9369SOL    HW239741   1.940   3.115  14.265  2.3420 -2.6281 -0.1895
 9370SOL     OW39742   0.317   1.095   7.520  0.1100 -0.2634 -0.3427
 9370SOL    HW139743   0.394   1.120   7.571  1.7650 -1.9805 -2.0091
 9370SOL    HW239744   0.270   1.178   7.520  0.0954 -0.2676  0.0483
 9371SOL     OW39745   0.274   3.378  10.329 -0.0885  0.0095 -0.3307
 9371SOL    HW139746   0.183   3.352  10.314 -0.2759  0.3879  0.1289
 9371SOL    HW239747   0.278   3.436  10.253 -1.1297  0.0392 -0.3649
 9372SOL     OW39748   0.283   0.970   9.808 -0.3827  0.0795 -0.2713
 9372SOL    HW139749   0.208   0.993   9.862 -0.4435 -0.1048 -0.2769
 9372SOL    HW239750   0.318   1.053   9.774  3.9609 -0.7712  2.0569
 9373SOL     OW39751   1.279   3.534   0.210  0.2912  0.1948  0.3393
 9373SOL    HW139752   1.221   3.596   0.254  1.4519  1.9964 -0.6744
 9373SOL    HW239753   1.329   3.495   0.282 -0.8651 -1.9113 -0.0141
 9374SOL     OW39754   4.210   3.627  16.095 -0.0093 -0.1310  0.0116
 9374SOL    HW139755   4.170   3.559  16.150 -2.5625  2.9013  1.8657
 9374SOL    HW239756   4.155   3.623  16.017  2.3976  1.2468 -1.7329
 9375SOL     OW39757   0.682   2.906   7.946 -1.1376 -0.4303  0.0866
 9375SOL    HW139758   0.692   2.972   7.877  1.5426  0.0893  0.9826
 9375SOL    HW239759   0.722   2.954   8.018  0.9185 -2.7453  0.5115
 9376SOL     OW39760   3.401   4.635  12.412 -0.3740  0.0622 -0.5538
 9376SOL    HW139761   3.358   4.561  12.369 -0.1757  0.3234 -1.2095
 9376SOL    HW239762   3.397   4.698  12.340  0.5888  2.4869  1.5037
 9377SOL     OW39763   2.393   1.293   9.556 -0.7697 -0.1877 -0.1194
 9377SOL    HW139764   2.449   1.365   9.586 -1.1514  0.5196 -1.1091
 9377SOL    HW239765   2.451   1.239   9.502  1.2405  0.9352  0.9065
 9378SOL     OW39766   2.706   2.525   6.658 -0.0195 -0.2681  0.2649
 9378SOL    HW139767   2.651   2.513   6.736  0.7978  1.3839  1.0833
 9378SOL    HW239768   2.739   2.436   6.651 -0.8257 -0.5804  0.3537
 9379SOL     OW39769   0.036   1.708   3.257  0.6896 -0.1572 -0.5357
 9379SOL    HW139770   0.068   1.661   3.181 -1.9222  2.0085 -2.9932
 9379SOL    HW239771   4.730   1.632   3.298  0.5028 -0.0751 -0.5674
 9380SOL     OW39772   2.833   4.680   8.172  0.1100  0.2209  0.2701
 9380SOL    HW139773   2.755   4.633   8.201  0.5225  0.7611  2.2899
 9380SOL    HW239774   2.798   0.029   8.142  0.9984  0.0366 -1.2674
 9381SOL     OW39775   3.977   4.565   1.576  0.5680 -0.2425  0.0556
 9381SOL    HW139776   4.060   4.520   1.558  0.7233 -0.8345  2.2204
 9381SOL    HW239777   4.008   4.654   1.593 -0.1394 -0.3716  1.9860
 9382SOL     OW39778   1.856   0.124  13.506 -0.0691  0.2648  0.3224
 9382SOL    HW139779   1.822   0.061  13.569  2.2032 -0.5409  0.7560
 9382SOL    HW239780   1.866   0.201  13.562 -2.5036 -0.4659  1.7538
 9383SOL     OW39781   2.650   2.000   6.020  0.3467  0.2935 -1.0831
 9383SOL    HW139782   2.708   2.032   6.089  2.4993  1.2800 -3.3375
 9383SOL    HW239783   2.604   2.081   6.000  0.9179  0.9911  0.4637
 9384SOL     OW39784   2.494   4.481   3.401  0.4185  0.2652  0.0370
 9384SOL    HW139785   2.521   4.555   3.455  0.0275  0.4908 -0.0791
 9384SOL    HW239786   2.553   4.410   3.429  1.2273  1.8665  2.4077
 9385SOL     OW39787   1.994   4.564   2.553 -0.3933 -0.0470 -0.0037
 9385SOL    HW139788   1.901   4.569   2.577 -0.4867 -0.3906 -0.2922
 9385SOL    HW239789   1.989   4.491   2.492 -0.0845 -1.1003  1.2379
 9386SOL     OW39790   3.837   4.130   0.429  0.3708 -0.3257  0.1215
 9386SOL    HW139791   3.929   4.104   0.433  0.1182 -1.4426 -1.3906
 9386SOL    HW239792   3.809   4.087   0.348  1.2660  1.1461 -0.9710
 9387SOL     OW39793   0.592   0.920   3.356 -0.0538 -0.0855 -0.1518
 9387SOL    HW139794   0.667   0.956   3.308  0.3544  1.4866  1.6838
 9387SOL    HW239795   0.562   1.004   3.390 -0.9908  1.0211 -3.6805
 9388SOL     OW39796   1.355   0.783   4.845 -0.2461  0.4078  0.8829
 9388SOL    HW139797   1.389   0.872   4.853  0.9443  0.1646 -1.3273
 9388SOL    HW239798   1.267   0.794   4.809  0.7309 -0.7487 -1.8793
 9389SOL     OW39799   4.057   0.711   7.785 -0.3288 -0.2447  0.0097
 9389SOL    HW139800   4.010   0.705   7.868  1.3686  2.2429  1.1544
 9389SOL    HW239801   4.021   0.638   7.734 -1.5572 -0.6184  1.4240
 9390SOL     OW39802   0.244   3.566   2.835 -0.0285  0.1483  0.4985
 9390SOL    HW139803   0.203   3.576   2.920 -0.3963  0.0657  0.3273
 9390SOL    HW239804   0.337   3.558   2.860 -0.2393 -0.2241  1.1551
 9391SOL     OW39805   2.057   1.314  11.211  0.1621 -0.2479  0.0512
 9391SOL    HW139806   2.052   1.232  11.161  3.9842  0.4274 -1.4481
 9391SOL    HW239807   1.973   1.304  11.255  0.0709 -1.9399 -0.4749
 9392SOL     OW39808   0.605   2.838   9.335  0.1313  0.0046 -0.1883
 9392SOL    HW139809   0.550   2.836   9.257  1.2469  0.6247 -1.0036
 9392SOL    HW239810   0.607   2.745   9.357  1.5561  0.3057  0.9770
 9393SOL     OW39811   3.242   0.738   3.678 -0.0272  0.0319  0.1418
 9393SOL    HW139812   3.252   0.698   3.592  0.2125 -0.6080  0.4680
 9393SOL    HW239813   3.319   0.702   3.722 -0.8686  1.0323  2.4233
 9394SOL     OW39814   4.723   3.667   7.510  0.8150  0.0882 -0.2767
 9394SOL    HW139815   0.007   3.573   7.516 -0.0734 -0.0488  0.3772
 9394SOL    HW239816   4.684   3.668   7.423  0.0761  0.7269  0.0662
 9395SOL     OW39817   1.554   4.001   9.279  0.0988 -0.5558  0.4620
 9395SOL    HW139818   1.648   3.984   9.275  0.5167  1.5657  1.2554
 9395SOL    HW239819   1.521   3.918   9.313  0.2294 -0.1749  1.5253
 9396SOL     OW39820   4.393   4.114   3.811  0.9680  0.0258  0.5346
 9396SOL    HW139821   4.307   4.092   3.776  0.6251 -0.2476  1.5656
 9396SOL    HW239822   4.375   4.205   3.833 -2.2092 -0.7258  1.0347
 9397SOL     OW39823   1.206   1.509   6.511  0.1769 -0.3095 -0.9241
 9397SOL    HW139824   1.240   1.581   6.565  0.8011  0.2874 -2.1106
 9397SOL    HW239825   1.283   1.457   6.488  0.9843  0.8686 -0.9115
 9398SOL     OW39826   2.486   2.238  12.640  0.2424  0.0117  0.1934
 9398SOL    HW139827   2.413   2.216  12.699  0.1594 -1.0741 -0.3153
 9398SOL    HW239828   2.444   2.250  12.555 -1.2692 -2.1315  0.6469
 9399SOL     OW39829   0.251   3.837   4.242 -0.1818  0.2921  0.0241
 9399SOL    HW139830   0.287   3.823   4.154  0.2986  1.7668 -0.0247
 9399SOL    HW239831   0.325   3.796   4.287  0.5179  1.0981 -0.3694
 9400SOL     OW39832   2.232   0.216  16.559 -0.0535  0.1275  0.6667
 9400SOL    HW139833   2.175   0.170  16.620 -1.2832  1.2317  0.3568
 9400SOL    HW239834   2.169   0.254  16.497  0.4486  0.5985  0.4460
 9401SOL     OW39835   1.022   1.311   1.136 -0.1004  0.1862 -0.3924
 9401SOL    HW139836   1.055   1.271   1.216  0.0650  3.5012  1.1948
 9401SOL    HW239837   1.100   1.351   1.098 -1.2499 -0.6572 -3.6235
 9402SOL     OW39838   0.569   1.627  17.364  0.0137 -0.2490  0.5928
 9402SOL    HW139839   0.595   1.712  17.401 -0.0438 -0.0813  0.2447
 9402SOL    HW239840   0.606   1.563  17.424  0.4902  2.1047  2.8437
 9403SOL     OW39841   0.510   0.737   7.239 -0.5833  0.1984 -0.3382
 9403SOL    HW139842   0.546   0.665   7.187 -0.1804 -0.1291  0.3903
 9403SOL    HW239843   0.537   0.704   7.324 -0.8389  0.1297 -0.2855
 9404SOL     OW39844   4.731   2.094   6.871 -0.4216 -0.2523  0.0684
 9404SOL    HW139845   0.008   2.169   6.929 -3.2255 -0.2977  0.7503
 9404SOL    HW239846   4.712   2.029   6.938 -0.7406 -0.4312 -0.1944
 9405SOL     OW39847   3.655   2.997   4.312 -0.3295 -1.1325  0.8376
 9405SOL    HW139848   3.712   2.920   4.314  0.3767 -0.6641 -0.9519
 9405SOL    HW239849   3.713   3.056   4.360 -1.0653  1.3242 -1.2967
 9406SOL     OW39850   0.624   4.145  17.007 -1.0216 -0.3084  0.3183
 9406SOL    HW139851   0.570   4.169  16.932  1.8713 -0.0278 -1.6820
 9406SOL    HW239852   0.555   4.139  17.073 -1.5978 -0.7813 -0.3280
 9407SOL     OW39853   4.091   2.210   5.890  0.0178 -0.0108  0.0521
 9407SOL    HW139854   4.160   2.145   5.894  1.7697  1.8882  0.4437
 9407SOL    HW239855   4.060   2.208   5.800 -0.7944 -1.4610  0.3705
 9408SOL     OW39856   1.721   2.174  11.427 -0.6136 -0.8187 -0.1152
 9408SOL    HW139857   1.656   2.211  11.487  0.1732  0.3372  0.0362
 9408SOL    HW239858   1.801   2.162  11.479  0.5190 -2.0775 -2.1434
 9409SOL     OW39859   4.017   1.846   4.643  0.0184 -0.3386  0.1727
 9409SOL    HW139860   3.986   1.758   4.664 -2.3926  0.0235 -1.9114
 9409SOL    HW239861   3.952   1.912   4.669 -0.5297 -1.6914  2.1832
 9410SOL     OW39862   3.544   3.720   9.066 -0.0507 -0.0320  0.2199
 9410SOL    HW139863   3.527   3.763   9.150  1.3824  0.6943  0.1302
 9410SOL    HW239864   3.456   3.726   9.027 -0.4244 -1.3505  0.8488
 9411SOL     OW39865   3.837   1.216  16.370 -0.1693 -0.2992 -0.5643
 9411SOL    HW139866   3.892   1.139  16.387 -0.5116 -0.8414 -1.8734
 9411SOL    HW239867   3.877   1.253  16.291 -3.2067  0.0760 -1.9095
 9412SOL     OW39868   4.315   3.257   8.807 -0.2668 -0.5635 -0.3688
 9412SOL    HW139869   4.293   3.176   8.760 -2.1547 -0.7442  0.8381
 9412SOL    HW239870   4.373   3.224   8.876 -2.5279  0.4349  2.0090
 9413SOL     OW39871   2.817   3.904   6.276  0.4690 -0.2283 -0.2738
 9413SOL    HW139872   2.739   3.885   6.225 -0.3778  2.7697 -0.0982
 9413SOL    HW239873   2.868   3.836   6.234 -0.6238 -0.2501 -1.5664
 9414SOL     OW39874   1.552   0.559   1.206 -0.3203 -0.1404  0.0420
 9414SOL    HW139875   1.606   0.633   1.235 -1.8076  0.7798  0.4677
 9414SOL    HW239876   1.576   0.496   1.275  0.3060 -0.7901 -0.7757
 9415SOL     OW39877   0.502   0.021   4.398  0.5021  0.4373 -0.2490
 9415SOL    HW139878   0.457   0.080   4.337 -0.5019  0.8079  0.8506
 9415SOL    HW239879   0.435   4.690   4.417 -0.0007  1.4001  1.3775
 9416SOL     OW39880   0.945   2.151   9.217 -0.0528  0.1405  0.0100
 9416SOL    HW139881   0.905   2.144   9.130 -2.2943  1.9894  0.8973
 9416SOL    HW239882   1.022   2.095   9.206  0.7042  1.0609  0.6793
 9417SOL     OW39883   2.687   1.636   0.520  0.1074 -0.0889  0.0957
 9417SOL    HW139884   2.764   1.630   0.463 -0.7618 -1.0428 -0.9684
 9417SOL    HW239885   2.623   1.615   0.453 -0.2735  3.2298 -0.5716
 9418SOL     OW39886   2.754   0.617   8.766  0.3214  0.1812  0.1756
 9418SOL    HW139887   2.827   0.573   8.809 -0.1129  0.0312  0.7629
 9418SOL    HW239888   2.687   0.554   8.792  0.9863 -1.6380 -2.5051
 9419SOL     OW39889   2.647   1.522   7.112  0.0104  0.8879  0.1710
 9419SOL    HW139890   2.651   1.594   7.049 -0.7433  1.8955  1.2727
 9419SOL    HW239891   2.579   1.472   7.068 -0.1146  0.9056  0.3412
 9420SOL     OW39892   0.182   0.885   2.007  0.0863 -0.4088 -0.5017
 9420SOL    HW139893   0.219   0.893   2.094  0.6090 -0.1706 -0.7472
 9420SOL    HW239894   0.258   0.860   1.954 -0.6869 -1.8032 -0.9767
 9421SOL     OW39895   2.946   1.545   2.715 -0.3226  0.0134 -0.3090
 9421SOL    HW139896   2.944   1.506   2.803 -0.8548 -1.4897 -0.9907
 9421SOL    HW239897   2.877   1.609   2.731  0.8228  1.2022 -0.0373
 9422SOL     OW39898   4.210   4.556  12.899  0.1079 -0.3523  0.5284
 9422SOL    HW139899   4.225   4.564  12.993  0.4162 -1.1342  0.5516
 9422SOL    HW239900   4.187   4.645  12.875  1.4369  0.2861  1.6497
 9423SOL     OW39901   0.329   3.267   8.040  0.1131 -0.0823  0.0458
 9423SOL    HW139902   0.324   3.363   8.036  0.7101 -0.0432  0.2506
 9423SOL    HW239903   0.390   3.248   8.110 -0.4081  1.8009  1.0369
 9424SOL     OW39904   2.396   4.590   2.804 -0.2136 -0.4883 -0.6124
 9424SOL    HW139905   2.432   4.678   2.796 -1.6926  0.1866  0.1972
 9424SOL    HW239906   2.354   4.587   2.718  1.9239  0.9519 -1.6969
 9425SOL     OW39907   0.919   4.533   6.954  0.1370  0.0039  0.0623
 9425SOL    HW139908   0.893   4.443   6.974  1.9964 -0.4812  0.2413
 9425SOL    HW239909   1.014   4.523   6.950  0.2525  2.3098 -2.6967
 9426SOL     OW39910   0.736   0.361   7.504  0.1518  0.4004  0.0517
 9426SOL    HW139911   0.770   0.315   7.581  0.1895 -1.9331 -1.3587
 9426SOL    HW239912   0.813   0.361   7.447 -0.1974  1.2587 -0.4122
 9427SOL     OW39913   0.424   0.795   0.704 -0.8088  1.2009  0.1569
 9427SOL    HW139914   0.455   0.766   0.619 -1.0675  0.7729  0.2104
 9427SOL    HW239915   0.330   0.785   0.687 -0.9023  0.6416  0.9663
 9428SOL     OW39916   3.033   2.059  15.034  0.4491  0.0351 -0.5207
 9428SOL    HW139917   3.081   2.030  14.957  1.0395  0.2293 -0.2282
 9428SOL    HW239918   3.092   2.111  15.089 -0.2028  1.5265 -1.2457
 9429SOL     OW39919   3.854   4.425   8.456  0.4695 -0.2725 -0.2807
 9429SOL    HW139920   3.870   4.474   8.375  1.3801 -0.9187 -0.4964
 9429SOL    HW239921   3.763   4.449   8.474 -0.1970 -3.3071  0.3618
 9430SOL     OW39922   1.501   3.102   8.811  0.1729  0.1706  0.5784
 9430SOL    HW139923   1.488   3.109   8.906 -0.2354  0.7743  0.4748
 9430SOL    HW239924   1.479   3.010   8.796  1.8210 -0.6116  2.9482
 9431SOL     OW39925   3.678   0.201   1.355 -0.3239 -0.1119 -0.2953
 9431SOL    HW139926   3.673   0.143   1.431 -1.1272  1.7758  1.0902
 9431SOL    HW239927   3.709   0.279   1.399  1.1360 -0.7408 -0.2051
 9432SOL     OW39928   2.832   2.920   1.533  0.4171  0.1459  0.2172
 9432SOL    HW139929   2.804   2.989   1.472  0.4700 -0.8672 -0.9608
 9432SOL    HW239930   2.873   2.971   1.602  0.7334 -1.4903  1.2363
 9433SOL     OW39931   3.746   4.343   6.732  0.0006 -0.0231 -0.1465
 9433SOL    HW139932   3.771   4.279   6.665  1.9105  0.3846  0.1942
 9433SOL    HW239933   3.828   4.376   6.768 -0.0674  1.3056 -1.2157
 9434SOL     OW39934   4.013   2.211  12.877  0.2809  0.0115 -0.5034
 9434SOL    HW139935   3.925   2.206  12.840 -0.5432  0.8012  1.3623
 9434SOL    HW239936   4.001   2.139  12.938  0.9546  1.2701  1.1022
 9435SOL     OW39937   1.708   3.797   8.744 -0.5668 -0.9579 -0.3298
 9435SOL    HW139938   1.780   3.856   8.721 -1.5527  0.6139  0.5826
 9435SOL    HW239939   1.726   3.730   8.678 -1.0573 -1.5192  0.1147
 9436SOL     OW39940   3.859   3.390   9.163  0.0926  0.1930 -0.1344
 9436SOL    HW139941   3.948   3.419   9.185 -0.6799  0.9240  2.0158
 9436SOL    HW239942   3.816   3.427   9.239  0.1183 -0.3896  0.1648
 9437SOL     OW39943   2.367   3.232   0.811 -0.3847 -0.4070  0.2429
 9437SOL    HW139944   2.399   3.262   0.726 -2.4097 -2.5702 -1.2797
 9437SOL    HW239945   2.360   3.140   0.787 -1.4318 -0.4457  0.6874
 9438SOL     OW39946   1.801   2.190  12.308 -0.4524  0.1375  0.0812
 9438SOL    HW139947   1.755   2.107  12.303 -1.3280  0.4160  3.7496
 9438SOL    HW239948   1.887   2.149  12.316 -0.7624 -0.7972 -1.4169
 9439SOL     OW39949   4.329   3.374   4.642  0.6450  0.3516 -0.0202
 9439SOL    HW139950   4.333   3.456   4.592  0.3753  1.5390  1.8869
 9439SOL    HW239951   4.416   3.377   4.682  0.8795 -1.8476 -0.3815
 9440SOL     OW39952   1.251   0.712  12.603 -0.4794  0.0445 -0.0626
 9440SOL    HW139953   1.335   0.688  12.565 -1.0194  0.8583 -1.8262
 9440SOL    HW239954   1.195   0.634  12.596  0.6771 -0.6375 -1.7263
 9441SOL     OW39955   4.565   4.654   8.531 -0.1635 -0.5266 -0.2051
 9441SOL    HW139956   4.516   4.726   8.491  3.0682  2.6602  1.5403
 9441SOL    HW239957   4.636   4.647   8.467 -0.7244 -1.1657 -0.7381
 9442SOL     OW39958   0.212   0.626   0.460  0.4361 -0.1370  0.1460
 9442SOL    HW139959   0.295   0.673   0.450 -0.1923  0.7566 -0.7996
 9442SOL    HW239960   0.237   0.538   0.486  1.7754  0.3378  0.4756
 9443SOL     OW39961   2.116   0.833   5.547  0.3242 -0.2369 -0.3400
 9443SOL    HW139962   2.069   0.800   5.624  0.2976 -1.6673 -0.9542
 9443SOL    HW239963   2.049   0.824   5.479  0.2051  0.8639 -0.3554
 9444SOL     OW39964   4.079   1.177   6.909 -0.3269 -0.5264  0.4611
 9444SOL    HW139965   4.078   1.151   7.002 -0.8879 -0.8144  0.3744
 9444SOL    HW239966   4.141   1.115   6.871 -1.8001 -2.8818  1.8385
 9445SOL     OW39967   4.225   0.082  17.197 -0.1602 -0.5288 -0.0587
 9445SOL    HW139968   4.149   0.133  17.225  0.3358  0.7693 -1.0926
 9445SOL    HW239969   4.269   0.152  17.148 -2.1021 -0.7995 -2.1579
 9446SOL     OW39970   2.111   0.677  14.683 -0.0685  0.7333 -0.5814
 9446SOL    HW139971   2.169   0.604  14.663 -0.2286 -0.0437  1.7571
 9446SOL    HW239972   2.027   0.637  14.661 -0.7892 -0.3744  4.3073
 9447SOL     OW39973   0.112   2.165   4.376 -0.4239  0.2261  0.1383
 9447SOL    HW139974   0.112   2.096   4.309  2.4016  0.7867 -0.4081
 9447SOL    HW239975   0.195   2.141   4.417 -0.6443 -0.2510  0.3022
 9448SOL     OW39976   1.171   2.237   2.990  0.6282 -0.1354  0.1656
 9448SOL    HW139977   1.198   2.201   3.074  2.1184 -1.5182 -0.8836
 9448SOL    HW239978   1.216   2.171   2.936  2.4478  0.3833  1.0339
 9449SOL     OW39979   1.607   0.478  12.979 -0.2032  0.5728 -0.2032
 9449SOL    HW139980   1.650   0.397  12.952  0.7797  1.2846 -0.7726
 9449SOL    HW239981   1.588   0.451  13.069  0.8536  0.4099 -0.0261
 9450SOL     OW39982   0.500   0.743   2.562 -0.5724 -0.1239  0.3064
 9450SOL    HW139983   0.444   0.808   2.604  1.9060  2.4322 -0.3406
 9450SOL    HW239984   0.564   0.799   2.517 -0.5778 -0.3807 -0.0219
 9451SOL     OW39985   2.399   1.452   1.422 -0.0858 -0.2794  0.4089
 9451SOL    HW139986   2.404   1.387   1.353 -1.2386  0.0212  0.0487
 9451SOL    HW239987   2.471   1.424   1.479 -0.3654 -0.5849  0.6141
 9452SOL     OW39988   2.374   4.355   1.735  0.3293  0.6376 -0.4152
 9452SOL    HW139989   2.294   4.304   1.722  1.5088 -2.2325  3.4850
 9452SOL    HW239990   2.364   4.375   1.828 -0.6629  0.6080 -0.5191
 9453SOL     OW39991   3.819   1.614  13.758 -0.0038 -0.3143 -0.0471
 9453SOL    HW139992   3.773   1.693  13.787  1.3009  0.6674 -0.6319
 9453SOL    HW239993   3.756   1.551  13.791  1.2987 -0.8388  1.4467
 9454SOL     OW39994   4.262   0.122   3.848  0.5721 -0.1963  1.1120
 9454SOL    HW139995   4.169   0.140   3.834  0.6240 -1.5195 -0.8785
 9454SOL    HW239996   4.300   0.109   3.761 -1.6019 -0.5444  0.2235
 9455SOL     OW39997   2.288   0.647   8.811 -0.1798 -0.4897  0.1043
 9455SOL    HW139998   2.222   0.706   8.848 -0.0958  0.2920 -0.9973
 9455SOL    HW239999   2.329   0.705   8.748 -0.4068  2.0034  2.2520
 9456SOL     OW40000   3.080   3.559  16.323 -0.2165 -0.1609 -0.0160
 9456SOL    HW140001   3.001   3.556  16.270  0.3706  0.6054 -0.9314
 9456SOL    HW240002   3.048   3.598  16.405  0.5654 -2.2187  1.2817
 9457SOL     OW40003   4.382   0.909   4.711  0.2216 -0.3193 -0.0933
 9457SOL    HW140004   4.339   0.917   4.626  0.2277 -0.9573 -0.1573
 9457SOL    HW240005   4.472   0.933   4.689  0.3327  0.2564  1.0039
 9458SOL     OW40006   2.305   0.667   6.743 -0.7167  0.2477 -0.2297
 9458SOL    HW140007   2.302   0.665   6.839  0.4996  1.7630 -0.1664
 9458SOL    HW240008   2.314   0.573   6.728  1.6600  0.4141  0.1011
 9459SOL     OW40009   1.056   1.121   4.306 -0.3198  0.0432  0.2895
 9459SOL    HW140010   0.975   1.170   4.296  1.5695  3.3389  1.0870
 9459SOL    HW240011   1.021   1.033   4.292  2.6353 -1.4793  2.2096
 9460SOL     OW40012   0.328   4.204   2.655  0.3216 -0.5365 -0.4339
 9460SOL    HW140013   0.391   4.134   2.666  0.0785 -0.8734 -1.1666
 9460SOL    HW240014   0.339   4.225   2.562 -0.1924 -0.6137 -0.5164
 9461SOL     OW40015   1.096   2.016  17.411 -0.0404  0.1531 -0.4300
 9461SOL    HW140016   1.110   2.041  17.320  1.2044 -0.8342 -0.5175
 9461SOL    HW240017   1.001   2.026  17.418  0.0769  0.6173  0.5689
 9462SOL     OW40018   2.764   0.645   4.919 -0.1746 -0.2881  0.2095
 9462SOL    HW140019   2.853   0.612   4.927  0.6072  1.0310 -2.9021
 9462SOL    HW240020   2.720   0.590   4.983  0.6963 -1.8666 -0.5397
 9463SOL     OW40021   3.875   0.688   9.347 -0.5071  0.2676  0.2069
 9463SOL    HW140022   3.803   0.626   9.352 -0.5796  0.1973 -1.6752
 9463SOL    HW240023   3.845   0.767   9.303 -2.1273  0.9972  2.6169
 9464SOL     OW40024   4.461   0.960   9.279 -0.0212 -0.0219 -0.0130
 9464SOL    HW140025   4.520   1.033   9.293 -2.4118  1.7989  0.5654
 9464SOL    HW240026   4.373   0.998   9.275  0.9159  2.0635 -0.9810
 9465SOL     OW40027   2.613   2.471   4.377  0.3424  0.3424  0.4692
 9465SOL    HW140028   2.631   2.452   4.285  1.3500  0.6949  0.5934
 9465SOL    HW240029   2.698   2.497   4.412  0.8898 -4.0122  2.4316
 9466SOL     OW40030   4.468   2.620   7.653  0.0365 -0.9527 -0.1517
 9466SOL    HW140031   4.425   2.632   7.569  2.1642  0.4232 -1.0793
 9466SOL    HW240032   4.392   2.612   7.710  0.6019  0.5928  0.8499
 9467SOL     OW40033   3.695   1.485   6.710 -0.1086  0.0028  0.5463
 9467SOL    HW140034   3.764   1.497   6.646  0.1993  0.1657  0.9091
 9467SOL    HW240035   3.734   1.426   6.774 -1.4102 -2.0086 -0.5256
 9468SOL     OW40036   3.712   1.342  14.172  0.2476 -0.0019  0.0089
 9468SOL    HW140037   3.709   1.378  14.083  2.5658 -1.5694 -0.6840
 9468SOL    HW240038   3.789   1.384  14.210 -2.1270  2.9970  1.5456
 9469SOL     OW40039   4.639   2.315   7.336 -0.1207 -0.4873 -0.4686
 9469SOL    HW140040   4.725   2.301   7.296  0.8493 -0.8730  1.7714
 9469SOL    HW240041   4.644   2.267   7.419 -0.2632  2.0795  1.0404
 9470SOL     OW40042   2.551   0.714  15.267  0.1473 -0.2766  0.0918
 9470SOL    HW140043   2.469   0.741  15.225 -0.4065 -2.9061 -0.5084
 9470SOL    HW240044   2.608   0.786  15.241  0.9736 -0.8056  0.4437
 9471SOL     OW40045   0.343   1.547   5.514  0.2813  0.3535  0.1380
 9471SOL    HW140046   0.323   1.640   5.508  0.5707  0.3125 -1.4341
 9471SOL    HW240047   0.409   1.560   5.582  0.5776  1.0383 -0.2895
 9472SOL     OW40048   2.058   3.281   6.949 -0.5727 -0.5955 -0.0916
 9472SOL    HW140049   2.110   3.311   7.023  0.6731  0.6090 -1.4489
 9472SOL    HW240050   1.972   3.318   6.967 -1.7135 -3.2786 -0.1108
 9473SOL     OW40051   4.072   2.139   7.011 -0.0500  0.3360 -0.4204
 9473SOL    HW140052   4.132   2.213   7.012 -1.3744  1.4409 -2.6956
 9473SOL    HW240053   3.996   2.174   6.964 -1.4448 -1.7474  0.2596
 9474SOL     OW40054   2.750   0.420   3.459 -0.0351  0.3627 -0.0879
 9474SOL    HW140055   2.675   0.478   3.473 -3.1707 -3.4938 -0.5519
 9474SOL    HW240056   2.771   0.430   3.366  1.7988 -0.2905  0.2703
 9475SOL     OW40057   0.448   3.271  17.452  0.1701 -0.2938  0.1534
 9475SOL    HW140058   0.523   3.278  17.394  1.8524 -1.3038  2.1804
 9475SOL    HW240059   0.372   3.283  17.395  0.5964 -1.4851 -0.6652
 9476SOL     OW40060   2.699   4.537  12.852  0.2609  0.0798 -0.4760
 9476SOL    HW140061   2.761   4.469  12.878 -2.0046 -1.8038 -0.0504
 9476SOL    HW240062   2.662   4.502  12.771  2.4102  1.3734 -2.0297
 9477SOL     OW40063   0.877   0.469   8.236  0.4046  0.0010 -0.4430
 9477SOL    HW140064   0.877   0.390   8.289 -0.5087  0.8153  0.7847
 9477SOL    HW240065   0.947   0.521   8.277  0.8972 -0.5103 -0.6388
 9478SOL     OW40066   2.931   3.114  11.160  0.7780 -0.1165 -0.5478
 9478SOL    HW140067   2.970   3.198  11.135  2.5699 -0.8546 -0.2332
 9478SOL    HW240068   2.941   3.111  11.255 -0.0082  0.6327 -0.4397
 9479SOL     OW40069   0.892   3.792   4.712  0.0643 -0.0797  0.0641
 9479SOL    HW140070   0.902   3.880   4.677  1.2670  0.0216  0.6505
 9479SOL    HW240071   0.938   3.794   4.796  0.5368  0.3326 -0.2076
 9480SOL     OW40072   2.464   3.378   1.651 -0.4188  0.1760 -0.5199
 9480SOL    HW140073   2.392   3.326   1.686 -0.1583  0.2221  0.0857
 9480SOL    HW240074   2.433   3.456   1.697  0.3643  1.7776 -2.7340
 9481SOL     OW40075   0.997   0.576  13.615  0.5331 -0.0402  0.0760
 9481SOL    HW140076   0.917   0.526  13.630 -1.3190  2.6572 -0.7462
 9481SOL    HW240077   1.024   0.536  13.533  1.0771 -0.2323  0.3529
 9482SOL     OW40078   1.293   0.649  17.343  0.5710 -0.1337  0.0342
 9482SOL    HW140079   1.356   0.699  17.395  2.8284 -0.7986 -2.0252
 9482SOL    HW240080   1.333   0.646  17.256  2.2112 -0.2758  0.7854
 9483SOL     OW40081   0.875   1.945   6.244  0.3540  0.0524 -0.5978
 9483SOL    HW140082   0.905   1.864   6.203  0.4587 -0.1893 -0.0483
 9483SOL    HW240083   0.936   1.958   6.317 -1.4122  4.9417 -0.0311
 9484SOL     OW40084   1.500   2.804   8.303 -0.2956 -0.3276 -0.2888
 9484SOL    HW140085   1.534   2.887   8.336  1.8818 -0.3260 -2.5276
 9484SOL    HW240086   1.473   2.820   8.213 -0.1283 -1.4254 -0.5420
 9485SOL     OW40087   1.868   1.841   2.934  0.0396 -0.1605  0.0326
 9485SOL    HW140088   1.880   1.785   2.858 -0.5297 -0.1150 -0.0946
 9485SOL    HW240089   1.949   1.842   2.985 -0.6949 -0.0946  1.2157
 9486SOL     OW40090   2.814   0.755  15.446  0.0913 -0.1676  0.4398
 9486SOL    HW140091   2.886   0.793  15.396  0.3209 -0.0930  0.8270
 9486SOL    HW240092   2.856   0.754  15.532 -0.3106  0.4626  0.6371
 9487SOL     OW40093   4.602   1.308   2.786  0.1063  0.5651  0.6696
 9487SOL    HW140094   4.685   1.278   2.749 -0.5178  1.5176 -1.5007
 9487SOL    HW240095   4.618   1.402   2.799  0.4090  0.8922 -1.9672
 9488SOL     OW40096   0.955   3.185   6.958 -0.1009  0.1164  0.4797
 9488SOL    HW140097   0.918   3.233   6.884 -1.4255 -2.0106 -0.2445
 9488SOL    HW240098   1.046   3.201   6.934 -1.3224  1.3258 -3.2374
 9489SOL     OW40099   2.180   1.434   1.028 -0.4370  0.5321 -0.3933
 9489SOL    HW140100   2.178   1.408   0.936 -2.5600  1.7463 -0.7090
 9489SOL    HW240101   2.085   1.435   1.041 -0.3081 -0.1963  0.5918
 9490SOL     OW40102   4.379   4.306  17.034  0.0095 -0.5599 -0.4287
 9490SOL    HW140103   4.463   4.347  17.016  0.5428 -1.2862  0.3968
 9490SOL    HW240104   4.363   4.265  16.950  0.0210 -0.9478 -0.2403
 9491SOL     OW40105   4.276   1.534  13.555 -0.2204 -0.4648 -0.4590
 9491SOL    HW140106   4.270   1.472  13.627 -0.6715 -1.1662 -1.0862
 9491SOL    HW240107   4.255   1.479  13.479  1.2409 -1.1287 -0.3771
 9492SOL     OW40108   0.552   3.866   4.296 -0.6188  0.7813 -0.2279
 9492SOL    HW140109   0.638   3.830   4.317 -2.1456 -2.9452 -0.4064
 9492SOL    HW240110   0.533   3.822   4.213 -3.3268  1.4776  0.0180
 9493SOL     OW40111   4.708   1.479  17.123 -0.1933  0.4340 -0.1722
 9493SOL    HW140112   4.732   1.470  17.031  0.1606 -1.2551  0.0930
 9493SOL    HW240113   4.614   1.463  17.134  0.1718 -2.5093 -1.4965
 9494SOL     OW40114   2.217   3.347   2.635  0.2361 -0.0728 -0.2977
 9494SOL    HW140115   2.181   3.435   2.647  1.2322  0.2300  0.4238
 9494SOL    HW240116   2.224   3.335   2.540  0.8876 -0.6164 -0.1784
 9495SOL     OW40117   3.886   3.461   5.168  0.1808  0.4192  0.7984
 9495SOL    HW140118   3.843   3.421   5.243  0.0398  0.8022  0.9187
 9495SOL    HW240119   3.849   3.549   5.167 -0.2747  0.2294  1.0195
 9496SOL     OW40120   2.702   1.019   3.543 -0.0865  0.2130  0.6212
 9496SOL    HW140121   2.751   1.031   3.462  0.3345  0.8323  0.9733
 9496SOL    HW240122   2.676   0.927   3.548 -1.3027  0.5233 -0.0108
 9497SOL     OW40123   1.133   1.634   1.347 -0.3809 -0.1516  0.4518
 9497SOL    HW140124   1.196   1.696   1.383 -1.5010 -0.2730  2.6264
 9497SOL    HW240125   1.191   1.574   1.301 -1.9458 -0.3373 -1.2963
 9498SOL     OW40126   2.178   1.691   1.879  0.2943 -0.5761 -0.3384
 9498SOL    HW140127   2.267   1.680   1.912  0.9194 -1.0525 -2.1896
 9498SOL    HW240128   2.131   1.660   1.957 -0.0326  1.0067  0.0959
 9499SOL     OW40129   2.845   1.679   7.369 -0.9237 -0.2365 -0.2407
 9499SOL    HW140130   2.810   1.753   7.320 -0.6846  0.3039  0.4087
 9499SOL    HW240131   2.781   1.660   7.438  1.3878  0.6084  2.1669
 9500SOL     OW40132   2.404   2.939   3.929 -0.3339 -0.0430 -0.4347
 9500SOL    HW140133   2.383   3.031   3.940 -0.2931 -0.1053  0.2168
 9500SOL    HW240134   2.374   2.899   4.012 -1.3857 -0.4293 -1.0031
 9501SOL     OW40135   4.479   2.980   7.113  0.5914 -0.1277 -0.0650
 9501SOL    HW140136   4.555   3.017   7.068 -0.4260  1.3552 -0.5267
 9501SOL    HW240137   4.533   2.912   7.154  0.1534 -0.4352  0.0039
 9502SOL     OW40138   1.703   0.035   5.852  0.3913 -0.4190 -0.9188
 9502SOL    HW140139   1.631   0.003   5.798 -0.7505  0.2711  0.2119
 9502SOL    HW240140   1.764   0.002   5.785  0.0884 -2.2555 -0.2864
 9503SOL     OW40141   4.695   4.250   7.833 -0.1519  0.3940 -0.1946
 9503SOL    HW140142   4.607   4.278   7.857 -0.4935  0.5409 -1.6021
 9503SOL    HW240143   4.704   4.213   7.920 -1.1251  0.2185 -0.1658
 9504SOL     OW40144   4.387   2.164   2.788 -0.1612 -0.0980  0.5053
 9504SOL    HW140145   4.456   2.105   2.757 -0.9650 -0.3816 -0.7337
 9504SOL    HW240146   4.436   2.224   2.845 -1.4026 -1.7780  3.3494
 9505SOL     OW40147   1.018   3.174   9.776  0.4269 -0.0148 -0.3267
 9505SOL    HW140148   1.064   3.128   9.705 -0.7864  1.1462 -1.8643
 9505SOL    HW240149   0.958   3.225   9.721  1.2927  0.3389 -0.9370
 9506SOL     OW40150   1.937   4.016   8.348 -0.7947  0.1136 -0.2406
 9506SOL    HW140151   1.872   3.971   8.294 -0.0278  1.9762 -2.7659
 9506SOL    HW240152   1.995   4.028   8.272  2.2379 -0.3867  2.0000
 9507SOL     OW40153   2.699   1.709  14.175 -0.2764  0.1689 -0.0574
 9507SOL    HW140154   2.640   1.634  14.165 -2.2027  1.8802 -1.7014
 9507SOL    HW240155   2.636   1.781  14.164 -1.4585 -0.6478  1.3536
 9508SOL     OW40156   3.225   3.315   1.147 -0.2010  0.1749 -0.1606
 9508SOL    HW140157   3.131   3.309   1.165 -0.2286  0.3913 -0.2358
 9508SOL    HW240158   3.231   3.292   1.054  1.1884 -1.9192  0.4341
 9509SOL     OW40159   0.285   4.507  14.222  0.2214  0.1025  0.4167
 9509SOL    HW140160   0.350   4.499  14.152  0.1862  2.3024  0.1439
 9509SOL    HW240161   0.215   4.549  14.173 -0.4652 -1.2700  0.2417
 9510SOL     OW40162   3.172   1.208   8.268  0.3617 -0.3856  0.1610
 9510SOL    HW140163   3.173   1.193   8.173 -4.8960  0.5058 -0.0519
 9510SOL    HW240164   3.155   1.119   8.300 -0.7739  0.1164  0.9587
 9511SOL     OW40165   2.959   4.663   2.217 -0.5456  0.0491 -0.4207
 9511SOL    HW140166   3.000   4.717   2.285 -0.4210  1.7525 -1.8519
 9511SOL    HW240167   2.993   4.719   2.147  0.3319 -1.0474 -0.8791
 9512SOL     OW40168   3.842   3.248   3.918 -0.4773 -0.3416  0.2956
 9512SOL    HW140169   3.922   3.236   3.969  0.2963  2.3170 -0.2381
 9512SOL    HW240170   3.881   3.262   3.831  2.3756 -1.4320  1.4142
 9513SOL     OW40171   4.455   0.250   9.197  0.3597 -0.2559  0.1160
 9513SOL    HW140172   4.457   0.238   9.102  0.2113 -1.0670  0.2142
 9513SOL    HW240173   4.457   0.161   9.233 -2.2652 -0.0892  0.6945
 9514SOL     OW40174   4.120   1.873   2.709 -0.4519 -0.2672 -0.1915
 9514SOL    HW140175   4.026   1.878   2.726 -0.2470 -0.6934  1.0975
 9514SOL    HW240176   4.157   1.934   2.773 -2.3813 -0.1377  0.7816
 9515SOL     OW40177   1.442   1.861   5.539  0.7121 -0.1558  0.3206
 9515SOL    HW140178   1.521   1.837   5.587 -0.0511 -2.0971  0.6278
 9515SOL    HW240179   1.469   1.860   5.447  0.5820 -0.8627  0.2867
 9516SOL     OW40180   2.007   3.144  15.214 -0.1126  0.0160 -0.1123
 9516SOL    HW140181   1.926   3.186  15.245  1.5309  0.7564  3.2308
 9516SOL    HW240182   2.022   3.189  15.131  1.3279  0.3625  0.3422
 9517SOL     OW40183   0.685   2.440   2.630 -0.2820 -0.1013 -0.3209
 9517SOL    HW140184   0.597   2.413   2.659  0.3123  0.1498  1.7716
 9517SOL    HW240185   0.725   2.482   2.706  0.2118  1.1824 -1.2977
 9518SOL     OW40186   3.903   2.345   3.028  0.2089 -0.1108 -0.0305
 9518SOL    HW140187   3.991   2.345   2.991  0.0756 -1.1040 -0.3338
 9518SOL    HW240188   3.856   2.269   2.994  0.3473 -1.2868  2.3924
 9519SOL     OW40189   3.828   0.746  17.386 -0.7454 -0.1085 -0.1225
 9519SOL    HW140190   3.835   0.734  17.292 -1.4194  0.5319 -0.2464
 9519SOL    HW240191   3.855   0.838  17.391  0.6722 -0.5603  0.5967
 9520SOL     OW40192   2.254   4.570   2.565  0.2901  0.2637  1.3720
 9520SOL    HW140193   2.275   4.596   2.476 -1.3753  0.6186  1.0902
 9520SOL    HW240194   2.163   4.598   2.573 -0.9076 -2.6659 -1.9803
 9521SOL     OW40195   3.310   3.657   3.247  0.1029  0.3272  0.3469
 9521SOL    HW140196   3.262   3.723   3.297 -0.1539  1.4478 -1.3906
 9521SOL    HW240197   3.279   3.670   3.158 -2.1731  2.3059  1.4477
 9522SOL     OW40198   1.610   0.379   9.345  0.2073 -0.0367 -0.7364
 9522SOL    HW140199   1.546   0.440   9.308 -0.5084 -0.6603 -0.5189
 9522SOL    HW240200   1.603   0.307   9.282 -0.2414 -0.0196 -0.7080
 9523SOL     OW40201   4.456   2.865   7.782  0.1169 -0.3974 -0.6376
 9523SOL    HW140202   4.421   2.798   7.723 -0.4574 -1.2357  0.6588
 9523SOL    HW240203   4.467   2.817   7.864 -1.7662  2.3285  1.2218
 9524SOL     OW40204   3.799   0.895   1.750 -0.1725  0.6944  0.0614
 9524SOL    HW140205   3.814   0.924   1.840  2.1068 -0.4494  0.0688
 9524SOL    HW240206   3.722   0.949   1.735 -0.6758 -0.4607 -1.5325
 9525SOL     OW40207   1.448   3.577   3.060 -0.1643 -0.1986  0.3558
 9525SOL    HW140208   1.434   3.483   3.043  1.3801 -0.9740  3.3956
 9525SOL    HW240209   1.360   3.608   3.083 -0.7764 -0.6525 -1.4026
 9526SOL     OW40210   3.155   2.080   6.600 -0.2180 -0.7118 -0.2622
 9526SOL    HW140211   3.130   2.067   6.692 -0.2233  1.7618  0.0968
 9526SOL    HW240212   3.172   2.174   6.599 -3.7609 -0.0331  3.0376
 9527SOL     OW40213   4.291   2.043   5.745 -0.1165  0.2296 -0.0646
 9527SOL    HW140214   4.359   2.000   5.797 -0.2240  1.9599  1.4888
 9527SOL    HW240215   4.231   1.970   5.727 -1.3903  1.4545 -0.7928
 9528SOL     OW40216   0.001   0.569  16.900 -0.1988 -0.1002  0.3194
 9528SOL    HW140217   4.716   0.535  16.812 -0.2455 -0.6448  0.5441
 9528SOL    HW240218   4.722   0.490  16.951 -0.1930 -0.3541 -0.0739
 9529SOL     OW40219   3.721   2.392   8.673  0.0955 -0.2320 -0.2620
 9529SOL    HW140220   3.808   2.359   8.650  0.5907  0.4936  0.5790
 9529SOL    HW240221   3.746   2.439   8.753  1.1258 -0.9703 -0.1579
 9530SOL     OW40222   2.574   4.699   6.336  0.4379 -0.1505 -0.3626
 9530SOL    HW140223   2.628   0.038   6.362 -0.0921 -0.4838  1.6826
 9530SOL    HW240224   2.644   4.647   6.297 -0.1775 -1.3707  0.1553
 9531SOL     OW40225   1.677   4.578   1.716  0.1679 -0.1307 -0.1677
 9531SOL    HW140226   1.672   4.616   1.628  0.6035  0.1109 -0.0900
 9531SOL    HW240227   1.585   4.586   1.742  0.3721 -2.9148  1.4450
 9532SOL     OW40228   4.356   0.243   5.646  0.1873 -0.3595 -0.1380
 9532SOL    HW140229   4.404   0.234   5.564 -1.2990 -0.0560 -1.0298
 9532SOL    HW240230   4.278   0.189   5.630 -1.8597  2.1165  1.5330
 9533SOL     OW40231   2.307   2.580   2.379 -0.5545  0.5122 -0.1635
 9533SOL    HW140232   2.292   2.576   2.284  2.2160 -1.4798 -0.5399
 9533SOL    HW240233   2.269   2.664   2.401 -1.5307  0.0811 -0.2157
 9534SOL     OW40234   1.691   2.673   4.328 -0.8001 -0.0419  0.6567
 9534SOL    HW140235   1.735   2.638   4.406 -1.7938 -0.6822  0.9295
 9534SOL    HW240236   1.698   2.592   4.278 -0.5954 -0.7357  1.8110
 9535SOL     OW40237   0.779   0.345  14.358  0.5086 -0.1166 -0.1159
 9535SOL    HW140238   0.733   0.261  14.349 -2.0258  1.1069  1.4039
 9535SOL    HW240239   0.849   0.330  14.421  1.6904 -0.0178 -1.4053
 9536SOL     OW40240   3.775   3.984   5.430 -0.6044  0.1395 -0.4429
 9536SOL    HW140241   3.728   4.062   5.401 -1.4928  0.0247  0.7084
 9536SOL    HW240242   3.700   3.929   5.454 -1.5927  1.7784  0.2239
 9537SOL     OW40243   3.568   3.097   1.801 -0.0559 -0.1302 -0.3896
 9537SOL    HW140244   3.585   3.137   1.886  0.7437 -1.0500 -0.1016
 9537SOL    HW240245   3.581   3.171   1.742  0.8296  1.4252  1.7580
 9538SOL     OW40246   1.930   3.755   9.450 -0.4097  0.1093  0.3910
 9538SOL    HW140247   1.929   3.835   9.502  0.4377  0.2569  0.1817
 9538SOL    HW240248   2.019   3.726   9.470 -0.0163  0.2878 -1.1184
 9539SOL     OW40249   1.023   1.455   0.473  0.2695 -0.3175  0.1228
 9539SOL    HW140250   0.986   1.374   0.436 -0.0156  1.2776 -3.0813
 9539SOL    HW240251   1.059   1.424   0.556 -0.2085 -0.7805  0.1580
 9540SOL     OW40252   3.831   1.803   4.384 -0.4612  0.5506 -0.4927
 9540SOL    HW140253   3.755   1.862   4.387  0.1049  1.2984 -0.6790
 9540SOL    HW240254   3.888   1.858   4.438 -0.4504 -1.1972  1.2527
 9541SOL     OW40255   3.485   3.700   4.779  0.3565  0.3695  0.1526
 9541SOL    HW140256   3.573   3.736   4.792 -0.3805  2.9298 -1.8896
 9541SOL    HW240257   3.453   3.739   4.697 -0.1540  0.0548  0.2057
 9542SOL     OW40258   0.981   0.128   4.080 -0.1990  0.4753  0.3202
 9542SOL    HW140259   0.988   0.069   4.005 -0.7369  0.1141  0.5555
 9542SOL    HW240260   0.980   0.066   4.153  2.5006  1.2475  0.9974
 9543SOL     OW40261   2.651   1.878   8.202  0.1312  0.2425 -0.2023
 9543SOL    HW140262   2.656   1.829   8.284 -1.2244 -2.1124 -1.5018
 9543SOL    HW240263   2.733   1.926   8.204 -0.7456  1.7597 -0.9039
 9544SOL     OW40264   3.076   3.128  11.426 -0.5718 -0.4108 -0.3007
 9544SOL    HW140265   3.171   3.123  11.423 -0.6527 -0.1392 -2.8923
 9544SOL    HW240266   3.056   3.220  11.445 -0.6059 -0.5772  0.4790
 9545SOL     OW40267   0.080   3.042   6.010  0.6165 -0.0116 -0.3658
 9545SOL    HW140268   0.134   3.118   6.033 -1.3338  1.3258 -0.1796
 9545SOL    HW240269   0.078   3.043   5.914 -2.0067  2.6141 -0.2911
 9546SOL     OW40270   2.780   1.897   1.740  0.1607  0.4805  0.5379
 9546SOL    HW140271   2.756   1.940   1.658  0.9044  0.6418  0.3976
 9546SOL    HW240272   2.871   1.874   1.721 -0.2636 -0.0773 -0.8538
 9547SOL     OW40273   3.171   0.126   7.528 -0.1101  0.2847 -0.0667
 9547SOL    HW140274   3.142   0.112   7.618 -3.8703  1.0280 -1.1672
 9547SOL    HW240275   3.140   0.052   7.476  2.2056 -0.4665 -0.3958
 9548SOL     OW40276   4.215   1.175   2.348 -0.6520  0.1053  0.5076
 9548SOL    HW140277   4.161   1.164   2.270 -0.3814  1.5008  0.1362
 9548SOL    HW240278   4.297   1.129   2.330 -0.8164  0.5198 -1.2797
 9549SOL     OW40279   4.180   4.029   3.412 -0.1546  0.4914 -0.0488
 9549SOL    HW140280   4.131   3.950   3.386  1.1823  0.1464 -1.5265
 9549SOL    HW240281   4.149   4.099   3.354  1.6415  1.0793 -0.2981
 9550SOL     OW40282   4.100   1.382  16.957  0.1198  0.2036  0.5871
 9550SOL    HW140283   4.063   1.469  16.943 -2.4704 -0.8546  0.9236
 9550SOL    HW240284   4.150   1.376  16.875  1.3933 -0.5096  1.4235
 9551SOL     OW40285   4.624   0.517   9.567 -0.0532 -0.2040 -0.3895
 9551SOL    HW140286   4.612   0.525   9.662  1.7314  1.1802 -0.2966
 9551SOL    HW240287   4.715   0.539   9.549  0.7991 -1.0254  2.9276
 9552SOL     OW40288   1.008   3.163   5.829 -0.0138 -0.2087 -0.5138
 9552SOL    HW140289   0.929   3.110   5.820 -1.0613  1.0589  1.3704
 9552SOL    HW240290   0.976   3.247   5.860  0.8994 -0.2768  0.6191
 9553SOL     OW40291   3.995   3.867   5.571  0.0577 -0.0291  0.2727
 9553SOL    HW140292   3.918   3.901   5.525 -1.2678 -2.0274  0.9832
 9553SOL    HW240293   3.951   3.853   5.656  0.4142  0.0608  0.4725
 9554SOL     OW40294   4.239   3.872   2.625 -0.4621  0.1809  0.6936
 9554SOL    HW140295   4.303   3.907   2.563  0.3708 -1.1254  0.8103
 9554SOL    HW240296   4.242   3.777   2.621 -0.8817  0.1962  0.0140
 9555SOL     OW40297   3.692   2.856   0.941 -0.2053  0.0553 -0.1742
 9555SOL    HW140298   3.712   2.866   0.848 -1.7805 -0.5646 -0.5686
 9555SOL    HW240299   3.638   2.935   0.940 -1.5645 -0.8680  0.8734
 9556SOL     OW40300   3.140   3.840   1.779 -0.0113  0.2128 -0.2118
 9556SOL    HW140301   3.071   3.907   1.777 -0.2561 -0.0077  1.2361
 9556SOL    HW240302   3.151   3.818   1.686  1.2912  0.0288 -0.0102
 9557SOL     OW40303   0.635   4.549   5.101  0.0128  0.2230  0.0669
 9557SOL    HW140304   0.609   4.458   5.089 -3.6029  1.3207 -0.5021
 9557SOL    HW240305   0.598   4.584   5.020 -0.8552  0.5889  0.6211
 9558SOL     OW40306   1.985   1.358   4.868  0.0999 -0.6242 -0.1687
 9558SOL    HW140307   1.946   1.441   4.897  1.1617 -0.6500  1.3418
 9558SOL    HW240308   2.008   1.372   4.776 -0.7318  1.7005 -0.0202
 9559SOL     OW40309   3.298   0.199  12.638  0.1073 -0.4784  0.1730
 9559SOL    HW140310   3.380   0.247  12.636  0.4817 -1.0983  0.7607
 9559SOL    HW240311   3.278   0.205  12.544 -0.8712  1.3493  0.5090
 9560SOL     OW40312   3.381   1.575   7.510 -0.3474  0.5972  0.2287
 9560SOL    HW140313   3.423   1.591   7.595  1.8276 -2.5664 -0.2575
 9560SOL    HW240314   3.377   1.479   7.508  0.6936  0.5864 -1.2666
 9561SOL     OW40315   3.303   2.827  17.215  0.1703  0.5135 -0.3996
 9561SOL    HW140316   3.379   2.816  17.157 -1.4032 -0.2598 -2.2883
 9561SOL    HW240317   3.305   2.922  17.227 -1.2230  0.1799  2.2786
 9562SOL     OW40318   3.995   0.096   2.579  0.0378  0.3773  0.1344
 9562SOL    HW140319   3.911   0.131   2.548  1.2396  2.2847 -0.9525
 9562SOL    HW240320   4.043   0.179   2.582 -1.4028  1.4243 -5.3026
 9563SOL     OW40321   2.102   3.355   7.962 -0.0741  0.0720  0.4265
 9563SOL    HW140322   2.179   3.300   7.974 -0.2900 -0.2505  0.3153
 9563SOL    HW240323   2.138   3.419   7.901 -0.8771 -1.7040 -1.8720
 9564SOL     OW40324   2.371   4.336   8.490  0.7024  0.4582  0.6408
 9564SOL    HW140325   2.358   4.301   8.402 -1.9991  1.1657  0.7498
 9564SOL    HW240326   2.295   4.287   8.523  1.4291 -0.3729  1.0820
 9565SOL     OW40327   3.791   0.221   4.215  0.1522 -0.0571  0.4093
 9565SOL    HW140328   3.717   0.263   4.260 -1.9508 -3.7658  0.4292
 9565SOL    HW240329   3.838   0.292   4.171  1.6684 -0.0148  2.1284
 9566SOL     OW40330   2.008   1.659   5.405 -0.0042 -0.4350 -0.0417
 9566SOL    HW140331   2.048   1.591   5.351 -0.1106 -0.8722  0.4299
 9566SOL    HW240332   1.996   1.612   5.487 -1.9891 -2.0352 -1.2668
 9567SOL     OW40333   0.301   4.435   6.327 -0.0508 -0.0291 -0.3022
 9567SOL    HW140334   0.278   4.477   6.244 -1.9231 -1.6695 -0.6384
 9567SOL    HW240335   0.225   4.442   6.386  0.2444 -0.5875  0.1505
 9568SOL     OW40336   1.816   0.543   5.776  0.6480  0.3470  0.3323
 9568SOL    HW140337   1.808   0.523   5.683  1.0437  0.6991  0.2234
 9568SOL    HW240338   1.792   0.458   5.812  1.8906 -0.2132 -0.1718
 9569SOL     OW40339   2.718   1.082   0.160  0.4142  0.2193  0.3426
 9569SOL    HW140340   2.791   1.144   0.159 -0.6508  1.4518 -1.0345
 9569SOL    HW240341   2.708   1.050   0.250 -0.0077  2.5902  1.1502
 9570SOL     OW40342   4.021   4.311   7.531  0.1408 -0.3173 -0.2313
 9570SOL    HW140343   3.949   4.273   7.581  0.4717 -0.9865 -0.2596
 9570SOL    HW240344   4.022   4.250   7.457 -2.2276 -0.8990  0.2419
 9571SOL     OW40345   3.003   1.113   9.230 -0.0211 -0.4545 -0.0982
 9571SOL    HW140346   3.020   1.181   9.295 -0.5493 -0.5157  0.0991
 9571SOL    HW240347   3.056   1.148   9.158  1.6586 -2.8670 -0.0325
   4.73513   4.73513  17.73935
